Title t= 493.00000 step= 246500
44469
    1GLY      N    1   6.253   5.747   3.932
    1GLY    HT1    2   6.205   5.797   3.854
    1GLY    HT2    3   6.313   5.820   3.974
    1GLY    HT3    4   6.182   5.721   4.004
    1GLY     CA    5   6.328   5.629   3.880
    1GLY    HA1    6   6.342   5.559   3.961
    1GLY    HA2    7   6.425   5.665   3.848
    1GLY      C    8   6.268   5.550   3.764
    1GLY      O    9   6.150   5.514   3.789
    2PRO      N   10   6.324   5.521   3.651
    2PRO     CD   11   6.469   5.499   3.634
    2PRO    HD1   12   6.487   5.393   3.659
    2PRO    HD2   13   6.533   5.569   3.691
    2PRO     CA   14   6.254   5.488   3.526
    2PRO     HA   15   6.197   5.572   3.489
    2PRO     CB   16   6.371   5.465   3.426
    2PRO    HB1   17   6.343   5.501   3.324
    2PRO    HB2   18   6.389   5.357   3.413
    2PRO     CG   19   6.492   5.528   3.493
    2PRO    HG1   20   6.586   5.477   3.461
    2PRO    HG2   21   6.504   5.634   3.460
    2PRO      C   22   6.165   5.362   3.524
    2PRO      O   23   6.082   5.354   3.431
    3GLY      N   24   6.195   5.259   3.605
    3GLY     HN   25   6.258   5.265   3.681
    3GLY     CA   26   6.136   5.127   3.608
    3GLY    HA1   27   6.214   5.056   3.632
    3GLY    HA2   28   6.092   5.107   3.512
    3GLY      C   29   6.034   5.119   3.722
    3GLY      O   30   5.956   5.016   3.735
    4ASN      N   31   6.025   5.223   3.811
    4ASN     HN   32   6.077   5.308   3.805
    4ASN     CA   33   5.931   5.215   3.926
    4ASN     HA   34   5.953   5.120   3.970
    4ASN     CB   35   5.963   5.333   4.026
    4ASN    HB1   36   5.885   5.343   4.104
    4ASN    HB2   37   5.971   5.426   3.965
    4ASN     CG   38   6.102   5.315   4.087
    4ASN    OD1   39   6.172   5.215   4.070
    4ASN    ND2   40   6.153   5.416   4.159
    4ASN   HD21   41   6.249   5.408   4.188
    4ASN   HD22   42   6.115   5.506   4.175
    4ASN      C   43   5.783   5.227   3.884
    4ASN      O   44   5.756   5.289   3.781
    5PRO      N   45   5.682   5.175   3.953
    5PRO     CD   46   5.702   5.068   4.053
    5PRO    HD1   47   5.752   5.119   4.139
    5PRO    HD2   48   5.770   4.988   4.018
    5PRO     CA   49   5.544   5.226   3.954
    5PRO     HA   50   5.493   5.186   3.867
    5PRO     CB   51   5.476   5.153   4.073
    5PRO    HB1   52   5.372   5.124   4.046
    5PRO    HB2   53   5.458   5.220   4.160
    5PRO     CG   54   5.563   5.027   4.089
    5PRO    HG1   55   5.550   4.988   4.192
    5PRO    HG2   56   5.527   4.952   4.015
    5PRO      C   57   5.521   5.372   3.946
    5PRO      O   58   5.602   5.449   4.001
    6GLY      N   59   5.417   5.420   3.870
    6GLY     HN   60   5.355   5.357   3.824
    6GLY     CA   61   5.384   5.561   3.841
    6GLY    HA1   62   5.300   5.556   3.775
    6GLY    HA2   63   5.477   5.595   3.797
    6GLY      C   64   5.357   5.657   3.954
    6GLY      O   65   5.346   5.615   4.071
    7PRO      N   66   5.341   5.788   3.924
    7PRO     CD   67   5.344   5.841   3.785
    7PRO    HD1   68   5.246   5.826   3.736
    7PRO    HD2   69   5.430   5.802   3.727
    7PRO     CA   70   5.356   5.895   4.022
    7PRO     HA   71   5.411   5.861   4.108
    7PRO     CB   72   5.421   6.004   3.935
    7PRO    HB1   73   5.528   5.982   3.915
    7PRO    HB2   74   5.408   6.106   3.978
    7PRO     CG   75   5.362   5.992   3.792
    7PRO    HG1   76   5.262   6.040   3.787
    7PRO    HG2   77   5.426   6.020   3.706
    7PRO      C   78   5.223   5.932   4.083
    7PRO      O   79   5.222   6.014   4.174
    8GLY      N   80   5.113   5.870   4.033
    8GLY     HN   81   5.116   5.801   3.961
    8GLY     CA   82   4.988   5.873   4.108
    8GLY    HA1   83   5.007   5.864   4.214
    8GLY    HA2   84   4.936   5.781   4.081
    8GLY      C   85   4.900   5.989   4.067
    8GLY      O   86   4.941   6.059   3.972
    9ASN      N   87   4.781   6.007   4.131
    9ASN     HN   88   4.763   5.946   4.207
    9ASN     CA   89   4.667   6.082   4.078
    9ASN     HA   90   4.666   6.057   3.973
    9ASN     CB   91   4.537   6.046   4.145
    9ASN    HB1   92   4.458   6.107   4.096
    9ASN    HB2   93   4.534   6.065   4.255
    9ASN     CG   94   4.506   5.898   4.129
    9ASN    OD1   95   4.525   5.835   4.026
    9ASN    ND2   96   4.467   5.826   4.236
    9ASN   HD21   97   4.437   5.732   4.216
    9ASN   HD22   98   4.445   5.871   4.322
    9ASN      C   99   4.684   6.238   4.101
    9ASN      O  100   4.739   6.280   4.206
   10PRO      N  101   4.638   6.330   4.016
   10PRO     CD  102   4.616   6.303   3.875
   10PRO    HD1  103   4.516   6.257   3.861
   10PRO    HD2  104   4.698   6.239   3.836
   10PRO     CA  105   4.618   6.474   4.040
   10PRO     HA  106   4.714   6.520   4.059
   10PRO     CB  107   4.559   6.530   3.917
   10PRO    HB1  108   4.597   6.632   3.896
   10PRO    HB2  109   4.448   6.521   3.923
   10PRO     CG  110   4.602   6.437   3.800
   10PRO    HG1  111   4.522   6.439   3.723
   10PRO    HG2  112   4.699   6.465   3.755
   10PRO      C  113   4.540   6.501   4.168
   10PRO      O  114   4.449   6.421   4.202
   11GLY      N  115   4.570   6.611   4.237
   11GLY     HN  116   4.629   6.684   4.204
   11GLY     CA  117   4.494   6.639   4.364
   11GLY    HA1  118   4.545   6.725   4.405
   11GLY    HA2  119   4.504   6.547   4.419
   11GLY      C  120   4.343   6.661   4.357
   11GLY      O  121   4.276   6.646   4.256
   12PRO      N  122   4.290   6.708   4.460
   12PRO     CD  123   4.350   6.721   4.588
   12PRO    HD1  124   4.442   6.781   4.573
   12PRO    HD2  125   4.377   6.627   4.641
   12PRO     CA  126   4.149   6.747   4.472
   12PRO     HA  127   4.086   6.673   4.424
   12PRO     CB  128   4.118   6.760   4.623
   12PRO    HB1  129   4.074   6.663   4.656
   12PRO    HB2  130   4.043   6.838   4.648
   12PRO     CG  131   4.252   6.799   4.674
   12PRO    HG1  132   4.268   6.907   4.656
   12PRO    HG2  133   4.276   6.787   4.782
   12PRO      C  134   4.110   6.863   4.390
   12PRO      O  135   3.995   6.865   4.344
   13GLY      N  136   4.207   6.958   4.368
   13GLY     HN  137   4.301   6.961   4.399
   13GLY     CA  138   4.171   7.081   4.299
   13GLY    HA1  139   4.124   7.060   4.204
   13GLY    HA2  140   4.255   7.146   4.281
   13GLY      C  141   4.075   7.174   4.371
   13GLY      O  142   4.050   7.150   4.489
   14ASN      N  143   4.026   7.280   4.307
   14ASN     HN  144   4.066   7.313   4.222
   14ASN     CA  145   3.939   7.381   4.363
   14ASN     HA  146   3.916   7.364   4.467
   14ASN     CB  147   4.009   7.519   4.368
   14ASN    HB1  148   3.936   7.598   4.396
   14ASN    HB2  149   4.047   7.533   4.264
   14ASN     CG  150   4.125   7.522   4.474
   14ASN    OD1  151   4.240   7.539   4.438
   14ASN    ND2  152   4.091   7.508   4.605
   14ASN   HD21  153   4.166   7.522   4.670
   14ASN   HD22  154   3.996   7.529   4.626
   14ASN      C  155   3.804   7.385   4.291
   14ASN      O  156   3.777   7.480   4.214
   15PRO      N  157   3.717   7.284   4.303
   15PRO     CD  158   3.740   7.162   4.378
   15PRO    HD1  159   3.806   7.181   4.465
   15PRO    HD2  160   3.786   7.092   4.305
   15PRO     CA  161   3.580   7.288   4.247
   15PRO     HA  162   3.580   7.326   4.145
   15PRO     CB  163   3.537   7.140   4.272
   15PRO    HB1  164   3.579   7.085   4.185
   15PRO    HB2  165   3.427   7.132   4.277
   15PRO     CG  166   3.599   7.099   4.400
   15PRO    HG1  167   3.549   7.143   4.489
   15PRO    HG2  168   3.619   6.990   4.404
   15PRO      C  169   3.494   7.381   4.329
   15PRO    OT1  170   3.405   7.448   4.271
   15PRO    OT2  171   3.519   7.394   4.450
   16LIT    LIT  172   1.806   6.471   3.845
   17LIT    LIT  173   4.353   1.992   0.772
   18LIT    LIT  174   6.069   4.034   6.612
   19LIT    LIT  175   1.190   6.127   4.564
   20LIT    LIT  176   3.798   1.962   5.146
   21LIT    LIT  177   1.883   6.227   6.631
   22LIT    LIT  178   5.325   7.029   3.536
   23LIT    LIT  179   3.691   1.284   5.608
   24LIT    LIT  180   3.806   6.051   0.747
   25LIT    LIT  181   6.065   6.205   5.148
   26LIT    LIT  182   4.237   6.509   3.196
   27LIT    LIT  183   1.288   1.066   1.833
   28LIT    LIT  184   2.014   2.689   5.549
   29LIT    LIT  185   7.518   0.373   1.157
   30LIT    LIT  186   6.429   2.409   6.144
   31LIT    LIT  187   0.382   1.859   0.994
   32LIT    LIT  188   5.231   1.447   2.098
   33LIT    LIT  189   0.709   5.231   4.731
   34LIT    LIT  190   7.926   1.775   2.036
   35LIT    LIT  191   6.673   5.998   5.093
   36LIT    LIT  192   5.763   3.816   0.545
   37LIT    LIT  193   5.097   5.673   0.181
   38LIT    LIT  194   2.235   1.208   3.343
   39LIT    LIT  195   3.485   5.386   6.598
   40LIT    LIT  196   5.452   0.780   6.321
   41LIT    LIT  197   1.047   6.636   5.310
   42LIT    LIT  198   0.265   2.433   3.457
   43LIT    LIT  199   2.796   7.614   4.739
   44LIT    LIT  200   3.960   3.946   4.415
   45LIT    LIT  201   3.885   2.716   5.657
   46LIT    LIT  202   5.712   4.939   6.226
   47LIT    LIT  203   6.276   4.032   3.878
   48LIT    LIT  204   0.305   7.128   6.365
   49LIT    LIT  205   0.853   3.285   3.007
   50LIT    LIT  206   2.063   4.768   0.932
   51LIT    LIT  207   4.728   1.906   2.626
   52LIT    LIT  208   4.862   3.277   1.455
   53LIT    LIT  209   5.202   2.930   6.486
   54LIT    LIT  210   3.984   7.362   3.427
   55LIT    LIT  211   8.165   3.989   0.057
   56LIT    LIT  212   0.180   3.764   0.478
   57LIT    LIT  213   8.019   4.784   3.948
   58CLA    CLA  214   2.258   1.525   3.040
   59CLA    CLA  215   3.532   7.586   2.386
   60CLA    CLA  216   0.536   0.971   3.145
   61CLA    CLA  217   5.171   5.070   4.682
   62CLA    CLA  218   5.771   6.221   1.555
   63CLA    CLA  219   7.706   7.556   3.106
   64CLA    CLA  220   1.387   5.423   4.303
   65CLA    CLA  221   0.644   7.433   5.767
   66CLA    CLA  222   5.942   2.945   5.976
   67CLA    CLA  223   0.056   4.888   4.101
   68CLA    CLA  224   0.731   6.047   4.464
   69CLA    CLA  225   5.308   3.488   1.500
   70CLA    CLA  226   2.762   0.795   6.765
   71CLA    CLA  227   0.389   5.004   4.998
   72CLA    CLA  228   3.711   1.997   1.655
   73CLA    CLA  229   1.170   1.505   2.319
   74CLA    CLA  230   3.742   2.874   5.760
   75CLA    CLA  231   2.813   3.504   5.635
   76CLA    CLA  232   4.483   3.373   4.070
   77CLA    CLA  233   5.858   4.352   4.065
   78CLA    CLA  234   2.889   0.375   5.591
   79CLA    CLA  235   5.553   0.376   4.393
   80CLA    CLA  236   0.909   5.761   2.236
   81CLA    CLA  237   4.459   2.862   0.265
   82CLA    CLA  238   7.989   2.302   1.872
   83CLA    CLA  239   5.273   5.757   1.996
   84CLA    CLA  240   2.416   6.654   1.255
   85CLA    CLA  241   0.138   0.599   0.931
   86CLA    CLA  242   7.169   0.545   3.906
   87CLA    CLA  243   8.108   2.578   2.971
   88CLA    CLA  244   4.467   5.063   4.266
   89CLA    CLA  245   7.372   4.533   2.687
   90CLA    CLA  246   0.825   7.782   6.386
   91CLA    CLA  247   3.598   0.269   0.851
   92CLA    CLA  248   7.522   0.891   1.130
   93CLA    CLA  249   5.937   5.988   0.953
   94CLA    CLA  250   1.435   5.242   2.852
   95CLA    CLA  251   0.347   2.528   6.023
   96CLA    CLA  252   3.730   5.088   6.782
   97CLA    CLA  253   4.854   0.367   5.894
   98CLA    CLA  254   0.353   5.389   5.326
   99CLA    CLA  255   7.285   3.879   0.036
  100TIP3   OH2  256   5.275   1.039   4.808
  100TIP3    H1  257   5.349   1.037   4.748
  100TIP3    H2  258   5.222   1.113   4.777
  101TIP3   OH2  259   6.136   3.204   1.492
  101TIP3    H1  260   6.217   3.228   1.536
  101TIP3    H2  261   6.126   3.110   1.508
  102TIP3   OH2  262   5.713   5.042   6.598
  102TIP3    H1  263   5.727   4.970   6.536
  102TIP3    H2  264   5.648   5.008   6.659
  103TIP3   OH2  265   1.877   4.572   6.308
  103TIP3    H1  266   1.882   4.477   6.299
  103TIP3    H2  267   1.783   4.591   6.306
  104TIP3   OH2  268   1.820   2.735   0.033
  104TIP3    H1  269   1.898   2.707   0.080
  104TIP3    H2  270   1.747   2.709   0.089
  105TIP3   OH2  271   6.577   3.321   5.533
  105TIP3    H1  272   6.578   3.229   5.559
  105TIP3    H2  273   6.667   3.340   5.507
  106TIP3   OH2  274   3.278   5.133   0.858
  106TIP3    H1  275   3.373   5.148   0.860
  106TIP3    H2  276   3.248   5.178   0.779
  107TIP3   OH2  277   6.076   5.931   6.658
  107TIP3    H1  278   6.085   5.892   6.570
  107TIP3    H2  279   6.161   5.972   6.675
  108TIP3   OH2  280   5.999   2.435   3.042
  108TIP3    H1  281   6.001   2.463   3.133
  108TIP3    H2  282   5.916   2.387   3.033
  109TIP3   OH2  283   0.439   3.920   1.304
  109TIP3    H1  284   0.462   3.834   1.267
  109TIP3    H2  285   0.504   3.980   1.267
  110TIP3   OH2  286   7.944   7.716   2.002
  110TIP3    H1  287   7.949   7.716   2.097
  110TIP3    H2  288   7.884   7.788   1.981
  111TIP3   OH2  289   7.671   0.470   4.698
  111TIP3    H1  290   7.675   0.491   4.791
  111TIP3    H2  291   7.733   0.530   4.657
  112TIP3   OH2  292   7.619   4.896   3.777
  112TIP3    H1  293   7.675   4.974   3.783
  112TIP3    H2  294   7.647   4.852   3.697
  113TIP3   OH2  295   7.881   1.653   3.269
  113TIP3    H1  296   7.798   1.676   3.228
  113TIP3    H2  297   7.940   1.724   3.244
  114TIP3   OH2  298   6.597   5.664   0.646
  114TIP3    H1  299   6.677   5.713   0.630
  114TIP3    H2  300   6.608   5.583   0.596
  115TIP3   OH2  301   2.915   5.583   1.171
  115TIP3    H1  302   2.942   5.630   1.092
  115TIP3    H2  303   2.927   5.491   1.149
  116TIP3   OH2  304   5.125   2.466   3.719
  116TIP3    H1  305   5.139   2.483   3.626
  116TIP3    H2  306   5.043   2.417   3.722
  117TIP3   OH2  307   6.191   4.775   4.163
  117TIP3    H1  308   6.208   4.774   4.257
  117TIP3    H2  309   6.096   4.784   4.156
  118TIP3   OH2  310   7.990   0.993   3.017
  118TIP3    H1  311   8.013   1.083   3.041
  118TIP3    H2  312   7.923   1.003   2.949
  119TIP3   OH2  313   2.206   2.597   6.359
  119TIP3    H1  314   2.216   2.502   6.367
  119TIP3    H2  315   2.227   2.616   6.268
  120TIP3   OH2  316   1.577   5.122   1.069
  120TIP3    H1  317   1.572   5.083   0.982
  120TIP3    H2  318   1.581   5.216   1.053
  121TIP3   OH2  319   1.699   4.674   1.038
  121TIP3    H1  320   1.606   4.679   1.062
  121TIP3    H2  321   1.707   4.733   0.963
  122TIP3   OH2  322   4.353   6.819   6.704
  122TIP3    H1  323   4.305   6.804   6.622
  122TIP3    H2  324   4.399   6.736   6.720
  123TIP3   OH2  325   3.686   4.601   1.434
  123TIP3    H1  326   3.737   4.549   1.496
  123TIP3    H2  327   3.632   4.659   1.489
  124TIP3   OH2  328   4.754   6.600   1.850
  124TIP3    H1  329   4.840   6.593   1.810
  124TIP3    H2  330   4.739   6.694   1.859
  125TIP3   OH2  331   6.023   0.553   1.535
  125TIP3    H1  332   6.087   0.482   1.525
  125TIP3    H2  333   5.964   0.523   1.604
  126TIP3   OH2  334   5.198   6.856   3.808
  126TIP3    H1  335   5.137   6.800   3.857
  126TIP3    H2  336   5.251   6.794   3.757
  127TIP3   OH2  337   7.053   5.852   2.570
  127TIP3    H1  338   6.975   5.797   2.567
  127TIP3    H2  339   7.050   5.893   2.657
  128TIP3   OH2  340   7.416   2.563   5.273
  128TIP3    H1  341   7.476   2.629   5.308
  128TIP3    H2  342   7.338   2.571   5.328
  129TIP3   OH2  343   4.172   6.099   1.513
  129TIP3    H1  344   4.200   6.052   1.435
  129TIP3    H2  345   4.204   6.188   1.501
  130TIP3   OH2  346   7.646   7.199   3.739
  130TIP3    H1  347   7.706   7.143   3.690
  130TIP3    H2  348   7.696   7.227   3.816
  131TIP3   OH2  349   0.074   2.433   3.378
  131TIP3    H1  350   0.061   2.504   3.315
  131TIP3    H2  351   0.014   2.364   3.351
  132TIP3   OH2  352   7.685   3.292   2.981
  132TIP3    H1  353   7.660   3.305   2.890
  132TIP3    H2  354   7.745   3.364   3.000
  133TIP3   OH2  355   0.747   1.323   0.280
  133TIP3    H1  356   0.841   1.319   0.263
  133TIP3    H2  357   0.739   1.377   0.359
  134TIP3   OH2  358   4.126   5.705   6.744
  134TIP3    H1  359   4.143   5.705   6.650
  134TIP3    H2  360   4.199   5.753   6.782
  135TIP3   OH2  361   5.724   2.179   1.934
  135TIP3    H1  362   5.809   2.148   1.966
  135TIP3    H2  363   5.729   2.169   1.839
  136TIP3   OH2  364   4.769   6.571   0.293
  136TIP3    H1  365   4.792   6.618   0.373
  136TIP3    H2  366   4.674   6.560   0.298
  137TIP3   OH2  367   2.697   4.615   2.971
  137TIP3    H1  368   2.631   4.590   3.035
  137TIP3    H2  369   2.664   4.579   2.888
  138TIP3   OH2  370   4.351   3.639   2.585
  138TIP3    H1  371   4.399   3.681   2.513
  138TIP3    H2  372   4.287   3.705   2.612
  139TIP3   OH2  373   0.035   2.223   4.333
  139TIP3    H1  374   0.053   2.171   4.255
  139TIP3    H2  375   0.052   2.163   4.406
  140TIP3   OH2  376   8.211   6.687   4.367
  140TIP3    H1  377   8.151   6.709   4.295
  140TIP3    H2  378   8.157   6.639   4.430
  141TIP3   OH2  379   6.490   1.456   4.523
  141TIP3    H1  380   6.541   1.389   4.568
  141TIP3    H2  381   6.513   1.538   4.566
  142TIP3   OH2  382   3.835   2.190   0.907
  142TIP3    H1  383   3.897   2.188   0.980
  142TIP3    H2  384   3.826   2.099   0.880
  143TIP3   OH2  385   2.502   4.484   5.815
  143TIP3    H1  386   2.558   4.560   5.829
  143TIP3    H2  387   2.439   4.512   5.749
  144TIP3   OH2  388   0.999   0.196   5.713
  144TIP3    H1  389   1.048   0.120   5.681
  144TIP3    H2  390   1.060   0.240   5.772
  145TIP3   OH2  391   5.965   1.756   3.682
  145TIP3    H1  392   5.929   1.739   3.595
  145TIP3    H2  393   6.031   1.689   3.695
  146TIP3   OH2  394   2.957   4.960   1.890
  146TIP3    H1  395   3.003   4.885   1.927
  146TIP3    H2  396   2.967   5.029   1.955
  147TIP3   OH2  397   4.628   1.860   0.077
  147TIP3    H1  398   4.554   1.800   0.087
  147TIP3    H2  399   4.618   1.922   0.149
  148TIP3   OH2  400   4.906   0.119   3.491
  148TIP3    H1  401   4.987   0.172   3.490
  148TIP3    H2  402   4.929   0.042   3.543
  149TIP3   OH2  403   2.466   2.099   4.659
  149TIP3    H1  404   2.509   2.035   4.715
  149TIP3    H2  405   2.376   2.067   4.650
  150TIP3   OH2  406   0.152   7.201   1.742
  150TIP3    H1  407   0.182   7.247   1.820
  150TIP3    H2  408   0.220   7.220   1.676
  151TIP3   OH2  409   3.346   7.435   2.838
  151TIP3    H1  410   3.385   7.459   2.922
  151TIP3    H2  411   3.329   7.518   2.794
  152TIP3   OH2  412   4.607   1.925   1.151
  152TIP3    H1  413   4.571   1.896   1.236
  152TIP3    H2  414   4.541   1.897   1.087
  153TIP3   OH2  415   6.488   0.103   5.217
  153TIP3    H1  416   6.502   0.029   5.275
  153TIP3    H2  417   6.527   0.076   5.134
  154TIP3   OH2  418   5.610   7.453   4.145
  154TIP3    H1  419   5.677   7.439   4.212
  154TIP3    H2  420   5.657   7.494   4.073
  155TIP3   OH2  421   0.311   2.115   1.813
  155TIP3    H1  422   0.269   2.134   1.897
  155TIP3    H2  423   0.240   2.121   1.749
  156TIP3   OH2  424   8.097   3.462   2.068
  156TIP3    H1  425   8.087   3.377   2.025
  156TIP3    H2  426   8.133   3.519   2.001
  157TIP3   OH2  427   5.773   0.821   2.069
  157TIP3    H1  428   5.737   0.795   1.984
  157TIP3    H2  429   5.846   0.879   2.046
  158TIP3   OH2  430   8.155   0.836   4.508
  158TIP3    H1  431   8.202   0.753   4.509
  158TIP3    H2  432   8.116   0.841   4.421
  159TIP3   OH2  433   2.100   0.738   6.258
  159TIP3    H1  434   2.166   0.697   6.201
  159TIP3    H2  435   2.114   0.832   6.246
  160TIP3   OH2  436   1.442   0.189   6.307
  160TIP3    H1  437   1.398   0.109   6.279
  160TIP3    H2  438   1.491   0.218   6.229
  161TIP3   OH2  439   4.423   4.672   3.389
  161TIP3    H1  440   4.349   4.732   3.387
  161TIP3    H2  441   4.390   4.591   3.349
  162TIP3   OH2  442   1.597   6.908   4.668
  162TIP3    H1  443   1.535   6.867   4.608
  162TIP3    H2  444   1.603   6.847   4.742
  163TIP3   OH2  445   7.228   7.753   5.251
  163TIP3    H1  446   7.270   7.694   5.188
  163TIP3    H2  447   7.145   7.710   5.271
  164TIP3   OH2  448   8.029   4.174   1.188
  164TIP3    H1  449   7.954   4.214   1.233
  164TIP3    H2  450   8.048   4.234   1.116
  165TIP3   OH2  451   3.829   2.415   6.267
  165TIP3    H1  452   3.747   2.378   6.298
  165TIP3    H2  453   3.896   2.357   6.302
  166TIP3   OH2  454   5.910   3.289   3.606
  166TIP3    H1  455   5.958   3.303   3.688
  166TIP3    H2  456   5.852   3.215   3.625
  167TIP3   OH2  457   5.202   5.338   0.376
  167TIP3    H1  458   5.172   5.336   0.285
  167TIP3    H2  459   5.153   5.267   0.418
  168TIP3   OH2  460   6.949   3.699   2.307
  168TIP3    H1  461   6.906   3.770   2.260
  168TIP3    H2  462   7.012   3.663   2.244
  169TIP3   OH2  463   5.196   5.576   1.489
  169TIP3    H1  464   5.242   5.607   1.567
  169TIP3    H2  465   5.191   5.653   1.432
  170TIP3   OH2  466   0.295   6.946   6.272
  170TIP3    H1  467   0.233   6.878   6.296
  170TIP3    H2  468   0.314   6.930   6.180
  171TIP3   OH2  469   2.747   2.541   2.646
  171TIP3    H1  470   2.816   2.606   2.662
  171TIP3    H2  471   2.702   2.532   2.730
  172TIP3   OH2  472   3.204   2.908   5.662
  172TIP3    H1  473   3.232   2.995   5.633
  172TIP3    H2  474   3.174   2.921   5.752
  173TIP3   OH2  475   6.841   3.313   3.697
  173TIP3    H1  476   6.809   3.232   3.656
  173TIP3    H2  477   6.768   3.375   3.687
  174TIP3   OH2  478   6.926   5.677   4.108
  174TIP3    H1  479   6.981   5.755   4.116
  174TIP3    H2  480   6.979   5.615   4.059
  175TIP3   OH2  481   2.791   1.364   3.335
  175TIP3    H1  482   2.789   1.311   3.255
  175TIP3    H2  483   2.850   1.436   3.315
  176TIP3   OH2  484   1.704   2.040   5.722
  176TIP3    H1  485   1.715   2.125   5.765
  176TIP3    H2  486   1.738   1.977   5.786
  177TIP3   OH2  487   4.497   0.380   6.294
  177TIP3    H1  488   4.458   0.442   6.356
  177TIP3    H2  489   4.544   0.317   6.349
  178TIP3   OH2  490   7.997   5.253   3.101
  178TIP3    H1  491   8.018   5.332   3.051
  178TIP3    H2  492   7.981   5.284   3.190
  179TIP3   OH2  493   3.788   4.784   4.687
  179TIP3    H1  494   3.747   4.839   4.755
  179TIP3    H2  495   3.746   4.698   4.698
  180TIP3   OH2  496   1.397   3.558   0.627
  180TIP3    H1  497   1.480   3.594   0.596
  180TIP3    H2  498   1.334   3.581   0.558
  181TIP3   OH2  499   5.627   0.788   3.557
  181TIP3    H1  500   5.644   0.785   3.651
  181TIP3    H2  501   5.712   0.773   3.517
  182TIP3   OH2  502   1.421   5.558   1.968
  182TIP3    H1  503   1.455   5.551   1.879
  182TIP3    H2  504   1.326   5.561   1.957
  183TIP3   OH2  505   5.664   0.665   3.822
  183TIP3    H1  506   5.629   0.602   3.885
  183TIP3    H2  507   5.694   0.739   3.874
  184TIP3   OH2  508   5.489   6.004   1.865
  184TIP3    H1  509   5.530   6.090   1.877
  184TIP3    H2  510   5.413   6.021   1.810
  185TIP3   OH2  511   8.152   0.468   0.936
  185TIP3    H1  512   8.234   0.512   0.916
  185TIP3    H2  513   8.086   0.537   0.934
  186TIP3   OH2  514   2.219   5.433   1.598
  186TIP3    H1  515   2.246   5.342   1.614
  186TIP3    H2  516   2.174   5.429   1.513
  187TIP3   OH2  517   6.603   0.421   5.242
  187TIP3    H1  518   6.589   0.391   5.152
  187TIP3    H2  519   6.630   0.343   5.290
  188TIP3   OH2  520   6.541   6.060   3.372
  188TIP3    H1  521   6.563   6.142   3.415
  188TIP3    H2  522   6.462   6.081   3.321
  189TIP3   OH2  523   3.847   5.735   2.652
  189TIP3    H1  524   3.885   5.782   2.578
  189TIP3    H2  525   3.786   5.673   2.613
  190TIP3   OH2  526   2.700   2.455   4.501
  190TIP3    H1  527   2.773   2.402   4.531
  190TIP3    H2  528   2.740   2.536   4.469
  191TIP3   OH2  529   3.114   6.186   2.315
  191TIP3    H1  530   3.043   6.232   2.270
  191TIP3    H2  531   3.161   6.256   2.362
  192TIP3   OH2  532   1.096   3.825   0.747
  192TIP3    H1  533   1.059   3.826   0.836
  192TIP3    H2  534   1.021   3.808   0.690
  193TIP3   OH2  535   5.789   4.555   0.035
  193TIP3    H1  536   5.699   4.575   0.009
  193TIP3    H2  537   5.787   4.558   0.131
  194TIP3   OH2  538   2.315   1.129   6.358
  194TIP3    H1  539   2.370   1.071   6.410
  194TIP3    H2  540   2.260   1.173   6.422
  195TIP3   OH2  541   3.386   4.688   1.331
  195TIP3    H1  542   3.334   4.623   1.379
  195TIP3    H2  543   3.379   4.768   1.383
  196TIP3   OH2  544   0.350   6.830   2.998
  196TIP3    H1  545   0.305   6.831   3.083
  196TIP3    H2  546   0.361   6.922   2.976
  197TIP3   OH2  547   5.565   2.758   4.396
  197TIP3    H1  548   5.536   2.686   4.340
  197TIP3    H2  549   5.509   2.753   4.473
  198TIP3   OH2  550   7.044   6.889   3.785
  198TIP3    H1  551   7.115   6.926   3.733
  198TIP3    H2  552   7.056   6.794   3.779
  199TIP3   OH2  553   7.085   1.538   4.618
  199TIP3    H1  554   7.100   1.493   4.535
  199TIP3    H2  555   7.171   1.536   4.662
  200TIP3   OH2  556   5.798   7.576   4.572
  200TIP3    H1  557   5.859   7.506   4.550
  200TIP3    H2  558   5.854   7.652   4.591
  201TIP3   OH2  559   5.295   2.673   5.370
  201TIP3    H1  560   5.264   2.764   5.368
  201TIP3    H2  561   5.374   2.675   5.316
  202TIP3   OH2  562   4.311   4.254   1.147
  202TIP3    H1  563   4.360   4.315   1.202
  202TIP3    H2  564   4.244   4.308   1.104
  203TIP3   OH2  565   4.547   2.971   6.744
  203TIP3    H1  566   4.516   2.889   6.783
  203TIP3    H2  567   4.475   3.000   6.689
  204TIP3   OH2  568   7.150   0.110   1.081
  204TIP3    H1  569   7.131   0.161   1.003
  204TIP3    H2  570   7.064   0.077   1.109
  205TIP3   OH2  571   5.905   3.751   5.443
  205TIP3    H1  572   5.960   3.782   5.371
  205TIP3    H2  573   5.949   3.672   5.474
  206TIP3   OH2  574   6.241   7.551   3.306
  206TIP3    H1  575   6.218   7.592   3.390
  206TIP3    H2  576   6.334   7.533   3.314
  207TIP3   OH2  577   0.129   4.694   5.214
  207TIP3    H1  578   0.207   4.723   5.166
  207TIP3    H2  579   0.164   4.653   5.293
  208TIP3   OH2  580   3.993   2.965   0.893
  208TIP3    H1  581   3.950   2.967   0.979
  208TIP3    H2  582   4.085   2.979   0.912
  209TIP3   OH2  583   1.222   1.714   4.427
  209TIP3    H1  584   1.146   1.766   4.397
  209TIP3    H2  585   1.229   1.736   4.520
  210TIP3   OH2  586   4.156   7.059   5.613
  210TIP3    H1  587   4.138   6.985   5.671
  210TIP3    H2  588   4.252   7.064   5.610
  211TIP3   OH2  589   7.786   2.487   0.849
  211TIP3    H1  590   7.767   2.552   0.782
  211TIP3    H2  591   7.767   2.532   0.932
  212TIP3   OH2  592   2.464   6.941   3.336
  212TIP3    H1  593   2.485   7.033   3.318
  212TIP3    H2  594   2.403   6.916   3.267
  213TIP3   OH2  595   7.882   4.010   5.956
  213TIP3    H1  596   7.963   4.006   5.904
  213TIP3    H2  597   7.912   4.033   6.044
  214TIP3   OH2  598   6.671   7.360   1.118
  214TIP3    H1  599   6.726   7.402   1.052
  214TIP3    H2  600   6.656   7.429   1.183
  215TIP3   OH2  601   5.328   3.034   1.274
  215TIP3    H1  602   5.371   2.951   1.250
  215TIP3    H2  603   5.390   3.076   1.333
  216TIP3   OH2  604   6.317   6.264   3.521
  216TIP3    H1  605   6.239   6.237   3.570
  216TIP3    H2  606   6.388   6.261   3.585
  217TIP3   OH2  607   5.947   6.463   1.135
  217TIP3    H1  608   6.023   6.435   1.187
  217TIP3    H2  609   5.871   6.428   1.182
  218TIP3   OH2  610   4.665   1.047   2.598
  218TIP3    H1  611   4.703   1.008   2.520
  218TIP3    H2  612   4.616   1.123   2.565
  219TIP3   OH2  613   4.581   1.241   4.958
  219TIP3    H1  614   4.644   1.184   4.914
  219TIP3    H2  615   4.501   1.233   4.906
  220TIP3   OH2  616   2.707   5.610   0.917
  220TIP3    H1  617   2.750   5.681   0.868
  220TIP3    H2  618   2.748   5.530   0.884
  221TIP3   OH2  619   3.579   1.287   4.430
  221TIP3    H1  620   3.516   1.225   4.466
  221TIP3    H2  621   3.644   1.233   4.386
  222TIP3   OH2  622   3.261   3.404   1.031
  222TIP3    H1  623   3.178   3.356   1.028
  222TIP3    H2  624   3.244   3.485   0.983
  223TIP3   OH2  625   4.293   0.801   5.876
  223TIP3    H1  626   4.254   0.714   5.885
  223TIP3    H2  627   4.317   0.826   5.965
  224TIP3   OH2  628   3.437   4.012   4.329
  224TIP3    H1  629   3.456   4.088   4.384
  224TIP3    H2  630   3.388   4.048   4.255
  225TIP3   OH2  631   1.765   0.974   1.595
  225TIP3    H1  632   1.844   0.980   1.542
  225TIP3    H2  633   1.694   0.959   1.532
  226TIP3   OH2  634   6.054   5.847   6.153
  226TIP3    H1  635   5.962   5.823   6.165
  226TIP3    H2  636   6.071   5.830   6.061
  227TIP3   OH2  637   4.584   1.681   2.981
  227TIP3    H1  638   4.553   1.705   2.894
  227TIP3    H2  639   4.675   1.711   2.984
  228TIP3   OH2  640   8.301   2.973   3.714
  228TIP3    H1  641   8.223   3.002   3.761
  228TIP3    H2  642   8.303   2.879   3.726
  229TIP3   OH2  643   6.127   3.211   4.654
  229TIP3    H1  644   6.043   3.195   4.611
  229TIP3    H2  645   6.150   3.300   4.629
  230TIP3   OH2  646   4.032   3.632   4.892
  230TIP3    H1  647   4.076   3.611   4.810
  230TIP3    H2  648   3.942   3.652   4.866
  231TIP3   OH2  649   7.522   0.219   3.834
  231TIP3    H1  650   7.457   0.248   3.899
  231TIP3    H2  651   7.498   0.129   3.814
  232TIP3   OH2  652   5.914   7.113   6.703
  232TIP3    H1  653   5.926   7.019   6.708
  232TIP3    H2  654   5.850   7.126   6.633
  233TIP3   OH2  655   4.586   3.734   5.649
  233TIP3    H1  656   4.543   3.767   5.570
  233TIP3    H2  657   4.600   3.641   5.631
  234TIP3   OH2  658   3.347   4.167   3.200
  234TIP3    H1  659   3.437   4.197   3.213
  234TIP3    H2  660   3.349   4.074   3.223
  235TIP3   OH2  661   6.750   3.632   4.718
  235TIP3    H1  662   6.825   3.624   4.776
  235TIP3    H2  663   6.772   3.577   4.643
  236TIP3   OH2  664   6.188   6.919   3.682
  236TIP3    H1  665   6.138   6.976   3.741
  236TIP3    H2  666   6.277   6.919   3.718
  237TIP3   OH2  667   3.822   0.489   4.005
  237TIP3    H1  668   3.737   0.515   3.970
  237TIP3    H2  669   3.882   0.495   3.930
  238TIP3   OH2  670   7.823   7.099   1.907
  238TIP3    H1  671   7.918   7.091   1.899
  238TIP3    H2  672   7.794   7.012   1.935
  239TIP3   OH2  673   2.702   3.306   5.024
  239TIP3    H1  674   2.637   3.273   4.962
  239TIP3    H2  675   2.661   3.382   5.064
  240TIP3   OH2  676   0.667   4.617   2.882
  240TIP3    H1  677   0.687   4.644   2.972
  240TIP3    H2  678   0.633   4.696   2.841
  241TIP3   OH2  679   7.122   3.252   0.120
  241TIP3    H1  680   7.199   3.241   0.177
  241TIP3    H2  681   7.097   3.344   0.130
  242TIP3   OH2  682   4.823   0.491   2.021
  242TIP3    H1  683   4.851   0.556   2.085
  242TIP3    H2  684   4.851   0.525   1.937
  243TIP3   OH2  685   5.213   3.242   0.075
  243TIP3    H1  686   5.189   3.306   0.142
  243TIP3    H2  687   5.239   3.295  -0.001
  244TIP3   OH2  688   2.155   3.634   1.859
  244TIP3    H1  689   2.115   3.601   1.940
  244TIP3    H2  690   2.080   3.655   1.802
  245TIP3   OH2  691   1.537   5.181   2.391
  245TIP3    H1  692   1.511   5.257   2.339
  245TIP3    H2  693   1.495   5.107   2.349
  246TIP3   OH2  694   6.105   7.791   0.229
  246TIP3    H1  695   6.146   7.848   0.294
  246TIP3    H2  696   6.174   7.730   0.203
  247TIP3   OH2  697   7.397   0.339   5.409
  247TIP3    H1  698   7.347   0.331   5.491
  247TIP3    H2  699   7.351   0.283   5.347
  248TIP3   OH2  700   1.348   6.128   6.188
  248TIP3    H1  701   1.378   6.174   6.110
  248TIP3    H2  702   1.254   6.119   6.175
  249TIP3   OH2  703   7.017   4.599   0.516
  249TIP3    H1  704   7.049   4.533   0.455
  249TIP3    H2  705   6.985   4.670   0.460
  250TIP3   OH2  706   0.061   0.364   6.511
  250TIP3    H1  707  -0.024   0.405   6.498
  250TIP3    H2  708   0.117   0.404   6.445
  251TIP3   OH2  709   4.256   1.155   2.214
  251TIP3    H1  710   4.297   1.241   2.224
  251TIP3    H2  711   4.230   1.151   2.122
  252TIP3   OH2  712   2.421   6.449   4.398
  252TIP3    H1  713   2.492   6.397   4.436
  252TIP3    H2  714   2.401   6.514   4.465
  253TIP3   OH2  715   0.904   3.236   2.590
  253TIP3    H1  716   0.975   3.172   2.588
  253TIP3    H2  717   0.873   3.239   2.500
  254TIP3   OH2  718   0.899   5.434   5.361
  254TIP3    H1  719   0.974   5.475   5.318
  254TIP3    H2  720   0.905   5.341   5.338
  255TIP3   OH2  721   5.532   4.217   6.357
  255TIP3    H1  722   5.450   4.171   6.373
  255TIP3    H2  723   5.543   4.273   6.434
  256TIP3   OH2  724   2.642   3.921   6.646
  256TIP3    H1  725   2.548   3.927   6.663
  256TIP3    H2  726   2.677   4.003   6.680
  257TIP3   OH2  727   0.889   1.810   2.501
  257TIP3    H1  728   0.849   1.830   2.416
  257TIP3    H2  729   0.973   1.857   2.500
  258TIP3   OH2  730   1.037   4.594   3.729
  258TIP3    H1  731   0.949   4.626   3.710
  258TIP3    H2  732   1.087   4.673   3.749
  259TIP3   OH2  733   4.932   4.388   0.601
  259TIP3    H1  734   5.027   4.378   0.590
  259TIP3    H2  735   4.894   4.346   0.524
  260TIP3   OH2  736   3.733   6.460   3.570
  260TIP3    H1  737   3.755   6.483   3.660
  260TIP3    H2  738   3.752   6.367   3.563
  261TIP3   OH2  739   2.512   4.931   2.022
  261TIP3    H1  740   2.470   4.846   2.008
  261TIP3    H2  741   2.573   4.939   1.949
  262TIP3   OH2  742   5.667   2.387   3.638
  262TIP3    H1  743   5.594   2.440   3.670
  262TIP3    H2  744   5.626   2.320   3.583
  263TIP3   OH2  745   0.431   6.348   5.727
  263TIP3    H1  746   0.428   6.280   5.659
  263TIP3    H2  747   0.341   6.356   5.757
  264TIP3   OH2  748   3.583   1.947   3.990
  264TIP3    H1  749   3.488   1.933   3.985
  264TIP3    H2  750   3.597   2.028   3.940
  265TIP3   OH2  751   8.161   4.321   0.974
  265TIP3    H1  752   8.234   4.279   1.020
  265TIP3    H2  753   8.200   4.357   0.895
  266TIP3   OH2  754   4.744   7.545   5.281
  266TIP3    H1  755   4.727   7.620   5.225
  266TIP3    H2  756   4.692   7.474   5.243
  267TIP3   OH2  757   7.813   5.383   2.692
  267TIP3    H1  758   7.745   5.335   2.644
  267TIP3    H2  759   7.889   5.325   2.688
  268TIP3   OH2  760   5.681   7.093   2.071
  268TIP3    H1  761   5.592   7.102   2.107
  268TIP3    H2  762   5.737   7.093   2.148
  269TIP3   OH2  763   1.864   2.476   3.052
  269TIP3    H1  764   1.773   2.505   3.057
  269TIP3    H2  765   1.877   2.423   3.130
  270TIP3   OH2  766   6.995   3.512   4.846
  270TIP3    H1  767   7.030   3.425   4.828
  270TIP3    H2  768   7.064   3.557   4.894
  271TIP3   OH2  769   2.889   0.690   2.038
  271TIP3    H1  770   2.982   0.694   2.016
  271TIP3    H2  771   2.881   0.618   2.100
  272TIP3   OH2  772   3.306   7.602   6.144
  272TIP3    H1  773   3.216   7.617   6.173
  272TIP3    H2  774   3.331   7.519   6.184
  273TIP3   OH2  775   4.098   7.227   0.589
  273TIP3    H1  776   4.063   7.198   0.674
  273TIP3    H2  777   4.184   7.185   0.583
  274TIP3   OH2  778   5.484   4.447   3.751
  274TIP3    H1  779   5.465   4.419   3.661
  274TIP3    H2  780   5.565   4.497   3.744
  275TIP3   OH2  781   7.886   7.524   4.720
  275TIP3    H1  782   7.966   7.575   4.727
  275TIP3    H2  783   7.816   7.589   4.725
  276TIP3   OH2  784   5.624   6.920   5.977
  276TIP3    H1  785   5.558   6.861   6.016
  276TIP3    H2  786   5.582   6.954   5.899
  277TIP3   OH2  787   4.815   3.827   2.387
  277TIP3    H1  788   4.786   3.893   2.450
  277TIP3    H2  789   4.838   3.751   2.440
  278TIP3   OH2  790   6.090   7.669   1.887
  278TIP3    H1  791   6.013   7.722   1.905
  278TIP3    H2  792   6.080   7.591   1.942
  279TIP3   OH2  793   4.230   0.272   0.723
  279TIP3    H1  794   4.319   0.237   0.719
  279TIP3    H2  795   4.232   0.350   0.668
  280TIP3   OH2  796   4.944   1.981   3.526
  280TIP3    H1  797   4.920   1.989   3.618
  280TIP3    H2  798   4.872   1.931   3.487
  281TIP3   OH2  799   0.447   4.031   0.224
  281TIP3    H1  800   0.396   4.052   0.146
  281TIP3    H2  801   0.528   4.082   0.214
  282TIP3   OH2  802   0.950   2.968   5.003
  282TIP3    H1  803   0.948   2.986   4.909
  282TIP3    H2  804   1.043   2.970   5.026
  283TIP3   OH2  805   6.389   0.141   6.219
  283TIP3    H1  806   6.451   0.091   6.273
  283TIP3    H2  807   6.442   0.213   6.183
  284TIP3   OH2  808   1.945   5.086   1.423
  284TIP3    H1  809   1.935   5.175   1.458
  284TIP3    H2  810   1.860   5.066   1.384
  285TIP3   OH2  811   6.956   2.489   5.934
  285TIP3    H1  812   7.017   2.463   6.003
  285TIP3    H2  813   7.004   2.555   5.883
  286TIP3   OH2  814   8.179   2.157   3.577
  286TIP3    H1  815   8.174   2.251   3.592
  286TIP3    H2  816   8.221   2.148   3.492
  287TIP3   OH2  817   3.636   6.482   6.698
  287TIP3    H1  818   3.718   6.512   6.659
  287TIP3    H2  819   3.662   6.434   6.776
  288TIP3   OH2  820   5.792   2.782   5.072
  288TIP3    H1  821   5.881   2.805   5.047
  288TIP3    H2  822   5.793   2.780   5.168
  289TIP3   OH2  823   3.401   4.795   3.439
  289TIP3    H1  824   3.424   4.884   3.410
  289TIP3    H2  825   3.306   4.797   3.450
  290TIP3   OH2  826   7.443   3.778   0.721
  290TIP3    H1  827   7.491   3.696   0.709
  290TIP3    H2  828   7.358   3.763   0.680
  291TIP3   OH2  829   6.895   6.875   4.338
  291TIP3    H1  830   6.913   6.911   4.251
  291TIP3    H2  831   6.871   6.951   4.391
  292TIP3   OH2  832   3.313   3.168   5.634
  292TIP3    H1  833   3.235   3.223   5.642
  292TIP3    H2  834   3.377   3.209   5.692
  293TIP3   OH2  835   0.326   1.851   1.584
  293TIP3    H1  836   0.344   1.761   1.557
  293TIP3    H2  837   0.388   1.869   1.654
  294TIP3   OH2  838   2.504   6.979   0.055
  294TIP3    H1  839   2.510   7.003  -0.038
  294TIP3    H2  840   2.504   7.063   0.101
  295TIP3   OH2  841   2.376   2.581   4.105
  295TIP3    H1  842   2.422   2.526   4.169
  295TIP3    H2  843   2.376   2.529   4.024
  296TIP3   OH2  844   3.507   3.920   3.642
  296TIP3    H1  845   3.534   3.852   3.703
  296TIP3    H2  846   3.434   3.963   3.684
  297TIP3   OH2  847   2.676   0.850   4.444
  297TIP3    H1  848   2.745   0.894   4.495
  297TIP3    H2  849   2.681   0.758   4.471
  298TIP3   OH2  850   2.857   5.215   6.253
  298TIP3    H1  851   2.916   5.247   6.185
  298TIP3    H2  852   2.774   5.199   6.208
  299TIP3   OH2  853   5.725   6.827   0.726
  299TIP3    H1  854   5.808   6.786   0.749
  299TIP3    H2  855   5.665   6.801   0.797
  300TIP3   OH2  856   7.980   1.421   0.652
  300TIP3    H1  857   7.997   1.361   0.725
  300TIP3    H2  858   8.047   1.489   0.661
  301TIP3   OH2  859   2.628   7.503   6.146
  301TIP3    H1  860   2.616   7.488   6.053
  301TIP3    H2  861   2.546   7.542   6.176
  302TIP3   OH2  862   0.709   5.928   0.037
  302TIP3    H1  863   0.725   6.019   0.015
  302TIP3    H2  864   0.790   5.882   0.013
  303TIP3   OH2  865   4.273   0.409   3.345
  303TIP3    H1  866   4.228   0.347   3.287
  303TIP3    H2  867   4.366   0.389   3.335
  304TIP3   OH2  868   5.491   3.191   6.334
  304TIP3    H1  869   5.506   3.191   6.429
  304TIP3    H2  870   5.553   3.256   6.300
  305TIP3   OH2  871   7.728   2.093   0.052
  305TIP3    H1  872   7.761   2.177   0.083
  305TIP3    H2  873   7.755   2.089  -0.039
  306TIP3   OH2  874   1.374   0.077   5.378
  306TIP3    H1  875   1.392  -0.016   5.367
  306TIP3    H2  876   1.337   0.085   5.465
  307TIP3   OH2  877   4.544   2.823   6.428
  307TIP3    H1  878   4.547   2.751   6.491
  307TIP3    H2  879   4.484   2.887   6.468
  308TIP3   OH2  880   6.501   2.425   2.353
  308TIP3    H1  881   6.522   2.352   2.295
  308TIP3    H2  882   6.586   2.457   2.383
  309TIP3   OH2  883   4.938   7.005   4.747
  309TIP3    H1  884   5.009   7.052   4.791
  309TIP3    H2  885   4.980   6.929   4.708
  310TIP3   OH2  886   3.668   3.942   4.667
  310TIP3    H1  887   3.641   4.009   4.730
  310TIP3    H2  888   3.679   3.990   4.584
  311TIP3   OH2  889   1.359   0.165   3.178
  311TIP3    H1  890   1.288   0.128   3.125
  311TIP3    H2  891   1.315   0.208   3.251
  312TIP3   OH2  892   4.095   0.729   3.659
  312TIP3    H1  893   4.152   0.787   3.609
  312TIP3    H2  894   4.058   0.669   3.594
  313TIP3   OH2  895   1.894   4.560   0.037
  313TIP3    H1  896   1.811   4.551   0.083
  313TIP3    H2  897   1.920   4.651   0.050
  314TIP3   OH2  898   7.300   0.056   5.625
  314TIP3    H1  899   7.287   0.146   5.656
  314TIP3    H2  900   7.394   0.042   5.631
  315TIP3   OH2  901   5.445   7.096   3.671
  315TIP3    H1  902   5.392   7.124   3.746
  315TIP3    H2  903   5.530   7.135   3.685
  316TIP3   OH2  904   3.718   7.522   5.737
  316TIP3    H1  905   3.796   7.500   5.684
  316TIP3    H2  906   3.751   7.528   5.827
  317TIP3   OH2  907   1.936   3.553   5.639
  317TIP3    H1  908   2.018   3.555   5.689
  317TIP3    H2  909   1.904   3.644   5.642
  318TIP3   OH2  910   3.769   2.192   4.698
  318TIP3    H1  911   3.800   2.215   4.610
  318TIP3    H2  912   3.801   2.263   4.754
  319TIP3   OH2  913   0.957   7.645   2.491
  319TIP3    H1  914   1.050   7.642   2.514
  319TIP3    H2  915   0.912   7.611   2.568
  320TIP3   OH2  916   5.929   5.697   1.814
  320TIP3    H1  917   5.996   5.739   1.868
  320TIP3    H2  918   5.868   5.768   1.793
  321TIP3   OH2  919   4.416   0.835   1.933
  321TIP3    H1  920   4.456   0.748   1.943
  321TIP3    H2  921   4.336   0.819   1.883
  322TIP3   OH2  922   1.613   3.243   6.188
  322TIP3    H1  923   1.685   3.293   6.227
  322TIP3    H2  924   1.542   3.251   6.251
  323TIP3   OH2  925   3.763   3.685   4.760
  323TIP3    H1  926   3.747   3.779   4.757
  323TIP3    H2  927   3.728   3.652   4.677
  324TIP3   OH2  928   1.527   2.168   4.784
  324TIP3    H1  929   1.460   2.152   4.718
  324TIP3    H2  930   1.545   2.082   4.822
  325TIP3   OH2  931   2.215   1.997   1.218
  325TIP3    H1  932   2.287   1.963   1.272
  325TIP3    H2  933   2.164   2.051   1.278
  326TIP3   OH2  934   3.008   7.385   2.285
  326TIP3    H1  935   2.966   7.441   2.350
  326TIP3    H2  936   3.087   7.352   2.328
  327TIP3   OH2  937   0.426   6.158   5.527
  327TIP3    H1  938   0.360   6.089   5.522
  327TIP3    H2  939   0.503   6.115   5.564
  328TIP3   OH2  940   7.777   1.542   0.536
  328TIP3    H1  941   7.813   1.546   0.448
  328TIP3    H2  942   7.833   1.480   0.583
  329TIP3   OH2  943   3.373   1.401   1.352
  329TIP3    H1  944   3.368   1.410   1.257
  329TIP3    H2  945   3.375   1.307   1.368
  330TIP3   OH2  946   5.835   5.293   5.637
  330TIP3    H1  947   5.891   5.216   5.651
  330TIP3    H2  948   5.760   5.259   5.587
  331TIP3   OH2  949   7.166   0.558   5.299
  331TIP3    H1  950   7.132   0.629   5.353
  331TIP3    H2  951   7.123   0.479   5.333
  332TIP3   OH2  952   3.683   4.858   2.068
  332TIP3    H1  953   3.639   4.838   2.151
  332TIP3    H2  954   3.696   4.773   2.026
  333TIP3   OH2  955   4.889   3.523   0.040
  333TIP3    H1  956   4.959   3.588   0.033
  333TIP3    H2  957   4.809   3.573   0.027
  334TIP3   OH2  958   2.258   6.037   4.463
  334TIP3    H1  959   2.247   6.098   4.536
  334TIP3    H2  960   2.351   6.016   4.463
  335TIP3   OH2  961   0.001   4.633   6.100
  335TIP3    H1  962   0.013   4.599   6.011
  335TIP3    H2  963   0.065   4.704   6.107
  336TIP3   OH2  964   3.332   2.019   3.663
  336TIP3    H1  965   3.414   1.979   3.693
  336TIP3    H2  966   3.269   1.947   3.666
  337TIP3   OH2  967   6.554   6.926   0.340
  337TIP3    H1  968   6.467   6.918   0.301
  337TIP3    H2  969   6.609   6.867   0.289
  338TIP3   OH2  970   7.954   1.836   2.625
  338TIP3    H1  971   8.001   1.753   2.623
  338TIP3    H2  972   7.862   1.812   2.632
  339TIP3   OH2  973   3.490   2.148   5.274
  339TIP3    H1  974   3.586   2.145   5.275
  339TIP3    H2  975   3.466   2.176   5.363
  340TIP3   OH2  976   7.648   4.934   2.616
  340TIP3    H1  977   7.560   4.969   2.602
  340TIP3    H2  978   7.702   4.980   2.552
  341TIP3   OH2  979   7.604   5.735   6.318
  341TIP3    H1  980   7.647   5.784   6.388
  341TIP3    H2  981   7.612   5.644   6.345
  342TIP3   OH2  982   7.244   4.529   5.112
  342TIP3    H1  983   7.266   4.622   5.110
  342TIP3    H2  984   7.199   4.514   5.029
  343TIP3   OH2  985   7.611   7.661   5.192
  343TIP3    H1  986   7.628   7.653   5.285
  343TIP3    H2  987   7.561   7.743   5.183
  344TIP3   OH2  988   7.037   5.195   1.178
  344TIP3    H1  989   7.055   5.276   1.226
  344TIP3    H2  990   6.942   5.197   1.162
  345TIP3   OH2  991   7.223   2.035   5.581
  345TIP3    H1  992   7.270   2.102   5.532
  345TIP3    H2  993   7.156   2.084   5.630
  346TIP3   OH2  994   8.028   1.897   2.980
  346TIP3    H1  995   8.094   1.966   2.985
  346TIP3    H2  996   7.945   1.944   2.968
  347TIP3   OH2  997   2.006   5.850   5.276
  347TIP3    H1  998   1.950   5.916   5.235
  347TIP3    H2  999   1.960   5.824   5.356
  348TIP3   OH2 1000   4.559   5.270   3.135
  348TIP3    H1 1001   4.616   5.219   3.078
  348TIP3    H2 1002   4.573   5.361   3.109
  349TIP3   OH2 1003   0.277   6.725   3.926
  349TIP3    H1 1004   0.299   6.687   3.841
  349TIP3    H2 1005   0.315   6.812   3.924
  350TIP3   OH2 1006   2.553   6.102   6.500
  350TIP3    H1 1007   2.546   6.171   6.433
  350TIP3    H2 1008   2.593   6.145   6.575
  351TIP3   OH2 1009   3.452   3.356   4.563
  351TIP3    H1 1010   3.457   3.368   4.658
  351TIP3    H2 1011   3.541   3.331   4.537
  352TIP3   OH2 1012   0.149   6.071   2.865
  352TIP3    H1 1013   0.162   6.099   2.774
  352TIP3    H2 1014   0.122   5.980   2.858
  353TIP3   OH2 1015   7.311   1.373   2.559
  353TIP3    H1 1016   7.378   1.367   2.491
  353TIP3    H2 1017   7.332   1.454   2.606
  354TIP3   OH2 1018   5.306   2.043   0.144
  354TIP3    H1 1019   5.248   2.000   0.207
  354TIP3    H2 1020   5.386   1.990   0.144
  355TIP3   OH2 1021   1.793   3.635   6.481
  355TIP3    H1 1022   1.889   3.635   6.485
  355TIP3    H2 1023   1.772   3.706   6.421
  356TIP3   OH2 1024   5.318   4.647   5.769
  356TIP3    H1 1025   5.392   4.633   5.827
  356TIP3    H2 1026   5.260   4.572   5.786
  357TIP3   OH2 1027   7.809   0.785   1.197
  357TIP3    H1 1028   7.853   0.824   1.272
  357TIP3    H2 1029   7.747   0.852   1.168
  358TIP3   OH2 1030   6.598   2.319   4.765
  358TIP3    H1 1031   6.683   2.333   4.806
  358TIP3    H2 1032   6.604   2.364   4.681
  359TIP3   OH2 1033   5.247   7.293   2.291
  359TIP3    H1 1034   5.199   7.212   2.310
  359TIP3    H2 1035   5.186   7.363   2.315
  360TIP3   OH2 1036   4.862   6.594   2.634
  360TIP3    H1 1037   4.783   6.638   2.662
  360TIP3    H2 1038   4.850   6.503   2.662
  361TIP3   OH2 1039   0.886   6.520   0.856
  361TIP3    H1 1040   0.858   6.429   0.872
  361TIP3    H2 1041   0.817   6.573   0.895
  362TIP3   OH2 1042   4.532   5.953   5.289
  362TIP3    H1 1043   4.572   5.924   5.206
  362TIP3    H2 1044   4.438   5.961   5.269
  363TIP3   OH2 1045   1.746   4.200   0.863
  363TIP3    H1 1046   1.824   4.158   0.826
  363TIP3    H2 1047   1.728   4.150   0.942
  364TIP3   OH2 1048   7.609   4.114   5.978
  364TIP3    H1 1049   7.674   4.182   5.999
  364TIP3    H2 1050   7.660   4.033   5.974
  365TIP3   OH2 1051   2.858   7.060   1.738
  365TIP3    H1 1052   2.893   7.056   1.649
  365TIP3    H2 1053   2.765   7.041   1.728
  366TIP3   OH2 1054   4.437   4.260   5.956
  366TIP3    H1 1055   4.496   4.203   5.908
  366TIP3    H2 1056   4.393   4.203   6.020
  367TIP3   OH2 1057   4.103   0.075   0.396
  367TIP3    H1 1058   4.189   0.112   0.416
  367TIP3    H2 1059   4.041   0.140   0.428
  368TIP3   OH2 1060   7.291   6.755   5.594
  368TIP3    H1 1061   7.377   6.771   5.631
  368TIP3    H2 1062   7.299   6.781   5.502
  369TIP3   OH2 1063   2.419   2.029   1.898
  369TIP3    H1 1064   2.370   1.955   1.862
  369TIP3    H2 1065   2.365   2.061   1.971
  370TIP3   OH2 1066   0.516   3.309   2.154
  370TIP3    H1 1067   0.459   3.264   2.090
  370TIP3    H2 1068   0.464   3.311   2.234
  371TIP3   OH2 1069   2.180   4.053   5.788
  371TIP3    H1 1070   2.118   4.091   5.726
  371TIP3    H2 1071   2.246   4.009   5.733
  372TIP3   OH2 1072   0.077   1.321   0.088
  372TIP3    H1 1073   0.082   1.346   0.180
  372TIP3    H2 1074   0.152   1.363   0.047
  373TIP3   OH2 1075   1.205   6.766   6.750
  373TIP3    H1 1076   1.140   6.776   6.681
  373TIP3    H2 1077   1.153   6.744   6.828
  374TIP3   OH2 1078   6.958   5.616   2.259
  374TIP3    H1 1079   7.040   5.568   2.275
  374TIP3    H2 1080   6.923   5.576   2.179
  375TIP3   OH2 1081   7.733   3.770   5.814
  375TIP3    H1 1082   7.759   3.771   5.722
  375TIP3    H2 1083   7.767   3.852   5.849
  376TIP3   OH2 1084   1.689   1.547   5.946
  376TIP3    H1 1085   1.615   1.517   5.893
  376TIP3    H2 1086   1.664   1.523   6.036
  377TIP3   OH2 1087   3.950   6.954   6.378
  377TIP3    H1 1088   3.997   6.879   6.342
  377TIP3    H2 1089   3.957   7.022   6.311
  378TIP3   OH2 1090   5.219   7.588   1.159
  378TIP3    H1 1091   5.283   7.649   1.123
  378TIP3    H2 1092   5.233   7.592   1.254
  379TIP3   OH2 1093   3.683   4.532   2.591
  379TIP3    H1 1094   3.639   4.506   2.672
  379TIP3    H2 1095   3.645   4.617   2.569
  380TIP3   OH2 1096   4.424   6.065   4.733
  380TIP3    H1 1097   4.335   6.094   4.712
  380TIP3    H2 1098   4.440   6.099   4.821
  381TIP3   OH2 1099   5.523   0.399   5.275
  381TIP3    H1 1100   5.579   0.473   5.298
  381TIP3    H2 1101   5.573   0.351   5.209
  382TIP3   OH2 1102   1.310   4.358   6.537
  382TIP3    H1 1103   1.230   4.327   6.495
  382TIP3    H2 1104   1.292   4.352   6.630
  383TIP3   OH2 1105   0.074   1.450   4.905
  383TIP3    H1 1106   0.029   1.366   4.893
  383TIP3    H2 1107   0.155   1.441   4.855
  384TIP3   OH2 1108   4.778   4.616   6.195
  384TIP3    H1 1109   4.722   4.694   6.200
  384TIP3    H2 1110   4.864   4.650   6.173
  385TIP3   OH2 1111   7.533   2.268   3.654
  385TIP3    H1 1112   7.577   2.263   3.569
  385TIP3    H2 1113   7.440   2.269   3.633
  386TIP3   OH2 1114   4.963   5.052   3.774
  386TIP3    H1 1115   4.907   5.098   3.712
  386TIP3    H2 1116   4.942   4.960   3.762
  387TIP3   OH2 1117   1.898   7.364   0.569
  387TIP3    H1 1118   1.927   7.314   0.646
  387TIP3    H2 1119   1.805   7.342   0.560
  388TIP3   OH2 1120   3.768   6.855   1.843
  388TIP3    H1 1121   3.812   6.844   1.758
  388TIP3    H2 1122   3.687   6.902   1.822
  389TIP3   OH2 1123   0.516   5.890   0.696
  389TIP3    H1 1124   0.463   5.911   0.619
  389TIP3    H2 1125   0.603   5.922   0.675
  390TIP3   OH2 1126   6.866   4.705   3.771
  390TIP3    H1 1127   6.819   4.787   3.784
  390TIP3    H2 1128   6.868   4.693   3.676
  391TIP3   OH2 1129   7.198   0.526   6.140
  391TIP3    H1 1130   7.238   0.613   6.150
  391TIP3    H2 1131   7.121   0.541   6.086
  392TIP3   OH2 1132   4.461   4.376   4.173
  392TIP3    H1 1133   4.380   4.331   4.198
  392TIP3    H2 1134   4.451   4.465   4.208
  393TIP3   OH2 1135   1.182   2.173   1.342
  393TIP3    H1 1136   1.258   2.114   1.335
  393TIP3    H2 1137   1.199   2.225   1.420
  394TIP3   OH2 1138   6.140   0.459   0.270
  394TIP3    H1 1139   6.191   0.513   0.210
  394TIP3    H2 1140   6.188   0.376   0.274
  395TIP3   OH2 1141   1.650   7.060   0.099
  395TIP3    H1 1142   1.605   7.022   0.024
  395TIP3    H2 1143   1.584   7.061   0.169
  396TIP3   OH2 1144   3.616   1.743   4.885
  396TIP3    H1 1145   3.636   1.793   4.806
  396TIP3    H2 1146   3.547   1.682   4.858
  397TIP3   OH2 1147   1.437   4.015   2.974
  397TIP3    H1 1148   1.353   3.978   2.944
  397TIP3    H2 1149   1.412   4.093   3.024
  398TIP3   OH2 1150   6.156   5.424   5.973
  398TIP3    H1 1151   6.075   5.436   5.923
  398TIP3    H2 1152   6.137   5.460   6.059
  399TIP3   OH2 1153   5.859   7.147   3.971
  399TIP3    H1 1154   5.922   7.197   4.023
  399TIP3    H2 1155   5.907   7.124   3.891
  400TIP3   OH2 1156   6.015   6.614   2.175
  400TIP3    H1 1157   5.960   6.542   2.145
  400TIP3    H2 1158   6.049   6.654   2.095
  401TIP3   OH2 1159   1.749   4.992   2.984
  401TIP3    H1 1160   1.749   5.083   2.953
  401TIP3    H2 1161   1.790   4.942   2.914
  402TIP3   OH2 1162   7.702   3.848   6.750
  402TIP3    H1 1163   7.652   3.903   6.689
  402TIP3    H2 1164   7.635   3.797   6.796
  403TIP3   OH2 1165   1.587   4.741   3.903
  403TIP3    H1 1166   1.527   4.750   3.829
  403TIP3    H2 1167   1.641   4.820   3.899
  404TIP3   OH2 1168   4.750   0.838   0.790
  404TIP3    H1 1169   4.685   0.905   0.767
  404TIP3    H2 1170   4.741   0.827   0.884
  405TIP3   OH2 1171   7.449   1.113   5.046
  405TIP3    H1 1172   7.530   1.093   5.093
  405TIP3    H2 1173   7.383   1.058   5.087
  406TIP3   OH2 1174   6.440   3.164   4.015
  406TIP3    H1 1175   6.467   3.167   3.923
  406TIP3    H2 1176   6.374   3.094   4.018
  407TIP3   OH2 1177   5.223   3.518   6.111
  407TIP3    H1 1178   5.152   3.496   6.052
  407TIP3    H2 1179   5.280   3.441   6.110
  408TIP3   OH2 1180   0.196   0.990   2.144
  408TIP3    H1 1181   0.173   0.954   2.230
  408TIP3    H2 1182   0.263   0.931   2.111
  409TIP3   OH2 1183   2.674   0.672   3.489
  409TIP3    H1 1184   2.663   0.738   3.557
  409TIP3    H2 1185   2.684   0.722   3.408
  410TIP3   OH2 1186   4.355   5.027   1.778
  410TIP3    H1 1187   4.318   5.068   1.700
  410TIP3    H2 1188   4.449   5.039   1.770
  411TIP3   OH2 1189   5.781   7.712   3.037
  411TIP3    H1 1190   5.852   7.666   2.993
  411TIP3    H2 1191   5.772   7.794   2.989
  412TIP3   OH2 1192   6.193   2.986   4.782
  412TIP3    H1 1193   6.268   2.965   4.726
  412TIP3    H2 1194   6.171   3.076   4.759
  413TIP3   OH2 1195   4.436   5.353   6.342
  413TIP3    H1 1196   4.482   5.271   6.324
  413TIP3    H2 1197   4.411   5.386   6.256
  414TIP3   OH2 1198   3.575   3.798   4.989
  414TIP3    H1 1199   3.589   3.735   5.059
  414TIP3    H2 1200   3.628   3.766   4.917
  415TIP3   OH2 1201   5.046   7.094   2.157
  415TIP3    H1 1202   5.044   7.054   2.070
  415TIP3    H2 1203   4.959   7.132   2.168
  416TIP3   OH2 1204   4.944   6.939   0.638
  416TIP3    H1 1205   5.021   6.990   0.610
  416TIP3    H2 1206   4.981   6.857   0.671
  417TIP3   OH2 1207   1.560   2.085   1.501
  417TIP3    H1 1208   1.520   2.032   1.432
  417TIP3    H2 1209   1.489   2.142   1.531
  418TIP3   OH2 1210   5.276   1.268   0.591
  418TIP3    H1 1211   5.229   1.311   0.662
  418TIP3    H2 1212   5.224   1.287   0.513
  419TIP3   OH2 1213   2.325   3.823   4.409
  419TIP3    H1 1214   2.408   3.780   4.386
  419TIP3    H2 1215   2.282   3.836   4.325
  420TIP3   OH2 1216   0.908   0.982   2.182
  420TIP3    H1 1217   0.982   1.030   2.221
  420TIP3    H2 1218   0.884   1.034   2.106
  421TIP3   OH2 1219   8.277   6.660   4.954
  421TIP3    H1 1220   8.235   6.632   5.035
  421TIP3    H2 1221   8.280   6.756   4.960
  422TIP3   OH2 1222   5.036   2.656   4.002
  422TIP3    H1 1223   5.095   2.683   4.072
  422TIP3    H2 1224   4.966   2.722   4.003
  423TIP3   OH2 1225   1.677   2.775   3.334
  423TIP3    H1 1226   1.768   2.774   3.306
  423TIP3    H2 1227   1.665   2.694   3.383
  424TIP3   OH2 1228   3.339   4.543   2.337
  424TIP3    H1 1229   3.318   4.629   2.374
  424TIP3    H2 1230   3.255   4.500   2.325
  425TIP3   OH2 1231   4.174   7.360   2.831
  425TIP3    H1 1232   4.127   7.357   2.914
  425TIP3    H2 1233   4.207   7.271   2.818
  426TIP3   OH2 1234   7.290   7.687   1.049
  426TIP3    H1 1235   7.353   7.757   1.029
  426TIP3    H2 1236   7.296   7.628   0.973
  427TIP3   OH2 1237   1.114   6.362   3.762
  427TIP3    H1 1238   1.176   6.362   3.690
  427TIP3    H2 1239   1.167   6.345   3.840
  428TIP3   OH2 1240   4.861   1.039   5.513
  428TIP3    H1 1241   4.888   0.948   5.520
  428TIP3    H2 1242   4.835   1.064   5.601
  429TIP3   OH2 1243   6.974   0.414   5.090
  429TIP3    H1 1244   6.957   0.505   5.070
  429TIP3    H2 1245   6.987   0.412   5.185
  430TIP3   OH2 1246   4.288   4.556   4.508
  430TIP3    H1 1247   4.258   4.589   4.423
  430TIP3    H2 1248   4.356   4.618   4.535
  431TIP3   OH2 1249   3.177   2.198   5.529
  431TIP3    H1 1250   3.166   2.104   5.547
  431TIP3    H2 1251   3.219   2.233   5.609
  432TIP3   OH2 1252   1.282   1.374   1.069
  432TIP3    H1 1253   1.188   1.358   1.074
  432TIP3    H2 1254   1.321   1.287   1.066
  433TIP3   OH2 1255   7.289   7.606   2.439
  433TIP3    H1 1256   7.270   7.587   2.348
  433TIP3    H2 1257   7.359   7.673   2.435
  434TIP3   OH2 1258   4.730   7.473   3.421
  434TIP3    H1 1259   4.635   7.469   3.434
  434TIP3    H2 1260   4.767   7.438   3.502
  435TIP3   OH2 1261   6.476   1.089   2.688
  435TIP3    H1 1262   6.447   1.064   2.775
  435TIP3    H2 1263   6.569   1.066   2.686
  436TIP3   OH2 1264   4.908   7.528   4.528
  436TIP3    H1 1265   4.863   7.501   4.447
  436TIP3    H2 1266   4.901   7.624   4.528
  437TIP3   OH2 1267   7.247   0.959   2.997
  437TIP3    H1 1268   7.252   1.043   3.043
  437TIP3    H2 1269   7.153   0.939   2.995
  438TIP3   OH2 1270   1.166   5.143   5.048
  438TIP3    H1 1271   1.086   5.117   5.094
  438TIP3    H2 1272   1.174   5.079   4.976
  439TIP3   OH2 1273   4.134   2.105   3.722
  439TIP3    H1 1274   4.049   2.145   3.706
  439TIP3    H2 1275   4.169   2.153   3.797
  440TIP3   OH2 1276   7.519   6.661   4.404
  440TIP3    H1 1277   7.448   6.703   4.356
  440TIP3    H2 1278   7.598   6.684   4.355
  441TIP3   OH2 1279   7.499   2.427   0.354
  441TIP3    H1 1280   7.565   2.416   0.285
  441TIP3    H2 1281   7.432   2.362   0.334
  442TIP3   OH2 1282   2.038   5.435   5.267
  442TIP3    H1 1283   1.964   5.379   5.290
  442TIP3    H2 1284   2.031   5.446   5.172
  443TIP3   OH2 1285   7.147   6.423   6.551
  443TIP3    H1 1286   7.098   6.452   6.628
  443TIP3    H2 1287   7.143   6.496   6.490
  444TIP3   OH2 1288   7.667   4.592   1.373
  444TIP3    H1 1289   7.707   4.505   1.365
  444TIP3    H2 1290   7.697   4.625   1.458
  445TIP3   OH2 1291   5.109   0.083   6.512
  445TIP3    H1 1292   5.153   0.154   6.466
  445TIP3    H2 1293   5.033   0.062   6.458
  446TIP3   OH2 1294   5.687   5.742   3.802
  446TIP3    H1 1295   5.655   5.825   3.768
  446TIP3    H2 1296   5.653   5.676   3.742
  447TIP3   OH2 1297   6.752   1.015   1.983
  447TIP3    H1 1298   6.779   0.923   1.979
  447TIP3    H2 1299   6.807   1.053   2.051
  448TIP3   OH2 1300   1.956   5.167   2.446
  448TIP3    H1 1301   1.954   5.096   2.510
  448TIP3    H2 1302   2.034   5.218   2.468
  449TIP3   OH2 1303   7.875   2.907   1.882
  449TIP3    H1 1304   7.803   2.854   1.916
  449TIP3    H2 1305   7.834   2.989   1.855
  450TIP3   OH2 1306   1.528   0.749   4.628
  450TIP3    H1 1307   1.445   0.756   4.580
  450TIP3    H2 1308   1.510   0.789   4.713
  451TIP3   OH2 1309   2.740   3.501   0.170
  451TIP3    H1 1310   2.802   3.466   0.106
  451TIP3    H2 1311   2.655   3.467   0.142
  452TIP3   OH2 1312   4.771   6.124   3.457
  452TIP3    H1 1313   4.682   6.088   3.463
  452TIP3    H2 1314   4.825   6.061   3.505
  453TIP3   OH2 1315   3.714   0.704   5.406
  453TIP3    H1 1316   3.694   0.780   5.351
  453TIP3    H2 1317   3.712   0.630   5.347
  454TIP3   OH2 1318   5.702   3.986   4.070
  454TIP3    H1 1319   5.729   4.062   4.018
  454TIP3    H2 1320   5.713   3.911   4.011
  455TIP3   OH2 1321   3.361   1.131   1.623
  455TIP3    H1 1322   3.319   1.129   1.537
  455TIP3    H2 1323   3.450   1.101   1.607
  456TIP3   OH2 1324   0.745   4.159   6.272
  456TIP3    H1 1325   0.676   4.165   6.206
  456TIP3    H2 1326   0.705   4.111   6.344
  457TIP3   OH2 1327   6.660   5.180   1.607
  457TIP3    H1 1328   6.583   5.236   1.598
  457TIP3    H2 1329   6.661   5.126   1.529
  458TIP3   OH2 1330   0.502   0.004   3.163
  458TIP3    H1 1331   0.423   0.058   3.159
  458TIP3    H2 1332   0.538   0.007   3.074
  459TIP3   OH2 1333   4.701   6.819   6.517
  459TIP3    H1 1334   4.680   6.733   6.554
  459TIP3    H2 1335   4.771   6.802   6.454
  460TIP3   OH2 1336   0.822   0.130   5.016
  460TIP3    H1 1337   0.793   0.215   5.048
  460TIP3    H2 1338   0.794   0.128   4.925
  461TIP3   OH2 1339   2.032   5.917   4.602
  461TIP3    H1 1340   1.970   5.846   4.590
  461TIP3    H2 1341   2.113   5.885   4.563
  462TIP3   OH2 1342   0.286   5.476   1.737
  462TIP3    H1 1343   0.370   5.497   1.696
  462TIP3    H2 1344   0.251   5.403   1.685
  463TIP3   OH2 1345   7.829   5.203   5.682
  463TIP3    H1 1346   7.830   5.291   5.645
  463TIP3    H2 1347   7.909   5.197   5.734
  464TIP3   OH2 1348   1.758   7.513   6.654
  464TIP3    H1 1349   1.742   7.592   6.705
  464TIP3    H2 1350   1.677   7.499   6.605
  465TIP3   OH2 1351   4.739   5.092   4.412
  465TIP3    H1 1352   4.787   5.172   4.390
  465TIP3    H2 1353   4.672   5.086   4.344
  466TIP3   OH2 1354   5.459   7.726   0.693
  466TIP3    H1 1355   5.456   7.784   0.769
  466TIP3    H2 1356   5.367   7.713   0.668
  467TIP3   OH2 1357   1.043   0.834   0.389
  467TIP3    H1 1358   0.991   0.901   0.345
  467TIP3    H2 1359   1.054   0.765   0.324
  468TIP3   OH2 1360   6.286   3.097   1.201
  468TIP3    H1 1361   6.342   3.154   1.148
  468TIP3    H2 1362   6.240   3.156   1.260
  469TIP3   OH2 1363   3.891   2.682   5.462
  469TIP3    H1 1364   3.961   2.668   5.399
  469TIP3    H2 1365   3.825   2.617   5.440
  470TIP3   OH2 1366   5.970   6.585   3.238
  470TIP3    H1 1367   6.028   6.660   3.235
  470TIP3    H2 1368   6.013   6.523   3.297
  471TIP3   OH2 1369   2.731   3.435   3.094
  471TIP3    H1 1370   2.761   3.517   3.133
  471TIP3    H2 1371   2.657   3.460   3.040
  472TIP3   OH2 1372   7.759   1.283   6.152
  472TIP3    H1 1373   7.730   1.220   6.085
  472TIP3    H2 1374   7.851   1.300   6.130
  473TIP3   OH2 1375   7.820   4.290   2.113
  473TIP3    H1 1376   7.876   4.334   2.176
  473TIP3    H2 1377   7.871   4.213   2.086
  474TIP3   OH2 1378   3.657   3.652   3.258
  474TIP3    H1 1379   3.613   3.582   3.306
  474TIP3    H2 1380   3.717   3.691   3.322
  475TIP3   OH2 1381   0.768   4.709   2.580
  475TIP3    H1 1382   0.843   4.731   2.636
  475TIP3    H2 1383   0.691   4.731   2.632
  476TIP3   OH2 1384   4.652   0.317   0.044
  476TIP3    H1 1385   4.694   0.392   0.002
  476TIP3    H2 1386   4.584   0.355   0.100
  477TIP3   OH2 1387   5.945   7.584   4.913
  477TIP3    H1 1388   5.853   7.604   4.929
  477TIP3    H2 1389   5.964   7.509   4.969
  478TIP3   OH2 1390   6.669   0.228   1.248
  478TIP3    H1 1391   6.683   0.144   1.205
  478TIP3    H2 1392   6.643   0.287   1.177
  479TIP3   OH2 1393   3.824   2.296   1.661
  479TIP3    H1 1394   3.787   2.208   1.669
  479TIP3    H2 1395   3.884   2.303   1.736
  480TIP3   OH2 1396   4.576   0.560   5.862
  480TIP3    H1 1397   4.648   0.498   5.851
  480TIP3    H2 1398   4.535   0.536   5.945
  481TIP3   OH2 1399   4.342   1.314   0.153
  481TIP3    H1 1400   4.368   1.385   0.095
  481TIP3    H2 1401   4.248   1.307   0.142
  482TIP3   OH2 1402   0.919   1.607   5.174
  482TIP3    H1 1403   1.007   1.575   5.193
  482TIP3    H2 1404   0.909   1.685   5.230
  483TIP3   OH2 1405   3.497   5.012   1.861
  483TIP3    H1 1406   3.537   4.994   1.946
  483TIP3    H2 1407   3.444   4.934   1.842
  484TIP3   OH2 1408   3.007   5.171   0.489
  484TIP3    H1 1409   3.054   5.101   0.534
  484TIP3    H2 1410   2.951   5.125   0.426
  485TIP3   OH2 1411   3.007   0.872   2.558
  485TIP3    H1 1412   3.008   0.886   2.653
  485TIP3    H2 1413   2.915   0.855   2.538
  486TIP3   OH2 1414   8.018   2.559   2.039
  486TIP3    H1 1415   7.936   2.607   2.042
  486TIP3    H2 1416   7.998   2.483   1.984
  487TIP3   OH2 1417   3.104   1.671   2.243
  487TIP3    H1 1418   3.136   1.590   2.282
  487TIP3    H2 1419   3.183   1.719   2.219
  488TIP3   OH2 1420   7.431   6.388   1.037
  488TIP3    H1 1421   7.465   6.382   1.127
  488TIP3    H2 1422   7.336   6.379   1.047
  489TIP3   OH2 1423   3.584   2.340   5.012
  489TIP3    H1 1424   3.635   2.361   4.934
  489TIP3    H2 1425   3.617   2.401   5.078
  490TIP3   OH2 1426   1.114   7.172   1.319
  490TIP3    H1 1427   1.174   7.098   1.324
  490TIP3    H2 1428   1.167   7.248   1.343
  491TIP3   OH2 1429   0.039   0.311   0.274
  491TIP3    H1 1430   0.002   0.223   0.272
  491TIP3    H2 1431  -0.018   0.362   0.216
  492TIP3   OH2 1432   2.669   0.716   1.668
  492TIP3    H1 1433   2.754   0.749   1.696
  492TIP3    H2 1434   2.687   0.671   1.585
  493TIP3   OH2 1435   3.218   6.626   3.827
  493TIP3    H1 1436   3.136   6.617   3.777
  493TIP3    H2 1437   3.280   6.663   3.764
  494TIP3   OH2 1438   6.443   5.779   6.774
  494TIP3    H1 1439   6.435   5.765   6.679
  494TIP3    H2 1440   6.441   5.874   6.784
  495TIP3   OH2 1441   1.176   7.383   3.924
  495TIP3    H1 1442   1.268   7.358   3.916
  495TIP3    H2 1443   1.133   7.306   3.959
  496TIP3   OH2 1444   7.079   7.264   4.850
  496TIP3    H1 1445   7.148   7.222   4.797
  496TIP3    H2 1446   7.124   7.333   4.898
  497TIP3   OH2 1447   6.643   0.591   3.335
  497TIP3    H1 1448   6.682   0.583   3.248
  497TIP3    H2 1449   6.684   0.670   3.372
  498TIP3   OH2 1450   3.678   7.228   5.185
  498TIP3    H1 1451   3.599   7.180   5.162
  498TIP3    H2 1452   3.706   7.190   5.268
  499TIP3   OH2 1453   0.505   0.252   4.120
  499TIP3    H1 1454   0.445   0.238   4.048
  499TIP3    H2 1455   0.572   0.311   4.085
  500TIP3   OH2 1456   2.498   5.022   5.882
  500TIP3    H1 1457   2.577   5.076   5.878
  500TIP3    H2 1458   2.505   4.976   5.966
  501TIP3   OH2 1459   2.241   0.263   0.256
  501TIP3    H1 1460   2.210   0.295   0.172
  501TIP3    H2 1461   2.171   0.286   0.317
  502TIP3   OH2 1462   3.590   3.495   1.372
  502TIP3    H1 1463   3.524   3.498   1.440
  502TIP3    H2 1464   3.666   3.455   1.414
  503TIP3   OH2 1465   2.367   6.680   3.821
  503TIP3    H1 1466   2.375   6.729   3.902
  503TIP3    H2 1467   2.362   6.588   3.849
  504TIP3   OH2 1468   1.125   5.606   6.090
  504TIP3    H1 1469   1.094   5.690   6.125
  504TIP3    H2 1470   1.176   5.630   6.013
  505TIP3   OH2 1471   7.169   0.215   0.387
  505TIP3    H1 1472   7.183   0.211   0.292
  505TIP3    H2 1473   7.162   0.309   0.406
  506TIP3   OH2 1474   1.634   5.385   0.999
  506TIP3    H1 1475   1.644   5.478   0.979
  506TIP3    H2 1476   1.663   5.377   1.090
  507TIP3   OH2 1477   1.219   7.738   4.371
  507TIP3    H1 1478   1.125   7.732   4.353
  507TIP3    H2 1479   1.238   7.661   4.424
  508TIP3   OH2 1480   3.434   4.818   0.678
  508TIP3    H1 1481   3.408   4.827   0.586
  508TIP3    H2 1482   3.382   4.743   0.710
  509TIP3   OH2 1483   3.306   7.251   6.606
  509TIP3    H1 1484   3.347   7.337   6.603
  509TIP3    H2 1485   3.257   7.244   6.525
  510TIP3   OH2 1486   8.109   2.651   2.449
  510TIP3    H1 1487   8.187   2.638   2.396
  510TIP3    H2 1488   8.143   2.675   2.535
  511TIP3   OH2 1489   6.899   6.128   4.294
  511TIP3    H1 1490   6.911   6.217   4.261
  511TIP3    H2 1491   6.933   6.130   4.383
  512TIP3   OH2 1492   7.879   7.778   1.317
  512TIP3    H1 1493   7.873   7.700   1.372
  512TIP3    H2 1494   7.797   7.780   1.269
  513TIP3   OH2 1495   6.496   3.429   3.276
  513TIP3    H1 1496   6.519   3.522   3.281
  513TIP3    H2 1497   6.428   3.425   3.209
  514TIP3   OH2 1498   7.908   2.945   5.202
  514TIP3    H1 1499   7.875   3.033   5.221
  514TIP3    H2 1500   7.851   2.913   5.132
  515TIP3   OH2 1501   2.517   5.729   5.027
  515TIP3    H1 1502   2.440   5.785   5.020
  515TIP3    H2 1503   2.515   5.676   4.947
  516TIP3   OH2 1504   1.255   0.326   4.255
  516TIP3    H1 1505   1.264   0.243   4.209
  516TIP3    H2 1506   1.301   0.313   4.338
  517TIP3   OH2 1507   0.812   5.862   0.394
  517TIP3    H1 1508   0.893   5.869   0.446
  517TIP3    H2 1509   0.777   5.951   0.391
  518TIP3   OH2 1510   6.462   1.441   6.353
  518TIP3    H1 1511   6.472   1.503   6.426
  518TIP3    H2 1512   6.547   1.444   6.308
  519TIP3   OH2 1513   1.856   2.226   2.796
  519TIP3    H1 1514   1.859   2.301   2.735
  519TIP3    H2 1515   1.925   2.245   2.859
  520TIP3   OH2 1516   3.654   4.492   3.742
  520TIP3    H1 1517   3.623   4.582   3.741
  520TIP3    H2 1518   3.615   4.451   3.665
  521TIP3   OH2 1519   7.290   7.512   0.320
  521TIP3    H1 1520   7.340   7.582   0.280
  521TIP3    H2 1521   7.342   7.433   0.306
  522TIP3   OH2 1522   2.553   2.312   6.756
  522TIP3    H1 1523   2.597   2.227   6.764
  522TIP3    H2 1524   2.467   2.290   6.721
  523TIP3   OH2 1525   5.558   5.483   2.825
  523TIP3    H1 1526   5.537   5.552   2.762
  523TIP3    H2 1527   5.508   5.407   2.794
  524TIP3   OH2 1528   1.893   5.662   6.675
  524TIP3    H1 1529   1.809   5.686   6.713
  524TIP3    H2 1530   1.958   5.702   6.734
  525TIP3   OH2 1531   5.525   6.979   1.473
  525TIP3    H1 1532   5.595   7.040   1.451
  525TIP3    H2 1533   5.446   7.020   1.440
  526TIP3   OH2 1534   6.819   7.325   5.881
  526TIP3    H1 1535   6.890   7.386   5.858
  526TIP3    H2 1536   6.824   7.257   5.814
  527TIP3   OH2 1537   0.087   3.750   6.079
  527TIP3    H1 1538   0.075   3.660   6.110
  527TIP3    H2 1539   0.125   3.740   5.992
  528TIP3   OH2 1540   6.056   2.874   2.413
  528TIP3    H1 1541   6.039   2.957   2.371
  528TIP3    H2 1542   6.132   2.891   2.469
  529TIP3   OH2 1543   3.397   5.967   6.345
  529TIP3    H1 1544   3.425   5.911   6.273
  529TIP3    H2 1545   3.331   6.025   6.306
  530TIP3   OH2 1546   0.137   2.161   1.591
  530TIP3    H1 1547   0.213   2.176   1.535
  530TIP3    H2 1548   0.070   2.222   1.559
  531TIP3   OH2 1549   0.556   4.038   4.979
  531TIP3    H1 1550   0.608   4.004   4.907
  531TIP3    H2 1551   0.602   4.011   5.058
  532TIP3   OH2 1552   2.070   6.056   0.785
  532TIP3    H1 1553   2.146   6.074   0.730
  532TIP3    H2 1554   2.107   6.015   0.863
  533TIP3   OH2 1555   4.257   2.658   0.522
  533TIP3    H1 1556   4.291   2.584   0.472
  533TIP3    H2 1557   4.294   2.735   0.478
  534TIP3   OH2 1558   4.657   0.779   6.311
  534TIP3    H1 1559   4.644   0.716   6.240
  534TIP3    H2 1560   4.642   0.865   6.271
  535TIP3   OH2 1561   3.332   2.589   4.774
  535TIP3    H1 1562   3.261   2.573   4.712
  535TIP3    H2 1563   3.292   2.574   4.860
  536TIP3   OH2 1564   4.746   0.497   4.192
  536TIP3    H1 1565   4.674   0.472   4.251
  536TIP3    H2 1566   4.763   0.418   4.141
  537TIP3   OH2 1567   3.389   0.053   1.142
  537TIP3    H1 1568   3.354   0.003   1.215
  537TIP3    H2 1569   3.471   0.090   1.175
  538TIP3   OH2 1570   5.728   4.427   1.459
  538TIP3    H1 1571   5.637   4.455   1.453
  538TIP3    H2 1572   5.733   4.379   1.541
  539TIP3   OH2 1573   2.817   2.227   2.939
  539TIP3    H1 1574   2.906   2.205   2.968
  539TIP3    H2 1575   2.775   2.262   3.018
  540TIP3   OH2 1576   3.406   1.904   0.557
  540TIP3    H1 1577   3.463   1.961   0.610
  540TIP3    H2 1578   3.352   1.859   0.621
  541TIP3   OH2 1579   4.397   0.877   6.536
  541TIP3    H1 1580   4.345   0.870   6.615
  541TIP3    H2 1581   4.481   0.915   6.564
  542TIP3   OH2 1582   2.228   3.781   0.413
  542TIP3    H1 1583   2.252   3.710   0.473
  542TIP3    H2 1584   2.133   3.787   0.421
  543TIP3   OH2 1585   8.233   2.952   3.198
  543TIP3    H1 1586   8.246   2.982   3.108
  543TIP3    H2 1587   8.138   2.945   3.206
  544TIP3   OH2 1588   7.352   4.983   2.634
  544TIP3    H1 1589   7.306   5.028   2.563
  544TIP3    H2 1590   7.282   4.950   2.691
  545TIP3   OH2 1591   4.181   2.908   5.930
  545TIP3    H1 1592   4.241   2.834   5.931
  545TIP3    H2 1593   4.170   2.932   6.022
  546TIP3   OH2 1594   5.714   3.743   3.949
  546TIP3    H1 1595   5.628   3.740   3.991
  546TIP3    H2 1596   5.738   3.651   3.937
  547TIP3   OH2 1597   3.487   2.302   5.537
  547TIP3    H1 1598   3.576   2.309   5.502
  547TIP3    H2 1599   3.441   2.376   5.497
  548TIP3   OH2 1600   7.026   7.538   0.276
  548TIP3    H1 1601   7.113   7.525   0.313
  548TIP3    H2 1602   6.992   7.616   0.322
  549TIP3   OH2 1603   2.279   7.200   3.076
  549TIP3    H1 1604   2.274   7.106   3.062
  549TIP3    H2 1605   2.366   7.213   3.114
  550TIP3   OH2 1606   7.695   7.687   5.441
  550TIP3    H1 1607   7.697   7.782   5.450
  550TIP3    H2 1608   7.767   7.656   5.496
  551TIP3   OH2 1609   5.222   7.659   4.992
  551TIP3    H1 1610   5.128   7.651   4.975
  551TIP3    H2 1611   5.253   7.569   5.002
  552TIP3   OH2 1612   6.353   6.471   1.673
  552TIP3    H1 1613   6.277   6.497   1.725
  552TIP3    H2 1614   6.333   6.382   1.645
  553TIP3   OH2 1615   5.708   2.602   0.391
  553TIP3    H1 1616   5.664   2.674   0.436
  553TIP3    H2 1617   5.670   2.523   0.429
  554TIP3   OH2 1618   2.977   1.105   2.196
  554TIP3    H1 1619   3.042   1.153   2.145
  554TIP3    H2 1620   3.025   1.075   2.274
  555TIP3   OH2 1621   4.304   6.837   3.465
  555TIP3    H1 1622   4.314   6.932   3.461
  555TIP3    H2 1623   4.214   6.823   3.495
  556TIP3   OH2 1624   4.693   7.411   3.696
  556TIP3    H1 1625   4.627   7.447   3.754
  556TIP3    H2 1626   4.734   7.340   3.746
  557TIP3   OH2 1627   5.911   4.024   5.382
  557TIP3    H1 1628   5.847   3.973   5.431
  557TIP3    H2 1629   5.949   3.962   5.320
  558TIP3   OH2 1630   8.064   3.721   2.945
  558TIP3    H1 1631   8.032   3.638   2.909
  558TIP3    H2 1632   8.159   3.716   2.935
  559TIP3   OH2 1633   4.234   2.114   5.899
  559TIP3    H1 1634   4.247   2.171   5.824
  559TIP3    H2 1635   4.320   2.108   5.941
  560TIP3   OH2 1636   5.449   6.406   4.964
  560TIP3    H1 1637   5.482   6.316   4.970
  560TIP3    H2 1638   5.364   6.403   5.010
  561TIP3   OH2 1639   5.089   4.607   5.263
  561TIP3    H1 1640   5.161   4.562   5.218
  561TIP3    H2 1641   5.127   4.690   5.292
  562TIP3   OH2 1642   7.550   5.598   3.905
  562TIP3    H1 1643   7.627   5.595   3.961
  562TIP3    H2 1644   7.478   5.624   3.963
  563TIP3   OH2 1645   3.090   6.390   0.158
  563TIP3    H1 1646   3.080   6.295   0.148
  563TIP3    H2 1647   3.145   6.416   0.084
  564TIP3   OH2 1648   2.770   0.510   0.452
  564TIP3    H1 1649   2.745   0.440   0.391
  564TIP3    H2 1650   2.714   0.496   0.528
  565TIP3   OH2 1651   3.988   3.763   0.903
  565TIP3    H1 1652   4.003   3.708   0.826
  565TIP3    H2 1653   4.015   3.850   0.875
  566TIP3   OH2 1654   0.137   6.298   3.239
  566TIP3    H1 1655   0.225   6.324   3.268
  566TIP3    H2 1656   0.105   6.374   3.191
  567TIP3   OH2 1657   5.149   4.049   0.662
  567TIP3    H1 1658   5.239   4.022   0.681
  567TIP3    H2 1659   5.158   4.135   0.623
  568TIP3   OH2 1660   0.592   6.167   5.870
  568TIP3    H1 1661   0.533   6.208   5.807
  568TIP3    H2 1662   0.678   6.175   5.830
  569TIP3   OH2 1663   6.838   2.299   4.906
  569TIP3    H1 1664   6.844   2.230   4.972
  569TIP3    H2 1665   6.879   2.375   4.947
  570TIP3   OH2 1666   2.828   3.841   2.572
  570TIP3    H1 1667   2.872   3.798   2.498
  570TIP3    H2 1668   2.879   3.816   2.648
  571TIP3   OH2 1669   3.031   6.106   6.769
  571TIP3    H1 1670   3.006   6.044   6.701
  571TIP3    H2 1671   3.112   6.145   6.737
  572TIP3   OH2 1672   5.118   3.903   3.834
  572TIP3    H1 1673   5.208   3.909   3.804
  572TIP3    H2 1674   5.094   3.993   3.855
  573TIP3   OH2 1675   4.333   2.870   6.207
  573TIP3    H1 1676   4.351   2.821   6.287
  573TIP3    H2 1677   4.251   2.916   6.224
  574TIP3   OH2 1678   5.463   0.277   5.512
  574TIP3    H1 1679   5.499   0.321   5.435
  574TIP3    H2 1680   5.526   0.209   5.533
  575TIP3   OH2 1681   7.622   2.637   3.479
  575TIP3    H1 1682   7.543   2.642   3.533
  575TIP3    H2 1683   7.689   2.603   3.538
  576TIP3   OH2 1684   0.856   5.091   1.701
  576TIP3    H1 1685   0.899   5.068   1.619
  576TIP3    H2 1686   0.801   5.167   1.679
  577TIP3   OH2 1687   2.511   2.397   6.168
  577TIP3    H1 1688   2.581   2.421   6.228
  577TIP3    H2 1689   2.506   2.301   6.174
  578TIP3   OH2 1690   5.996   0.123   6.269
  578TIP3    H1 1691   6.036   0.098   6.186
  578TIP3    H2 1692   6.066   0.169   6.316
  579TIP3   OH2 1693   0.678   7.202   1.453
  579TIP3    H1 1694   0.741   7.165   1.515
  579TIP3    H2 1695   0.669   7.134   1.386
  580TIP3   OH2 1696   8.142   5.573   0.429
  580TIP3    H1 1697   8.122   5.484   0.399
  580TIP3    H2 1698   8.101   5.630   0.364
  581TIP3   OH2 1699   5.048   7.391   3.502
  581TIP3    H1 1700   4.993   7.369   3.427
  581TIP3    H2 1701   5.083   7.478   3.481
  582TIP3   OH2 1702   7.400   2.955   4.646
  582TIP3    H1 1703   7.365   2.983   4.730
  582TIP3    H2 1704   7.358   2.870   4.630
  583TIP3   OH2 1705   1.434   7.491   0.679
  583TIP3    H1 1706   1.341   7.509   0.666
  583TIP3    H2 1707   1.464   7.455   0.596
  584TIP3   OH2 1708   5.689   0.225   4.021
  584TIP3    H1 1709   5.696   0.308   4.068
  584TIP3    H2 1710   5.744   0.237   3.943
  585TIP3   OH2 1711   1.176   7.302   1.889
  585TIP3    H1 1712   1.211   7.277   1.804
  585TIP3    H2 1713   1.093   7.346   1.870
  586TIP3   OH2 1714   6.621   6.895   4.959
  586TIP3    H1 1715   6.717   6.883   4.957
  586TIP3    H2 1716   6.609   6.986   4.984
  587TIP3   OH2 1717   1.159   1.540   6.381
  587TIP3    H1 1718   1.173   1.622   6.334
  587TIP3    H2 1719   1.074   1.552   6.424
  588TIP3   OH2 1720   8.137   6.891   3.970
  588TIP3    H1 1721   8.069   6.903   3.903
  588TIP3    H2 1722   8.198   6.829   3.931
  589TIP3   OH2 1723   6.744   0.629   1.431
  589TIP3    H1 1724   6.808   0.574   1.387
  589TIP3    H2 1725   6.794   0.676   1.497
  590TIP3   OH2 1726   3.757   0.197   3.160
  590TIP3    H1 1727   3.770   0.205   3.065
  590TIP3    H2 1728   3.664   0.213   3.173
  591TIP3   OH2 1729   7.325   0.283   1.207
  591TIP3    H1 1730   7.269   0.216   1.166
  591TIP3    H2 1731   7.291   0.291   1.296
  592TIP3   OH2 1732   5.899   2.586   5.416
  592TIP3    H1 1733   5.942   2.502   5.398
  592TIP3    H2 1734   5.826   2.588   5.354
  593TIP3   OH2 1735   0.680   3.834   4.380
  593TIP3    H1 1736   0.752   3.858   4.322
  593TIP3    H2 1737   0.722   3.792   4.455
  594TIP3   OH2 1738   2.895   6.599   2.415
  594TIP3    H1 1739   2.942   6.661   2.471
  594TIP3    H2 1740   2.950   6.589   2.338
  595TIP3   OH2 1741   0.129   6.910   0.370
  595TIP3    H1 1742   0.100   6.983   0.424
  595TIP3    H2 1743   0.062   6.843   0.381
  596TIP3   OH2 1744   6.083   6.047   4.429
  596TIP3    H1 1745   6.038   5.967   4.404
  596TIP3    H2 1746   6.144   6.021   4.497
  597TIP3   OH2 1747   0.628   6.733   4.377
  597TIP3    H1 1748   0.550   6.691   4.414
  597TIP3    H2 1749   0.601   6.823   4.361
  598TIP3   OH2 1750   1.154   6.569   2.150
  598TIP3    H1 1751   1.212   6.632   2.194
  598TIP3    H2 1752   1.098   6.535   2.219
  599TIP3   OH2 1753   7.657   7.460   1.176
  599TIP3    H1 1754   7.648   7.463   1.271
  599TIP3    H2 1755   7.703   7.378   1.159
  600TIP3   OH2 1756   0.376   5.760   6.495
  600TIP3    H1 1757   0.289   5.722   6.496
  600TIP3    H2 1758   0.419   5.727   6.574
  601TIP3   OH2 1759   0.831   4.432   5.619
  601TIP3    H1 1760   0.907   4.390   5.578
  601TIP3    H2 1761   0.866   4.512   5.658
  602TIP3   OH2 1762   5.795   4.800   2.347
  602TIP3    H1 1763   5.841   4.860   2.406
  602TIP3    H2 1764   5.864   4.758   2.297
  603TIP3   OH2 1765   3.523   0.874   5.832
  603TIP3    H1 1766   3.614   0.902   5.820
  603TIP3    H2 1767   3.527   0.814   5.906
  604TIP3   OH2 1768   0.212   4.150   3.475
  604TIP3    H1 1769   0.261   4.073   3.502
  604TIP3    H2 1770   0.259   4.224   3.515
  605TIP3   OH2 1771   6.277   4.421   1.408
  605TIP3    H1 1772   6.329   4.495   1.439
  605TIP3    H2 1773   6.198   4.461   1.371
  606TIP3   OH2 1774   5.407   7.362   5.835
  606TIP3    H1 1775   5.427   7.453   5.812
  606TIP3    H2 1776   5.361   7.368   5.918
  607TIP3   OH2 1777   2.844   5.565   5.069
  607TIP3    H1 1778   2.806   5.651   5.050
  607TIP3    H2 1779   2.892   5.578   5.151
  608TIP3   OH2 1780   5.483   4.611   5.547
  608TIP3    H1 1781   5.422   4.636   5.616
  608TIP3    H2 1782   5.560   4.579   5.593
  609TIP3   OH2 1783   7.298   2.864   4.963
  609TIP3    H1 1784   7.358   2.792   4.943
  609TIP3    H2 1785   7.224   2.822   5.008
  610TIP3   OH2 1786   5.995   7.032   5.726
  610TIP3    H1 1787   6.015   7.000   5.638
  610TIP3    H2 1788   5.973   7.124   5.713
  611TIP3   OH2 1789   2.855   3.106   4.595
  611TIP3    H1 1790   2.783   3.166   4.575
  611TIP3    H2 1791   2.920   3.124   4.527
  612TIP3   OH2 1792   5.081   1.646   3.598
  612TIP3    H1 1793   5.143   1.664   3.668
  612TIP3    H2 1794   5.129   1.590   3.537
  613TIP3   OH2 1795   2.427   7.244   0.121
  613TIP3    H1 1796   2.347   7.220   0.075
  613TIP3    H2 1797   2.469   7.309   0.066
  614TIP3   OH2 1798   1.115   7.757   1.150
  614TIP3    H1 1799   1.196   7.732   1.107
  614TIP3    H2 1800   1.073   7.674   1.172
  615TIP3   OH2 1801   1.212   0.377   5.792
  615TIP3    H1 1802   1.282   0.325   5.833
  615TIP3    H2 1803   1.193   0.446   5.855
  616TIP3   OH2 1804   7.927   6.142   0.465
  616TIP3    H1 1805   7.832   6.141   0.475
  616TIP3    H2 1806   7.952   6.233   0.481
  617TIP3   OH2 1807   6.727   0.801   2.326
  617TIP3    H1 1808   6.691   0.726   2.279
  617TIP3    H2 1809   6.678   0.805   2.408
  618TIP3   OH2 1810   4.036   1.908   4.061
  618TIP3    H1 1811   4.118   1.923   4.107
  618TIP3    H2 1812   4.009   1.995   4.031
  619TIP3   OH2 1813   7.815   6.379   1.716
  619TIP3    H1 1814   7.841   6.437   1.645
  619TIP3    H2 1815   7.761   6.433   1.773
  620TIP3   OH2 1816   1.042   7.449   5.518
  620TIP3    H1 1817   1.122   7.476   5.473
  620TIP3    H2 1818   0.979   7.518   5.499
  621TIP3   OH2 1819   7.845   7.540   5.936
  621TIP3    H1 1820   7.797   7.620   5.914
  621TIP3    H2 1821   7.867   7.550   6.028
  622TIP3   OH2 1822   2.464   6.769   4.091
  622TIP3    H1 1823   2.425   6.840   4.039
  622TIP3    H2 1824   2.424   6.779   4.178
  623TIP3   OH2 1825   1.008   4.086   5.738
  623TIP3    H1 1826   1.033   3.995   5.721
  623TIP3    H2 1827   1.012   4.129   5.652
  624TIP3   OH2 1828   5.099   5.370   0.119
  624TIP3    H1 1829   5.124   5.334   0.034
  624TIP3    H2 1830   5.004   5.361   0.122
  625TIP3   OH2 1831   2.909   5.641   2.588
  625TIP3    H1 1832   2.964   5.631   2.511
  625TIP3    H2 1833   2.823   5.666   2.552
  626TIP3   OH2 1834   1.847   3.290   5.706
  626TIP3    H1 1835   1.785   3.278   5.778
  626TIP3    H2 1836   1.847   3.385   5.691
  627TIP3   OH2 1837   6.654   1.913   0.035
  627TIP3    H1 1838   6.662   1.856   0.112
  627TIP3    H2 1839   6.573   1.961   0.048
  628TIP3   OH2 1840   3.848   6.459   4.506
  628TIP3    H1 1841   3.869   6.429   4.595
  628TIP3    H2 1842   3.815   6.548   4.518
  629TIP3   OH2 1843   0.269   3.550   0.937
  629TIP3    H1 1844   0.180   3.587   0.934
  629TIP3    H2 1845   0.275   3.509   1.023
  630TIP3   OH2 1846   6.236   6.044   6.159
  630TIP3    H1 1847   6.172   5.974   6.169
  630TIP3    H2 1848   6.263   6.040   6.068
  631TIP3   OH2 1849   4.764   0.195   1.698
  631TIP3    H1 1850   4.792   0.115   1.653
  631TIP3    H2 1851   4.837   0.217   1.756
  632TIP3   OH2 1852   3.856   3.663   3.494
  632TIP3    H1 1853   3.839   3.754   3.517
  632TIP3    H2 1854   3.823   3.613   3.568
  633TIP3   OH2 1855   6.949   0.034   2.371
  633TIP3    H1 1856   6.975  -0.056   2.355
  633TIP3    H2 1857   6.862   0.027   2.412
  634TIP3   OH2 1858   7.641   5.599   3.339
  634TIP3    H1 1859   7.728   5.565   3.315
  634TIP3    H2 1860   7.658   5.688   3.371
  635TIP3   OH2 1861   4.575   2.026   0.288
  635TIP3    H1 1862   4.637   2.010   0.359
  635TIP3    H2 1863   4.492   1.989   0.319
  636TIP3   OH2 1864   2.556   5.942   0.989
  636TIP3    H1 1865   2.516   5.864   0.952
  636TIP3    H2 1866   2.566   6.002   0.915
  637TIP3   OH2 1867   5.214   2.426   6.107
  637TIP3    H1 1868   5.160   2.474   6.170
  637TIP3    H2 1869   5.151   2.394   6.042
  638TIP3   OH2 1870   1.635   7.737   1.035
  638TIP3    H1 1871   1.590   7.655   1.016
  638TIP3    H2 1872   1.567   7.804   1.028
  639TIP3   OH2 1873   6.197   0.278   2.632
  639TIP3    H1 1874   6.156   0.362   2.613
  639TIP3    H2 1875   6.131   0.213   2.607
  640TIP3   OH2 1876   3.479   5.063   4.826
  640TIP3    H1 1877   3.447   5.151   4.846
  640TIP3    H2 1878   3.504   5.067   4.734
  641TIP3   OH2 1879   7.510   2.672   4.960
  641TIP3    H1 1880   7.572   2.622   5.012
  641TIP3    H2 1881   7.563   2.735   4.911
  642TIP3   OH2 1882   6.260   3.046   2.553
  642TIP3    H1 1883   6.279   3.027   2.645
  642TIP3    H2 1884   6.304   2.976   2.505
  643TIP3   OH2 1885   7.322   4.015   2.023
  643TIP3    H1 1886   7.284   4.101   2.004
  643TIP3    H2 1887   7.417   4.031   2.022
  644TIP3   OH2 1888   6.583   3.046   5.599
  644TIP3    H1 1889   6.518   3.003   5.654
  644TIP3    H2 1890   6.562   3.019   5.510
  645TIP3   OH2 1891   3.403   5.061   6.489
  645TIP3    H1 1892   3.422   5.149   6.456
  645TIP3    H2 1893   3.489   5.023   6.507
  646TIP3   OH2 1894   6.941   0.383   1.101
  646TIP3    H1 1895   6.883   0.311   1.077
  646TIP3    H2 1896   6.943   0.440   1.024
  647TIP3   OH2 1897   4.416   0.192   2.337
  647TIP3    H1 1898   4.456   0.116   2.379
  647TIP3    H2 1899   4.356   0.156   2.273
  648TIP3   OH2 1900   0.248   5.708   5.621
  648TIP3    H1 1901   0.196   5.719   5.700
  648TIP3    H2 1902   0.249   5.614   5.606
  649TIP3   OH2 1903   3.349   3.264   1.304
  649TIP3    H1 1904   3.403   3.245   1.227
  649TIP3    H2 1905   3.301   3.343   1.281
  650TIP3   OH2 1906   8.039   7.534   1.718
  650TIP3    H1 1907   7.982   7.531   1.795
  650TIP3    H2 1908   8.100   7.462   1.730
  651TIP3   OH2 1909   5.248   3.876   4.682
  651TIP3    H1 1910   5.257   3.966   4.649
  651TIP3    H2 1911   5.241   3.823   4.603
  652TIP3   OH2 1912   5.314   5.639   2.939
  652TIP3    H1 1913   5.312   5.546   2.957
  652TIP3    H2 1914   5.401   5.655   2.901
  653TIP3   OH2 1915   2.247   3.254   4.934
  653TIP3    H1 1916   2.301   3.191   4.982
  653TIP3    H2 1917   2.184   3.286   4.999
  654TIP3   OH2 1918   2.494   7.588   3.710
  654TIP3    H1 1919   2.572   7.571   3.657
  654TIP3    H2 1920   2.526   7.586   3.800
  655TIP3   OH2 1921   7.692   2.500   2.527
  655TIP3    H1 1922   7.681   2.495   2.622
  655TIP3    H2 1923   7.773   2.451   2.510
  656TIP3   OH2 1924   3.175   0.909   6.674
  656TIP3    H1 1925   3.097   0.875   6.718
  656TIP3    H2 1926   3.152   0.911   6.581
  657TIP3   OH2 1927   4.681   4.412   3.245
  657TIP3    H1 1928   4.704   4.461   3.324
  657TIP3    H2 1929   4.718   4.464   3.173
  658TIP3   OH2 1930   0.751   2.252   3.658
  658TIP3    H1 1931   0.780   2.228   3.570
  658TIP3    H2 1932   0.732   2.346   3.652
  659TIP3   OH2 1933   6.173   3.923   0.403
  659TIP3    H1 1934   6.181   4.013   0.374
  659TIP3    H2 1935   6.232   3.874   0.346
  660TIP3   OH2 1936   6.883   7.093   5.126
  660TIP3    H1 1937   6.818   7.024   5.136
  660TIP3    H2 1938   6.865   7.131   5.040
  661TIP3   OH2 1939   0.749   6.447   2.836
  661TIP3    H1 1940   0.674   6.506   2.828
  661TIP3    H2 1941   0.726   6.387   2.907
  662TIP3   OH2 1942   3.433   6.790   5.156
  662TIP3    H1 1943   3.454   6.882   5.173
  662TIP3    H2 1944   3.347   6.777   5.197
  663TIP3   OH2 1945   1.215   5.871   6.550
  663TIP3    H1 1946   1.147   5.828   6.498
  663TIP3    H2 1947   1.176   5.878   6.638
  664TIP3   OH2 1948   1.788   2.108   3.318
  664TIP3    H1 1949   1.770   2.031   3.264
  664TIP3    H2 1950   1.702   2.137   3.348
  665TIP3   OH2 1951   8.193   7.766   3.030
  665TIP3    H1 1952   8.224   7.692   2.976
  665TIP3    H2 1953   8.272   7.817   3.048
  666TIP3   OH2 1954   5.214   7.620   6.590
  666TIP3    H1 1955   5.235   7.607   6.683
  666TIP3    H2 1956   5.279   7.568   6.543
  667TIP3   OH2 1957   0.663   5.670   6.595
  667TIP3    H1 1958   0.703   5.648   6.679
  667TIP3    H2 1959   0.679   5.594   6.540
  668TIP3   OH2 1960   0.609   4.689   0.376
  668TIP3    H1 1961   0.527   4.739   0.383
  668TIP3    H2 1962   0.656   4.707   0.457
  669TIP3   OH2 1963   7.993   6.023   4.825
  669TIP3    H1 1964   8.010   6.050   4.915
  669TIP3    H2 1965   8.055   5.952   4.809
  670TIP3   OH2 1966   0.172   0.537   1.252
  670TIP3    H1 1967   0.152   0.601   1.184
  670TIP3    H2 1968   0.266   0.522   1.243
  671TIP3   OH2 1969   5.606   7.654   2.770
  671TIP3    H1 1970   5.691   7.610   2.778
  671TIP3    H2 1971   5.627   7.740   2.734
  672TIP3   OH2 1972   4.323   3.252   3.033
  672TIP3    H1 1973   4.314   3.341   3.000
  672TIP3    H2 1974   4.236   3.231   3.068
  673TIP3   OH2 1975   6.055   0.070   1.002
  673TIP3    H1 1976   6.097   0.022   1.074
  673TIP3    H2 1977   6.001   0.004   0.959
  674TIP3   OH2 1978   2.304   1.604   6.201
  674TIP3    H1 1979   2.395   1.633   6.209
  674TIP3    H2 1980   2.310   1.509   6.201
  675TIP3   OH2 1981   4.514   2.216   6.120
  675TIP3    H1 1982   4.483   2.136   6.077
  675TIP3    H2 1983   4.599   2.193   6.157
  676TIP3   OH2 1984   6.394   3.997   4.704
  676TIP3    H1 1985   6.306   4.023   4.674
  676TIP3    H2 1986   6.451   4.067   4.672
  677TIP3   OH2 1987   3.412   5.839   4.924
  677TIP3    H1 1988   3.478   5.871   4.986
  677TIP3    H2 1989   3.461   5.793   4.857
  678TIP3   OH2 1990   2.023   1.702   0.895
  678TIP3    H1 1991   1.930   1.681   0.889
  678TIP3    H2 1992   2.064   1.651   0.826
  679TIP3   OH2 1993   1.794   6.555   4.595
  679TIP3    H1 1994   1.807   6.633   4.648
  679TIP3    H2 1995   1.704   6.562   4.562
  680TIP3   OH2 1996   2.943   7.200   0.069
  680TIP3    H1 1997   2.905   7.202  -0.019
  680TIP3    H2 1998   2.985   7.285   0.080
  681TIP3   OH2 1999   5.204   5.794   4.794
  681TIP3    H1 2000   5.173   5.883   4.806
  681TIP3    H2 2001   5.131   5.748   4.754
  682TIP3   OH2 2002   3.516   7.364   3.532
  682TIP3    H1 2003   3.432   7.323   3.553
  682TIP3    H2 2004   3.564   7.364   3.615
  683TIP3   OH2 2005   5.559   2.466   5.274
  683TIP3    H1 2006   5.644   2.460   5.230
  683TIP3    H2 2007   5.547   2.559   5.292
  684TIP3   OH2 2008   6.563   0.068   3.845
  684TIP3    H1 2009   6.532   0.156   3.863
  684TIP3    H2 2010   6.624   0.049   3.916
  685TIP3   OH2 2011   7.418   4.847   0.262
  685TIP3    H1 2012   7.410   4.908   0.335
  685TIP3    H2 2013   7.328   4.829   0.236
  686TIP3   OH2 2014   6.282   4.299   3.207
  686TIP3    H1 2015   6.345   4.362   3.241
  686TIP3    H2 2016   6.311   4.283   3.117
  687TIP3   OH2 2017   7.466   3.656   6.396
  687TIP3    H1 2018   7.420   3.624   6.474
  687TIP3    H2 2019   7.506   3.738   6.423
  688TIP3   OH2 2020   3.574   4.128   6.228
  688TIP3    H1 2021   3.653   4.182   6.227
  688TIP3    H2 2022   3.514   4.173   6.169
  689TIP3   OH2 2023   7.165   5.248   2.884
  689TIP3    H1 2024   7.171   5.338   2.850
  689TIP3    H2 2025   7.250   5.209   2.864
  690TIP3   OH2 2026   6.810   4.711   4.205
  690TIP3    H1 2027   6.824   4.648   4.276
  690TIP3    H2 2028   6.840   4.794   4.241
  691TIP3   OH2 2029   1.795   5.960   2.692
  691TIP3    H1 2030   1.761   6.006   2.615
  691TIP3    H2 2031   1.755   6.005   2.766
  692TIP3   OH2 2032   3.963   7.215   5.731
  692TIP3    H1 2033   3.894   7.151   5.749
  692TIP3    H2 2034   4.019   7.172   5.665
  693TIP3   OH2 2035   4.984   0.724   1.176
  693TIP3    H1 2036   4.974   0.630   1.184
  693TIP3    H2 2037   5.078   0.739   1.180
  694TIP3   OH2 2038   2.666   4.486   3.859
  694TIP3    H1 2039   2.692   4.511   3.948
  694TIP3    H2 2040   2.740   4.510   3.804
  695TIP3   OH2 2041   3.823   1.220   3.453
  695TIP3    H1 2042   3.834   1.243   3.545
  695TIP3    H2 2043   3.871   1.138   3.443
  696TIP3   OH2 2044   2.415   4.998   3.228
  696TIP3    H1 2045   2.335   5.035   3.266
  696TIP3    H2 2046   2.463   4.961   3.302
  697TIP3   OH2 2047   2.668   1.402   2.575
  697TIP3    H1 2048   2.695   1.390   2.485
  697TIP3    H2 2049   2.583   1.358   2.582
  698TIP3   OH2 2050   5.158   1.734   6.097
  698TIP3    H1 2051   5.069   1.738   6.131
  698TIP3    H2 2052   5.169   1.813   6.045
  699TIP3   OH2 2053   6.332   6.518   3.622
  699TIP3    H1 2054   6.268   6.494   3.689
  699TIP3    H2 2055   6.343   6.439   3.569
  700TIP3   OH2 2056   4.783   0.387   1.009
  700TIP3    H1 2057   4.858   0.399   1.066
  700TIP3    H2 2058   4.773   0.292   1.001
  701TIP3   OH2 2059   2.525   3.423   0.938
  701TIP3    H1 2060   2.458   3.486   0.967
  701TIP3    H2 2061   2.570   3.468   0.867
  702TIP3   OH2 2062   6.462   2.304   5.990
  702TIP3    H1 2063   6.402   2.258   5.931
  702TIP3    H2 2064   6.544   2.256   5.984
  703TIP3   OH2 2065   0.900   0.908   5.079
  703TIP3    H1 2066   0.927   0.820   5.104
  703TIP3    H2 2067   0.837   0.935   5.145
  704TIP3   OH2 2068   4.213   4.535   4.845
  704TIP3    H1 2069   4.295   4.571   4.877
  704TIP3    H2 2070   4.189   4.591   4.771
  705TIP3   OH2 2071   4.153   4.334   2.236
  705TIP3    H1 2072   4.109   4.415   2.212
  705TIP3    H2 2073   4.089   4.265   2.221
  706TIP3   OH2 2074   3.271   1.345   6.309
  706TIP3    H1 2075   3.208   1.292   6.260
  706TIP3    H2 2076   3.287   1.421   6.254
  707TIP3   OH2 2077   0.321   0.054   0.898
  707TIP3    H1 2078   0.307   0.000   0.821
  707TIP3    H2 2079   0.277   0.136   0.878
  708TIP3   OH2 2080   8.132   1.952   5.570
  708TIP3    H1 2081   8.105   1.905   5.490
  708TIP3    H2 2082   8.186   2.024   5.538
  709TIP3   OH2 2083   3.267   2.911   4.586
  709TIP3    H1 2084   3.359   2.883   4.589
  709TIP3    H2 2085   3.254   2.962   4.666
  710TIP3   OH2 2086   5.904   0.782   3.475
  710TIP3    H1 2087   5.984   0.832   3.458
  710TIP3    H2 2088   5.932   0.690   3.472
  711TIP3   OH2 2089   6.345   0.145   0.452
  711TIP3    H1 2090   6.263   0.097   0.460
  711TIP3    H2 2091   6.339   0.214   0.518
  712TIP3   OH2 2092   5.823   5.790   6.631
  712TIP3    H1 2093   5.814   5.778   6.726
  712TIP3    H2 2094   5.915   5.814   6.619
  713TIP3   OH2 2095   1.377   1.678   0.317
  713TIP3    H1 2096   1.425   1.638   0.389
  713TIP3    H2 2097   1.388   1.616   0.244
  714TIP3   OH2 2098   4.586   1.431   5.221
  714TIP3    H1 2099   4.610   1.352   5.270
  714TIP3    H2 2100   4.584   1.403   5.130
  715TIP3   OH2 2101   1.334   6.803   4.465
  715TIP3    H1 2102   1.273   6.746   4.510
  715TIP3    H2 2103   1.319   6.890   4.503
  716TIP3   OH2 2104   7.896   5.921   1.008
  716TIP3    H1 2105   7.986   5.928   0.975
  716TIP3    H2 2106   7.841   5.948   0.935
  717TIP3   OH2 2107   5.394   3.548   5.781
  717TIP3    H1 2108   5.408   3.541   5.875
  717TIP3    H2 2109   5.352   3.633   5.769
  718TIP3   OH2 2110   4.746   2.872   3.084
  718TIP3    H1 2111   4.672   2.929   3.103
  718TIP3    H2 2112   4.749   2.811   3.158
  719TIP3   OH2 2113   1.946   5.985   1.887
  719TIP3    H1 2114   1.953   6.080   1.900
  719TIP3    H2 2115   2.034   5.957   1.863
  720TIP3   OH2 2116   3.678   5.814   2.271
  720TIP3    H1 2117   3.624   5.805   2.350
  720TIP3    H2 2118   3.614   5.818   2.200
  721TIP3   OH2 2119   1.554   6.630   4.495
  721TIP3    H1 2120   1.557   6.594   4.406
  721TIP3    H2 2121   1.477   6.687   4.495
  722TIP3   OH2 2122   0.666   6.485   5.685
  722TIP3    H1 2123   0.640   6.535   5.608
  722TIP3    H2 2124   0.593   6.426   5.702
  723TIP3   OH2 2125   1.172   2.878   6.621
  723TIP3    H1 2126   1.083   2.857   6.649
  723TIP3    H2 2127   1.222   2.799   6.642
  724TIP3   OH2 2128   0.923   1.464   1.344
  724TIP3    H1 2129   0.871   1.477   1.265
  724TIP3    H2 2130   0.962   1.377   1.332
  725TIP3   OH2 2131   4.265   6.252   0.140
  725TIP3    H1 2132   4.245   6.166   0.103
  725TIP3    H2 2133   4.216   6.256   0.222
  726TIP3   OH2 2134   1.100   3.314   2.336
  726TIP3    H1 2135   1.007   3.295   2.324
  726TIP3    H2 2136   1.144   3.266   2.265
  727TIP3   OH2 2137   2.214   6.792   5.068
  727TIP3    H1 2138   2.274   6.847   5.018
  727TIP3    H2 2139   2.129   6.806   5.026
  728TIP3   OH2 2140   0.787   0.226   6.355
  728TIP3    H1 2141   0.714   0.215   6.294
  728TIP3    H2 2142   0.750   0.275   6.428
  729TIP3   OH2 2143   6.944   3.773   5.063
  729TIP3    H1 2144   6.901   3.698   5.022
  729TIP3    H2 2145   7.007   3.802   4.997
  730TIP3   OH2 2146   7.123   3.446   5.310
  730TIP3    H1 2147   7.148   3.460   5.401
  730TIP3    H2 2148   7.183   3.502   5.260
  731TIP3   OH2 2149   7.333   2.066   5.273
  731TIP3    H1 2150   7.263   2.001   5.267
  731TIP3    H2 2151   7.384   2.039   5.349
  732TIP3   OH2 2152   5.431   0.126   1.361
  732TIP3    H1 2153   5.348   0.130   1.313
  732TIP3    H2 2154   5.440   0.214   1.399
  733TIP3   OH2 2155   8.065   2.774   3.462
  733TIP3    H1 2156   8.058   2.841   3.394
  733TIP3    H2 2157   8.154   2.741   3.455
  734TIP3   OH2 2158   3.459   6.883   2.148
  734TIP3    H1 2159   3.386   6.945   2.142
  734TIP3    H2 2160   3.532   6.934   2.181
  735TIP3   OH2 2161   3.468   4.059   3.998
  735TIP3    H1 2162   3.407   4.015   3.939
  735TIP3    H2 2163   3.520   4.117   3.941
  736TIP3   OH2 2164   1.177   7.248   3.025
  736TIP3    H1 2165   1.167   7.269   3.118
  736TIP3    H2 2166   1.220   7.324   2.987
  737TIP3   OH2 2167   6.065   0.093   4.327
  737TIP3    H1 2168   6.017   0.163   4.282
  737TIP3    H2 2169   6.023   0.013   4.297
  738TIP3   OH2 2170   2.477   6.871   1.477
  738TIP3    H1 2171   2.467   6.933   1.404
  738TIP3    H2 2172   2.454   6.786   1.440
  739TIP3   OH2 2173   4.846   4.882   2.603
  739TIP3    H1 2174   4.878   4.852   2.518
  739TIP3    H2 2175   4.892   4.965   2.617
  740TIP3   OH2 2176   4.737   6.163   1.618
  740TIP3    H1 2177   4.661   6.144   1.673
  740TIP3    H2 2178   4.700   6.188   1.534
  741TIP3   OH2 2179   4.154   3.126   1.598
  741TIP3    H1 2180   4.239   3.109   1.557
  741TIP3    H2 2181   4.150   3.221   1.608
  742TIP3   OH2 2182   2.671   4.429   5.042
  742TIP3    H1 2183   2.715   4.360   5.091
  742TIP3    H2 2184   2.657   4.499   5.107
  743TIP3   OH2 2185   0.044   7.432   5.796
  743TIP3    H1 2186   0.073   7.435   5.705
  743TIP3    H2 2187  -0.046   7.464   5.794
  744TIP3   OH2 2188   1.890   6.866   6.034
  744TIP3    H1 2189   1.959   6.920   6.074
  744TIP3    H2 2190   1.884   6.897   5.944
  745TIP3   OH2 2191   5.010   4.693   6.423
  745TIP3    H1 2192   4.981   4.766   6.369
  745TIP3    H2 2193   5.011   4.618   6.364
  746TIP3   OH2 2194   5.318   5.359   2.948
  746TIP3    H1 2195   5.324   5.343   3.042
  746TIP3    H2 2196   5.297   5.273   2.910
  747TIP3   OH2 2197   1.531   3.985   3.946
  747TIP3    H1 2198   1.618   3.961   3.977
  747TIP3    H2 2199   1.472   3.953   4.015
  748TIP3   OH2 2200   5.698   0.586   5.339
  748TIP3    H1 2201   5.753   0.645   5.391
  748TIP3    H2 2202   5.756   0.554   5.270
  749TIP3   OH2 2203   3.772   4.942   3.530
  749TIP3    H1 2204   3.760   4.905   3.443
  749TIP3    H2 2205   3.810   4.871   3.581
  750TIP3   OH2 2206   1.018   3.628   1.473
  750TIP3    H1 2207   0.984   3.603   1.387
  750TIP3    H2 2208   0.960   3.697   1.503
  751TIP3   OH2 2209   1.448   7.440   0.155
  751TIP3    H1 2210   1.362   7.472   0.185
  751TIP3    H2 2211   1.432   7.411   0.065
  752TIP3   OH2 2212   2.967   5.871   3.157
  752TIP3    H1 2213   2.945   5.785   3.121
  752TIP3    H2 2214   2.922   5.874   3.241
  753TIP3   OH2 2215   3.405   2.349   0.422
  753TIP3    H1 2216   3.415   2.430   0.372
  753TIP3    H2 2217   3.465   2.360   0.496
  754TIP3   OH2 2218   3.051   6.550   2.202
  754TIP3    H1 2219   3.139   6.520   2.181
  754TIP3    H2 2220   3.003   6.543   2.119
  755TIP3   OH2 2221   5.823   3.934   0.956
  755TIP3    H1 2222   5.757   3.945   1.023
  755TIP3    H2 2223   5.906   3.934   1.004
  756TIP3   OH2 2224   7.199   5.326   3.781
  756TIP3    H1 2225   7.141   5.250   3.774
  756TIP3    H2 2226   7.227   5.343   3.691
  757TIP3   OH2 2227   6.257   1.555   3.320
  757TIP3    H1 2228   6.163   1.561   3.333
  757TIP3    H2 2229   6.294   1.570   3.407
  758TIP3   OH2 2230   3.210   0.245   5.774
  758TIP3    H1 2231   3.207   0.220   5.682
  758TIP3    H2 2232   3.289   0.299   5.782
  759TIP3   OH2 2233   1.688   3.739   0.794
  759TIP3    H1 2234   1.611   3.775   0.838
  759TIP3    H2 2235   1.755   3.806   0.804
  760TIP3   OH2 2236   7.130   0.800   4.235
  760TIP3    H1 2237   7.056   0.742   4.250
  760TIP3    H2 2238   7.197   0.744   4.197
  761TIP3   OH2 2239   7.809   1.709   1.884
  761TIP3    H1 2240   7.820   1.615   1.868
  761TIP3    H2 2241   7.771   1.742   1.803
  762TIP3   OH2 2242   7.669   0.695   3.754
  762TIP3    H1 2243   7.596   0.637   3.772
  762TIP3    H2 2244   7.743   0.637   3.737
  763TIP3   OH2 2245   0.885   7.717   3.844
  763TIP3    H1 2246   0.929   7.724   3.929
  763TIP3    H2 2247   0.915   7.634   3.808
  764TIP3   OH2 2248   1.464   1.019   4.339
  764TIP3    H1 2249   1.469   0.923   4.345
  764TIP3    H2 2250   1.490   1.049   4.426
  765TIP3   OH2 2251   4.968   1.212   1.131
  765TIP3    H1 2252   4.959   1.146   1.061
  765TIP3    H2 2253   5.008   1.287   1.087
  766TIP3   OH2 2254   3.319   5.724   0.705
  766TIP3    H1 2255   3.360   5.652   0.753
  766TIP3    H2 2256   3.366   5.729   0.622
  767TIP3   OH2 2257   1.886   2.950   1.886
  767TIP3    H1 2258   1.900   3.045   1.884
  767TIP3    H2 2259   1.887   2.927   1.978
  768TIP3   OH2 2260   2.405   1.632   0.823
  768TIP3    H1 2261   2.319   1.626   0.781
  768TIP3    H2 2262   2.385   1.628   0.917
  769TIP3   OH2 2263   5.057   2.284   0.055
  769TIP3    H1 2264   5.080   2.242   0.137
  769TIP3    H2 2265   4.964   2.264   0.043
  770TIP3   OH2 2266   0.418   5.229   2.284
  770TIP3    H1 2267   0.394   5.141   2.257
  770TIP3    H2 2268   0.398   5.232   2.378
  771TIP3   OH2 2269   0.382   2.604   2.877
  771TIP3    H1 2270   0.390   2.699   2.881
  771TIP3    H2 2271   0.344   2.586   2.791
  772TIP3   OH2 2272   1.544   6.983   1.726
  772TIP3    H1 2273   1.556   6.925   1.651
  772TIP3    H2 2274   1.452   7.008   1.722
  773TIP3   OH2 2275   2.699   0.026   4.652
  773TIP3    H1 2276   2.774  -0.032   4.645
  773TIP3    H2 2277   2.681   0.055   4.563
  774TIP3   OH2 2278   2.972   0.452   0.766
  774TIP3    H1 2279   3.046   0.391   0.766
  774TIP3    H2 2280   3.004   0.529   0.718
  775TIP3   OH2 2281   3.026   4.359   2.689
  775TIP3    H1 2282   3.040   4.295   2.758
  775TIP3    H2 2283   3.001   4.439   2.736
  776TIP3   OH2 2284   7.903   2.772   3.712
  776TIP3    H1 2285   7.965   2.736   3.649
  776TIP3    H2 2286   7.906   2.712   3.786
  777TIP3   OH2 2287   0.792   5.152   2.226
  777TIP3    H1 2288   0.739   5.138   2.148
  777TIP3    H2 2289   0.743   5.216   2.278
  778TIP3   OH2 2290   3.668   5.369   2.323
  778TIP3    H1 2291   3.693   5.278   2.334
  778TIP3    H2 2292   3.671   5.383   2.228
  779TIP3   OH2 2293   5.626   2.343   1.558
  779TIP3    H1 2294   5.622   2.262   1.609
  779TIP3    H2 2295   5.679   2.403   1.611
  780TIP3   OH2 2296   6.153   6.652   4.390
  780TIP3    H1 2297   6.146   6.697   4.305
  780TIP3    H2 2298   6.223   6.588   4.377
  781TIP3   OH2 2299   8.112   1.549   1.772
  781TIP3    H1 2300   8.075   1.567   1.686
  781TIP3    H2 2301   8.104   1.455   1.783
  782TIP3   OH2 2302   2.382   3.654   1.302
  782TIP3    H1 2303   2.349   3.702   1.378
  782TIP3    H2 2304   2.477   3.658   1.311
  783TIP3   OH2 2305   1.322   2.647   2.568
  783TIP3    H1 2306   1.410   2.641   2.607
  783TIP3    H2 2307   1.323   2.585   2.496
  784TIP3   OH2 2308   2.937   3.370   1.968
  784TIP3    H1 2309   2.866   3.306   1.962
  784TIP3    H2 2310   2.978   3.368   1.881
  785TIP3   OH2 2311   1.052   5.093   3.727
  785TIP3    H1 2312   0.997   5.171   3.730
  785TIP3    H2 2313   1.020   5.044   3.651
  786TIP3   OH2 2314   0.363   6.024   3.352
  786TIP3    H1 2315   0.387   5.961   3.284
  786TIP3    H2 2316   0.385   6.109   3.315
  787TIP3   OH2 2317   6.784   6.184   6.469
  787TIP3    H1 2318   6.875   6.187   6.497
  787TIP3    H2 2319   6.768   6.269   6.428
  788TIP3   OH2 2320   6.386   4.423   5.461
  788TIP3    H1 2321   6.450   4.474   5.512
  788TIP3    H2 2322   6.419   4.333   5.464
  789TIP3   OH2 2323   1.339   2.561   2.063
  789TIP3    H1 2324   1.354   2.467   2.052
  789TIP3    H2 2325   1.413   2.603   2.020
  790TIP3   OH2 2326   1.683   0.165   5.131
  790TIP3    H1 2327   1.633   0.212   5.197
  790TIP3    H2 2328   1.681   0.074   5.159
  791TIP3   OH2 2329   7.803   2.718   3.977
  791TIP3    H1 2330   7.787   2.637   4.026
  791TIP3    H2 2331   7.831   2.780   4.044
  792TIP3   OH2 2332   1.707   4.407   3.166
  792TIP3    H1 2333   1.639   4.468   3.196
  792TIP3    H2 2334   1.789   4.452   3.185
  793TIP3   OH2 2335   2.105   6.637   3.620
  793TIP3    H1 2336   2.177   6.581   3.591
  793TIP3    H2 2337   2.097   6.704   3.552
  794TIP3   OH2 2338   6.837   2.296   2.500
  794TIP3    H1 2339   6.881   2.355   2.562
  794TIP3    H2 2340   6.880   2.314   2.417
  795TIP3   OH2 2341   3.426   0.930   6.797
  795TIP3    H1 2342   3.477   0.850   6.783
  795TIP3    H2 2343   3.342   0.912   6.753
  796TIP3   OH2 2344   2.010   1.900   6.686
  796TIP3    H1 2345   1.993   1.954   6.763
  796TIP3    H2 2346   1.924   1.865   6.662
  797TIP3   OH2 2347   4.942   6.492   6.111
  797TIP3    H1 2348   4.885   6.498   6.188
  797TIP3    H2 2349   5.027   6.468   6.146
  798TIP3   OH2 2350   5.222   1.121   6.643
  798TIP3    H1 2351   5.277   1.193   6.612
  798TIP3    H2 2352   5.188   1.152   6.727
  799TIP3   OH2 2353   0.392   2.477   1.199
  799TIP3    H1 2354   0.411   2.546   1.134
  799TIP3    H2 2355   0.477   2.457   1.238
  800TIP3   OH2 2356   1.510   1.937   4.921
  800TIP3    H1 2357   1.419   1.915   4.903
  800TIP3    H2 2358   1.525   1.906   5.010
  801TIP3   OH2 2359   3.734   3.496   3.663
  801TIP3    H1 2360   3.746   3.431   3.732
  801TIP3    H2 2361   3.671   3.456   3.603
  802TIP3   OH2 2362   2.714   5.736   6.446
  802TIP3    H1 2363   2.638   5.774   6.489
  802TIP3    H2 2364   2.717   5.645   6.478
  803TIP3   OH2 2365   0.165   7.258   5.973
  803TIP3    H1 2366   0.145   7.171   5.938
  803TIP3    H2 2367   0.162   7.316   5.897
  804TIP3   OH2 2368   3.011   6.865   1.059
  804TIP3    H1 2369   2.972   6.801   0.998
  804TIP3    H2 2370   3.031   6.814   1.137
  805TIP3   OH2 2371   1.832   4.695   3.196
  805TIP3    H1 2372   1.829   4.698   3.100
  805TIP3    H2 2373   1.897   4.628   3.216
  806TIP3   OH2 2374   2.048   4.138   0.763
  806TIP3    H1 2375   2.140   4.148   0.788
  806TIP3    H2 2376   2.022   4.224   0.731
  807TIP3   OH2 2377   4.220   5.463   2.766
  807TIP3    H1 2378   4.211   5.456   2.861
  807TIP3    H2 2379   4.211   5.373   2.734
  808TIP3   OH2 2380   5.669   4.179   3.417
  808TIP3    H1 2381   5.664   4.083   3.412
  808TIP3    H2 2382   5.739   4.196   3.480
  809TIP3   OH2 2383   0.047   5.742   5.453
  809TIP3    H1 2384   0.131   5.765   5.492
  809TIP3    H2 2385   0.039   5.648   5.468
  810TIP3   OH2 2386   0.433   7.417   1.786
  810TIP3    H1 2387   0.466   7.330   1.764
  810TIP3    H2 2388   0.360   7.400   1.846
  811TIP3   OH2 2389   7.062   0.677   4.612
  811TIP3    H1 2390   6.999   0.605   4.610
  811TIP3    H2 2391   7.028   0.741   4.550
  812TIP3   OH2 2392   1.610   7.630   4.283
  812TIP3    H1 2393   1.561   7.706   4.249
  812TIP3    H2 2394   1.575   7.617   4.371
  813TIP3   OH2 2395   0.915   4.009   5.329
  813TIP3    H1 2396   0.954   3.952   5.262
  813TIP3    H2 2397   0.861   3.950   5.381
  814TIP3   OH2 2398   4.317   0.723   5.181
  814TIP3    H1 2399   4.406   0.711   5.214
  814TIP3    H2 2400   4.327   0.724   5.086
  815TIP3   OH2 2401   2.879   1.180   1.408
  815TIP3    H1 2402   2.851   1.092   1.431
  815TIP3    H2 2403   2.967   1.169   1.373
  816TIP3   OH2 2404   3.761   5.126   2.340
  816TIP3    H1 2405   3.731   5.038   2.365
  816TIP3    H2 2406   3.822   5.111   2.268
  817TIP3   OH2 2407   5.263   4.795   5.355
  817TIP3    H1 2408   5.353   4.774   5.332
  817TIP3    H2 2409   5.232   4.849   5.283
  818TIP3   OH2 2410   2.267   4.063   0.147
  818TIP3    H1 2411   2.260   4.159   0.145
  818TIP3    H2 2412   2.179   4.033   0.169
  819TIP3   OH2 2413   2.802   6.809   4.692
  819TIP3    H1 2414   2.744   6.821   4.617
  819TIP3    H2 2415   2.744   6.791   4.766
  820TIP3   OH2 2416   7.363   5.075   0.762
  820TIP3    H1 2417   7.350   5.049   0.853
  820TIP3    H2 2418   7.325   5.163   0.757
  821TIP3   OH2 2419   4.920   4.622   4.653
  821TIP3    H1 2420   5.009   4.620   4.689
  821TIP3    H2 2421   4.909   4.712   4.623
  822TIP3   OH2 2422   5.558   1.895   1.377
  822TIP3    H1 2423   5.645   1.863   1.403
  822TIP3    H2 2424   5.567   1.914   1.284
  823TIP3   OH2 2425   1.312   3.451   2.512
  823TIP3    H1 2426   1.258   3.396   2.455
  823TIP3    H2 2427   1.273   3.442   2.599
  824TIP3   OH2 2428   0.590   3.706   1.827
  824TIP3    H1 2429   0.548   3.764   1.890
  824TIP3    H2 2430   0.682   3.707   1.851
  825TIP3   OH2 2431   6.435   1.825   5.240
  825TIP3    H1 2432   6.358   1.769   5.251
  825TIP3    H2 2433   6.419   1.871   5.158
  826TIP3   OH2 2434   0.214   6.654   1.661
  826TIP3    H1 2435   0.156   6.647   1.736
  826TIP3    H2 2436   0.209   6.745   1.634
  827TIP3   OH2 2437   3.296   0.552   1.760
  827TIP3    H1 2438   3.206   0.525   1.745
  827TIP3    H2 2439   3.348   0.475   1.737
  828TIP3   OH2 2440   3.869   4.416   3.893
  828TIP3    H1 2441   3.921   4.494   3.911
  828TIP3    H2 2442   3.790   4.449   3.849
  829TIP3   OH2 2443   3.176   0.361   4.865
  829TIP3    H1 2444   3.269   0.351   4.886
  829TIP3    H2 2445   3.165   0.314   4.782
  830TIP3   OH2 2446   3.454   2.301   3.273
  830TIP3    H1 2447   3.546   2.299   3.299
  830TIP3    H2 2448   3.406   2.307   3.355
  831TIP3   OH2 2449   1.584   0.114   3.053
  831TIP3    H1 2450   1.501   0.117   3.100
  831TIP3    H2 2451   1.560   0.105   2.961
  832TIP3   OH2 2452   7.946   3.471   2.829
  832TIP3    H1 2453   8.023   3.422   2.857
  832TIP3    H2 2454   7.932   3.444   2.738
  833TIP3   OH2 2455   0.384   3.622   0.071
  833TIP3    H1 2456   0.460   3.663   0.112
  833TIP3    H2 2457   0.331   3.696   0.041
  834TIP3   OH2 2458   5.969   3.691   3.468
  834TIP3    H1 2459   6.027   3.625   3.506
  834TIP3    H2 2460   5.924   3.730   3.543
  835TIP3   OH2 2461   8.059   3.027   6.272
  835TIP3    H1 2462   8.106   3.110   6.266
  835TIP3    H2 2463   7.989   3.035   6.207
  836TIP3   OH2 2464   5.095   7.692   2.819
  836TIP3    H1 2465   5.185   7.700   2.850
  836TIP3    H2 2466   5.042   7.691   2.898
  837TIP3   OH2 2467   3.684   3.841   6.471
  837TIP3    H1 2468   3.625   3.767   6.454
  837TIP3    H2 2469   3.699   3.880   6.385
  838TIP3   OH2 2470   8.113   5.515   2.365
  838TIP3    H1 2471   8.188   5.500   2.307
  838TIP3    H2 2472   8.151   5.512   2.453
  839TIP3   OH2 2473   5.116   4.924   5.144
  839TIP3    H1 2474   5.153   4.902   5.059
  839TIP3    H2 2475   5.023   4.941   5.127
  840TIP3   OH2 2476   5.003   1.757   4.008
  840TIP3    H1 2477   4.983   1.826   4.071
  840TIP3    H2 2478   4.942   1.686   4.029
  841TIP3   OH2 2479   5.397   1.668   2.426
  841TIP3    H1 2480   5.430   1.705   2.344
  841TIP3    H2 2481   5.303   1.682   2.423
  842TIP3   OH2 2482   2.784   5.463   1.719
  842TIP3    H1 2483   2.834   5.401   1.773
  842TIP3    H2 2484   2.712   5.491   1.775
  843TIP3   OH2 2485   2.283   4.594   5.700
  843TIP3    H1 2486   2.293   4.602   5.606
  843TIP3    H2 2487   2.211   4.654   5.721
  844TIP3   OH2 2488   6.950   2.453   3.528
  844TIP3    H1 2489   6.893   2.389   3.569
  844TIP3    H2 2490   6.937   2.439   3.434
  845TIP3   OH2 2491   2.911   6.102   6.132
  845TIP3    H1 2492   2.836   6.160   6.139
  845TIP3    H2 2493   2.878   6.016   6.155
  846TIP3   OH2 2494   0.008   4.816   6.336
  846TIP3    H1 2495   0.072   4.807   6.265
  846TIP3    H2 2496  -0.066   4.862   6.296
  847TIP3   OH2 2497   1.442   6.266   4.195
  847TIP3    H1 2498   1.451   6.361   4.198
  847TIP3    H2 2499   1.384   6.249   4.121
  848TIP3   OH2 2500   1.983   6.743   6.438
  848TIP3    H1 2501   1.994   6.682   6.365
  848TIP3    H2 2502   1.895   6.724   6.472
  849TIP3   OH2 2503   4.558   0.935   1.731
  849TIP3    H1 2504   4.582   0.861   1.676
  849TIP3    H2 2505   4.515   0.896   1.807
  850TIP3   OH2 2506   6.417   4.858   1.590
  850TIP3    H1 2507   6.331   4.829   1.620
  850TIP3    H2 2508   6.468   4.869   1.670
  851TIP3   OH2 2509   4.639   2.314   3.639
  851TIP3    H1 2510   4.633   2.297   3.733
  851TIP3    H2 2511   4.595   2.239   3.599
  852TIP3   OH2 2512   0.949   4.343   6.115
  852TIP3    H1 2513   0.891   4.294   6.174
  852TIP3    H2 2514   0.972   4.422   6.164
  853TIP3   OH2 2515   0.920   3.293   3.425
  853TIP3    H1 2516   0.948   3.379   3.393
  853TIP3    H2 2517   0.825   3.296   3.421
  854TIP3   OH2 2518   0.484   7.668   1.336
  854TIP3    H1 2519   0.509   7.594   1.392
  854TIP3    H2 2520   0.448   7.732   1.397
  855TIP3   OH2 2521   7.469   3.741   2.812
  855TIP3    H1 2522   7.540   3.788   2.856
  855TIP3    H2 2523   7.502   3.726   2.724
  856TIP3   OH2 2524   2.438   6.509   4.050
  856TIP3    H1 2525   2.458   6.596   4.082
  856TIP3    H2 2526   2.509   6.454   4.082
  857TIP3   OH2 2527   8.022   0.101   5.727
  857TIP3    H1 2528   8.057   0.012   5.734
  857TIP3    H2 2529   8.093   0.151   5.687
  858TIP3   OH2 2530   6.375   0.768   3.379
  858TIP3    H1 2531   6.412   0.684   3.407
  858TIP3    H2 2532   6.388   0.826   3.454
  859TIP3   OH2 2533   4.244   7.057   6.280
  859TIP3    H1 2534   4.277   7.145   6.265
  859TIP3    H2 2535   4.186   7.040   6.206
  860TIP3   OH2 2536   3.678   5.096   6.001
  860TIP3    H1 2537   3.637   5.089   5.915
  860TIP3    H2 2538   3.613   5.060   6.062
  861TIP3   OH2 2539   6.427   1.475   0.633
  861TIP3    H1 2540   6.489   1.533   0.677
  861TIP3    H2 2541   6.355   1.532   0.607
  862TIP3   OH2 2542   1.985   1.431   5.467
  862TIP3    H1 2543   1.942   1.391   5.543
  862TIP3    H2 2544   2.076   1.400   5.472
  863TIP3   OH2 2545   6.766   5.183   2.085
  863TIP3    H1 2546   6.740   5.098   2.048
  863TIP3    H2 2547   6.774   5.241   2.010
  864TIP3   OH2 2548   5.413   1.652   6.799
  864TIP3    H1 2549   5.383   1.640   6.709
  864TIP3    H2 2550   5.464   1.734   6.796
  865TIP3   OH2 2551   1.140   2.718   0.136
  865TIP3    H1 2552   1.235   2.712   0.136
  865TIP3    H2 2553   1.111   2.643   0.189
  866TIP3   OH2 2554   6.079   5.094   4.410
  866TIP3    H1 2555   6.171   5.095   4.438
  866TIP3    H2 2556   6.074   5.023   4.346
  867TIP3   OH2 2557   6.896   0.196   3.133
  867TIP3    H1 2558   6.986   0.172   3.111
  867TIP3    H2 2559   6.887   0.286   3.104
  868TIP3   OH2 2560   3.276   5.523   1.398
  868TIP3    H1 2561   3.364   5.492   1.376
  868TIP3    H2 2562   3.221   5.493   1.326
  869TIP3   OH2 2563   0.351   0.197   1.377
  869TIP3    H1 2564   0.419   0.182   1.443
  869TIP3    H2 2565   0.361   0.124   1.316
  870TIP3   OH2 2566   3.524   1.712   2.864
  870TIP3    H1 2567   3.597   1.689   2.921
  870TIP3    H2 2568   3.499   1.800   2.890
  871TIP3   OH2 2569   8.225   5.081   4.299
  871TIP3    H1 2570   8.149   5.035   4.334
  871TIP3    H2 2571   8.275   5.015   4.253
  872TIP3   OH2 2572   0.140   6.475   3.623
  872TIP3    H1 2573   0.116   6.481   3.716
  872TIP3    H2 2574   0.184   6.390   3.615
  873TIP3   OH2 2575   7.498   1.211   0.016
  873TIP3    H1 2576   7.561   1.222   0.087
  873TIP3    H2 2577   7.497   1.295  -0.030
  874TIP3   OH2 2578   2.662   6.746   3.776
  874TIP3    H1 2579   2.697   6.793   3.852
  874TIP3    H2 2580   2.569   6.737   3.795
  875TIP3   OH2 2581   6.656   3.966   3.417
  875TIP3    H1 2582   6.718   3.937   3.350
  875TIP3    H2 2583   6.580   3.909   3.406
  876TIP3   OH2 2584   2.018   3.194   2.776
  876TIP3    H1 2585   2.104   3.155   2.760
  876TIP3    H2 2586   1.981   3.207   2.689
  877TIP3   OH2 2587   5.946   7.012   0.460
  877TIP3    H1 2588   5.865   6.964   0.450
  877TIP3    H2 2589   6.001   6.983   0.387
  878TIP3   OH2 2590   2.722   3.968   3.332
  878TIP3    H1 2591   2.740   3.950   3.240
  878TIP3    H2 2592   2.770   3.900   3.380
  879TIP3   OH2 2593   1.504   6.390   6.105
  879TIP3    H1 2594   1.424   6.438   6.130
  879TIP3    H2 2595   1.480   6.344   6.024
  880TIP3   OH2 2596   1.487   4.949   1.262
  880TIP3    H1 2597   1.465   4.881   1.199
  880TIP3    H2 2598   1.508   5.026   1.208
  881TIP3   OH2 2599   3.171   4.031   1.974
  881TIP3    H1 2600   3.160   4.109   1.921
  881TIP3    H2 2601   3.265   4.017   1.979
  882TIP3   OH2 2602   5.982   2.972   1.539
  882TIP3    H1 2603   5.918   3.016   1.595
  882TIP3    H2 2604   6.021   2.906   1.596
  883TIP3   OH2 2605   2.176   4.502   2.964
  883TIP3    H1 2606   2.214   4.551   3.037
  883TIP3    H2 2607   2.110   4.446   3.004
  884TIP3   OH2 2608   3.377   5.258   5.984
  884TIP3    H1 2609   3.344   5.348   5.991
  884TIP3    H2 2610   3.315   5.215   5.924
  885TIP3   OH2 2611   1.379   7.746   0.088
  885TIP3    H1 2612   1.439   7.712   0.022
  885TIP3    H2 2613   1.302   7.689   0.083
  886TIP3   OH2 2614   5.652   3.120   4.693
  886TIP3    H1 2615   5.717   3.181   4.726
  886TIP3    H2 2616   5.591   3.174   4.643
  887TIP3   OH2 2617   0.692   0.365   5.086
  887TIP3    H1 2618   0.686   0.460   5.097
  887TIP3    H2 2619   0.611   0.332   5.127
  888TIP3   OH2 2620   7.560   3.042   2.416
  888TIP3    H1 2621   7.557   3.002   2.329
  888TIP3    H2 2622   7.528   2.974   2.475
  889TIP3   OH2 2623   6.433   4.025   2.583
  889TIP3    H1 2624   6.381   3.950   2.555
  889TIP3    H2 2625   6.524   3.998   2.566
  890TIP3   OH2 2626   4.416   4.622   4.242
  890TIP3    H1 2627   4.489   4.673   4.207
  890TIP3    H2 2628   4.423   4.633   4.337
  891TIP3   OH2 2629   5.188   7.743   5.257
  891TIP3    H1 2630   5.201   7.708   5.169
  891TIP3    H2 2631   5.120   7.810   5.246
  892TIP3   OH2 2632   1.200   7.726   0.717
  892TIP3    H1 2633   1.191   7.820   0.701
  892TIP3    H2 2634   1.143   7.708   0.791
  893TIP3   OH2 2635   5.228   6.112   1.321
  893TIP3    H1 2636   5.291   6.116   1.393
  893TIP3    H2 2637   5.190   6.200   1.318
  894TIP3   OH2 2638   6.360   5.810   5.445
  894TIP3    H1 2639   6.284   5.819   5.502
  894TIP3    H2 2640   6.326   5.770   5.365
  895TIP3   OH2 2641   6.445   4.244   3.479
  895TIP3    H1 2642   6.509   4.300   3.523
  895TIP3    H2 2643   6.378   4.305   3.448
  896TIP3   OH2 2644   3.556   1.253   3.511
  896TIP3    H1 2645   3.515   1.184   3.459
  896TIP3    H2 2646   3.649   1.247   3.491
  897TIP3   OH2 2647   5.573   2.241   4.575
  897TIP3    H1 2648   5.596   2.224   4.666
  897TIP3    H2 2649   5.648   2.288   4.539
  898TIP3   OH2 2650   2.642   1.168   0.460
  898TIP3    H1 2651   2.674   1.258   0.456
  898TIP3    H2 2652   2.570   1.170   0.523
  899TIP3   OH2 2653   3.358   2.203   3.997
  899TIP3    H1 2654   3.291   2.169   4.057
  899TIP3    H2 2655   3.322   2.188   3.910
  900TIP3   OH2 2656   0.107   0.515   3.480
  900TIP3    H1 2657   0.056   0.468   3.414
  900TIP3    H2 2658   0.187   0.464   3.490
  901TIP3   OH2 2659   7.155   7.349   1.110
  901TIP3    H1 2660   7.177   7.405   1.036
  901TIP3    H2 2661   7.213   7.379   1.181
  902TIP3   OH2 2662   4.793   6.682   0.564
  902TIP3    H1 2663   4.817   6.775   0.572
  902TIP3    H2 2664   4.847   6.638   0.629
  903TIP3   OH2 2665   3.544   3.823   0.385
  903TIP3    H1 2666   3.451   3.809   0.372
  903TIP3    H2 2667   3.581   3.734   0.392
  904TIP3   OH2 2668   1.653   0.735   5.227
  904TIP3    H1 2669   1.682   0.675   5.158
  904TIP3    H2 2670   1.730   0.789   5.245
  905TIP3   OH2 2671   1.110   6.446   5.301
  905TIP3    H1 2672   1.090   6.364   5.347
  905TIP3    H2 2673   1.195   6.431   5.260
  906TIP3   OH2 2674   6.703   0.304   4.322
  906TIP3    H1 2675   6.682   0.364   4.249
  906TIP3    H2 2676   6.628   0.312   4.381
  907TIP3   OH2 2677   2.264   1.784   3.236
  907TIP3    H1 2678   2.308   1.747   3.312
  907TIP3    H2 2679   2.266   1.714   3.171
  908TIP3   OH2 2680   6.773   4.655   1.768
  908TIP3    H1 2681   6.783   4.733   1.713
  908TIP3    H2 2682   6.863   4.626   1.784
  909TIP3   OH2 2683   6.977   5.479   4.889
  909TIP3    H1 2684   6.991   5.527   4.807
  909TIP3    H2 2685   6.939   5.396   4.862
  910TIP3   OH2 2686   7.653   0.041   6.678
  910TIP3    H1 2687   7.592   0.107   6.646
  910TIP3    H2 2688   7.732   0.090   6.700
  911TIP3   OH2 2689   1.640   3.329   5.917
  911TIP3    H1 2690   1.665   3.420   5.899
  911TIP3    H2 2691   1.611   3.330   6.009
  912TIP3   OH2 2692   6.348   2.775   2.512
  912TIP3    H1 2693   6.407   2.767   2.587
  912TIP3    H2 2694   6.402   2.751   2.437
  913TIP3   OH2 2695   3.435   7.312   4.904
  913TIP3    H1 2696   3.399   7.401   4.897
  913TIP3    H2 2697   3.522   7.325   4.942
  914TIP3   OH2 2698   2.123   5.501   1.334
  914TIP3    H1 2699   2.047   5.468   1.287
  914TIP3    H2 2700   2.196   5.493   1.272
  915TIP3   OH2 2701   4.160   0.220   5.151
  915TIP3    H1 2702   4.089   0.159   5.134
  915TIP3    H2 2703   4.207   0.183   5.225
  916TIP3   OH2 2704   5.429   2.959   3.378
  916TIP3    H1 2705   5.348   3.003   3.405
  916TIP3    H2 2706   5.457   2.909   3.454
  917TIP3   OH2 2707   4.443   2.595   1.067
  917TIP3    H1 2708   4.350   2.576   1.054
  917TIP3    H2 2709   4.461   2.668   1.007
  918TIP3   OH2 2710   4.857   4.652   1.300
  918TIP3    H1 2711   4.928   4.706   1.337
  918TIP3    H2 2712   4.886   4.632   1.211
  919TIP3   OH2 2713   5.855   6.550   6.018
  919TIP3    H1 2714   5.825   6.486   5.953
  919TIP3    H2 2715   5.776   6.574   6.066
  920TIP3   OH2 2716   3.988   4.009   5.015
  920TIP3    H1 2717   4.002   4.101   4.992
  920TIP3    H2 2718   3.898   3.991   4.989
  921TIP3   OH2 2719   6.840   4.336   4.923
  921TIP3    H1 2720   6.851   4.392   4.999
  921TIP3    H2 2721   6.751   4.302   4.931
  922TIP3   OH2 2722   2.466   7.269   2.724
  922TIP3    H1 2723   2.398   7.226   2.777
  922TIP3    H2 2724   2.432   7.264   2.635
  923TIP3   OH2 2725   4.924   3.448   0.748
  923TIP3    H1 2726   5.018   3.432   0.756
  923TIP3    H2 2727   4.918   3.532   0.703
  924TIP3   OH2 2728   1.985   3.060   6.628
  924TIP3    H1 2729   2.017   3.130   6.686
  924TIP3    H2 2730   2.065   3.025   6.587
  925TIP3   OH2 2731   7.229   7.501   2.193
  925TIP3    H1 2732   7.267   7.415   2.176
  925TIP3    H2 2733   7.139   7.483   2.218
  926TIP3   OH2 2734   7.091   1.459   5.966
  926TIP3    H1 2735   7.072   1.536   5.913
  926TIP3    H2 2736   7.083   1.488   6.057
  927TIP3   OH2 2737   5.822   1.620   6.710
  927TIP3    H1 2738   5.887   1.657   6.770
  927TIP3    H2 2739   5.871   1.599   6.631
  928TIP3   OH2 2740   4.580   1.390   4.653
  928TIP3    H1 2741   4.564   1.463   4.713
  928TIP3    H2 2742   4.556   1.312   4.702
  929TIP3   OH2 2743   2.286   4.717   3.752
  929TIP3    H1 2744   2.281   4.806   3.785
  929TIP3    H2 2745   2.195   4.695   3.729
  930TIP3   OH2 2746   5.838   6.523   4.162
  930TIP3    H1 2747   5.882   6.571   4.093
  930TIP3    H2 2748   5.753   6.500   4.124
  931TIP3   OH2 2749   7.180   6.280   5.435
  931TIP3    H1 2750   7.119   6.293   5.362
  931TIP3    H2 2751   7.226   6.199   5.413
  932TIP3   OH2 2752   1.384   6.286   6.620
  932TIP3    H1 2753   1.445   6.300   6.547
  932TIP3    H2 2754   1.368   6.374   6.654
  933TIP3   OH2 2755   3.614   5.972   1.836
  933TIP3    H1 2756   3.583   5.978   1.746
  933TIP3    H2 2757   3.674   5.897   1.837
  934TIP3   OH2 2758   1.218   4.997   0.577
  934TIP3    H1 2759   1.205   4.956   0.663
  934TIP3    H2 2760   1.304   4.966   0.548
  935TIP3   OH2 2761   1.575   2.415   1.400
  935TIP3    H1 2762   1.621   2.495   1.425
  935TIP3    H2 2763   1.540   2.380   1.482
  936TIP3   OH2 2764   3.007   0.643   4.010
  936TIP3    H1 2765   3.094   0.614   3.984
  936TIP3    H2 2766   2.956   0.642   3.929
  937TIP3   OH2 2767   5.543   1.330   4.714
  937TIP3    H1 2768   5.566   1.379   4.634
  937TIP3    H2 2769   5.455   1.362   4.736
  938TIP3   OH2 2770   4.608   3.575   6.652
  938TIP3    H1 2771   4.660   3.527   6.587
  938TIP3    H2 2772   4.601   3.515   6.726
  939TIP3   OH2 2773   4.389   6.381   2.466
  939TIP3    H1 2774   4.444   6.432   2.407
  939TIP3    H2 2775   4.432   6.296   2.472
  940TIP3   OH2 2776   2.466   0.356   2.472
  940TIP3    H1 2777   2.510   0.284   2.517
  940TIP3    H2 2778   2.444   0.418   2.541
  941TIP3   OH2 2779   3.353   5.002   1.422
  941TIP3    H1 2780   3.371   5.024   1.331
  941TIP3    H2 2781   3.352   5.086   1.468
  942TIP3   OH2 2782   0.912   4.207   1.787
  942TIP3    H1 2783   0.846   4.178   1.724
  942TIP3    H2 2784   0.985   4.147   1.776
  943TIP3   OH2 2785   8.164   1.235   2.689
  943TIP3    H1 2786   8.207   1.154   2.717
  943TIP3    H2 2787   8.078   1.207   2.657
  944TIP3   OH2 2788   4.535   6.472   2.239
  944TIP3    H1 2789   4.591   6.491   2.164
  944TIP3    H2 2790   4.484   6.396   2.213
  945TIP3   OH2 2791   5.196   1.998   5.960
  945TIP3    H1 2792   5.151   1.966   5.882
  945TIP3    H2 2793   5.246   2.074   5.929
  946TIP3   OH2 2794   1.475   3.015   0.214
  946TIP3    H1 2795   1.434   3.008   0.301
  946TIP3    H2 2796   1.469   2.926   0.178
  947TIP3   OH2 2797   2.055   3.711   0.052
  947TIP3    H1 2798   2.149   3.714   0.069
  947TIP3    H2 2799   2.032   3.800   0.028
  948TIP3   OH2 2800   8.245   2.681   4.459
  948TIP3    H1 2801   8.275   2.712   4.374
  948TIP3    H2 2802   8.284   2.593   4.467
  949TIP3   OH2 2803   4.709   5.752   1.278
  949TIP3    H1 2804   4.758   5.761   1.197
  949TIP3    H2 2805   4.769   5.780   1.346
  950TIP3   OH2 2806   0.478   4.209   5.918
  950TIP3    H1 2807   0.543   4.251   5.863
  950TIP3    H2 2808   0.519   4.126   5.944
  951TIP3   OH2 2809   0.573   4.228   1.259
  951TIP3    H1 2810   0.581   4.301   1.198
  951TIP3    H2 2811   0.590   4.150   1.207
  952TIP3   OH2 2812   1.218   0.802   5.969
  952TIP3    H1 2813   1.147   0.791   5.906
  952TIP3    H2 2814   1.293   0.829   5.917
  953TIP3   OH2 2815   5.365   1.353   6.552
  953TIP3    H1 2816   5.388   1.438   6.591
  953TIP3    H2 2817   5.320   1.375   6.471
  954TIP3   OH2 2818   8.010   0.420   0.047
  954TIP3    H1 2819   7.945   0.387   0.109
  954TIP3    H2 2820   7.973   0.501   0.014
  955TIP3   OH2 2821   6.273   0.874   3.991
  955TIP3    H1 2822   6.306   0.924   3.916
  955TIP3    H2 2823   6.346   0.872   4.053
  956TIP3   OH2 2824   7.302   0.135   0.154
  956TIP3    H1 2825   7.360   0.071   0.194
  956TIP3    H2 2826   7.229   0.083   0.120
  957TIP3   OH2 2827   5.768   4.366   0.792
  957TIP3    H1 2828   5.799   4.325   0.711
  957TIP3    H2 2829   5.723   4.445   0.762
  958TIP3   OH2 2830   3.230   1.829   0.349
  958TIP3    H1 2831   3.301   1.867   0.402
  958TIP3    H2 2832   3.273   1.761   0.296
  959TIP3   OH2 2833   3.607   7.108   6.319
  959TIP3    H1 2834   3.616   7.198   6.287
  959TIP3    H2 2835   3.615   7.115   6.414
  960TIP3   OH2 2836   5.864   5.319   6.530
  960TIP3    H1 2837   5.825   5.336   6.444
  960TIP3    H2 2838   5.790   5.291   6.584
  961TIP3   OH2 2839   7.744   2.403   1.217
  961TIP3    H1 2840   7.801   2.478   1.199
  961TIP3    H2 2841   7.736   2.402   1.313
  962TIP3   OH2 2842   3.431   2.958   6.360
  962TIP3    H1 2843   3.339   2.954   6.387
  962TIP3    H2 2844   3.478   2.983   6.439
  963TIP3   OH2 2845   1.484   4.234   2.260
  963TIP3    H1 2846   1.409   4.255   2.203
  963TIP3    H2 2847   1.522   4.155   2.222
  964TIP3   OH2 2848   3.658   4.055   0.590
  964TIP3    H1 2849   3.712   4.127   0.623
  964TIP3    H2 2850   3.698   4.030   0.507
  965TIP3   OH2 2851   3.424   4.424   6.429
  965TIP3    H1 2852   3.448   4.485   6.499
  965TIP3    H2 2853   3.504   4.413   6.378
  966TIP3   OH2 2854   4.198   1.817   3.045
  966TIP3    H1 2855   4.169   1.886   3.105
  966TIP3    H2 2856   4.136   1.819   2.973
  967TIP3   OH2 2857   6.896   6.389   6.185
  967TIP3    H1 2858   6.989   6.408   6.189
  967TIP3    H2 2859   6.868   6.424   6.100
  968TIP3   OH2 2860   3.144   7.367   1.168
  968TIP3    H1 2861   3.118   7.415   1.090
  968TIP3    H2 2862   3.119   7.424   1.241
  969TIP3   OH2 2863   3.236   5.128   5.580
  969TIP3    H1 2864   3.280   5.103   5.499
  969TIP3    H2 2865   3.144   5.103   5.566
  970TIP3   OH2 2866   5.558   6.581   4.782
  970TIP3    H1 2867   5.510   6.513   4.829
  970TIP3    H2 2868   5.610   6.534   4.717
  971TIP3   OH2 2869   0.520   6.881   0.497
  971TIP3    H1 2870   0.597   6.884   0.441
  971TIP3    H2 2871   0.470   6.806   0.465
  972TIP3   OH2 2872   3.719   6.784   0.575
  972TIP3    H1 2873   3.715   6.712   0.512
  972TIP3    H2 2874   3.728   6.863   0.522
  973TIP3   OH2 2875   6.707   1.956   6.629
  973TIP3    H1 2876   6.733   1.911   6.549
  973TIP3    H2 2877   6.778   1.939   6.691
  974TIP3   OH2 2878   6.904   4.066   1.317
  974TIP3    H1 2879   6.824   4.025   1.285
  974TIP3    H2 2880   6.873   4.142   1.367
  975TIP3   OH2 2881   2.403   5.909   6.264
  975TIP3    H1 2882   2.494   5.933   6.282
  975TIP3    H2 2883   2.388   5.832   6.319
  976TIP3   OH2 2884   4.853   6.177   6.076
  976TIP3    H1 2885   4.808   6.142   5.999
  976TIP3    H2 2886   4.946   6.169   6.054
  977TIP3   OH2 2887   2.349   6.990   2.249
  977TIP3    H1 2888   2.327   6.898   2.231
  977TIP3    H2 2889   2.300   7.040   2.184
  978TIP3   OH2 2890   5.830   0.714   4.682
  978TIP3    H1 2891   5.836   0.808   4.667
  978TIP3    H2 2892   5.791   0.679   4.602
  979TIP3   OH2 2893   5.777   1.571   4.716
  979TIP3    H1 2894   5.784   1.498   4.778
  979TIP3    H2 2895   5.859   1.618   4.724
  980TIP3   OH2 2896   4.300   7.660   3.553
  980TIP3    H1 2897   4.286   7.708   3.471
  980TIP3    H2 2898   4.307   7.729   3.620
  981TIP3   OH2 2899   6.516   3.134   5.108
  981TIP3    H1 2900   6.579   3.130   5.037
  981TIP3    H2 2901   6.512   3.227   5.131
  982TIP3   OH2 2902   3.348   0.111   0.881
  982TIP3    H1 2903   3.359   0.085   0.972
  982TIP3    H2 2904   3.415   0.179   0.867
  983TIP3   OH2 2905   1.501   2.261   1.077
  983TIP3    H1 2906   1.475   2.333   1.134
  983TIP3    H2 2907   1.419   2.214   1.059
  984TIP3   OH2 2908   4.161   5.678   5.495
  984TIP3    H1 2909   4.194   5.618   5.427
  984TIP3    H2 2910   4.229   5.744   5.504
  985TIP3   OH2 2911   5.142   5.861   0.140
  985TIP3    H1 2912   5.113   5.928   0.202
  985TIP3    H2 2913   5.178   5.911   0.066
  986TIP3   OH2 2914   5.737   7.746   0.290
  986TIP3    H1 2915   5.796   7.684   0.333
  986TIP3    H2 2916   5.783   7.771   0.210
  987TIP3   OH2 2917   7.339   4.204   6.468
  987TIP3    H1 2918   7.268   4.268   6.463
  987TIP3    H2 2919   7.313   4.144   6.539
  988TIP3   OH2 2920   0.503   7.140   6.356
  988TIP3    H1 2921   0.571   7.207   6.357
  988TIP3    H2 2922   0.546   7.064   6.316
  989TIP3   OH2 2923   1.620   2.718   1.481
  989TIP3    H1 2924   1.628   2.759   1.567
  989TIP3    H2 2925   1.710   2.713   1.447
  990TIP3   OH2 2926   1.044   4.167   3.798
  990TIP3    H1 2927   1.102   4.237   3.828
  990TIP3    H2 2928   0.960   4.187   3.838
  991TIP3   OH2 2929   0.141   1.393   1.682
  991TIP3    H1 2930   0.181   1.377   1.596
  991TIP3    H2 2931   0.208   1.441   1.731
  992TIP3   OH2 2932   1.131   6.532   1.058
  992TIP3    H1 2933   1.179   6.574   0.987
  992TIP3    H2 2934   1.115   6.603   1.121
  993TIP3   OH2 2935   2.672   2.128   5.108
  993TIP3    H1 2936   2.690   2.214   5.070
  993TIP3    H2 2937   2.758   2.095   5.133
  994TIP3   OH2 2938   2.914   1.581   5.876
  994TIP3    H1 2939   2.836   1.531   5.851
  994TIP3    H2 2940   2.884   1.639   5.945
  995TIP3   OH2 2941   6.038   3.663   2.354
  995TIP3    H1 2942   6.012   3.594   2.294
  995TIP3    H2 2943   5.972   3.660   2.423
  996TIP3   OH2 2944   6.074   3.936   4.191
  996TIP3    H1 2945   6.032   4.007   4.239
  996TIP3    H2 2946   6.013   3.863   4.198
  997TIP3   OH2 2947   1.424   7.368   3.150
  997TIP3    H1 2948   1.461   7.403   3.069
  997TIP3    H2 2949   1.351   7.427   3.170
  998TIP3   OH2 2950   6.669   7.605   3.648
  998TIP3    H1 2951   6.673   7.534   3.585
  998TIP3    H2 2952   6.584   7.596   3.690
  999TIP3   OH2 2953   4.909   2.475   2.679
  999TIP3    H1 2954   4.948   2.543   2.735
  999TIP3    H2 2955   4.898   2.517   2.594
 1000TIP3   OH2 2956   1.022   6.273   1.519
 1000TIP3    H1 2957   0.988   6.300   1.604
 1000TIP3    H2 2958   1.107   6.316   1.512
 1001TIP3   OH2 2959   5.047   7.351   1.333
 1001TIP3    H1 2960   5.064   7.366   1.426
 1001TIP3    H2 2961   5.045   7.438   1.294
 1002TIP3   OH2 2962   5.917   6.339   3.608
 1002TIP3    H1 2963   5.898   6.433   3.618
 1002TIP3    H2 2964   5.832   6.297   3.613
 1003TIP3   OH2 2965   5.008   7.572   6.041
 1003TIP3    H1 2966   5.039   7.663   6.040
 1003TIP3    H2 2967   4.954   7.567   6.120
 1004TIP3   OH2 2968   1.123   0.644   0.572
 1004TIP3    H1 2969   1.045   0.591   0.586
 1004TIP3    H2 2970   1.091   0.721   0.525
 1005TIP3   OH2 2971   2.352   7.591   0.830
 1005TIP3    H1 2972   2.340   7.611   0.922
 1005TIP3    H2 2973   2.319   7.668   0.784
 1006TIP3   OH2 2974   7.035   3.840   4.198
 1006TIP3    H1 2975   7.078   3.790   4.129
 1006TIP3    H2 2976   7.081   3.924   4.200
 1007TIP3   OH2 2977   2.323   0.359   3.483
 1007TIP3    H1 2978   2.242   0.310   3.480
 1007TIP3    H2 2979   2.333   0.396   3.395
 1008TIP3   OH2 2980   0.609   3.681   1.536
 1008TIP3    H1 2981   0.591   3.680   1.630
 1008TIP3    H2 2982   0.525   3.658   1.495
 1009TIP3   OH2 2983   7.516   1.279   1.447
 1009TIP3    H1 2984   7.547   1.366   1.422
 1009TIP3    H2 2985   7.594   1.235   1.481
 1010TIP3   OH2 2986   0.320   0.849   2.982
 1010TIP3    H1 2987   0.280   0.795   3.050
 1010TIP3    H2 2988   0.397   0.887   3.024
 1011TIP3   OH2 2989   7.397   2.106   3.292
 1011TIP3    H1 2990   7.459   2.177   3.306
 1011TIP3    H2 2991   7.355   2.128   3.208
 1012TIP3   OH2 2992   6.694   2.963   4.855
 1012TIP3    H1 2993   6.619   2.968   4.796
 1012TIP3    H2 2994   6.730   2.875   4.842
 1013TIP3   OH2 2995   4.229   5.163   1.564
 1013TIP3    H1 2996   4.146   5.167   1.516
 1013TIP3    H2 2997   4.286   5.224   1.517
 1014TIP3   OH2 2998   1.907   5.352   3.186
 1014TIP3    H1 2999   1.879   5.431   3.140
 1014TIP3    H2 3000   1.981   5.320   3.135
 1015TIP3   OH2 3001   1.167   0.034   6.222
 1015TIP3    H1 3002   1.083   0.011   6.182
 1015TIP3    H2 3003   1.144   0.084   6.300
 1016TIP3   OH2 3004   6.951   3.053   6.637
 1016TIP3    H1 3005   6.916   2.968   6.612
 1016TIP3    H2 3006   6.967   3.098   6.554
 1017TIP3   OH2 3007   3.426   5.263   1.521
 1017TIP3    H1 3008   3.512   5.282   1.559
 1017TIP3    H2 3009   3.366   5.265   1.597
 1018TIP3   OH2 3010   2.924   2.292   4.597
 1018TIP3    H1 3011   2.883   2.223   4.649
 1018TIP3    H2 3012   2.979   2.246   4.534
 1019TIP3   OH2 3013   0.401   1.332   4.029
 1019TIP3    H1 3014   0.432   1.382   3.953
 1019TIP3    H2 3015   0.390   1.243   3.996
 1020TIP3   OH2 3016   2.959   2.939   4.142
 1020TIP3    H1 3017   2.932   2.857   4.185
 1020TIP3    H2 3018   2.876   2.980   4.117
 1021TIP3   OH2 3019   3.279   5.145   1.737
 1021TIP3    H1 3020   3.283   5.215   1.802
 1021TIP3    H2 3021   3.328   5.073   1.777
 1022TIP3   OH2 3022   5.030   2.345   5.490
 1022TIP3    H1 3023   5.057   2.287   5.561
 1022TIP3    H2 3024   5.022   2.288   5.413
 1023TIP3   OH2 3025   2.453   3.307   2.741
 1023TIP3    H1 3026   2.430   3.361   2.665
 1023TIP3    H2 3027   2.539   3.271   2.719
 1024TIP3   OH2 3028   2.697   5.519   1.431
 1024TIP3    H1 3029   2.748   5.475   1.499
 1024TIP3    H2 3030   2.684   5.453   1.363
 1025TIP3   OH2 3031   3.022   7.707   3.905
 1025TIP3    H1 3032   2.947   7.653   3.929
 1025TIP3    H2 3033   3.081   7.702   3.980
 1026TIP3   OH2 3034   7.459   0.016   2.871
 1026TIP3    H1 3035   7.453   0.037   2.964
 1026TIP3    H2 3036   7.520   0.081   2.836
 1027TIP3   OH2 3037   3.045   6.093   5.100
 1027TIP3    H1 3038   3.010   6.102   5.012
 1027TIP3    H2 3039   3.067   6.000   5.108
 1028TIP3   OH2 3040   6.927   4.834   2.859
 1028TIP3    H1 3041   6.856   4.885   2.820
 1028TIP3    H2 3042   6.969   4.895   2.920
 1029TIP3   OH2 3043   4.859   4.336   1.432
 1029TIP3    H1 3044   4.831   4.371   1.517
 1029TIP3    H2 3045   4.914   4.405   1.395
 1030TIP3   OH2 3046   3.674   5.867   5.057
 1030TIP3    H1 3047   3.647   5.785   5.100
 1030TIP3    H2 3048   3.762   5.884   5.091
 1031TIP3   OH2 3049   0.099   4.266   6.080
 1031TIP3    H1 3050   0.015   4.223   6.096
 1031TIP3    H2 3051   0.098   4.342   6.138
 1032TIP3   OH2 3052   0.928   7.751   0.848
 1032TIP3    H1 3053   0.902   7.843   0.847
 1032TIP3    H2 3054   0.887   7.716   0.927
 1033TIP3   OH2 3055   3.504   3.255   0.132
 1033TIP3    H1 3056   3.528   3.196   0.061
 1033TIP3    H2 3057   3.567   3.235   0.202
 1034TIP3   OH2 3058   5.597   4.634   4.287
 1034TIP3    H1 3059   5.663   4.648   4.219
 1034TIP3    H2 3060   5.590   4.539   4.296
 1035TIP3   OH2 3061   3.850   2.779   5.100
 1035TIP3    H1 3062   3.778   2.842   5.098
 1035TIP3    H2 3063   3.820   2.707   5.044
 1036TIP3   OH2 3064   0.190   1.160   4.983
 1036TIP3    H1 3065   0.269   1.139   4.933
 1036TIP3    H2 3066   0.121   1.167   4.917
 1037TIP3   OH2 3067   7.246   6.680   2.593
 1037TIP3    H1 3068   7.304   6.753   2.569
 1037TIP3    H2 3069   7.230   6.635   2.510
 1038TIP3   OH2 3070   0.504   7.035   5.403
 1038TIP3    H1 3071   0.562   6.959   5.404
 1038TIP3    H2 3072   0.524   7.082   5.484
 1039TIP3   OH2 3073   4.279  -0.003   3.845
 1039TIP3    H1 3074   4.369  -0.008   3.813
 1039TIP3    H2 3075   4.277   0.078   3.897
 1040TIP3   OH2 3076   1.855   7.528   3.344
 1040TIP3    H1 3077   1.769   7.571   3.342
 1040TIP3    H2 3078   1.841   7.444   3.300
 1041TIP3   OH2 3079   3.113   3.176   3.134
 1041TIP3    H1 3080   3.063   3.221   3.066
 1041TIP3    H2 3081   3.204   3.182   3.105
 1042TIP3   OH2 3082   4.239   5.715   6.462
 1042TIP3    H1 3083   4.277   5.725   6.375
 1042TIP3    H2 3084   4.286   5.779   6.516
 1043TIP3   OH2 3085   0.949   3.935   4.259
 1043TIP3    H1 3086   1.009   3.862   4.249
 1043TIP3    H2 3087   0.928   3.961   4.169
 1044TIP3   OH2 3088   2.278   6.298   1.457
 1044TIP3    H1 3089   2.348   6.238   1.483
 1044TIP3    H2 3090   2.272   6.360   1.529
 1045TIP3   OH2 3091   7.828   7.309   4.460
 1045TIP3    H1 3092   7.795   7.360   4.386
 1045TIP3    H2 3093   7.904   7.358   4.491
 1046TIP3   OH2 3094   1.628   5.094   4.183
 1046TIP3    H1 3095   1.686   5.092   4.107
 1046TIP3    H2 3096   1.686   5.087   4.259
 1047TIP3   OH2 3097   0.581   6.280   1.699
 1047TIP3    H1 3098   0.488   6.299   1.691
 1047TIP3    H2 3099   0.605   6.238   1.617
 1048TIP3   OH2 3100   2.708   6.947   3.452
 1048TIP3    H1 3101   2.768   7.011   3.416
 1048TIP3    H2 3102   2.628   6.957   3.401
 1049TIP3   OH2 3103   0.372   6.636   0.473
 1049TIP3    H1 3104   0.427   6.619   0.549
 1049TIP3    H2 3105   0.288   6.596   0.494
 1050TIP3   OH2 3106   0.738   3.617   6.345
 1050TIP3    H1 3107   0.828   3.592   6.367
 1050TIP3    H2 3108   0.684   3.568   6.407
 1051TIP3   OH2 3109   0.042   0.343   3.078
 1051TIP3    H1 3110   0.043   0.415   3.014
 1051TIP3    H2 3111   0.011   0.384   3.159
 1052TIP3   OH2 3112   2.428   7.447   1.898
 1052TIP3    H1 3113   2.365   7.396   1.949
 1052TIP3    H2 3114   2.378   7.519   1.862
 1053TIP3   OH2 3115   3.496   3.406   2.941
 1053TIP3    H1 3116   3.570   3.387   2.999
 1053TIP3    H2 3117   3.536   3.444   2.863
 1054TIP3   OH2 3118   3.608   5.038   4.570
 1054TIP3    H1 3119   3.614   5.065   4.478
 1054TIP3    H2 3120   3.588   4.944   4.565
 1055TIP3   OH2 3121   7.057   7.723   2.341
 1055TIP3    H1 3122   7.017   7.808   2.360
 1055TIP3    H2 3123   7.073   7.684   2.426
 1056TIP3   OH2 3124   2.235   7.022   1.813
 1056TIP3    H1 3125   2.200   6.933   1.817
 1056TIP3    H2 3126   2.167   7.074   1.770
 1057TIP3   OH2 3127   3.917   4.407   6.569
 1057TIP3    H1 3128   3.835   4.407   6.618
 1057TIP3    H2 3129   3.970   4.339   6.611
 1058TIP3   OH2 3130   4.094   6.343   5.220
 1058TIP3    H1 3131   4.094   6.430   5.181
 1058TIP3    H2 3132   4.004   6.312   5.211
 1059TIP3   OH2 3133   6.601   0.904   0.447
 1059TIP3    H1 3134   6.638   0.959   0.516
 1059TIP3    H2 3135   6.677   0.873   0.397
 1060TIP3   OH2 3136   5.686   7.557   1.374
 1060TIP3    H1 3137   5.722   7.548   1.286
 1060TIP3    H2 3138   5.656   7.647   1.378
 1061TIP3   OH2 3139   1.504   6.156   2.098
 1061TIP3    H1 3140   1.454   6.076   2.081
 1061TIP3    H2 3141   1.438   6.226   2.097
 1062TIP3   OH2 3142   3.078   5.800   6.707
 1062TIP3    H1 3143   3.148   5.858   6.680
 1062TIP3    H2 3144   3.084   5.725   6.647
 1063TIP3   OH2 3145   6.843   4.060   2.334
 1063TIP3    H1 3146   6.818   4.070   2.242
 1063TIP3    H2 3147   6.937   4.045   2.332
 1064TIP3   OH2 3148  -0.006   2.490   6.412
 1064TIP3    H1 3149   0.041   2.529   6.486
 1064TIP3    H2 3150   0.046   2.514   6.336
 1065TIP3   OH2 3151   8.010   7.339   1.479
 1065TIP3    H1 3152   7.981   7.267   1.535
 1065TIP3    H2 3153   8.060   7.395   1.538
 1066TIP3   OH2 3154   0.962   0.203   6.711
 1066TIP3    H1 3155   1.005   0.141   6.770
 1066TIP3    H2 3156   0.869   0.196   6.733
 1067TIP3   OH2 3157   1.792   6.201   0.074
 1067TIP3    H1 3158   1.878   6.171   0.045
 1067TIP3    H2 3159   1.811   6.281   0.125
 1068TIP3   OH2 3160   4.320   3.590   0.852
 1068TIP3    H1 3161   4.321   3.495   0.858
 1068TIP3    H2 3162   4.327   3.619   0.943
 1069TIP3   OH2 3163   5.573   5.628   3.580
 1069TIP3    H1 3164   5.586   5.715   3.542
 1069TIP3    H2 3165   5.480   5.610   3.569
 1070TIP3   OH2 3166   7.953   0.172   2.494
 1070TIP3    H1 3167   7.859   0.174   2.512
 1070TIP3    H2 3168   7.959   0.181   2.399
 1071TIP3   OH2 3169   4.889   4.131   4.427
 1071TIP3    H1 3170   4.947   4.171   4.491
 1071TIP3    H2 3171   4.947   4.099   4.358
 1072TIP3   OH2 3172   4.265   7.861   0.108
 1072TIP3    H1 3173   4.279   7.789   0.169
 1072TIP3    H2 3174   4.201   7.828   0.045
 1073TIP3   OH2 3175   2.645   5.050   1.147
 1073TIP3    H1 3176   2.602   5.017   1.069
 1073TIP3    H2 3177   2.677   4.972   1.192
 1074TIP3   OH2 3178   3.998   2.470   4.488
 1074TIP3    H1 3179   3.919   2.420   4.468
 1074TIP3    H2 3180   4.056   2.408   4.531
 1075TIP3   OH2 3181   0.925   0.503   5.686
 1075TIP3    H1 3182   1.003   0.552   5.659
 1075TIP3    H2 3183   0.955   0.414   5.697
 1076TIP3   OH2 3184   5.908   4.403   6.746
 1076TIP3    H1 3185   5.963   4.404   6.825
 1076TIP3    H2 3186   5.911   4.493   6.713
 1077TIP3   OH2 3187   6.765   2.199   0.532
 1077TIP3    H1 3188   6.711   2.120   0.530
 1077TIP3    H2 3189   6.735   2.251   0.458
 1078TIP3   OH2 3190   4.819   0.399   5.086
 1078TIP3    H1 3191   4.913   0.408   5.098
 1078TIP3    H2 3192   4.784   0.386   5.174
 1079TIP3   OH2 3193   7.060   2.855   3.526
 1079TIP3    H1 3194   7.020   2.911   3.593
 1079TIP3    H2 3195   7.033   2.894   3.443
 1080TIP3   OH2 3196   3.834   1.786   2.536
 1080TIP3    H1 3197   3.750   1.753   2.569
 1080TIP3    H2 3198   3.858   1.724   2.468
 1081TIP3   OH2 3199   7.401   7.623   2.989
 1081TIP3    H1 3200   7.436   7.670   2.913
 1081TIP3    H2 3201   7.474   7.617   3.050
 1082TIP3   OH2 3202   6.978   6.832   0.263
 1082TIP3    H1 3203   6.945   6.805   0.177
 1082TIP3    H2 3204   7.028   6.912   0.245
 1083TIP3   OH2 3205   7.054   5.013   2.388
 1083TIP3    H1 3206   7.054   4.922   2.417
 1083TIP3    H2 3207   7.103   5.013   2.306
 1084TIP3   OH2 3208   6.805   7.813   1.414
 1084TIP3    H1 3209   6.768   7.860   1.489
 1084TIP3    H2 3210   6.898   7.836   1.414
 1085TIP3   OH2 3211   0.975   2.086   4.126
 1085TIP3    H1 3212   1.022   2.166   4.151
 1085TIP3    H2 3213   0.895   2.117   4.085
 1086TIP3   OH2 3214   5.832   5.529   4.773
 1086TIP3    H1 3215   5.833   5.508   4.867
 1086TIP3    H2 3216   5.761   5.476   4.737
 1087TIP3   OH2 3217   0.117   6.263   4.168
 1087TIP3    H1 3218   0.105   6.354   4.141
 1087TIP3    H2 3219   0.189   6.266   4.230
 1088TIP3   OH2 3220   3.352   2.930   3.219
 1088TIP3    H1 3221   3.258   2.914   3.225
 1088TIP3    H2 3222   3.374   2.916   3.127
 1089TIP3   OH2 3223   2.638   2.017   0.823
 1089TIP3    H1 3224   2.555   2.005   0.870
 1089TIP3    H2 3225   2.671   1.928   0.810
 1090TIP3   OH2 3226   7.144   5.486   4.010
 1090TIP3    H1 3227   7.215   5.550   4.015
 1090TIP3    H2 3228   7.156   5.443   3.926
 1091TIP3   OH2 3229   2.885   0.774   2.979
 1091TIP3    H1 3230   2.919   0.720   2.908
 1091TIP3    H2 3231   2.959   0.781   3.040
 1092TIP3   OH2 3232   6.255   2.380   3.756
 1092TIP3    H1 3233   6.200   2.392   3.678
 1092TIP3    H2 3234   6.342   2.363   3.721
 1093TIP3   OH2 3235   5.985   5.559   5.339
 1093TIP3    H1 3236   5.904   5.571   5.289
 1093TIP3    H2 3237   6.043   5.513   5.278
 1094TIP3   OH2 3238   5.586   6.761   3.578
 1094TIP3    H1 3239   5.627   6.793   3.658
 1094TIP3    H2 3240   5.497   6.737   3.604
 1095TIP3   OH2 3241   8.246   5.953   0.278
 1095TIP3    H1 3242   8.234   5.858   0.290
 1095TIP3    H2 3243   8.160   5.984   0.247
 1096TIP3   OH2 3244   3.193   5.767   2.465
 1096TIP3    H1 3245   3.183   5.828   2.391
 1096TIP3    H2 3246   3.193   5.823   2.542
 1097TIP3   OH2 3247   2.125   7.350   1.645
 1097TIP3    H1 3248   2.082   7.426   1.606
 1097TIP3    H2 3249   2.056   7.284   1.652
 1098TIP3   OH2 3250   7.609   1.805   3.398
 1098TIP3    H1 3251   7.518   1.811   3.427
 1098TIP3    H2 3252   7.654   1.874   3.448
 1099TIP3   OH2 3253   1.363   0.945   2.324
 1099TIP3    H1 3254   1.376   0.884   2.252
 1099TIP3    H2 3255   1.447   0.990   2.333
 1100TIP3   OH2 3256   6.867   6.397   6.694
 1100TIP3    H1 3257   6.912   6.471   6.735
 1100TIP3    H2 3258   6.824   6.435   6.617
 1101TIP3   OH2 3259   3.567   5.439   3.475
 1101TIP3    H1 3260   3.588   5.347   3.459
 1101TIP3    H2 3261   3.610   5.486   3.404
 1102TIP3   OH2 3262   1.941   1.655   5.015
 1102TIP3    H1 3263   1.912   1.731   5.066
 1102TIP3    H2 3264   1.860   1.615   4.983
 1103TIP3   OH2 3265   6.222   2.469   2.348
 1103TIP3    H1 3266   6.201   2.499   2.436
 1103TIP3    H2 3267   6.318   2.461   2.348
 1104TIP3   OH2 3268   4.320   5.155   2.801
 1104TIP3    H1 3269   4.390   5.220   2.794
 1104TIP3    H2 3270   4.366   5.071   2.811
 1105TIP3   OH2 3271   7.855   1.838   4.446
 1105TIP3    H1 3272   7.771   1.795   4.463
 1105TIP3    H2 3273   7.892   1.855   4.533
 1106TIP3   OH2 3274   7.696   4.310   5.285
 1106TIP3    H1 3275   7.610   4.351   5.282
 1106TIP3    H2 3276   7.726   4.310   5.194
 1107TIP3   OH2 3277   3.796   4.124   5.483
 1107TIP3    H1 3278   3.884   4.089   5.495
 1107TIP3    H2 3279   3.759   4.126   5.572
 1108TIP3   OH2 3280   5.320   5.476   0.599
 1108TIP3    H1 3281   5.356   5.562   0.575
 1108TIP3    H2 3282   5.276   5.445   0.520
 1109TIP3   OH2 3283   7.324   0.611   0.716
 1109TIP3    H1 3284   7.409   0.604   0.759
 1109TIP3    H2 3285   7.291   0.522   0.713
 1110TIP3   OH2 3286   2.185   5.213   5.484
 1110TIP3    H1 3287   2.256   5.150   5.471
 1110TIP3    H2 3288   2.108   5.171   5.446
 1111TIP3   OH2 3289   6.769   5.677   1.775
 1111TIP3    H1 3290   6.757   5.766   1.809
 1111TIP3    H2 3291   6.706   5.624   1.824
 1112TIP3   OH2 3292   1.674   0.146   6.475
 1112TIP3    H1 3293   1.595   0.157   6.422
 1112TIP3    H2 3294   1.660   0.204   6.550
 1113TIP3   OH2 3295   4.598   3.433   0.063
 1113TIP3    H1 3296   4.670   3.442   0.125
 1113TIP3    H2 3297   4.600   3.341   0.037
 1114TIP3   OH2 3298   8.080   1.403   3.712
 1114TIP3    H1 3299   8.037   1.446   3.638
 1114TIP3    H2 3300   8.139   1.340   3.672
 1115TIP3   OH2 3301   2.487   1.476   0.565
 1115TIP3    H1 3302   2.488   1.568   0.593
 1115TIP3    H2 3303   2.571   1.464   0.521
 1116TIP3   OH2 3304   0.144   3.599   1.328
 1116TIP3    H1 3305   0.060   3.556   1.345
 1116TIP3    H2 3306   0.123   3.692   1.323
 1117TIP3   OH2 3307   3.680   1.070   0.668
 1117TIP3    H1 3308   3.605   1.021   0.636
 1117TIP3    H2 3309   3.744   1.003   0.691
 1118TIP3   OH2 3310   6.073   1.477   5.117
 1118TIP3    H1 3311   5.994   1.511   5.075
 1118TIP3    H2 3312   6.139   1.475   5.047
 1119TIP3   OH2 3313   6.633   1.572   2.069
 1119TIP3    H1 3314   6.627   1.644   2.005
 1119TIP3    H2 3315   6.589   1.499   2.027
 1120TIP3   OH2 3316   4.747   3.418   5.409
 1120TIP3    H1 3317   4.804   3.399   5.483
 1120TIP3    H2 3318   4.742   3.336   5.361
 1121TIP3   OH2 3319   5.289   5.900   5.903
 1121TIP3    H1 3320   5.297   5.932   5.993
 1121TIP3    H2 3321   5.313   5.975   5.849
 1122TIP3   OH2 3322   1.474   5.450   3.976
 1122TIP3    H1 3323   1.381   5.441   3.953
 1122TIP3    H2 3324   1.474   5.464   4.070
 1123TIP3   OH2 3325   7.055   1.832   4.520
 1123TIP3    H1 3326   7.068   1.744   4.556
 1123TIP3    H2 3327   7.120   1.840   4.451
 1124TIP3   OH2 3328   2.430   3.222   2.357
 1124TIP3    H1 3329   2.461   3.260   2.275
 1124TIP3    H2 3330   2.399   3.297   2.408
 1125TIP3   OH2 3331   3.042   4.800   1.586
 1125TIP3    H1 3332   3.052   4.839   1.499
 1125TIP3    H2 3333   2.982   4.860   1.632
 1126TIP3   OH2 3334   2.497   4.048   2.202
 1126TIP3    H1 3335   2.478   4.140   2.184
 1126TIP3    H2 3336   2.414   4.012   2.233
 1127TIP3   OH2 3337   7.031   6.676   2.191
 1127TIP3    H1 3338   7.013   6.714   2.105
 1127TIP3    H2 3339   6.999   6.586   2.185
 1128TIP3   OH2 3340   1.046   7.003   1.062
 1128TIP3    H1 3341   1.018   7.015   1.153
 1128TIP3    H2 3342   1.009   6.920   1.036
 1129TIP3   OH2 3343   5.097   0.846   3.897
 1129TIP3    H1 3344   5.056   0.880   3.818
 1129TIP3    H2 3345   5.083   0.915   3.963
 1130TIP3   OH2 3346   4.100   2.003   0.151
 1130TIP3    H1 3347   4.056   2.039   0.074
 1130TIP3    H2 3348   4.038   1.940   0.187
 1131TIP3   OH2 3349   3.308   1.901   0.864
 1131TIP3    H1 3350   3.301   1.993   0.889
 1131TIP3    H2 3351   3.222   1.878   0.829
 1132TIP3   OH2 3352   4.711   5.902   0.162
 1132TIP3    H1 3353   4.623   5.938   0.149
 1132TIP3    H2 3354   4.699   5.837   0.231
 1133TIP3   OH2 3355   7.389   0.251   3.121
 1133TIP3    H1 3356   7.327   0.295   3.180
 1133TIP3    H2 3357   7.403   0.313   3.050
 1134TIP3   OH2 3358   7.308   1.606   2.764
 1134TIP3    H1 3359   7.313   1.645   2.676
 1134TIP3    H2 3360   7.218   1.623   2.792
 1135TIP3   OH2 3361   1.993   6.086   0.404
 1135TIP3    H1 3362   2.044   6.012   0.435
 1135TIP3    H2 3363   2.039   6.115   0.325
 1136TIP3   OH2 3364   1.933   5.779   6.405
 1136TIP3    H1 3365   1.917   5.734   6.488
 1136TIP3    H2 3366   1.848   5.815   6.380
 1137TIP3   OH2 3367   4.233   2.014   5.234
 1137TIP3    H1 3368   4.318   2.002   5.192
 1137TIP3    H2 3369   4.244   2.089   5.292
 1138TIP3   OH2 3370   7.335   0.335   5.986
 1138TIP3    H1 3371   7.279   0.412   5.996
 1138TIP3    H2 3372   7.343   0.299   6.074
 1139TIP3   OH2 3373   3.545   5.090   5.754
 1139TIP3    H1 3374   3.456   5.084   5.720
 1139TIP3    H2 3375   3.594   5.135   5.685
 1140TIP3   OH2 3376   6.819   2.822   5.323
 1140TIP3    H1 3377   6.847   2.913   5.314
 1140TIP3    H2 3378   6.733   2.827   5.363
 1141TIP3   OH2 3379   4.250   5.897   2.485
 1141TIP3    H1 3380   4.219   5.983   2.513
 1141TIP3    H2 3381   4.188   5.870   2.417
 1142TIP3   OH2 3382   7.789   7.120   4.192
 1142TIP3    H1 3383   7.825   7.199   4.232
 1142TIP3    H2 3384   7.806   7.050   4.256
 1143TIP3   OH2 3385   6.110   0.296   1.558
 1143TIP3    H1 3386   6.136   0.228   1.620
 1143TIP3    H2 3387   6.015   0.290   1.553
 1144TIP3   OH2 3388   0.015   3.871   1.382
 1144TIP3    H1 3389  -0.015   3.865   1.473
 1144TIP3    H2 3390  -0.066   3.874   1.331
 1145TIP3   OH2 3391   2.726   0.138   1.468
 1145TIP3    H1 3392   2.813   0.159   1.435
 1145TIP3    H2 3393   2.675   0.117   1.390
 1146TIP3   OH2 3394   0.973   2.707   1.567
 1146TIP3    H1 3395   0.895   2.760   1.582
 1146TIP3    H2 3396   1.040   2.771   1.542
 1147TIP3   OH2 3397   4.818   1.334   3.103
 1147TIP3    H1 3398   4.758   1.260   3.101
 1147TIP3    H2 3399   4.793   1.383   3.182
 1148TIP3   OH2 3400   7.841   7.637   1.552
 1148TIP3    H1 3401   7.915   7.588   1.587
 1148TIP3    H2 3402   7.796   7.671   1.629
 1149TIP3   OH2 3403   3.515   3.138   4.824
 1149TIP3    H1 3404   3.551   3.171   4.907
 1149TIP3    H2 3405   3.590   3.138   4.764
 1150TIP3   OH2 3406   3.912   0.746   2.223
 1150TIP3    H1 3407   3.975   0.753   2.150
 1150TIP3    H2 3408   3.911   0.653   2.245
 1151TIP3   OH2 3409   0.199   0.903   2.414
 1151TIP3    H1 3410   0.293   0.883   2.409
 1151TIP3    H2 3411   0.170   0.861   2.496
 1152TIP3   OH2 3412   3.212   6.020   2.721
 1152TIP3    H1 3413   3.201   5.976   2.805
 1152TIP3    H2 3414   3.130   6.067   2.708
 1153TIP3   OH2 3415   1.912   5.749   2.596
 1153TIP3    H1 3416   1.866   5.706   2.524
 1153TIP3    H2 3417   1.854   5.821   2.622
 1154TIP3   OH2 3418   7.554   5.251   3.232
 1154TIP3    H1 3419   7.622   5.265   3.299
 1154TIP3    H2 3420   7.598   5.200   3.164
 1155TIP3   OH2 3421   2.507   3.604   5.673
 1155TIP3    H1 3422   2.450   3.527   5.669
 1155TIP3    H2 3423   2.596   3.568   5.666
 1156TIP3   OH2 3424   8.211   2.599   0.723
 1156TIP3    H1 3425   8.139   2.632   0.669
 1156TIP3    H2 3426   8.199   2.505   0.726
 1157TIP3   OH2 3427   7.422   1.825   3.166
 1157TIP3    H1 3428   7.463   1.854   3.247
 1157TIP3    H2 3429   7.355   1.762   3.194
 1158TIP3   OH2 3430   3.418   0.241   2.696
 1158TIP3    H1 3431   3.485   0.243   2.628
 1158TIP3    H2 3432   3.432   0.157   2.741
 1159TIP3   OH2 3433   7.780   5.613   0.481
 1159TIP3    H1 3434   7.841   5.683   0.503
 1159TIP3    H2 3435   7.739   5.642   0.399
 1160TIP3   OH2 3436   4.944   2.670   2.857
 1160TIP3    H1 3437   4.945   2.601   2.924
 1160TIP3    H2 3438   4.916   2.748   2.904
 1161TIP3   OH2 3439   0.512   1.816   3.275
 1161TIP3    H1 3440   0.452   1.863   3.217
 1161TIP3    H2 3441   0.517   1.728   3.238
 1162TIP3   OH2 3442   3.664   0.400   6.208
 1162TIP3    H1 3443   3.587   0.371   6.256
 1162TIP3    H2 3444   3.647   0.373   6.118
 1163TIP3   OH2 3445   7.637   2.859   6.191
 1163TIP3    H1 3446   7.715   2.804   6.201
 1163TIP3    H2 3447   7.671   2.948   6.182
 1164TIP3   OH2 3448   5.317   6.119   1.677
 1164TIP3    H1 3449   5.371   6.191   1.709
 1164TIP3    H2 3450   5.237   6.161   1.646
 1165TIP3   OH2 3451   2.862   2.361   3.442
 1165TIP3    H1 3452   2.786   2.420   3.433
 1165TIP3    H2 3453   2.900   2.384   3.527
 1166TIP3   OH2 3454   3.399   6.746   2.592
 1166TIP3    H1 3455   3.345   6.759   2.514
 1166TIP3    H2 3456   3.442   6.830   2.606
 1167TIP3   OH2 3457   4.441   2.746   3.145
 1167TIP3    H1 3458   4.424   2.772   3.235
 1167TIP3    H2 3459   4.379   2.675   3.128
 1168TIP3   OH2 3460   1.813   0.580   2.348
 1168TIP3    H1 3461   1.854   0.512   2.402
 1168TIP3    H2 3462   1.727   0.593   2.389
 1169TIP3   OH2 3463   7.800   6.926   5.796
 1169TIP3    H1 3464   7.730   6.950   5.856
 1169TIP3    H2 3465   7.875   6.908   5.853
 1170TIP3   OH2 3466   4.267   7.630   6.221
 1170TIP3    H1 3467   4.209   7.682   6.165
 1170TIP3    H2 3468   4.248   7.539   6.196
 1171TIP3   OH2 3469   5.734   7.799   4.290
 1171TIP3    H1 3470   5.655   7.777   4.340
 1171TIP3    H2 3471   5.727   7.746   4.211
 1172TIP3   OH2 3472   7.722   2.454   6.582
 1172TIP3    H1 3473   7.802   2.474   6.630
 1172TIP3    H2 3474   7.748   2.458   6.489
 1173TIP3   OH2 3475   2.428   2.641   2.027
 1173TIP3    H1 3476   2.410   2.637   1.933
 1173TIP3    H2 3477   2.396   2.558   2.062
 1174TIP3   OH2 3478   6.590   6.256   3.082
 1174TIP3    H1 3479   6.586   6.300   2.997
 1174TIP3    H2 3480   6.591   6.162   3.060
 1175TIP3   OH2 3481   2.103   1.976   2.610
 1175TIP3    H1 3482   2.123   1.990   2.702
 1175TIP3    H2 3483   2.181   1.936   2.573
 1176TIP3   OH2 3484   7.802   0.257   5.526
 1176TIP3    H1 3485   7.862   0.189   5.557
 1176TIP3    H2 3486   7.724   0.210   5.497
 1177TIP3   OH2 3487   2.967   2.963   0.819
 1177TIP3    H1 3488   2.894   2.930   0.872
 1177TIP3    H2 3489   3.046   2.935   0.865
 1178TIP3   OH2 3490   6.752   4.392   6.102
 1178TIP3    H1 3491   6.709   4.447   6.037
 1178TIP3    H2 3492   6.699   4.313   6.105
 1179TIP3   OH2 3493   7.494   4.579   1.831
 1179TIP3    H1 3494   7.580   4.581   1.788
 1179TIP3    H2 3495   7.432   4.567   1.759
 1180TIP3   OH2 3496   3.884   1.516   6.371
 1180TIP3    H1 3497   3.951   1.573   6.335
 1180TIP3    H2 3498   3.904   1.512   6.465
 1181TIP3   OH2 3499   7.216   6.764   6.131
 1181TIP3    H1 3500   7.241   6.842   6.180
 1181TIP3    H2 3501   7.242   6.782   6.041
 1182TIP3   OH2 3502   5.416   0.268   4.110
 1182TIP3    H1 3503   5.496   0.270   4.057
 1182TIP3    H2 3504   5.446   0.291   4.198
 1183TIP3   OH2 3505   0.987   3.817   0.380
 1183TIP3    H1 3506   1.042   3.895   0.385
 1183TIP3    H2 3507   0.935   3.818   0.460
 1184TIP3   OH2 3508   2.128   0.842   5.973
 1184TIP3    H1 3509   2.211   0.805   5.943
 1184TIP3    H2 3510   2.154   0.911   6.035
 1185TIP3   OH2 3511   0.508   2.361   2.185
 1185TIP3    H1 3512   0.570   2.427   2.217
 1185TIP3    H2 3513   0.446   2.410   2.131
 1186TIP3   OH2 3514   2.253   7.767   3.667
 1186TIP3    H1 3515   2.192   7.723   3.725
 1186TIP3    H2 3516   2.336   7.720   3.679
 1187TIP3   OH2 3517   2.483   2.511   2.802
 1187TIP3    H1 3518   2.450   2.422   2.812
 1187TIP3    H2 3519   2.409   2.567   2.828
 1188TIP3   OH2 3520   2.407   3.416   3.019
 1188TIP3    H1 3521   2.397   3.510   3.007
 1188TIP3    H2 3522   2.417   3.381   2.931
 1189TIP3   OH2 3523   5.008   0.368   6.700
 1189TIP3    H1 3524   4.999   0.295   6.761
 1189TIP3    H2 3525   4.941   0.431   6.727
 1190TIP3   OH2 3526   0.478   2.248   5.974
 1190TIP3    H1 3527   0.462   2.216   5.885
 1190TIP3    H2 3528   0.438   2.335   5.976
 1191TIP3   OH2 3529   0.821   1.981   0.222
 1191TIP3    H1 3530   0.821   1.961   0.129
 1191TIP3    H2 3531   0.763   2.058   0.230
 1192TIP3   OH2 3532   2.147   5.163   1.629
 1192TIP3    H1 3533   2.126   5.077   1.595
 1192TIP3    H2 3534   2.198   5.146   1.708
 1193TIP3   OH2 3535   8.045   4.421   5.516
 1193TIP3    H1 3536   8.056   4.355   5.447
 1193TIP3    H2 3537   7.983   4.483   5.480
 1194TIP3   OH2 3538   5.448   7.020   0.347
 1194TIP3    H1 3539   5.423   7.026   0.255
 1194TIP3    H2 3540   5.544   7.019   0.346
 1195TIP3   OH2 3541   0.827  -0.029   4.510
 1195TIP3    H1 3542   0.887   0.003   4.579
 1195TIP3    H2 3543   0.762   0.041   4.501
 1196TIP3   OH2 3544   3.907   0.998   0.409
 1196TIP3    H1 3545   3.920   0.966   0.499
 1196TIP3    H2 3546   3.818   0.972   0.387
 1197TIP3   OH2 3547   3.320   7.672   3.488
 1197TIP3    H1 3548   3.296   7.582   3.465
 1197TIP3    H2 3549   3.326   7.673   3.583
 1198TIP3   OH2 3550   2.198   2.795   4.143
 1198TIP3    H1 3551   2.254   2.720   4.126
 1198TIP3    H2 3552   2.130   2.762   4.201
 1199TIP3   OH2 3553   1.552   7.228   2.493
 1199TIP3    H1 3554   1.489   7.156   2.489
 1199TIP3    H2 3555   1.637   7.186   2.487
 1200TIP3   OH2 3556   0.826   3.901   6.495
 1200TIP3    H1 3557   0.915   3.919   6.464
 1200TIP3    H2 3558   0.839   3.836   6.565
 1201TIP3   OH2 3559   7.684   5.781   1.402
 1201TIP3    H1 3560   7.717   5.829   1.478
 1201TIP3    H2 3561   7.650   5.700   1.438
 1202TIP3   OH2 3562   3.186   3.138   6.144
 1202TIP3    H1 3563   3.176   3.099   6.230
 1202TIP3    H2 3564   3.154   3.228   6.154
 1203TIP3   OH2 3565   0.243   3.690   4.823
 1203TIP3    H1 3566   0.275   3.780   4.816
 1203TIP3    H2 3567   0.224   3.663   4.733
 1204TIP3   OH2 3568   2.980   4.295   0.666
 1204TIP3    H1 3569   3.052   4.323   0.609
 1204TIP3    H2 3570   2.902   4.299   0.611
 1205TIP3   OH2 3571   4.101   3.269   5.040
 1205TIP3    H1 3572   4.047   3.282   4.962
 1205TIP3    H2 3573   4.088   3.349   5.091
 1206TIP3   OH2 3574   4.863   1.694   3.191
 1206TIP3    H1 3575   4.804   1.628   3.228
 1206TIP3    H2 3576   4.941   1.645   3.166
 1207TIP3   OH2 3577   6.504   0.569   0.720
 1207TIP3    H1 3578   6.567   0.630   0.758
 1207TIP3    H2 3579   6.471   0.615   0.642
 1208TIP3   OH2 3580   6.098   0.021   0.476
 1208TIP3    H1 3581   6.041   0.038   0.551
 1208TIP3    H2 3582   6.037   0.003   0.404
 1209TIP3   OH2 3583   0.716   5.251   0.544
 1209TIP3    H1 3584   0.778   5.191   0.503
 1209TIP3    H2 3585   0.768   5.328   0.565
 1210TIP3   OH2 3586   3.925   3.420   0.377
 1210TIP3    H1 3587   3.891   3.509   0.384
 1210TIP3    H2 3588   4.011   3.431   0.337
 1211TIP3   OH2 3589   6.455   5.358   1.632
 1211TIP3    H1 3590   6.378   5.381   1.579
 1211TIP3    H2 3591   6.424   5.364   1.723
 1212TIP3   OH2 3592   6.384   5.865   2.507
 1212TIP3    H1 3593   6.373   5.826   2.420
 1212TIP3    H2 3594   6.296   5.890   2.533
 1213TIP3   OH2 3595   2.788   6.181   0.164
 1213TIP3    H1 3596   2.733   6.103   0.160
 1213TIP3    H2 3597   2.877   6.147   0.176
 1214TIP3   OH2 3598   3.553   4.390   0.479
 1214TIP3    H1 3599   3.491   4.318   0.483
 1214TIP3    H2 3600   3.626   4.363   0.535
 1215TIP3   OH2 3601   3.193   4.022   6.117
 1215TIP3    H1 3602   3.106   4.044   6.085
 1215TIP3    H2 3603   3.204   4.076   6.196
 1216TIP3   OH2 3604   5.312   6.275   3.595
 1216TIP3    H1 3605   5.301   6.332   3.519
 1216TIP3    H2 3606   5.223   6.253   3.622
 1217TIP3   OH2 3607   4.802   2.899   1.934
 1217TIP3    H1 3608   4.860   2.969   1.963
 1217TIP3    H2 3609   4.824   2.886   1.842
 1218TIP3   OH2 3610   7.277   1.325   2.960
 1218TIP3    H1 3611   7.201   1.322   3.018
 1218TIP3    H2 3612   7.249   1.381   2.888
 1219TIP3   OH2 3613   8.034   6.062   5.119
 1219TIP3    H1 3614   8.089   6.063   5.197
 1219TIP3    H2 3615   7.974   6.136   5.131
 1220TIP3   OH2 3616   7.817   2.945   2.437
 1220TIP3    H1 3617   7.821   2.881   2.508
 1220TIP3    H2 3618   7.731   2.988   2.448
 1221TIP3   OH2 3619   3.189   4.511   1.482
 1221TIP3    H1 3620   3.161   4.524   1.572
 1221TIP3    H2 3621   3.114   4.539   1.429
 1222TIP3   OH2 3622   1.020   4.303   6.418
 1222TIP3    H1 3623   1.032   4.215   6.381
 1222TIP3    H2 3624   0.949   4.292   6.482
 1223TIP3   OH2 3625   7.353   6.249   0.595
 1223TIP3    H1 3626   7.280   6.261   0.534
 1223TIP3    H2 3627   7.320   6.284   0.678
 1224TIP3   OH2 3628   2.773   7.487   2.442
 1224TIP3    H1 3629   2.724   7.505   2.522
 1224TIP3    H2 3630   2.753   7.396   2.422
 1225TIP3   OH2 3631   4.891   0.553   2.477
 1225TIP3    H1 3632   4.827   0.613   2.439
 1225TIP3    H2 3633   4.949   0.532   2.404
 1226TIP3   OH2 3634   0.734   2.888   2.275
 1226TIP3    H1 3635   0.805   2.857   2.332
 1226TIP3    H2 3636   0.671   2.926   2.336
 1227TIP3   OH2 3637   2.366   3.543   3.375
 1227TIP3    H1 3638   2.461   3.558   3.383
 1227TIP3    H2 3639   2.347   3.477   3.441
 1228TIP3   OH2 3640   5.143   7.171   0.626
 1228TIP3    H1 3641   5.215   7.207   0.574
 1228TIP3    H2 3642   5.064   7.210   0.588
 1229TIP3   OH2 3643   0.220   0.574   4.407
 1229TIP3    H1 3644   0.192   0.490   4.371
 1229TIP3    H2 3645   0.138   0.618   4.430
 1230TIP3   OH2 3646   5.291   7.547   4.647
 1230TIP3    H1 3647   5.357   7.518   4.710
 1230TIP3    H2 3648   5.338   7.556   4.565
 1231TIP3   OH2 3649   1.383   7.355   4.190
 1231TIP3    H1 3650   1.432   7.432   4.162
 1231TIP3    H2 3651   1.293   7.385   4.196
 1232TIP3   OH2 3652   3.121   4.335   0.167
 1232TIP3    H1 3653   3.117   4.431   0.170
 1232TIP3    H2 3654   3.212   4.314   0.187
 1233TIP3   OH2 3655   5.513   3.480   5.538
 1233TIP3    H1 3656   5.438   3.480   5.598
 1233TIP3    H2 3657   5.485   3.424   5.466
 1234TIP3   OH2 3658   0.268   1.846   4.403
 1234TIP3    H1 3659   0.197   1.815   4.347
 1234TIP3    H2 3660   0.301   1.767   4.446
 1235TIP3   OH2 3661   6.880   6.979   0.527
 1235TIP3    H1 3662   6.847   6.916   0.463
 1235TIP3    H2 3663   6.874   6.933   0.611
 1236TIP3   OH2 3664   8.039   7.253   5.562
 1236TIP3    H1 3665   8.005   7.333   5.522
 1236TIP3    H2 3666   7.967   7.190   5.555
 1237TIP3   OH2 3667   5.534   7.308   1.456
 1237TIP3    H1 3668   5.583   7.246   1.403
 1237TIP3    H2 3669   5.556   7.394   1.419
 1238TIP3   OH2 3670   6.420   2.897   4.682
 1238TIP3    H1 3671   6.508   2.895   4.643
 1238TIP3    H2 3672   6.411   2.812   4.725
 1239TIP3   OH2 3673   0.366   2.586   6.461
 1239TIP3    H1 3674   0.458   2.571   6.480
 1239TIP3    H2 3675   0.366   2.658   6.397
 1240TIP3   OH2 3676   6.554   5.026   3.214
 1240TIP3    H1 3677   6.578   5.083   3.140
 1240TIP3    H2 3678   6.627   5.034   3.275
 1241TIP3   OH2 3679   0.886   3.677   6.694
 1241TIP3    H1 3680   0.832   3.613   6.741
 1241TIP3    H2 3681   0.975   3.643   6.702
 1242TIP3   OH2 3682   4.682   2.321   2.772
 1242TIP3    H1 3683   4.739   2.387   2.733
 1242TIP3    H2 3684   4.693   2.333   2.866
 1243TIP3   OH2 3685   3.121   1.102   1.206
 1243TIP3    H1 3686   3.041   1.050   1.196
 1243TIP3    H2 3687   3.138   1.136   1.118
 1244TIP3   OH2 3688   4.715   0.217   6.729
 1244TIP3    H1 3689   4.658   0.144   6.755
 1244TIP3    H2 3690   4.680   0.292   6.778
 1245TIP3   OH2 3691   2.943   1.021   5.804
 1245TIP3    H1 3692   2.861   0.972   5.812
 1245TIP3    H2 3693   3.011   0.954   5.800
 1246TIP3   OH2 3694   2.318   6.524   4.928
 1246TIP3    H1 3695   2.299   6.479   5.011
 1246TIP3    H2 3696   2.394   6.477   4.893
 1247TIP3   OH2 3697   7.444   0.609   3.552
 1247TIP3    H1 3698   7.374   0.663   3.588
 1247TIP3    H2 3699   7.485   0.568   3.629
 1248TIP3   OH2 3700   0.733   4.322   3.911
 1248TIP3    H1 3701   0.776   4.264   3.974
 1248TIP3    H2 3702   0.771   4.408   3.928
 1249TIP3   OH2 3703   5.313   1.272   3.675
 1249TIP3    H1 3704   5.242   1.295   3.735
 1249TIP3    H2 3705   5.319   1.176   3.680
 1250TIP3   OH2 3706   7.659   2.287   3.892
 1250TIP3    H1 3707   7.704   2.370   3.911
 1250TIP3    H2 3708   7.636   2.292   3.799
 1251TIP3   OH2 3709   6.423   5.907   4.863
 1251TIP3    H1 3710   6.392   5.874   4.948
 1251TIP3    H2 3711   6.501   5.856   4.844
 1252TIP3   OH2 3712   4.113   3.041   6.480
 1252TIP3    H1 3713   4.114   3.062   6.573
 1252TIP3    H2 3714   4.051   3.104   6.442
 1253TIP3   OH2 3715   0.171   3.673   1.900
 1253TIP3    H1 3716   0.155   3.754   1.852
 1253TIP3    H2 3717   0.241   3.695   1.961
 1254TIP3   OH2 3718   2.872   7.603   1.622
 1254TIP3    H1 3719   2.935   7.567   1.685
 1254TIP3    H2 3720   2.786   7.578   1.657
 1255TIP3   OH2 3721   3.982   2.614   6.537
 1255TIP3    H1 3722   3.911   2.671   6.509
 1255TIP3    H2 3723   4.057   2.641   6.485
 1256TIP3   OH2 3724   2.080   2.090   4.006
 1256TIP3    H1 3725   1.997   2.118   3.967
 1256TIP3    H2 3726   2.082   1.995   3.993
 1257TIP3   OH2 3727   1.553   7.506   0.951
 1257TIP3    H1 3728   1.514   7.493   0.864
 1257TIP3    H2 3729   1.640   7.465   0.945
 1258TIP3   OH2 3730   5.956   5.354   4.416
 1258TIP3    H1 3731   6.026   5.418   4.429
 1258TIP3    H2 3732   6.000   5.269   4.422
 1259TIP3   OH2 3733   1.533   7.722   5.322
 1259TIP3    H1 3734   1.537   7.782   5.247
 1259TIP3    H2 3735   1.443   7.728   5.352
 1260TIP3   OH2 3736   7.154   7.739   5.852
 1260TIP3    H1 3737   7.230   7.716   5.800
 1260TIP3    H2 3738   7.174   7.825   5.889
 1261TIP3   OH2 3739   3.149   5.871   1.645
 1261TIP3    H1 3740   3.094   5.889   1.568
 1261TIP3    H2 3741   3.187   5.956   1.667
 1262TIP3   OH2 3742   3.039   7.665   6.241
 1262TIP3    H1 3743   2.971   7.659   6.309
 1262TIP3    H2 3744   3.010   7.736   6.184
 1263TIP3   OH2 3745   6.758   2.315   1.210
 1263TIP3    H1 3746   6.757   2.410   1.201
 1263TIP3    H2 3747   6.684   2.285   1.159
 1264TIP3   OH2 3748   1.762   3.495   0.664
 1264TIP3    H1 3749   1.765   3.458   0.752
 1264TIP3    H2 3750   1.728   3.584   0.676
 1265TIP3   OH2 3751   7.586   6.211   3.924
 1265TIP3    H1 3752   7.678   6.234   3.915
 1265TIP3    H2 3753   7.551   6.217   3.835
 1266TIP3   OH2 3754   0.616   0.438   4.631
 1266TIP3    H1 3755   0.692   0.430   4.689
 1266TIP3    H2 3756   0.547   0.473   4.688
 1267TIP3   OH2 3757   6.074   1.308   5.825
 1267TIP3    H1 3758   6.098   1.221   5.794
 1267TIP3    H2 3759   5.978   1.309   5.823
 1268TIP3   OH2 3760   2.610   2.173   1.748
 1268TIP3    H1 3761   2.572   2.118   1.817
 1268TIP3    H2 3762   2.635   2.112   1.679
 1269TIP3   OH2 3763   5.244   0.210   2.529
 1269TIP3    H1 3764   5.270   0.125   2.493
 1269TIP3    H2 3765   5.203   0.256   2.456
 1270TIP3   OH2 3766   3.793   1.635   1.371
 1270TIP3    H1 3767   3.701   1.659   1.373
 1270TIP3    H2 3768   3.795   1.548   1.330
 1271TIP3   OH2 3769   1.695   1.175   0.767
 1271TIP3    H1 3770   1.782   1.149   0.795
 1271TIP3    H2 3771   1.670   1.110   0.701
 1272TIP3   OH2 3772   1.462   6.015   0.895
 1272TIP3    H1 3773   1.453   5.925   0.928
 1272TIP3    H2 3774   1.378   6.032   0.852
 1273TIP3   OH2 3775   2.914   3.027   1.697
 1273TIP3    H1 3776   2.929   2.960   1.631
 1273TIP3    H2 3777   3.002   3.061   1.717
 1274TIP3   OH2 3778   1.573   2.992   2.854
 1274TIP3    H1 3779   1.487   2.950   2.860
 1274TIP3    H2 3780   1.577   3.050   2.930
 1275TIP3   OH2 3781   6.227   3.155   5.337
 1275TIP3    H1 3782   6.195   3.246   5.338
 1275TIP3    H2 3783   6.175   3.111   5.405
 1276TIP3   OH2 3784   3.665   4.561   4.256
 1276TIP3    H1 3785   3.739   4.607   4.215
 1276TIP3    H2 3786   3.698   4.534   4.341
 1277TIP3   OH2 3787   3.832   0.096   6.248
 1277TIP3    H1 3788   3.746   0.065   6.275
 1277TIP3    H2 3789   3.885   0.088   6.327
 1278TIP3   OH2 3790   0.391   6.087   2.995
 1278TIP3    H1 3791   0.387   6.002   3.038
 1278TIP3    H2 3792   0.301   6.107   2.972
 1279TIP3   OH2 3793   5.348   0.904   0.088
 1279TIP3    H1 3794   5.378   0.860   0.167
 1279TIP3    H2 3795   5.262   0.867   0.071
 1280TIP3   OH2 3796   1.192   6.735   5.337
 1280TIP3    H1 3797   1.225   6.779   5.259
 1280TIP3    H2 3798   1.241   6.775   5.409
 1281TIP3   OH2 3799   2.011   0.161   3.813
 1281TIP3    H1 3800   1.937   0.125   3.861
 1281TIP3    H2 3801   2.041   0.089   3.757
 1282TIP3   OH2 3802   4.407   1.622   2.126
 1282TIP3    H1 3803   4.346   1.556   2.158
 1282TIP3    H2 3804   4.432   1.592   2.039
 1283TIP3   OH2 3805   0.255   5.191   2.018
 1283TIP3    H1 3806   0.276   5.267   2.072
 1283TIP3    H2 3807   0.260   5.117   2.078
 1284TIP3   OH2 3808   0.614   4.754   2.288
 1284TIP3    H1 3809   0.533   4.715   2.322
 1284TIP3    H2 3810   0.659   4.788   2.365
 1285TIP3   OH2 3811   0.412   5.696   5.271
 1285TIP3    H1 3812   0.501   5.681   5.238
 1285TIP3    H2 3813   0.377   5.608   5.286
 1286TIP3   OH2 3814   5.631   0.385   5.752
 1286TIP3    H1 3815   5.663   0.295   5.755
 1286TIP3    H2 3816   5.710   0.438   5.767
 1287TIP3   OH2 3817   0.193   1.875   4.760
 1287TIP3    H1 3818   0.187   1.797   4.815
 1287TIP3    H2 3819   0.116   1.871   4.704
 1288TIP3   OH2 3820   6.624   3.198   6.459
 1288TIP3    H1 3821   6.548   3.234   6.412
 1288TIP3    H2 3822   6.677   3.157   6.391
 1289TIP3   OH2 3823   3.829   4.204   6.334
 1289TIP3    H1 3824   3.862   4.289   6.361
 1289TIP3    H2 3825   3.808   4.159   6.415
 1290TIP3   OH2 3826   5.865   0.845   5.701
 1290TIP3    H1 3827   5.794   0.822   5.761
 1290TIP3    H2 3828   5.935   0.878   5.757
 1291TIP3   OH2 3829   5.549   3.767   2.994
 1291TIP3    H1 3830   5.466   3.749   3.037
 1291TIP3    H2 3831   5.597   3.684   2.997
 1292TIP3   OH2 3832   2.840   5.016   0.344
 1292TIP3    H1 3833   2.779   5.086   0.369
 1292TIP3    H2 3834   2.792   4.965   0.278
 1293TIP3   OH2 3835   2.458   5.952   4.782
 1293TIP3    H1 3836   2.552   5.937   4.789
 1293TIP3    H2 3837   2.449   6.013   4.708
 1294TIP3   OH2 3838   4.221   1.898   4.481
 1294TIP3    H1 3839   4.162   1.909   4.556
 1294TIP3    H2 3840   4.309   1.900   4.518
 1295TIP3   OH2 3841   7.829   6.444   5.955
 1295TIP3    H1 3842   7.760   6.483   5.902
 1295TIP3    H2 3843   7.902   6.506   5.948
 1296TIP3   OH2 3844   7.852   2.131   4.492
 1296TIP3    H1 3845   7.854   2.048   4.445
 1296TIP3    H2 3846   7.832   2.107   4.583
 1297TIP3   OH2 3847   7.956   2.445   2.474
 1297TIP3    H1 3848   8.029   2.387   2.495
 1297TIP3    H2 3849   7.995   2.532   2.467
 1298TIP3   OH2 3850   0.363   7.318   0.733
 1298TIP3    H1 3851   0.402   7.234   0.709
 1298TIP3    H2 3852   0.354   7.365   0.650
 1299TIP3   OH2 3853   6.261   3.923   6.696
 1299TIP3    H1 3854   6.318   3.853   6.665
 1299TIP3    H2 3855   6.321   3.989   6.729
 1300TIP3   OH2 3856   7.643   5.282   1.244
 1300TIP3    H1 3857   7.637   5.347   1.174
 1300TIP3    H2 3858   7.737   5.263   1.251
 1301TIP3   OH2 3859   4.965   1.331   2.594
 1301TIP3    H1 3860   4.881   1.340   2.550
 1301TIP3    H2 3861   4.972   1.408   2.649
 1302TIP3   OH2 3862   1.046   2.577   2.552
 1302TIP3    H1 3863   1.106   2.580   2.626
 1302TIP3    H2 3864   1.101   2.597   2.476
 1303TIP3   OH2 3865   0.639   5.644   6.032
 1303TIP3    H1 3866   0.582   5.620   5.959
 1303TIP3    H2 3867   0.623   5.576   6.098
 1304TIP3   OH2 3868   2.717   6.457   2.158
 1304TIP3    H1 3869   2.691   6.545   2.185
 1304TIP3    H2 3870   2.635   6.414   2.133
 1305TIP3   OH2 3871   6.247   4.473   2.286
 1305TIP3    H1 3872   6.250   4.564   2.316
 1305TIP3    H2 3873   6.326   4.433   2.323
 1306TIP3   OH2 3874   7.451   0.540   1.819
 1306TIP3    H1 3875   7.497   0.459   1.842
 1306TIP3    H2 3876   7.367   0.534   1.865
 1307TIP3   OH2 3877   8.269   6.325   0.790
 1307TIP3    H1 3878   8.354   6.360   0.817
 1307TIP3    H2 3879   8.286   6.234   0.766
 1308TIP3   OH2 3880   4.796   3.915   4.147
 1308TIP3    H1 3881   4.854   3.876   4.212
 1308TIP3    H2 3882   4.847   3.986   4.108
 1309TIP3   OH2 3883   3.953   2.320   3.695
 1309TIP3    H1 3884   3.858   2.333   3.698
 1309TIP3    H2 3885   3.980   2.359   3.612
 1310TIP3   OH2 3886   2.686   0.831   3.269
 1310TIP3    H1 3887   2.592   0.842   3.253
 1310TIP3    H2 3888   2.728   0.894   3.210
 1311TIP3   OH2 3889   6.850   0.539   1.743
 1311TIP3    H1 3890   6.928   0.538   1.689
 1311TIP3    H2 3891   6.846   0.451   1.782
 1312TIP3   OH2 3892   1.007   1.395   0.346
 1312TIP3    H1 3893   0.968   1.477   0.315
 1312TIP3    H2 3894   1.095   1.395   0.309
 1313TIP3   OH2 3895   0.113   0.439   1.623
 1313TIP3    H1 3896   0.110   0.535   1.618
 1313TIP3    H2 3897   0.021   0.413   1.626
 1314TIP3   OH2 3898   0.623   6.357   2.383
 1314TIP3    H1 3899   0.533   6.379   2.358
 1314TIP3    H2 3900   0.656   6.304   2.311
 1315TIP3   OH2 3901   5.482   2.967   0.713
 1315TIP3    H1 3902   5.510   3.058   0.710
 1315TIP3    H2 3903   5.549   2.920   0.664
 1316TIP3   OH2 3904   3.449   5.535   6.193
 1316TIP3    H1 3905   3.482   5.533   6.103
 1316TIP3    H2 3906   3.438   5.628   6.213
 1317TIP3   OH2 3907   8.196   5.753   1.962
 1317TIP3    H1 3908   8.119   5.718   2.006
 1317TIP3    H2 3909   8.228   5.822   2.020
 1318TIP3   OH2 3910   0.655   1.612   4.281
 1318TIP3    H1 3911   0.685   1.699   4.256
 1318TIP3    H2 3912   0.566   1.625   4.312
 1319TIP3   OH2 3913   3.493   0.257   6.374
 1319TIP3    H1 3914   3.514   0.281   6.464
 1319TIP3    H2 3915   3.502   0.162   6.372
 1320TIP3   OH2 3916   8.078   1.776   4.278
 1320TIP3    H1 3917   8.016   1.814   4.339
 1320TIP3    H2 3918   8.068   1.681   4.290
 1321TIP3   OH2 3919   1.363   5.033   6.626
 1321TIP3    H1 3920   1.407   5.106   6.669
 1321TIP3    H2 3921   1.300   5.075   6.567
 1322TIP3   OH2 3922   6.346   1.019   2.920
 1322TIP3    H1 3923   6.346   0.972   3.003
 1322TIP3    H2 3924   6.283   1.090   2.932
 1323TIP3   OH2 3925   8.265   3.017   6.054
 1323TIP3    H1 3926   8.356   2.986   6.063
 1323TIP3    H2 3927   8.212   2.937   6.061
 1324TIP3   OH2 3928   2.140   5.779   1.760
 1324TIP3    H1 3929   2.123   5.736   1.676
 1324TIP3    H2 3930   2.100   5.721   1.825
 1325TIP3   OH2 3931   7.334   4.865   3.393
 1325TIP3    H1 3932   7.427   4.855   3.371
 1325TIP3    H2 3933   7.308   4.947   3.350
 1326TIP3   OH2 3934   2.748   1.264   5.978
 1326TIP3    H1 3935   2.744   1.197   6.047
 1326TIP3    H2 3936   2.820   1.236   5.921
 1327TIP3   OH2 3937   4.201   0.600   5.580
 1327TIP3    H1 3938   4.143   0.558   5.644
 1327TIP3    H2 3939   4.141   0.640   5.517
 1328TIP3   OH2 3940   4.373   6.465   5.071
 1328TIP3    H1 3941   4.422   6.505   5.000
 1328TIP3    H2 3942   4.435   6.458   5.144
 1329TIP3   OH2 3943   0.964   7.606   1.997
 1329TIP3    H1 3944   0.901   7.537   2.017
 1329TIP3    H2 3945   0.987   7.643   2.082
 1330TIP3   OH2 3946   1.497   7.572   2.205
 1330TIP3    H1 3947   1.552   7.565   2.128
 1330TIP3    H2 3948   1.456   7.486   2.213
 1331TIP3   OH2 3949   3.642   0.562   5.621
 1331TIP3    H1 3950   3.706   0.491   5.631
 1331TIP3    H2 3951   3.670   0.608   5.541
 1332TIP3   OH2 3952   0.651   2.608   2.174
 1332TIP3    H1 3953   0.615   2.620   2.086
 1332TIP3    H2 3954   0.716   2.678   2.183
 1333TIP3   OH2 3955   2.261   7.795   5.034
 1333TIP3    H1 3956   2.180   7.748   5.016
 1333TIP3    H2 3957   2.293   7.758   5.117
 1334TIP3   OH2 3958   2.426   5.560   2.746
 1334TIP3    H1 3959   2.476   5.576   2.826
 1334TIP3    H2 3960   2.334   5.566   2.774
 1335TIP3   OH2 3961   0.297   2.842   6.297
 1335TIP3    H1 3962   0.262   2.931   6.299
 1335TIP3    H2 3963   0.339   2.835   6.211
 1336TIP3   OH2 3964   5.040   1.478   6.398
 1336TIP3    H1 3965   5.072   1.444   6.481
 1336TIP3    H2 3966   5.041   1.573   6.408
 1337TIP3   OH2 3967   1.854   6.114   3.507
 1337TIP3    H1 3968   1.875   6.138   3.597
 1337TIP3    H2 3969   1.879   6.191   3.455
 1338TIP3   OH2 3970   6.621   5.826   5.186
 1338TIP3    H1 3971   6.549   5.771   5.155
 1338TIP3    H2 3972   6.646   5.789   5.270
 1339TIP3   OH2 3973   0.485   5.668   0.090
 1339TIP3    H1 3974   0.443   5.640   0.172
 1339TIP3    H2 3975   0.578   5.677   0.114
 1340TIP3   OH2 3976   6.168   6.808   3.229
 1340TIP3    H1 3977   6.231   6.763   3.174
 1340TIP3    H2 3978   6.192   6.784   3.319
 1341TIP3   OH2 3979   2.388   3.305   6.670
 1341TIP3    H1 3980   2.432   3.340   6.592
 1341TIP3    H2 3981   2.294   3.313   6.650
 1342TIP3   OH2 3982   1.963   1.433   2.416
 1342TIP3    H1 3983   1.915   1.491   2.357
 1342TIP3    H2 3984   2.055   1.458   2.406
 1343TIP3   OH2 3985   5.046   7.368   1.622
 1343TIP3    H1 3986   5.111   7.421   1.668
 1343TIP3    H2 3987   5.024   7.298   1.683
 1344TIP3   OH2 3988   3.783   6.805   5.678
 1344TIP3    H1 3989   3.829   6.747   5.617
 1344TIP3    H2 3990   3.724   6.747   5.725
 1345TIP3   OH2 3991   6.913   6.852   0.804
 1345TIP3    H1 3992   6.850   6.780   0.811
 1345TIP3    H2 3993   6.894   6.908   0.879
 1346TIP3   OH2 3994   5.834   0.104   2.362
 1346TIP3    H1 3995   5.843   0.133   2.271
 1346TIP3    H2 3996   5.765   0.037   2.358
 1347TIP3   OH2 3997   5.791   4.643   4.099
 1347TIP3    H1 3998   5.798   4.547   4.099
 1347TIP3    H2 3999   5.830   4.670   4.016
 1348TIP3   OH2 4000   1.436   3.544   6.405
 1348TIP3    H1 4001   1.387   3.467   6.377
 1348TIP3    H2 4002   1.501   3.510   6.467
 1349TIP3   OH2 4003   3.023   6.417   5.948
 1349TIP3    H1 4004   3.101   6.463   5.981
 1349TIP3    H2 4005   3.009   6.454   5.861
 1350TIP3   OH2 4006   6.465   2.139   4.056
 1350TIP3    H1 4007   6.439   2.085   3.981
 1350TIP3    H2 4008   6.431   2.093   4.132
 1351TIP3   OH2 4009   4.729   0.453   5.591
 1351TIP3    H1 4010   4.636   0.447   5.613
 1351TIP3    H2 4011   4.772   0.475   5.673
 1352TIP3   OH2 4012   6.610   0.419   3.538
 1352TIP3    H1 4013   6.698   0.380   3.536
 1352TIP3    H2 4014   6.607   0.473   3.459
 1353TIP3   OH2 4015   0.288   7.560   4.427
 1353TIP3    H1 4016   0.312   7.509   4.504
 1353TIP3    H2 4017   0.314   7.649   4.448
 1354TIP3   OH2 4018   7.562   0.260   2.830
 1354TIP3    H1 4019   7.504   0.309   2.772
 1354TIP3    H2 4020   7.611   0.326   2.877
 1355TIP3   OH2 4021   5.492   5.574   0.891
 1355TIP3    H1 4022   5.437   5.505   0.928
 1355TIP3    H2 4023   5.526   5.621   0.968
 1356TIP3   OH2 4024   1.834   5.824   2.071
 1356TIP3    H1 4025   1.874   5.897   2.023
 1356TIP3    H2 4026   1.820   5.858   2.159
 1357TIP3   OH2 4027   3.771   0.288   4.730
 1357TIP3    H1 4028   3.690   0.266   4.683
 1357TIP3    H2 4029   3.840   0.245   4.679
 1358TIP3   OH2 4030   6.281   0.169   4.920
 1358TIP3    H1 4031   6.284   0.073   4.917
 1358TIP3    H2 4032   6.196   0.191   4.882
 1359TIP3   OH2 4033   6.678   1.804   4.288
 1359TIP3    H1 4034   6.584   1.804   4.308
 1359TIP3    H2 4035   6.702   1.711   4.288
 1360TIP3   OH2 4036   4.417   3.025   4.960
 1360TIP3    H1 4037   4.486   3.052   4.900
 1360TIP3    H2 4038   4.389   3.106   5.003
 1361TIP3   OH2 4039   1.263   7.143   0.705
 1361TIP3    H1 4040   1.335   7.088   0.676
 1361TIP3    H2 4041   1.219   7.170   0.625
 1362TIP3   OH2 4042   7.530   5.403   1.675
 1362TIP3    H1 4043   7.593   5.351   1.725
 1362TIP3    H2 4044   7.455   5.413   1.733
 1363TIP3   OH2 4045   5.223   7.345   0.142
 1363TIP3    H1 4046   5.195   7.323   0.053
 1363TIP3    H2 4047   5.242   7.439   0.138
 1364TIP3   OH2 4048   1.349   3.107   6.661
 1364TIP3    H1 4049   1.297   3.031   6.686
 1364TIP3    H2 4050   1.440   3.077   6.666
 1365TIP3   OH2 4051   1.594   3.277   0.572
 1365TIP3    H1 4052   1.640   3.360   0.585
 1365TIP3    H2 4053   1.663   3.211   0.573
 1366TIP3   OH2 4054   4.775   7.211   3.855
 1366TIP3    H1 4055   4.865   7.228   3.829
 1366TIP3    H2 4056   4.773   7.228   3.949
 1367TIP3   OH2 4057   1.787   1.109   2.510
 1367TIP3    H1 4058   1.730   1.180   2.481
 1367TIP3    H2 4059   1.730   1.054   2.564
 1368TIP3   OH2 4060   6.557   0.109   4.147
 1368TIP3    H1 4061   6.631   0.168   4.127
 1368TIP3    H2 4062   6.493   0.165   4.190
 1369TIP3   OH2 4063   1.825   5.032   4.362
 1369TIP3    H1 4064   1.793   5.000   4.447
 1369TIP3    H2 4065   1.914   5.063   4.380
 1370TIP3   OH2 4066   6.231   7.202   2.752
 1370TIP3    H1 4067   6.222   7.297   2.748
 1370TIP3    H2 4068   6.297   7.187   2.820
 1371TIP3   OH2 4069   6.623   5.769   6.168
 1371TIP3    H1 4070   6.626   5.849   6.220
 1371TIP3    H2 4071   6.702   5.721   6.194
 1372TIP3   OH2 4072   2.085   5.497   2.249
 1372TIP3    H1 4073   1.999   5.515   2.210
 1372TIP3    H2 4074   2.139   5.571   2.221
 1373TIP3   OH2 4075   7.107   4.361   6.477
 1373TIP3    H1 4076   7.036   4.425   6.473
 1373TIP3    H2 4077   7.073   4.290   6.530
 1374TIP3   OH2 4078   5.732   5.436   5.259
 1374TIP3    H1 4079   5.734   5.387   5.342
 1374TIP3    H2 4080   5.654   5.491   5.265
 1375TIP3   OH2 4081   5.136   5.080   5.519
 1375TIP3    H1 4082   5.183   5.164   5.522
 1375TIP3    H2 4083   5.184   5.024   5.581
 1376TIP3   OH2 4084   4.587   2.090   3.855
 1376TIP3    H1 4085   4.643   2.044   3.918
 1376TIP3    H2 4086   4.498   2.072   3.885
 1377TIP3   OH2 4087   5.830   5.507   0.939
 1377TIP3    H1 4088   5.758   5.444   0.941
 1377TIP3    H2 4089   5.822   5.555   1.022
 1378TIP3   OH2 4090   6.346   4.539   3.480
 1378TIP3    H1 4091   6.440   4.538   3.492
 1378TIP3    H2 4092   6.324   4.632   3.472
 1379TIP3   OH2 4093   0.031   0.081   2.272
 1379TIP3    H1 4094  -0.014   0.000   2.296
 1379TIP3    H2 4095  -0.001   0.102   2.185
 1380TIP3   OH2 4096   5.366   3.965   5.702
 1380TIP3    H1 4097   5.278   3.988   5.732
 1380TIP3    H2 4098   5.409   3.928   5.779
 1381TIP3   OH2 4099   2.851   3.538   2.693
 1381TIP3    H1 4100   2.787   3.466   2.699
 1381TIP3    H2 4101   2.861   3.552   2.599
 1382TIP3   OH2 4102   5.219   1.244   5.518
 1382TIP3    H1 4103   5.182   1.264   5.604
 1382TIP3    H2 4104   5.244   1.152   5.524
 1383TIP3   OH2 4105   6.795   6.887   2.397
 1383TIP3    H1 4106   6.784   6.875   2.303
 1383TIP3    H2 4107   6.705   6.890   2.432
 1384TIP3   OH2 4108   3.893   6.348   2.344
 1384TIP3    H1 4109   3.853   6.268   2.377
 1384TIP3    H2 4110   3.824   6.414   2.353
 1385TIP3   OH2 4111   5.084   6.151   6.720
 1385TIP3    H1 4112   5.045   6.117   6.640
 1385TIP3    H2 4113   5.071   6.081   6.784
 1386TIP3   OH2 4114   3.255   5.520   2.673
 1386TIP3    H1 4115   3.276   5.477   2.757
 1386TIP3    H2 4116   3.309   5.599   2.673
 1387TIP3   OH2 4117   4.497   1.325   5.551
 1387TIP3    H1 4118   4.548   1.285   5.481
 1387TIP3    H2 4119   4.473   1.252   5.608
 1388TIP3   OH2 4120   0.027   3.757   3.166
 1388TIP3    H1 4121   0.076   3.796   3.094
 1388TIP3    H2 4122   0.076   3.781   3.245
 1389TIP3   OH2 4123   5.381   0.324   3.454
 1389TIP3    H1 4124   5.431   0.319   3.373
 1389TIP3    H2 4125   5.446   0.325   3.523
 1390TIP3   OH2 4126   2.054   3.600   3.276
 1390TIP3    H1 4127   2.115   3.661   3.234
 1390TIP3    H2 4128   2.058   3.622   3.369
 1391TIP3   OH2 4129   3.396   6.407   6.300
 1391TIP3    H1 4130   3.334   6.408   6.373
 1391TIP3    H2 4131   3.377   6.326   6.253
 1392TIP3   OH2 4132   8.230   6.606   6.752
 1392TIP3    H1 4133   8.189   6.563   6.677
 1392TIP3    H2 4134   8.230   6.699   6.730
 1393TIP3   OH2 4135   7.003   7.438   3.431
 1393TIP3    H1 4136   6.960   7.415   3.349
 1393TIP3    H2 4137   7.095   7.414   3.417
 1394TIP3   OH2 4138   5.186   4.526   4.697
 1394TIP3    H1 4139   5.242   4.532   4.774
 1394TIP3    H2 4140   5.240   4.557   4.624
 1395TIP3   OH2 4141   4.834   6.652  -0.028
 1395TIP3    H1 4142   4.774   6.726  -0.042
 1395TIP3    H2 4143   4.804   6.612   0.053
 1396TIP3   OH2 4144   1.513   4.193   5.734
 1396TIP3    H1 4145   1.576   4.250   5.778
 1396TIP3    H2 4146   1.471   4.250   5.669
 1397TIP3   OH2 4147   6.988   6.123   1.478
 1397TIP3    H1 4148   6.953   6.198   1.430
 1397TIP3    H2 4149   6.990   6.152   1.570
 1398TIP3   OH2 4150   5.719   5.046   0.326
 1398TIP3    H1 4151   5.749   5.117   0.269
 1398TIP3    H2 4152   5.748   4.966   0.282
 1399TIP3   OH2 4153   6.600   7.763   4.994
 1399TIP3    H1 4154   6.680   7.790   5.039
 1399TIP3    H2 4155   6.534   7.824   5.025
 1400TIP3   OH2 4156   3.354   4.847   0.412
 1400TIP3    H1 4157   3.412   4.784   0.368
 1400TIP3    H2 4158   3.341   4.917   0.349
 1401TIP3   OH2 4159   2.415   2.294   5.508
 1401TIP3    H1 4160   2.381   2.307   5.597
 1401TIP3    H2 4161   2.501   2.335   5.510
 1402TIP3   OH2 4162   0.285   5.068   3.021
 1402TIP3    H1 4163   0.190   5.073   3.025
 1402TIP3    H2 4164   0.313   5.055   3.111
 1403TIP3   OH2 4165   3.649   2.276   3.685
 1403TIP3    H1 4166   3.568   2.308   3.725
 1403TIP3    H2 4167   3.621   2.237   3.603
 1404TIP3   OH2 4168   2.012   4.884   4.576
 1404TIP3    H1 4169   2.017   4.959   4.635
 1404TIP3    H2 4170   2.067   4.818   4.617
 1405TIP3   OH2 4171   7.438   5.390   6.034
 1405TIP3    H1 4172   7.419   5.465   5.977
 1405TIP3    H2 4173   7.524   5.359   6.006
 1406TIP3   OH2 4174   4.360   7.117   1.396
 1406TIP3    H1 4175   4.271   7.152   1.393
 1406TIP3    H2 4176   4.413   7.189   1.432
 1407TIP3   OH2 4177   5.043   3.053   1.358
 1407TIP3    H1 4178   5.137   3.054   1.339
 1407TIP3    H2 4179   5.028   2.967   1.398
 1408TIP3   OH2 4180   7.910   7.393   5.146
 1408TIP3    H1 4181   7.927   7.300   5.131
 1408TIP3    H2 4182   7.817   7.404   5.126
 1409TIP3   OH2 4183   6.959   1.527   2.586
 1409TIP3    H1 4184   6.895   1.590   2.551
 1409TIP3    H2 4185   6.975   1.556   2.675
 1410TIP3   OH2 4186   5.429   1.895   1.778
 1410TIP3    H1 4187   5.420   1.908   1.684
 1410TIP3    H2 4188   5.373   1.820   1.797
 1411TIP3   OH2 4189   5.104   6.793   5.494
 1411TIP3    H1 4190   5.027   6.740   5.515
 1411TIP3    H2 4191   5.135   6.826   5.578
 1412TIP3   OH2 4192   5.759   1.866   2.469
 1412TIP3    H1 4193   5.713   1.946   2.495
 1412TIP3    H2 4194   5.840   1.869   2.520
 1413TIP3   OH2 4195   7.089   3.451   2.882
 1413TIP3    H1 4196   7.184   3.439   2.883
 1413TIP3    H2 4197   7.077   3.540   2.848
 1414TIP3   OH2 4198   3.674   7.171   6.587
 1414TIP3    H1 4199   3.747   7.131   6.635
 1414TIP3    H2 4200   3.596   7.145   6.636
 1415TIP3   OH2 4201   1.287   2.242   2.144
 1415TIP3    H1 4202   1.378   2.215   2.159
 1415TIP3    H2 4203   1.265   2.202   2.059
 1416TIP3   OH2 4204   8.118   0.679   0.334
 1416TIP3    H1 4205   8.041   0.714   0.290
 1416TIP3    H2 4206   8.109   0.584   0.326
 1417TIP3   OH2 4207   6.685   2.851   2.925
 1417TIP3    H1 4208   6.697   2.778   2.986
 1417TIP3    H2 4209   6.751   2.836   2.857
 1418TIP3   OH2 4210   2.448   4.079   4.505
 1418TIP3    H1 4211   2.442   3.988   4.535
 1418TIP3    H2 4212   2.358   4.102   4.483
 1419TIP3   OH2 4213   4.323   4.179   2.390
 1419TIP3    H1 4214   4.397   4.240   2.388
 1419TIP3    H2 4215   4.260   4.215   2.328
 1420TIP3   OH2 4216   3.631   6.211   5.426
 1420TIP3    H1 4217   3.556   6.191   5.371
 1420TIP3    H2 4218   3.615   6.300   5.457
 1421TIP3   OH2 4219   6.145   6.899   4.514
 1421TIP3    H1 4220   6.103   6.946   4.442
 1421TIP3    H2 4221   6.145   6.808   4.487
 1422TIP3   OH2 4222   4.237   7.173   4.719
 1422TIP3    H1 4223   4.315   7.151   4.668
 1422TIP3    H2 4224   4.165   7.166   4.656
 1423TIP3   OH2 4225   3.815   3.383   4.904
 1423TIP3    H1 4226   3.753   3.449   4.874
 1423TIP3    H2 4227   3.807   3.312   4.840
 1424TIP3   OH2 4228   8.215   1.104   4.191
 1424TIP3    H1 4229   8.225   1.097   4.096
 1424TIP3    H2 4230   8.304   1.104   4.225
 1425TIP3   OH2 4231   6.668   2.805   0.839
 1425TIP3    H1 4232   6.631   2.756   0.912
 1425TIP3    H2 4233   6.649   2.897   0.859
 1426TIP3   OH2 4234   1.052   6.877   3.403
 1426TIP3    H1 4235   1.025   6.843   3.318
 1426TIP3    H2 4236   0.969   6.889   3.451
 1427TIP3   OH2 4237   7.349   1.267   1.825
 1427TIP3    H1 4238   7.363   1.201   1.892
 1427TIP3    H2 4239   7.437   1.297   1.801
 1428TIP3   OH2 4240   2.006   2.839   1.457
 1428TIP3    H1 4241   2.087   2.888   1.440
 1428TIP3    H2 4242   1.967   2.884   1.532
 1429TIP3   OH2 4243   2.447   4.667   0.842
 1429TIP3    H1 4244   2.464   4.666   0.748
 1429TIP3    H2 4245   2.418   4.577   0.861
 1430TIP3   OH2 4246   1.248   5.414   6.249
 1430TIP3    H1 4247   1.199   5.483   6.204
 1430TIP3    H2 4248   1.335   5.416   6.208
 1431TIP3   OH2 4249   0.478   3.834   2.974
 1431TIP3    H1 4250   0.507   3.814   2.885
 1431TIP3    H2 4251   0.459   3.928   2.972
 1432TIP3   OH2 4252   7.236   3.388   2.061
 1432TIP3    H1 4253   7.208   3.303   2.096
 1432TIP3    H2 4254   7.318   3.406   2.106
 1433TIP3   OH2 4255   2.215  -0.014   0.253
 1433TIP3    H1 4256   2.166  -0.014   0.171
 1433TIP3    H2 4257   2.241   0.077   0.266
 1434TIP3   OH2 4258   5.132   0.611   3.370
 1434TIP3    H1 4259   5.068   0.579   3.434
 1434TIP3    H2 4260   5.201   0.651   3.423
 1435TIP3   OH2 4261   2.043   4.387   0.659
 1435TIP3    H1 4262   2.106   4.388   0.586
 1435TIP3    H2 4263   1.962   4.419   0.620
 1436TIP3   OH2 4264   5.064   5.510   6.712
 1436TIP3    H1 4265   5.060   5.506   6.808
 1436TIP3    H2 4266   5.003   5.579   6.688
 1437TIP3   OH2 4267   3.651   0.337   0.293
 1437TIP3    H1 4268   3.666   0.419   0.340
 1437TIP3    H2 4269   3.657   0.270   0.361
 1438TIP3   OH2 4270   4.072   3.867   3.607
 1438TIP3    H1 4271   4.103   3.955   3.629
 1438TIP3    H2 4272   3.978   3.878   3.592
 1439TIP3   OH2 4273   6.223   3.309   5.004
 1439TIP3    H1 4274   6.278   3.231   4.994
 1439TIP3    H2 4275   6.266   3.376   4.951
 1440TIP3   OH2 4276   2.535   0.913   1.277
 1440TIP3    H1 4277   2.606   0.882   1.220
 1440TIP3    H2 4278   2.579   0.933   1.360
 1441TIP3   OH2 4279   3.024   5.361   4.932
 1441TIP3    H1 4280   2.949   5.336   4.878
 1441TIP3    H2 4281   2.997   5.442   4.976
 1442TIP3   OH2 4282   5.491   6.436   6.379
 1442TIP3    H1 4283   5.494   6.531   6.391
 1442TIP3    H2 4284   5.473   6.402   6.467
 1443TIP3   OH2 4285   0.587   5.057   0.211
 1443TIP3    H1 4286   0.596   5.152   0.210
 1443TIP3    H2 4287   0.521   5.040   0.278
 1444TIP3   OH2 4288   7.776   6.934   4.379
 1444TIP3    H1 4289   7.838   6.896   4.442
 1444TIP3    H2 4290   7.726   6.858   4.347
 1445TIP3   OH2 4291   0.197   1.177   2.441
 1445TIP3    H1 4292   0.182   1.084   2.423
 1445TIP3    H2 4293   0.110   1.213   2.457
 1446TIP3   OH2 4294   6.550   1.952   1.042
 1446TIP3    H1 4295   6.579   1.893   1.112
 1446TIP3    H2 4296   6.454   1.949   1.048
 1447TIP3   OH2 4297   1.783   3.235   6.572
 1447TIP3    H1 4298   1.747   3.244   6.484
 1447TIP3    H2 4299   1.856   3.175   6.562
 1448TIP3   OH2 4300   8.063   3.000   0.286
 1448TIP3    H1 4301   8.070   3.007   0.381
 1448TIP3    H2 4302   8.109   2.919   0.264
 1449TIP3   OH2 4303   2.630   0.101   3.353
 1449TIP3    H1 4304   2.611   0.143   3.269
 1449TIP3    H2 4305   2.684   0.165   3.400
 1450TIP3   OH2 4306   5.749   3.386   4.801
 1450TIP3    H1 4307   5.826   3.441   4.814
 1450TIP3    H2 4308   5.687   3.442   4.754
 1451TIP3   OH2 4309   5.736   4.871   1.211
 1451TIP3    H1 4310   5.785   4.918   1.278
 1451TIP3    H2 4311   5.800   4.852   1.143
 1452TIP3   OH2 4312   1.770   5.534   1.478
 1452TIP3    H1 4313   1.808   5.454   1.514
 1452TIP3    H2 4314   1.764   5.593   1.553
 1453TIP3   OH2 4315   2.976   7.463   1.837
 1453TIP3    H1 4316   2.911   7.426   1.897
 1453TIP3    H2 4317   3.021   7.529   1.889
 1454TIP3   OH2 4318   2.094   4.334   3.863
 1454TIP3    H1 4319   2.089   4.294   3.776
 1454TIP3    H2 4320   2.152   4.277   3.913
 1455TIP3   OH2 4321   7.774   4.299   5.019
 1455TIP3    H1 4322   7.758   4.206   5.036
 1455TIP3    H2 4323   7.856   4.301   4.970
 1456TIP3   OH2 4324   3.275   5.763   2.956
 1456TIP3    H1 4325   3.228   5.695   3.003
 1456TIP3    H2 4326   3.344   5.716   2.909
 1457TIP3   OH2 4327   4.227   2.127   3.998
 1457TIP3    H1 4328   4.301   2.137   4.057
 1457TIP3    H2 4329   4.188   2.214   3.993
 1458TIP3   OH2 4330   4.934   2.650   2.095
 1458TIP3    H1 4331   4.895   2.721   2.146
 1458TIP3    H2 4332   5.016   2.685   2.062
 1459TIP3   OH2 4333   7.923   7.645   5.554
 1459TIP3    H1 4334   7.959   7.602   5.477
 1459TIP3    H2 4335   7.979   7.722   5.567
 1460TIP3   OH2 4336   5.987   0.597   3.053
 1460TIP3    H1 4337   5.916   0.641   3.099
 1460TIP3    H2 4338   5.945   0.554   2.979
 1461TIP3   OH2 4339   6.319   7.770   6.596
 1461TIP3    H1 4340   6.288   7.853   6.631
 1461TIP3    H2 4341   6.412   7.786   6.575
 1462TIP3   OH2 4342   1.000   7.488   3.755
 1462TIP3    H1 4343   1.001   7.436   3.675
 1462TIP3    H2 4344   1.081   7.465   3.800
 1463TIP3   OH2 4345   0.598   7.022   2.297
 1463TIP3    H1 4346   0.616   7.116   2.307
 1463TIP3    H2 4347   0.679   6.979   2.322
 1464TIP3   OH2 4348   3.838   3.758   3.916
 1464TIP3    H1 4349   3.907   3.760   3.850
 1464TIP3    H2 4350   3.853   3.677   3.965
 1465TIP3   OH2 4351   3.971   1.919   2.774
 1465TIP3    H1 4352   3.927   1.927   2.690
 1465TIP3    H2 4353   3.981   1.825   2.788
 1466TIP3   OH2 4354   7.972   4.590   0.937
 1466TIP3    H1 4355   7.916   4.598   1.014
 1466TIP3    H2 4356   8.061   4.594   0.971
 1467TIP3   OH2 4357   2.404   0.849   2.903
 1467TIP3    H1 4358   2.323   0.800   2.887
 1467TIP3    H2 4359   2.411   0.854   2.998
 1468TIP3   OH2 4360   2.202   4.226   2.837
 1468TIP3    H1 4361   2.189   4.161   2.906
 1468TIP3    H2 4362   2.165   4.307   2.873
 1469TIP3   OH2 4363   4.143   1.850   3.655
 1469TIP3    H1 4364   4.133   1.937   3.694
 1469TIP3    H2 4365   4.237   1.841   3.641
 1470TIP3   OH2 4366   6.559   0.688   6.226
 1470TIP3    H1 4367   6.553   0.631   6.302
 1470TIP3    H2 4368   6.614   0.761   6.255
 1471TIP3   OH2 4369   4.513   4.939   6.343
 1471TIP3    H1 4370   4.567   4.965   6.268
 1471TIP3    H2 4371   4.543   4.851   6.364
 1472TIP3   OH2 4372   1.605   2.687   1.948
 1472TIP3    H1 4373   1.694   2.655   1.935
 1472TIP3    H2 4374   1.606   2.727   2.035
 1473TIP3   OH2 4375   4.958   0.117   6.792
 1473TIP3    H1 4376   4.869   0.150   6.777
 1473TIP3    H2 4377   4.977   0.063   6.715
 1474TIP3   OH2 4378   7.689   3.681   6.227
 1474TIP3    H1 4379   7.629   3.631   6.282
 1474TIP3    H2 4380   7.632   3.723   6.162
 1475TIP3   OH2 4381   0.842   7.328   3.233
 1475TIP3    H1 4382   0.772   7.340   3.168
 1475TIP3    H2 4383   0.810   7.259   3.291
 1476TIP3   OH2 4384   4.619   1.665   2.672
 1476TIP3    H1 4385   4.606   1.668   2.577
 1476TIP3    H2 4386   4.691   1.603   2.684
 1477TIP3   OH2 4387   2.306   5.818   5.254
 1477TIP3    H1 4388   2.216   5.839   5.279
 1477TIP3    H2 4389   2.312   5.723   5.264
 1478TIP3   OH2 4390   6.294   1.599   1.387
 1478TIP3    H1 4391   6.363   1.639   1.441
 1478TIP3    H2 4392   6.215   1.606   1.441
 1479TIP3   OH2 4393   7.199   1.789   0.679
 1479TIP3    H1 4394   7.213   1.708   0.729
 1479TIP3    H2 4395   7.130   1.834   0.727
 1480TIP3   OH2 4396   6.389   5.832   1.888
 1480TIP3    H1 4397   6.478   5.821   1.922
 1480TIP3    H2 4398   6.378   5.761   1.825
 1481TIP3   OH2 4399   4.268   2.236   6.648
 1481TIP3    H1 4400   4.276   2.222   6.553
 1481TIP3    H2 4401   4.264   2.331   6.657
 1482TIP3   OH2 4402   2.463   7.603   3.103
 1482TIP3    H1 4403   2.438   7.619   3.194
 1482TIP3    H2 4404   2.393   7.548   3.068
 1483TIP3   OH2 4405   1.024   1.886   1.080
 1483TIP3    H1 4406   1.099   1.872   1.021
 1483TIP3    H2 4407   0.950   1.848   1.034
 1484TIP3   OH2 4408   1.796   1.489   1.313
 1484TIP3    H1 4409   1.881   1.451   1.291
 1484TIP3    H2 4410   1.735   1.453   1.248
 1485TIP3   OH2 4411   5.016   5.149   2.375
 1485TIP3    H1 4412   4.935   5.199   2.364
 1485TIP3    H2 4413   4.999   5.067   2.329
 1486TIP3   OH2 4414   8.217   1.462   2.977
 1486TIP3    H1 4415   8.144   1.522   2.964
 1486TIP3    H2 4416   8.232   1.423   2.892
 1487TIP3   OH2 4417   7.237   7.454   5.464
 1487TIP3    H1 4418   7.281   7.539   5.453
 1487TIP3    H2 4419   7.207   7.432   5.376
 1488TIP3   OH2 4420   6.132   7.539   2.242
 1488TIP3    H1 4421   6.074   7.523   2.168
 1488TIP3    H2 4422   6.073   7.557   2.315
 1489TIP3   OH2 4423   1.977   0.204   1.985
 1489TIP3    H1 4424   1.957   0.256   1.906
 1489TIP3    H2 4425   1.893   0.192   2.028
 1490TIP3   OH2 4426   5.792   7.614   6.515
 1490TIP3    H1 4427   5.831   7.556   6.580
 1490TIP3    H2 4428   5.867   7.664   6.480
 1491TIP3   OH2 4429   1.672   2.599   0.484
 1491TIP3    H1 4430   1.625   2.575   0.564
 1491TIP3    H2 4431   1.761   2.617   0.513
 1492TIP3   OH2 4432   6.016   6.621   2.882
 1492TIP3    H1 4433   6.086   6.566   2.917
 1492TIP3    H2 4434   5.989   6.675   2.957
 1493TIP3   OH2 4435   7.762   3.150   4.294
 1493TIP3    H1 4436   7.746   3.145   4.200
 1493TIP3    H2 4437   7.751   3.243   4.315
 1494TIP3   OH2 4438   8.114   6.706   3.456
 1494TIP3    H1 4439   8.119   6.660   3.540
 1494TIP3    H2 4440   8.121   6.637   3.391
 1495TIP3   OH2 4441   7.264   4.253   1.062
 1495TIP3    H1 4442   7.342   4.306   1.046
 1495TIP3    H2 4443   7.198   4.288   1.002
 1496TIP3   OH2 4444   0.281   6.154   4.605
 1496TIP3    H1 4445   0.295   6.090   4.675
 1496TIP3    H2 4446   0.199   6.126   4.564
 1497TIP3   OH2 4447   1.420   0.322   4.455
 1497TIP3    H1 4448   1.515   0.331   4.461
 1497TIP3    H2 4449   1.392   0.304   4.545
 1498TIP3   OH2 4450   6.911   7.458   3.694
 1498TIP3    H1 4451   6.953   7.457   3.609
 1498TIP3    H2 4452   6.870   7.545   3.699
 1499TIP3   OH2 4453   4.357   1.088   2.766
 1499TIP3    H1 4454   4.330   1.108   2.676
 1499TIP3    H2 4455   4.428   1.024   2.756
 1500TIP3   OH2 4456   3.593   2.164   6.662
 1500TIP3    H1 4457   3.637   2.214   6.731
 1500TIP3    H2 4458   3.619   2.073   6.678
 1501TIP3   OH2 4459   8.117   5.346   4.763
 1501TIP3    H1 4460   8.098   5.353   4.670
 1501TIP3    H2 4461   8.197   5.294   4.768
 1502TIP3   OH2 4462   0.743   1.379   0.011
 1502TIP3    H1 4463   0.809   1.309   0.012
 1502TIP3    H2 4464   0.724   1.396   0.103
 1503TIP3   OH2 4465   0.249   3.546   5.056
 1503TIP3    H1 4466   0.276   3.593   5.135
 1503TIP3    H2 4467   0.258   3.611   4.986
 1504TIP3   OH2 4468   2.002   2.373   1.320
 1504TIP3    H1 4469   2.025   2.295   1.370
 1504TIP3    H2 4470   1.912   2.357   1.291
 1505TIP3   OH2 4471   3.611   7.336   3.791
 1505TIP3    H1 4472   3.540   7.383   3.834
 1505TIP3    H2 4473   3.654   7.288   3.861
 1506TIP3   OH2 4474   7.002   0.849   3.899
 1506TIP3    H1 4475   6.958   0.793   3.835
 1506TIP3    H2 4476   7.051   0.788   3.955
 1507TIP3   OH2 4477   8.247   2.325   6.634
 1507TIP3    H1 4478   8.277   2.362   6.717
 1507TIP3    H2 4479   8.263   2.393   6.569
 1508TIP3   OH2 4480   1.588   0.605   2.501
 1508TIP3    H1 4481   1.501   0.594   2.462
 1508TIP3    H2 4482   1.571   0.624   2.593
 1509TIP3   OH2 4483   5.296   7.081   4.658
 1509TIP3    H1 4484   5.321   7.113   4.745
 1509TIP3    H2 4485   5.364   7.018   4.635
 1510TIP3   OH2 4486   0.310   2.246   3.391
 1510TIP3    H1 4487   0.256   2.172   3.360
 1510TIP3    H2 4488   0.398   2.225   3.360
 1511TIP3   OH2 4489   6.397   2.759   0.701
 1511TIP3    H1 4490   6.368   2.786   0.613
 1511TIP3    H2 4491   6.492   2.751   0.693
 1512TIP3   OH2 4492   4.596   0.026   2.438
 1512TIP3    H1 4493   4.552  -0.001   2.518
 1512TIP3    H2 4494   4.684   0.053   2.466
 1513TIP3   OH2 4495   2.551   2.411   0.226
 1513TIP3    H1 4496   2.477   2.431   0.284
 1513TIP3    H2 4497   2.596   2.338   0.269
 1514TIP3   OH2 4498   0.762   4.982   3.826
 1514TIP3    H1 4499   0.807   5.057   3.866
 1514TIP3    H2 4500   0.805   4.971   3.741
 1515TIP3   OH2 4501   4.346   2.355   0.966
 1515TIP3    H1 4502   4.437   2.380   0.981
 1515TIP3    H2 4503   4.331   2.374   0.873
 1516TIP3   OH2 4504   0.591   2.104   4.971
 1516TIP3    H1 4505   0.536   2.182   4.966
 1516TIP3    H2 4506   0.530   2.031   4.966
 1517TIP3   OH2 4507   7.432   6.837   1.228
 1517TIP3    H1 4508   7.455   6.760   1.281
 1517TIP3    H2 4509   7.339   6.851   1.247
 1518TIP3   OH2 4510   2.816   1.676   6.153
 1518TIP3    H1 4511   2.900   1.631   6.145
 1518TIP3    H2 4512   2.817   1.711   6.242
 1519TIP3   OH2 4513   5.956   7.211   3.532
 1519TIP3    H1 4514   5.983   7.241   3.445
 1519TIP3    H2 4515   5.948   7.116   3.524
 1520TIP3   OH2 4516   7.829   1.680   6.195
 1520TIP3    H1 4517   7.851   1.748   6.131
 1520TIP3    H2 4518   7.836   1.598   6.146
 1521TIP3   OH2 4519   1.296   3.010   2.822
 1521TIP3    H1 4520   1.252   2.996   2.738
 1521TIP3    H2 4521   1.330   3.099   2.817
 1522TIP3   OH2 4522   5.035   5.618   0.839
 1522TIP3    H1 4523   5.066   5.528   0.832
 1522TIP3    H2 4524   4.944   5.614   0.808
 1523TIP3   OH2 4525   7.621   3.395   3.307
 1523TIP3    H1 4526   7.574   3.376   3.225
 1523TIP3    H2 4527   7.615   3.314   3.357
 1524TIP3   OH2 4528   1.172   4.393   3.564
 1524TIP3    H1 4529   1.240   4.353   3.619
 1524TIP3    H2 4530   1.129   4.455   3.623
 1525TIP3   OH2 4531   2.093   1.044   5.352
 1525TIP3    H1 4532   2.031   1.114   5.335
 1525TIP3    H2 4533   2.125   1.062   5.441
 1526TIP3   OH2 4534   7.206   6.819   1.541
 1526TIP3    H1 4535   7.194   6.811   1.636
 1526TIP3    H2 4536   7.207   6.913   1.524
 1527TIP3   OH2 4537   5.678   5.180   3.222
 1527TIP3    H1 4538   5.728   5.192   3.142
 1527TIP3    H2 4539   5.742   5.193   3.293
 1528TIP3   OH2 4540   7.336   1.880   1.557
 1528TIP3    H1 4541   7.276   1.842   1.621
 1528TIP3    H2 4542   7.355   1.967   1.591
 1529TIP3   OH2 4543   2.556   0.559   0.904
 1529TIP3    H1 4544   2.606   0.578   0.825
 1529TIP3    H2 4545   2.618   0.514   0.961
 1530TIP3   OH2 4546   4.007   2.827   1.620
 1530TIP3    H1 4547   4.038   2.917   1.630
 1530TIP3    H2 4548   3.949   2.812   1.695
 1531TIP3   OH2 4549   4.085   1.918   6.362
 1531TIP3    H1 4550   4.012   1.970   6.395
 1531TIP3    H2 4551   4.046   1.863   6.294
 1532TIP3   OH2 4552   4.282   4.865   4.379
 1532TIP3    H1 4553   4.355   4.922   4.356
 1532TIP3    H2 4554   4.211   4.925   4.402
 1533TIP3   OH2 4555   7.612   1.689   1.040
 1533TIP3    H1 4556   7.597   1.757   0.974
 1533TIP3    H2 4557   7.699   1.656   1.021
 1534TIP3   OH2 4558   0.364   6.506   6.067
 1534TIP3    H1 4559   0.429   6.438   6.086
 1534TIP3    H2 4560   0.280   6.464   6.084
 1535TIP3   OH2 4561   2.388   5.286   6.543
 1535TIP3    H1 4562   2.472   5.262   6.502
 1535TIP3    H2 4563   2.352   5.203   6.573
 1536TIP3   OH2 4564   2.740   0.927   0.539
 1536TIP3    H1 4565   2.739   1.023   0.544
 1536TIP3    H2 4566   2.773   0.908   0.451
 1537TIP3   OH2 4567   4.428   6.849   0.675
 1537TIP3    H1 4568   4.519   6.855   0.704
 1537TIP3    H2 4569   4.403   6.758   0.694
 1538TIP3   OH2 4570   0.547   4.124   2.951
 1538TIP3    H1 4571   0.626   4.133   2.898
 1538TIP3    H2 4572   0.562   4.180   3.026
 1539TIP3   OH2 4573   7.635   0.304   2.369
 1539TIP3    H1 4574   7.639   0.220   2.415
 1539TIP3    H2 4575   7.543   0.311   2.342
 1540TIP3   OH2 4576   1.939   3.330   3.032
 1540TIP3    H1 4577   2.001   3.312   3.103
 1540TIP3    H2 4578   1.979   3.290   2.955
 1541TIP3   OH2 4579   7.600   6.808   5.653
 1541TIP3    H1 4580   7.573   6.899   5.641
 1541TIP3    H2 4581   7.686   6.813   5.693
 1542TIP3   OH2 4582   2.318   6.420   0.675
 1542TIP3    H1 4583   2.359   6.505   0.663
 1542TIP3    H2 4584   2.354   6.366   0.605
 1543TIP3   OH2 4585   1.097   2.811   0.580
 1543TIP3    H1 4586   1.033   2.822   0.510
 1543TIP3    H2 4587   1.145   2.731   0.557
 1544TIP3   OH2 4588   6.836   1.651   6.262
 1544TIP3    H1 4589   6.752   1.634   6.220
 1544TIP3    H2 4590   6.835   1.744   6.282
 1545TIP3   OH2 4591   6.268   3.805   2.465
 1545TIP3    H1 4592   6.194   3.864   2.481
 1545TIP3    H2 4593   6.228   3.718   2.455
 1546TIP3   OH2 4594   3.854   1.478   4.427
 1546TIP3    H1 4595   3.910   1.494   4.351
 1546TIP3    H2 4596   3.773   1.443   4.390
 1547TIP3   OH2 4597   6.680   7.605   1.728
 1547TIP3    H1 4598   6.598   7.566   1.758
 1547TIP3    H2 4599   6.708   7.550   1.655
 1548TIP3   OH2 4600   2.155   1.014   3.077
 1548TIP3    H1 4601   2.075   0.983   3.035
 1548TIP3    H2 4602   2.146   1.109   3.080
 1549TIP3   OH2 4603   6.906   0.456   3.080
 1549TIP3    H1 4604   6.997   0.487   3.090
 1549TIP3    H2 4605   6.855   0.536   3.074
 1550TIP3   OH2 4606   6.422   4.040   0.824
 1550TIP3    H1 4607   6.467   3.956   0.809
 1550TIP3    H2 4608   6.480   4.105   0.785
 1551TIP3   OH2 4609   1.285   5.428   0.750
 1551TIP3    H1 4610   1.250   5.379   0.675
 1551TIP3    H2 4611   1.380   5.423   0.740
 1552TIP3   OH2 4612   4.994   1.736   1.851
 1552TIP3    H1 4613   4.996   1.830   1.867
 1552TIP3    H2 4614   4.960   1.727   1.763
 1553TIP3   OH2 4615   7.241   7.107   4.292
 1553TIP3    H1 4616   7.214   7.111   4.200
 1553TIP3    H2 4617   7.333   7.133   4.290
 1554TIP3   OH2 4618   1.619   6.021   5.962
 1554TIP3    H1 4619   1.570   6.104   5.961
 1554TIP3    H2 4620   1.578   5.967   5.895
 1555TIP3   OH2 4621   4.723   7.552   3.173
 1555TIP3    H1 4622   4.721   7.531   3.266
 1555TIP3    H2 4623   4.681   7.638   3.166
 1556TIP3   OH2 4624   6.624   1.308   1.557
 1556TIP3    H1 4625   6.606   1.240   1.621
 1556TIP3    H2 4626   6.694   1.272   1.503
 1557TIP3   OH2 4627   7.975   6.936   4.918
 1557TIP3    H1 4628   7.897   6.967   4.964
 1557TIP3    H2 4629   7.950   6.851   4.882
 1558TIP3   OH2 4630   3.652   6.276   5.983
 1558TIP3    H1 4631   3.635   6.277   6.078
 1558TIP3    H2 4632   3.583   6.331   5.946
 1559TIP3   OH2 4633   8.152   3.392   2.346
 1559TIP3    H1 4634   8.164   3.403   2.252
 1559TIP3    H2 4635   8.131   3.299   2.357
 1560TIP3   OH2 4636   8.170   5.333   4.199
 1560TIP3    H1 4637   8.180   5.250   4.245
 1560TIP3    H2 4638   8.260   5.364   4.187
 1561TIP3   OH2 4639   2.219   6.544   2.700
 1561TIP3    H1 4640   2.259   6.496   2.771
 1561TIP3    H2 4641   2.179   6.621   2.742
 1562TIP3   OH2 4642   3.753   6.764   2.324
 1562TIP3    H1 4643   3.843   6.738   2.307
 1562TIP3    H2 4644   3.745   6.851   2.284
 1563TIP3   OH2 4645   3.632   6.295   6.238
 1563TIP3    H1 4646   3.579   6.370   6.266
 1563TIP3    H2 4647   3.626   6.233   6.311
 1564TIP3   OH2 4648   2.106   1.295   6.168
 1564TIP3    H1 4649   2.197   1.276   6.189
 1564TIP3    H2 4650   2.074   1.345   6.243
 1565TIP3   OH2 4651   3.990   3.012   3.548
 1565TIP3    H1 4652   4.041   3.074   3.494
 1565TIP3    H2 4653   4.045   2.996   3.624
 1566TIP3   OH2 4654   0.981   3.282   1.055
 1566TIP3    H1 4655   0.976   3.208   0.995
 1566TIP3    H2 4656   0.995   3.358   0.999
 1567TIP3   OH2 4657   8.101   4.871   1.180
 1567TIP3    H1 4658   8.047   4.950   1.177
 1567TIP3    H2 4659   8.064   4.820   1.252
 1568TIP3   OH2 4660   8.143   1.301   6.412
 1568TIP3    H1 4661   8.119   1.209   6.408
 1568TIP3    H2 4662   8.119   1.335   6.325
 1569TIP3   OH2 4663   6.992   3.393   3.911
 1569TIP3    H1 4664   7.015   3.311   3.954
 1569TIP3    H2 4665   6.964   3.367   3.824
 1570TIP3   OH2 4666   5.939   4.119   3.150
 1570TIP3    H1 4667   6.018   4.076   3.117
 1570TIP3    H2 4668   5.872   4.051   3.147
 1571TIP3   OH2 4669   2.572   7.215   6.455
 1571TIP3    H1 4670   2.570   7.304   6.487
 1571TIP3    H2 4671   2.535   7.162   6.526
 1572TIP3   OH2 4672   6.977   6.308   0.124
 1572TIP3    H1 4673   6.884   6.292   0.141
 1572TIP3    H2 4674   6.996   6.388   0.173
 1573TIP3   OH2 4675   0.206   7.261   3.709
 1573TIP3    H1 4676   0.180   7.231   3.796
 1573TIP3    H2 4677   0.165   7.347   3.700
 1574TIP3   OH2 4678   0.463   3.225   2.681
 1574TIP3    H1 4679   0.469   3.225   2.776
 1574TIP3    H2 4680   0.535   3.280   2.652
 1575TIP3   OH2 4681   2.736   2.667   6.439
 1575TIP3    H1 4682   2.715   2.613   6.363
 1575TIP3    H2 4683   2.724   2.610   6.514
 1576TIP3   OH2 4684   7.595   3.694   1.951
 1576TIP3    H1 4685   7.606   3.600   1.936
 1576TIP3    H2 4686   7.670   3.717   2.006
 1577TIP3   OH2 4687   7.811   1.872   0.744
 1577TIP3    H1 4688   7.750   1.851   0.673
 1577TIP3    H2 4689   7.880   1.923   0.701
 1578TIP3   OH2 4690   6.909   6.126   2.307
 1578TIP3    H1 4691   6.947   6.159   2.226
 1578TIP3    H2 4692   6.963   6.164   2.376
 1579TIP3   OH2 4693   5.821   3.294   5.392
 1579TIP3    H1 4694   5.915   3.300   5.411
 1579TIP3    H2 4695   5.813   3.222   5.330
 1580TIP3   OH2 4696   5.834   7.404   4.296
 1580TIP3    H1 4697   5.834   7.369   4.385
 1580TIP3    H2 4698   5.866   7.493   4.305
 1581TIP3   OH2 4699   7.773   4.972   1.128
 1581TIP3    H1 4700   7.850   5.024   1.151
 1581TIP3    H2 4701   7.698   5.025   1.155
 1582TIP3   OH2 4702   2.757   3.178   2.961
 1582TIP3    H1 4703   2.749   3.216   3.048
 1582TIP3    H2 4704   2.685   3.216   2.911
 1583TIP3   OH2 4705   4.780   3.006   3.860
 1583TIP3    H1 4706   4.743   3.090   3.834
 1583TIP3    H2 4707   4.790   3.012   3.955
 1584TIP3   OH2 4708   4.714   2.823   0.841
 1584TIP3    H1 4709   4.674   2.749   0.795
 1584TIP3    H2 4710   4.645   2.856   0.898
 1585TIP3   OH2 4711   4.503   0.058   3.135
 1585TIP3    H1 4712   4.575   0.040   3.195
 1585TIP3    H2 4713   4.535   0.027   3.050
 1586TIP3   OH2 4714   1.939   2.310   4.884
 1586TIP3    H1 4715   1.891   2.259   4.819
 1586TIP3    H2 4716   2.012   2.253   4.910
 1587TIP3   OH2 4717   5.834   0.277   3.536
 1587TIP3    H1 4718   5.783   0.199   3.512
 1587TIP3    H2 4719   5.769   0.340   3.566
 1588TIP3   OH2 4720   2.834   3.458   4.026
 1588TIP3    H1 4721   2.848   3.383   4.084
 1588TIP3    H2 4722   2.903   3.451   3.960
 1589TIP3   OH2 4723   8.006   5.824   0.355
 1589TIP3    H1 4724   7.968   5.854   0.438
 1589TIP3    H2 4725   7.931   5.818   0.295
 1590TIP3   OH2 4726   0.884   1.925   2.741
 1590TIP3    H1 4727   0.957   1.985   2.727
 1590TIP3    H2 4728   0.873   1.880   2.658
 1591TIP3   OH2 4729   4.000   5.427   3.815
 1591TIP3    H1 4730   4.057   5.352   3.828
 1591TIP3    H2 4731   4.056   5.503   3.832
 1592TIP3   OH2 4732   5.311   3.765   1.857
 1592TIP3    H1 4733   5.310   3.817   1.777
 1592TIP3    H2 4734   5.230   3.788   1.901
 1593TIP3   OH2 4735   1.035   7.558   1.521
 1593TIP3    H1 4736   0.962   7.603   1.479
 1593TIP3    H2 4737   0.995   7.513   1.596
 1594TIP3   OH2 4738   3.164   5.312   3.641
 1594TIP3    H1 4739   3.092   5.268   3.595
 1594TIP3    H2 4740   3.215   5.353   3.572
 1595TIP3   OH2 4741   4.864   1.828   3.755
 1595TIP3    H1 4742   4.809   1.886   3.808
 1595TIP3    H2 4743   4.939   1.808   3.811
 1596TIP3   OH2 4744   1.492   2.953   3.232
 1596TIP3    H1 4745   1.567   2.902   3.262
 1596TIP3    H2 4746   1.427   2.887   3.208
 1597TIP3   OH2 4747   1.630   3.009   1.005
 1597TIP3    H1 4748   1.594   3.088   0.967
 1597TIP3    H2 4749   1.639   2.949   0.931
 1598TIP3   OH2 4750   4.206   1.617   6.504
 1598TIP3    H1 4751   4.249   1.532   6.495
 1598TIP3    H2 4752   4.249   1.657   6.579
 1599TIP3   OH2 4753   4.420   6.481   1.148
 1599TIP3    H1 4754   4.444   6.555   1.204
 1599TIP3    H2 4755   4.336   6.450   1.183
 1600TIP3   OH2 4756   1.451   4.194   2.719
 1600TIP3    H1 4757   1.391   4.179   2.792
 1600TIP3    H2 4758   1.508   4.265   2.750
 1601TIP3   OH2 4759   0.073   1.183   2.928
 1601TIP3    H1 4760   0.085   1.258   2.871
 1601TIP3    H2 4761   0.017   1.124   2.879
 1602TIP3   OH2 4762   4.351   3.551   3.826
 1602TIP3    H1 4763   4.373   3.502   3.905
 1602TIP3    H2 4764   4.432   3.596   3.802
 1603TIP3   OH2 4765   2.262   2.932   6.089
 1603TIP3    H1 4766   2.187   2.990   6.079
 1603TIP3    H2 4767   2.225   2.844   6.076
 1604TIP3   OH2 4768   0.557   4.371   3.425
 1604TIP3    H1 4769   0.476   4.359   3.376
 1604TIP3    H2 4770   0.546   4.318   3.504
 1605TIP3   OH2 4771   5.459   5.637   2.587
 1605TIP3    H1 4772   5.369   5.669   2.588
 1605TIP3    H2 4773   5.506   5.702   2.535
 1606TIP3   OH2 4774   0.276   1.524   6.025
 1606TIP3    H1 4775   0.287   1.551   5.934
 1606TIP3    H2 4776   0.333   1.448   6.034
 1607TIP3   OH2 4777   5.417   3.673   0.623
 1607TIP3    H1 4778   5.397   3.736   0.692
 1607TIP3    H2 4779   5.395   3.588   0.661
 1608TIP3   OH2 4780   4.322   5.010   0.085
 1608TIP3    H1 4781   4.299   5.103   0.093
 1608TIP3    H2 4782   4.278   4.967   0.158
 1609TIP3   OH2 4783   6.244   0.706   2.963
 1609TIP3    H1 4784   6.161   0.667   2.992
 1609TIP3    H2 4785   6.252   0.785   3.016
 1610TIP3   OH2 4786   5.544   3.192   5.438
 1610TIP3    H1 4787   5.629   3.234   5.450
 1610TIP3    H2 4788   5.542   3.167   5.346
 1611TIP3   OH2 4789   5.500   6.506   0.517
 1611TIP3    H1 4790   5.496   6.552   0.433
 1611TIP3    H2 4791   5.589   6.521   0.549
 1612TIP3   OH2 4792   0.971   7.626   4.390
 1612TIP3    H1 4793   0.897   7.584   4.346
 1612TIP3    H2 4794   0.948   7.624   4.483
 1613TIP3   OH2 4795   6.741   6.806   4.622
 1613TIP3    H1 4796   6.786   6.882   4.584
 1613TIP3    H2 4797   6.790   6.786   4.702
 1614TIP3   OH2 4798   7.432   6.198   1.949
 1614TIP3    H1 4799   7.414   6.109   1.980
 1614TIP3    H2 4800   7.515   6.222   1.990
 1615TIP3   OH2 4801   4.238   7.315   0.353
 1615TIP3    H1 4802   4.283   7.304   0.437
 1615TIP3    H2 4803   4.160   7.260   0.360
 1616TIP3   OH2 4804   2.232   4.802   6.539
 1616TIP3    H1 4805   2.169   4.840   6.601
 1616TIP3    H2 4806   2.180   4.783   6.461
 1617TIP3   OH2 4807   3.793   3.682   1.308
 1617TIP3    H1 4808   3.720   3.621   1.320
 1617TIP3    H2 4809   3.847   3.642   1.240
 1618TIP3   OH2 4810   7.993   2.524   5.137
 1618TIP3    H1 4811   7.902   2.529   5.108
 1618TIP3    H2 4812   8.004   2.600   5.194
 1619TIP3   OH2 4813   7.820   1.403   1.974
 1619TIP3    H1 4814   7.831   1.399   2.069
 1619TIP3    H2 4815   7.869   1.327   1.941
 1620TIP3   OH2 4816   1.405   2.299   3.585
 1620TIP3    H1 4817   1.335   2.260   3.638
 1620TIP3    H2 4818   1.486   2.268   3.625
 1621TIP3   OH2 4819   2.131   6.743   6.655
 1621TIP3    H1 4820   2.180   6.663   6.638
 1621TIP3    H2 4821   2.060   6.742   6.590
 1622TIP3   OH2 4822   4.127   1.326   4.440
 1622TIP3    H1 4823   4.115   1.232   4.449
 1622TIP3    H2 4824   4.041   1.363   4.461
 1623TIP3   OH2 4825   2.080   7.640   3.441
 1623TIP3    H1 4826   2.156   7.622   3.386
 1623TIP3    H2 4827   2.006   7.605   3.392
 1624TIP3   OH2 4828   6.168   1.568   5.751
 1624TIP3    H1 4829   6.120   1.597   5.673
 1624TIP3    H2 4830   6.142   1.477   5.763
 1625TIP3   OH2 4831   4.368   5.135   6.085
 1625TIP3    H1 4832   4.346   5.057   6.137
 1625TIP3    H2 4833   4.308   5.132   6.010
 1626TIP3   OH2 4834   3.435   0.710   0.604
 1626TIP3    H1 4835   3.481   0.718   0.687
 1626TIP3    H2 4836   3.408   0.618   0.601
 1627TIP3   OH2 4837   5.577   6.517   6.093
 1627TIP3    H1 4838   5.565   6.488   6.183
 1627TIP3    H2 4839   5.517   6.591   6.083
 1628TIP3   OH2 4840   2.559   0.564   5.645
 1628TIP3    H1 4841   2.586   0.472   5.644
 1628TIP3    H2 4842   2.556   0.587   5.738
 1629TIP3   OH2 4843   6.755   1.550   6.559
 1629TIP3    H1 4844   6.815   1.624   6.574
 1629TIP3    H2 4845   6.678   1.589   6.519
 1630TIP3   OH2 4846   7.322   5.544   5.851
 1630TIP3    H1 4847   7.239   5.501   5.873
 1630TIP3    H2 4848   7.297   5.616   5.792
 1631TIP3   OH2 4849   2.513   0.778   6.616
 1631TIP3    H1 4850   2.596   0.781   6.664
 1631TIP3    H2 4851   2.456   0.725   6.671
 1632TIP3   OH2 4852   1.054   3.833   5.173
 1632TIP3    H1 4853   1.149   3.832   5.188
 1632TIP3    H2 4854   1.025   3.744   5.193
 1633TIP3   OH2 4855   7.010   2.955   5.985
 1633TIP3    H1 4856   6.952   2.941   6.060
 1633TIP3    H2 4857   6.956   3.001   5.921
 1634TIP3   OH2 4858   4.775   6.849   2.078
 1634TIP3    H1 4859   4.866   6.879   2.076
 1634TIP3    H2 4860   4.761   6.820   2.168
 1635TIP3   OH2 4861   6.564   0.406   1.075
 1635TIP3    H1 4862   6.587   0.490   1.115
 1635TIP3    H2 4863   6.520   0.430   0.993
 1636TIP3   OH2 4864   8.173   7.635   1.080
 1636TIP3    H1 4865   8.180   7.708   1.142
 1636TIP3    H2 4866   8.096   7.586   1.110
 1637TIP3   OH2 4867   5.168   2.654   4.242
 1637TIP3    H1 4868   5.197   2.693   4.324
 1637TIP3    H2 4869   5.099   2.593   4.267
 1638TIP3   OH2 4870   5.366   0.405   1.066
 1638TIP3    H1 4871   5.306   0.403   0.991
 1638TIP3    H2 4872   5.317   0.452   1.134
 1639TIP3   OH2 4873   5.420   0.826   6.146
 1639TIP3    H1 4874   5.365   0.781   6.083
 1639TIP3    H2 4875   5.472   0.887   6.093
 1640TIP3   OH2 4876   5.581   6.454   0.900
 1640TIP3    H1 4877   5.674   6.476   0.895
 1640TIP3    H2 4878   5.541   6.501   0.827
 1641TIP3   OH2 4879   1.967   4.974   3.233
 1641TIP3    H1 4880   2.021   4.896   3.248
 1641TIP3    H2 4881   1.890   4.942   3.188
 1642TIP3   OH2 4882   0.693   1.083   5.985
 1642TIP3    H1 4883   0.759   1.042   5.929
 1642TIP3    H2 4884   0.742   1.149   6.035
 1643TIP3   OH2 4885   4.293   6.304   5.447
 1643TIP3    H1 4886   4.244   6.284   5.367
 1643TIP3    H2 4887   4.337   6.387   5.427
 1644TIP3   OH2 4888   2.487   4.679   0.534
 1644TIP3    H1 4889   2.569   4.631   0.538
 1644TIP3    H2 4890   2.484   4.717   0.446
 1645TIP3   OH2 4891   4.083   2.218   4.638
 1645TIP3    H1 4892   4.170   2.236   4.672
 1645TIP3    H2 4893   4.056   2.137   4.682
 1646TIP3   OH2 4894   3.036   0.367   4.307
 1646TIP3    H1 4895   3.021   0.299   4.372
 1646TIP3    H2 4896   3.130   0.365   4.290
 1647TIP3   OH2 4897   0.030   3.650   2.839
 1647TIP3    H1 4898   0.111   3.602   2.855
 1647TIP3    H2 4899  -0.001   3.617   2.755
 1648TIP3   OH2 4900   1.160   5.638   0.202
 1648TIP3    H1 4901   1.153   5.679   0.288
 1648TIP3    H2 4902   1.241   5.674   0.164
 1649TIP3   OH2 4903   3.629   4.670   0.868
 1649TIP3    H1 4904   3.538   4.698   0.864
 1649TIP3    H2 4905   3.666   4.716   0.943
 1650TIP3   OH2 4906   5.308   2.146   6.663
 1650TIP3    H1 4907   5.267   2.188   6.587
 1650TIP3    H2 4908   5.279   2.199   6.738
 1651TIP3   OH2 4909   2.869   5.371   2.277
 1651TIP3    H1 4910   2.930   5.436   2.314
 1651TIP3    H2 4911   2.921   5.323   2.214
 1652TIP3   OH2 4912   2.261   7.370   5.276
 1652TIP3    H1 4913   2.238   7.354   5.368
 1652TIP3    H2 4914   2.272   7.465   5.270
 1653TIP3   OH2 4915   7.756   1.801   5.771
 1653TIP3    H1 4916   7.815   1.874   5.751
 1653TIP3    H2 4917   7.809   1.723   5.757
 1654TIP3   OH2 4918   0.068   3.393   4.943
 1654TIP3    H1 4919   0.133   3.451   4.982
 1654TIP3    H2 4920   0.030   3.443   4.871
 1655TIP3   OH2 4921   4.524   7.401   0.322
 1655TIP3    H1 4922   4.453   7.407   0.386
 1655TIP3    H2 4923   4.487   7.351   0.249
 1656TIP3   OH2 4924   7.484   2.188  -0.012
 1656TIP3    H1 4925   7.420   2.136   0.037
 1656TIP3    H2 4926   7.568   2.167   0.027
 1657TIP3   OH2 4927   1.907   1.099   4.641
 1657TIP3    H1 4928   1.883   1.044   4.566
 1657TIP3    H2 4929   1.823   1.127   4.677
 1658TIP3   OH2 4930   0.822   7.276   4.071
 1658TIP3    H1 4931   0.753   7.328   4.029
 1658TIP3    H2 4932   0.781   7.190   4.084
 1659TIP3   OH2 4933   2.721   3.939   0.036
 1659TIP3    H1 4934   2.804   3.983   0.056
 1659TIP3    H2 4935   2.734   3.904  -0.052
 1660TIP3   OH2 4936   0.253   0.717   5.727
 1660TIP3    H1 4937   0.215   0.640   5.769
 1660TIP3    H2 4938   0.178   0.771   5.703
 1661TIP3   OH2 4939   1.909   3.629   4.264
 1661TIP3    H1 4940   1.953   3.572   4.202
 1661TIP3    H2 4941   1.827   3.584   4.285
 1662TIP3   OH2 4942   4.394   4.619   0.897
 1662TIP3    H1 4943   4.401   4.538   0.948
 1662TIP3    H2 4944   4.361   4.684   0.959
 1663TIP3   OH2 4945   7.365   2.597   0.551
 1663TIP3    H1 4946   7.410   2.646   0.621
 1663TIP3    H2 4947   7.420   2.520   0.537
 1664TIP3   OH2 4948   3.602   0.593   2.249
 1664TIP3    H1 4949   3.626   0.506   2.283
 1664TIP3    H2 4950   3.646   0.654   2.308
 1665TIP3   OH2 4951   0.070   3.011   4.373
 1665TIP3    H1 4952   0.068   3.051   4.287
 1665TIP3    H2 4953  -0.022   2.993   4.394
 1666TIP3   OH2 4954   6.732   6.691   2.749
 1666TIP3    H1 4955   6.674   6.677   2.674
 1666TIP3    H2 4956   6.820   6.686   2.712
 1667TIP3   OH2 4957   5.427   6.838   2.901
 1667TIP3    H1 4958   5.412   6.744   2.892
 1667TIP3    H2 4959   5.522   6.848   2.898
 1668TIP3   OH2 4960   6.915   2.759   3.981
 1668TIP3    H1 4961   6.897   2.679   3.931
 1668TIP3    H2 4962   7.007   2.777   3.964
 1669TIP3   OH2 4963   1.551   5.292   5.021
 1669TIP3    H1 4964   1.503   5.375   5.028
 1669TIP3    H2 4965   1.497   5.230   5.069
 1670TIP3   OH2 4966   4.941   0.494   3.557
 1670TIP3    H1 4967   4.900   0.580   3.547
 1670TIP3    H2 4968   4.890   0.450   3.626
 1671TIP3   OH2 4969   8.059   4.233   6.485
 1671TIP3    H1 4970   8.115   4.290   6.432
 1671TIP3    H2 4971   7.996   4.197   6.423
 1672TIP3   OH2 4972   6.954   6.766   6.033
 1672TIP3    H1 4973   6.956   6.732   5.944
 1672TIP3    H2 4974   7.044   6.757   6.065
 1673TIP3   OH2 4975   3.653   5.559   2.821
 1673TIP3    H1 4976   3.626   5.643   2.857
 1673TIP3    H2 4977   3.611   5.555   2.736
 1674TIP3   OH2 4978   3.360   3.762   1.234
 1674TIP3    H1 4979   3.422   3.706   1.280
 1674TIP3    H2 4980   3.413   3.807   1.168
 1675TIP3   OH2 4981   5.891   5.782   5.073
 1675TIP3    H1 4982   5.845   5.755   5.152
 1675TIP3    H2 4983   5.845   5.735   5.002
 1676TIP3   OH2 4984   7.093   3.611   5.947
 1676TIP3    H1 4985   7.098   3.680   5.880
 1676TIP3    H2 4986   7.005   3.620   5.983
 1677TIP3   OH2 4987   6.234   2.374   5.038
 1677TIP3    H1 4988   6.186   2.333   5.110
 1677TIP3    H2 4989   6.326   2.367   5.063
 1678TIP3   OH2 4990   0.888   7.031   1.374
 1678TIP3    H1 4991   0.942   7.109   1.374
 1678TIP3    H2 4992   0.842   7.034   1.290
 1679TIP3   OH2 4993   5.870   5.116   3.016
 1679TIP3    H1 4994   5.886   5.085   2.927
 1679TIP3    H2 4995   5.907   5.048   3.073
 1680TIP3   OH2 4996   4.280   4.325   3.672
 1680TIP3    H1 4997   4.301   4.342   3.763
 1680TIP3    H2 4998   4.364   4.331   3.626
 1681TIP3   OH2 4999   5.341   6.047   6.134
 1681TIP3    H1 5000   5.423   6.087   6.164
 1681TIP3    H2 5001   5.317   5.987   6.205
 1682TIP3   OH2 5002   4.405   1.866   3.644
 1682TIP3    H1 5003   4.407   1.851   3.739
 1682TIP3    H2 5004   4.469   1.936   3.630
 1683TIP3   OH2 5005   1.946   5.568   6.233
 1683TIP3    H1 5006   1.958   5.489   6.286
 1683TIP3    H2 5007   1.955   5.640   6.295
 1684TIP3   OH2 5008   4.549   6.328   5.255
 1684TIP3    H1 5009   4.486   6.256   5.259
 1684TIP3    H2 5010   4.630   6.290   5.290
 1685TIP3   OH2 5011   1.011   4.206   1.497
 1685TIP3    H1 5012   0.985   4.284   1.447
 1685TIP3    H2 5013   1.103   4.221   1.519
 1686TIP3   OH2 5014   4.567   6.605   4.937
 1686TIP3    H1 5015   4.569   6.649   4.852
 1686TIP3    H2 5016   4.631   6.534   4.929
 1687TIP3   OH2 5017   1.334   4.977   4.857
 1687TIP3    H1 5018   1.329   4.898   4.803
 1687TIP3    H2 5019   1.399   4.956   4.924
 1688TIP3   OH2 5020   6.150   4.767   5.041
 1688TIP3    H1 5021   6.066   4.753   5.085
 1688TIP3    H2 5022   6.172   4.681   5.004
 1689TIP3   OH2 5023   3.792   6.034   1.437
 1689TIP3    H1 5024   3.811   5.947   1.401
 1689TIP3    H2 5025   3.724   6.018   1.503
 1690TIP3   OH2 5026   0.902   0.650   4.438
 1690TIP3    H1 5027   0.822   0.602   4.417
 1690TIP3    H2 5028   0.899   0.728   4.382
 1691TIP3   OH2 5029   6.177   6.826   2.221
 1691TIP3    H1 5030   6.226   6.809   2.140
 1691TIP3    H2 5031   6.112   6.757   2.224
 1692TIP3   OH2 5032   1.287   6.931   3.516
 1692TIP3    H1 5033   1.307   7.018   3.549
 1692TIP3    H2 5034   1.202   6.940   3.472
 1693TIP3   OH2 5035   7.696   3.584   4.998
 1693TIP3    H1 5036   7.702   3.507   4.941
 1693TIP3    H2 5037   7.735   3.555   5.081
 1694TIP3   OH2 5038   6.840   6.789   5.151
 1694TIP3    H1 5039   6.924   6.746   5.168
 1694TIP3    H2 5040   6.811   6.821   5.237
 1695TIP3   OH2 5041   0.219   5.879   0.148
 1695TIP3    H1 5042   0.162   5.922   0.211
 1695TIP3    H2 5043   0.266   5.813   0.199
 1696TIP3   OH2 5044   3.913   4.740   3.631
 1696TIP3    H1 5045   3.960   4.684   3.693
 1696TIP3    H2 5046   3.906   4.688   3.551
 1697TIP3   OH2 5047   1.387   5.978   3.375
 1697TIP3    H1 5048   1.474   6.004   3.402
 1697TIP3    H2 5049   1.396   5.954   3.282
 1698TIP3   OH2 5050   7.167   1.935   2.798
 1698TIP3    H1 5051   7.213   1.961   2.718
 1698TIP3    H2 5052   7.101   1.871   2.768
 1699TIP3   OH2 5053   0.552   1.703   3.529
 1699TIP3    H1 5054   0.543   1.755   3.450
 1699TIP3    H2 5055   0.462   1.685   3.557
 1700TIP3   OH2 5056   5.635   7.192   5.885
 1700TIP3    H1 5057   5.559   7.248   5.900
 1700TIP3    H2 5058   5.695   7.213   5.957
 1701TIP3   OH2 5059   6.600   4.463   0.997
 1701TIP3    H1 5060   6.509   4.437   0.988
 1701TIP3    H2 5061   6.634   4.465   0.908
 1702TIP3   OH2 5062   2.242   0.734   0.080
 1702TIP3    H1 5063   2.228   0.820   0.041
 1702TIP3    H2 5064   2.218   0.746   0.172
 1703TIP3   OH2 5065   6.415   3.460   0.893
 1703TIP3    H1 5066   6.420   3.515   0.815
 1703TIP3    H2 5067   6.334   3.410   0.882
 1704TIP3   OH2 5068   3.518   1.335   2.309
 1704TIP3    H1 5069   3.520   1.430   2.319
 1704TIP3    H2 5070   3.495   1.321   2.217
 1705TIP3   OH2 5071   4.767   4.119   5.446
 1705TIP3    H1 5072   4.769   4.116   5.541
 1705TIP3    H2 5073   4.814   4.199   5.423
 1706TIP3   OH2 5074   5.052   4.121   6.195
 1706TIP3    H1 5075   5.125   4.060   6.182
 1706TIP3    H2 5076   5.025   4.106   6.286
 1707TIP3   OH2 5077   1.396   6.496   4.922
 1707TIP3    H1 5078   1.391   6.492   5.018
 1707TIP3    H2 5079   1.411   6.406   4.895
 1708TIP3   OH2 5080   4.002   2.601   0.439
 1708TIP3    H1 5081   4.009   2.591   0.344
 1708TIP3    H2 5082   4.089   2.627   0.467
 1709TIP3   OH2 5083   5.391   3.174   0.296
 1709TIP3    H1 5084   5.358   3.105   0.353
 1709TIP3    H2 5085   5.324   3.184   0.229
 1710TIP3   OH2 5086   6.187   5.487   4.883
 1710TIP3    H1 5087   6.204   5.395   4.905
 1710TIP3    H2 5088   6.246   5.536   4.941
 1711TIP3   OH2 5089   6.611   1.925   6.193
 1711TIP3    H1 5090   6.698   1.942   6.157
 1711TIP3    H2 5091   6.575   1.855   6.138
 1712TIP3   OH2 5092   6.565   5.385   1.319
 1712TIP3    H1 5093   6.514   5.318   1.274
 1712TIP3    H2 5094   6.500   5.439   1.365
 1713TIP3   OH2 5095   3.956   0.173   0.704
 1713TIP3    H1 5096   3.899   0.194   0.778
 1713TIP3    H2 5097   4.044   0.195   0.733
 1714TIP3   OH2 5098   4.158   0.207   0.073
 1714TIP3    H1 5099   4.078   0.218   0.124
 1714TIP3    H2 5100   4.168   0.112   0.064
 1715TIP3   OH2 5101   1.801   4.395   5.289
 1715TIP3    H1 5102   1.885   4.431   5.316
 1715TIP3    H2 5103   1.741   4.420   5.359
 1716TIP3   OH2 5104   7.500   5.201   5.445
 1716TIP3    H1 5105   7.465   5.232   5.528
 1716TIP3    H2 5106   7.432   5.143   5.411
 1717TIP3   OH2 5107   3.571   0.115   6.060
 1717TIP3    H1 5108   3.607   0.120   6.149
 1717TIP3    H2 5109   3.632   0.164   6.006
 1718TIP3   OH2 5110   2.738   5.892   4.832
 1718TIP3    H1 5111   2.765   5.806   4.800
 1718TIP3    H2 5112   2.744   5.885   4.927
 1719TIP3   OH2 5113   2.453   4.075   3.633
 1719TIP3    H1 5114   2.457   4.022   3.712
 1719TIP3    H2 5115   2.430   4.013   3.564
 1720TIP3   OH2 5116   8.199   7.174   1.247
 1720TIP3    H1 5117   8.108   7.149   1.261
 1720TIP3    H2 5118   8.224   7.220   1.327
 1721TIP3   OH2 5119   5.992   6.705   3.884
 1721TIP3    H1 5120   5.999   6.630   3.825
 1721TIP3    H2 5121   6.063   6.693   3.947
 1722TIP3   OH2 5122   7.714   4.495   0.204
 1722TIP3    H1 5123   7.691   4.578   0.162
 1722TIP3    H2 5124   7.772   4.519   0.275
 1723TIP3   OH2 5125   5.885   3.494   5.179
 1723TIP3    H1 5126   5.830   3.444   5.240
 1723TIP3    H2 5127   5.830   3.566   5.150
 1724TIP3   OH2 5128   7.983   0.420   5.103
 1724TIP3    H1 5129   8.047   0.356   5.073
 1724TIP3    H2 5130   8.019   0.504   5.076
 1725TIP3   OH2 5131   7.129   6.943   5.056
 1725TIP3    H1 5132   7.034   6.954   5.066
 1725TIP3    H2 5133   7.140   6.908   4.968
 1726TIP3   OH2 5134   6.709   7.188   1.311
 1726TIP3    H1 5135   6.695   7.251   1.240
 1726TIP3    H2 5136   6.731   7.106   1.267
 1727TIP3   OH2 5137   1.957   5.147   5.361
 1727TIP3    H1 5138   1.895   5.185   5.423
 1727TIP3    H2 5139   1.923   5.059   5.344
 1728TIP3   OH2 5140   5.606   5.419   3.365
 1728TIP3    H1 5141   5.642   5.456   3.285
 1728TIP3    H2 5142   5.673   5.359   3.397
 1729TIP3   OH2 5143   0.811   7.262   5.500
 1729TIP3    H1 5144   0.857   7.341   5.529
 1729TIP3    H2 5145   0.786   7.218   5.580
 1730TIP3   OH2 5146   1.521   3.792   1.560
 1730TIP3    H1 5147   1.567   3.748   1.489
 1730TIP3    H2 5148   1.450   3.732   1.583
 1731TIP3   OH2 5149   5.635   4.795   2.869
 1731TIP3    H1 5150   5.544   4.766   2.861
 1731TIP3    H2 5151   5.674   4.736   2.933
 1732TIP3   OH2 5152   6.278   0.791   2.478
 1732TIP3    H1 5153   6.231   0.870   2.454
 1732TIP3    H2 5154   6.211   0.731   2.510
 1733TIP3   OH2 5155   7.362   1.666   1.169
 1733TIP3    H1 5156   7.384   1.574   1.182
 1733TIP3    H2 5157   7.446   1.710   1.160
 1734TIP3   OH2 5158   5.237   6.422   3.040
 1734TIP3    H1 5159   5.206   6.351   2.984
 1734TIP3    H2 5160   5.161   6.480   3.050
 1735TIP3   OH2 5161   5.632   6.821   6.653
 1735TIP3    H1 5162   5.689   6.759   6.697
 1735TIP3    H2 5163   5.684   6.853   6.579
 1736TIP3   OH2 5164   1.905   1.698   1.588
 1736TIP3    H1 5165   1.905   1.789   1.558
 1736TIP3    H2 5166   1.829   1.659   1.546
 1737TIP3   OH2 5167   1.240   0.779   5.009
 1737TIP3    H1 5168   1.147   0.778   4.986
 1737TIP3    H2 5169   1.263   0.872   5.011
 1738TIP3   OH2 5170   0.884   1.491   4.392
 1738TIP3    H1 5171   0.932   1.450   4.320
 1738TIP3    H2 5172   0.819   1.547   4.350
 1739TIP3   OH2 5173   0.848   6.763   5.749
 1739TIP3    H1 5174   0.862   6.810   5.667
 1739TIP3    H2 5175   0.881   6.822   5.817
 1740TIP3   OH2 5176   4.663   5.744   3.801
 1740TIP3    H1 5177   4.710   5.674   3.847
 1740TIP3    H2 5178   4.619   5.793   3.871
 1741TIP3   OH2 5179   1.622   1.850   3.889
 1741TIP3    H1 5180   1.611   1.777   3.828
 1741TIP3    H2 5181   1.714   1.873   3.884
 1742TIP3   OH2 5182   1.555   4.036   0.499
 1742TIP3    H1 5183   1.463   4.032   0.523
 1742TIP3    H2 5184   1.566   3.967   0.433
 1743TIP3   OH2 5185   2.577   3.148   4.470
 1743TIP3    H1 5186   2.512   3.116   4.532
 1743TIP3    H2 5187   2.574   3.243   4.480
 1744TIP3   OH2 5188   4.378   0.427   6.052
 1744TIP3    H1 5189   4.417   0.391   6.131
 1744TIP3    H2 5190   4.424   0.383   5.980
 1745TIP3   OH2 5191   1.144   0.962   4.279
 1745TIP3    H1 5192   1.061   0.981   4.236
 1745TIP3    H2 5193   1.142   1.012   4.360
 1746TIP3   OH2 5194   1.889   1.191   5.286
 1746TIP3    H1 5195   1.857   1.127   5.222
 1746TIP3    H2 5196   1.886   1.275   5.239
 1747TIP3   OH2 5197   8.048   5.065   0.453
 1747TIP3    H1 5198   7.976   5.127   0.464
 1747TIP3    H2 5199   8.115   5.094   0.515
 1748TIP3   OH2 5200   1.344   5.142   4.215
 1748TIP3    H1 5201   1.355   5.228   4.256
 1748TIP3    H2 5202   1.434   5.111   4.199
 1749TIP3   OH2 5203   5.405   1.120   0.277
 1749TIP3    H1 5204   5.317   1.108   0.242
 1749TIP3    H2 5205   5.461   1.065   0.222
 1750TIP3   OH2 5206   7.857   4.659   3.991
 1750TIP3    H1 5207   7.780   4.679   4.044
 1750TIP3    H2 5208   7.882   4.570   4.018
 1751TIP3   OH2 5209   2.059   2.840   2.498
 1751TIP3    H1 5210   2.122   2.906   2.468
 1751TIP3    H2 5211   2.113   2.770   2.534
 1752TIP3   OH2 5212   2.566   0.290   6.404
 1752TIP3    H1 5213   2.616   0.210   6.419
 1752TIP3    H2 5214   2.570   0.337   6.488
 1753TIP3   OH2 5215   6.536   6.659   1.989
 1753TIP3    H1 5216   6.543   6.627   1.899
 1753TIP3    H2 5217   6.544   6.581   2.043
 1754TIP3   OH2 5218   7.234   1.596   3.200
 1754TIP3    H1 5219   7.204   1.612   3.290
 1754TIP3    H2 5220   7.163   1.547   3.159
 1755TIP3   OH2 5221   2.071   1.280   0.610
 1755TIP3    H1 5222   2.152   1.296   0.562
 1755TIP3    H2 5223   2.009   1.343   0.575
 1756TIP3   OH2 5224   2.660   4.134   0.506
 1756TIP3    H1 5225   2.741   4.083   0.506
 1756TIP3    H2 5226   2.622   4.118   0.419
 1757TIP3   OH2 5227   4.465   6.833   0.299
 1757TIP3    H1 5228   4.535   6.891   0.269
 1757TIP3    H2 5229   4.406   6.825   0.224
 1758TIP3   OH2 5230   7.489   2.939   1.065
 1758TIP3    H1 5231   7.527   3.024   1.086
 1758TIP3    H2 5232   7.482   2.939   0.969
 1759TIP3   OH2 5233   2.925   7.622   2.869
 1759TIP3    H1 5234   2.859   7.577   2.923
 1759TIP3    H2 5235   2.902   7.598   2.779
 1760TIP3   OH2 5236   0.700   7.165   6.579
 1760TIP3    H1 5237   0.749   7.101   6.631
 1760TIP3    H2 5238   0.625   7.188   6.634
 1761TIP3   OH2 5239   2.782   3.141   0.374
 1761TIP3    H1 5240   2.861   3.192   0.358
 1761TIP3    H2 5241   2.737   3.140   0.290
 1762TIP3   OH2 5242   1.672   1.918   6.370
 1762TIP3    H1 5243   1.696   2.010   6.375
 1762TIP3    H2 5244   1.650   1.904   6.277
 1763TIP3   OH2 5245   6.896   4.917   4.343
 1763TIP3    H1 5246   6.869   4.988   4.402
 1763TIP3    H2 5247   6.985   4.897   4.369
 1764TIP3   OH2 5248   5.784   3.298   2.352
 1764TIP3    H1 5249   5.689   3.290   2.355
 1764TIP3    H2 5250   5.816   3.210   2.370
 1765TIP3   OH2 5251   3.505   0.537   1.338
 1765TIP3    H1 5252   3.598   0.559   1.333
 1765TIP3    H2 5253   3.472   0.587   1.412
 1766TIP3   OH2 5254   7.484   1.276   6.293
 1766TIP3    H1 5255   7.561   1.316   6.254
 1766TIP3    H2 5256   7.410   1.326   6.259
 1767TIP3   OH2 5257   7.845   1.595   0.856
 1767TIP3    H1 5258   7.940   1.584   0.850
 1767TIP3    H2 5259   7.827   1.677   0.811
 1768TIP3   OH2 5260   1.576   4.820   2.381
 1768TIP3    H1 5261   1.657   4.845   2.338
 1768TIP3    H2 5262   1.601   4.806   2.472
 1769TIP3   OH2 5263   7.557   4.114   1.912
 1769TIP3    H1 5264   7.642   4.080   1.883
 1769TIP3    H2 5265   7.576   4.202   1.944
 1770TIP3   OH2 5266   1.175   1.993   5.568
 1770TIP3    H1 5267   1.110   1.923   5.562
 1770TIP3    H2 5268   1.148   2.043   5.645
 1771TIP3   OH2 5269   2.701   3.237   2.641
 1771TIP3    H1 5270   2.682   3.154   2.597
 1771TIP3    H2 5271   2.796   3.244   2.641
 1772TIP3   OH2 5272   4.788   2.862   1.480
 1772TIP3    H1 5273   4.780   2.849   1.386
 1772TIP3    H2 5274   4.708   2.822   1.516
 1773TIP3   OH2 5275   0.547   0.386   1.763
 1773TIP3    H1 5276   0.473   0.363   1.708
 1773TIP3    H2 5277   0.605   0.436   1.705
 1774TIP3   OH2 5278   7.901   6.605   5.125
 1774TIP3    H1 5279   7.870   6.681   5.174
 1774TIP3    H2 5280   7.839   6.535   5.147
 1775TIP3   OH2 5281   4.580   7.328   5.160
 1775TIP3    H1 5282   4.502   7.285   5.125
 1775TIP3    H2 5283   4.629   7.357   5.083
 1776TIP3   OH2 5284   2.349   0.376   0.594
 1776TIP3    H1 5285   2.427   0.332   0.628
 1776TIP3    H2 5286   2.381   0.428   0.520
 1777TIP3   OH2 5287   0.968   5.289   6.321
 1777TIP3    H1 5288   0.873   5.278   6.325
 1777TIP3    H2 5289   0.987   5.300   6.228
 1778TIP3   OH2 5290   6.970   6.248   3.384
 1778TIP3    H1 5291   7.054   6.229   3.342
 1778TIP3    H2 5292   6.905   6.219   3.320
 1779TIP3   OH2 5293   2.918   6.944   5.628
 1779TIP3    H1 5294   3.013   6.933   5.639
 1779TIP3    H2 5295   2.909   6.999   5.550
 1780TIP3   OH2 5296   8.142   5.339   3.895
 1780TIP3    H1 5297   8.061   5.345   3.844
 1780TIP3    H2 5298   8.118   5.293   3.975
 1781TIP3   OH2 5299   7.702   2.048   1.494
 1781TIP3    H1 5300   7.655   1.992   1.433
 1781TIP3    H2 5301   7.677   2.137   1.469
 1782TIP3   OH2 5302   1.719   1.608   3.300
 1782TIP3    H1 5303   1.788   1.622   3.235
 1782TIP3    H2 5304   1.731   1.517   3.328
 1783TIP3   OH2 5305   4.987   0.135   3.968
 1783TIP3    H1 5306   4.940   0.106   4.046
 1783TIP3    H2 5307   5.076   0.103   3.981
 1784TIP3   OH2 5308   5.704   0.063   3.426
 1784TIP3    H1 5309   5.624   0.099   3.389
 1784TIP3    H2 5310   5.675   0.010   3.500
 1785TIP3   OH2 5311   4.830   5.307   6.406
 1785TIP3    H1 5312   4.764   5.351   6.459
 1785TIP3    H2 5313   4.878   5.378   6.363
 1786TIP3   OH2 5314   3.104   7.840   2.983
 1786TIP3    H1 5315   3.120   7.806   3.071
 1786TIP3    H2 5316   3.022   7.798   2.956
 1787TIP3   OH2 5317   1.596   0.830   2.040
 1787TIP3    H1 5318   1.636   0.791   1.962
 1787TIP3    H2 5319   1.521   0.773   2.059
 1788TIP3   OH2 5320   7.864   0.135   4.901
 1788TIP3    H1 5321   7.830   0.101   4.983
 1788TIP3    H2 5322   7.812   0.093   4.833
 1789TIP3   OH2 5323   6.069   5.760   3.031
 1789TIP3    H1 5324   5.996   5.772   3.093
 1789TIP3    H2 5325   6.127   5.698   3.074
 1790TIP3   OH2 5326   1.803   6.871   2.470
 1790TIP3    H1 5327   1.861   6.868   2.546
 1790TIP3    H2 5328   1.862   6.860   2.395
 1791TIP3   OH2 5329   5.177   5.975   5.641
 1791TIP3    H1 5330   5.148   5.893   5.681
 1791TIP3    H2 5331   5.103   6.004   5.589
 1792TIP3   OH2 5332   3.867   0.736   3.437
 1792TIP3    H1 5333   3.910   0.651   3.436
 1792TIP3    H2 5334   3.776   0.717   3.462
 1793TIP3   OH2 5335   3.491   1.103   4.096
 1793TIP3    H1 5336   3.545   1.066   4.026
 1793TIP3    H2 5337   3.507   1.198   4.090
 1794TIP3   OH2 5338   0.396   2.370   4.889
 1794TIP3    H1 5339   0.355   2.288   4.861
 1794TIP3    H2 5340   0.348   2.395   4.968
 1795TIP3   OH2 5341   6.879   4.325   1.044
 1795TIP3    H1 5342   6.921   4.408   1.067
 1795TIP3    H2 5343   6.788   4.335   1.072
 1796TIP3   OH2 5344   6.748   6.459   6.400
 1796TIP3    H1 5345   6.781   6.547   6.419
 1796TIP3    H2 5346   6.790   6.435   6.318
 1797TIP3   OH2 5347   3.103   5.594   0.920
 1797TIP3    H1 5348   3.181   5.645   0.898
 1797TIP3    H2 5349   3.030   5.648   0.889
 1798TIP3   OH2 5350   7.343   3.534   2.945
 1798TIP3    H1 5351   7.404   3.589   2.896
 1798TIP3    H2 5352   7.301   3.594   3.007
 1799TIP3   OH2 5353   2.933   2.812   1.480
 1799TIP3    H1 5354   2.894   2.727   1.501
 1799TIP3    H2 5355   2.946   2.810   1.386
 1800TIP3   OH2 5356   2.868   4.113   1.674
 1800TIP3    H1 5357   2.885   4.021   1.698
 1800TIP3    H2 5358   2.940   4.136   1.616
 1801TIP3   OH2 5359   4.726   0.183   6.154
 1801TIP3    H1 5360   4.778   0.191   6.234
 1801TIP3    H2 5361   4.767   0.244   6.093
 1802TIP3   OH2 5362   0.090   3.916   6.289
 1802TIP3    H1 5363   0.091   3.876   6.202
 1802TIP3    H2 5364   0.155   3.987   6.283
 1803TIP3   OH2 5365   0.084   1.625   5.335
 1803TIP3    H1 5366   0.047   1.695   5.282
 1803TIP3    H2 5367   0.171   1.609   5.296
 1804TIP3   OH2 5368   7.515   5.624   1.122
 1804TIP3    H1 5369   7.603   5.611   1.089
 1804TIP3    H2 5370   7.521   5.607   1.216
 1805TIP3   OH2 5371   2.468   6.114   4.134
 1805TIP3    H1 5372   2.382   6.151   4.156
 1805TIP3    H2 5373   2.510   6.181   4.081
 1806TIP3   OH2 5374   7.648   7.666   4.379
 1806TIP3    H1 5375   7.650   7.613   4.299
 1806TIP3    H2 5376   7.721   7.633   4.431
 1807TIP3   OH2 5377   2.262   6.039   1.033
 1807TIP3    H1 5378   2.351   6.018   1.062
 1807TIP3    H2 5379   2.268   6.128   1.001
 1808TIP3   OH2 5380   2.407   5.936   0.276
 1808TIP3    H1 5381   2.392   5.872   0.207
 1808TIP3    H2 5382   2.500   5.956   0.271
 1809TIP3   OH2 5383   2.793   4.602   6.104
 1809TIP3    H1 5384   2.834   4.678   6.063
 1809TIP3    H2 5385   2.716   4.638   6.148
 1810TIP3   OH2 5386   6.599   0.706   5.902
 1810TIP3    H1 5387   6.537   0.761   5.854
 1810TIP3    H2 5388   6.553   0.682   5.981
 1811TIP3   OH2 5389   3.317   7.457   1.573
 1811TIP3    H1 5390   3.337   7.473   1.665
 1811TIP3    H2 5391   3.238   7.404   1.574
 1812TIP3   OH2 5392   6.508   6.616   3.834
 1812TIP3    H1 5393   6.441   6.591   3.770
 1812TIP3    H2 5394   6.542   6.533   3.867
 1813TIP3   OH2 5395   1.036   2.098   5.790
 1813TIP3    H1 5396   1.065   2.179   5.832
 1813TIP3    H2 5397   1.012   2.040   5.863
 1814TIP3   OH2 5398   1.969   3.225   5.110
 1814TIP3    H1 5399   2.005   3.140   5.135
 1814TIP3    H2 5400   2.004   3.286   5.175
 1815TIP3   OH2 5401   4.877   4.545   4.975
 1815TIP3    H1 5402   4.891   4.584   5.061
 1815TIP3    H2 5403   4.825   4.611   4.927
 1816TIP3   OH2 5404   2.925   0.814   1.772
 1816TIP3    H1 5405   2.937   0.787   1.863
 1816TIP3    H2 5406   2.927   0.910   1.775
 1817TIP3   OH2 5407   2.312   4.305   3.165
 1817TIP3    H1 5408   2.377   4.301   3.095
 1817TIP3    H2 5409   2.361   4.331   3.243
 1818TIP3   OH2 5410   7.623   1.394   1.142
 1818TIP3    H1 5411   7.531   1.418   1.138
 1818TIP3    H2 5412   7.665   1.452   1.077
 1819TIP3   OH2 5413   4.635   6.323   3.320
 1819TIP3    H1 5414   4.669   6.392   3.378
 1819TIP3    H2 5415   4.685   6.245   3.343
 1820TIP3   OH2 5416   4.964   2.849   1.693
 1820TIP3    H1 5417   4.992   2.758   1.685
 1820TIP3    H2 5418   4.916   2.867   1.613
 1821TIP3   OH2 5419   1.406   0.501   4.065
 1821TIP3    H1 5420   1.370   0.442   4.000
 1821TIP3    H2 5421   1.372   0.469   4.149
 1822TIP3   OH2 5422   3.094   2.403   1.103
 1822TIP3    H1 5423   3.182   2.391   1.140
 1822TIP3    H2 5424   3.087   2.497   1.087
 1823TIP3   OH2 5425   6.260   6.511   0.123
 1823TIP3    H1 5426   6.305   6.426   0.125
 1823TIP3    H2 5427   6.305   6.563   0.190
 1824TIP3   OH2 5428   1.753   0.036   2.605
 1824TIP3    H1 5429   1.842   0.011   2.629
 1824TIP3    H2 5430   1.717   0.076   2.684
 1825TIP3   OH2 5431   7.019   4.746   4.005
 1825TIP3    H1 5432   6.938   4.748   4.055
 1825TIP3    H2 5433   6.995   4.712   3.919
 1826TIP3   OH2 5434   0.507   2.247   2.452
 1826TIP3    H1 5435   0.582   2.192   2.476
 1826TIP3    H2 5436   0.534   2.289   2.370
 1827TIP3   OH2 5437   1.875   1.604   6.692
 1827TIP3    H1 5438   1.818   1.528   6.678
 1827TIP3    H2 5439   1.963   1.568   6.693
 1828TIP3   OH2 5440   0.821   2.217   0.024
 1828TIP3    H1 5441   0.856   2.296   0.065
 1828TIP3    H2 5442   0.760   2.250  -0.043
 1829TIP3   OH2 5443   1.902   3.710   5.002
 1829TIP3    H1 5444   1.830   3.735   4.944
 1829TIP3    H2 5445   1.914   3.617   4.988
 1830TIP3   OH2 5446   6.759   5.182   1.171
 1830TIP3    H1 5447   6.690   5.151   1.113
 1830TIP3    H2 5448   6.744   5.136   1.253
 1831TIP3   OH2 5449   6.221   0.060   4.562
 1831TIP3    H1 5450   6.295   0.004   4.537
 1831TIP3    H2 5451   6.165   0.062   4.485
 1832TIP3   OH2 5452   3.317   3.910   0.158
 1832TIP3    H1 5453   3.278   3.875   0.238
 1832TIP3    H2 5454   3.361   3.835   0.118
 1833TIP3   OH2 5455   1.929   4.775   2.591
 1833TIP3    H1 5456   1.980   4.856   2.595
 1833TIP3    H2 5457   1.847   4.797   2.635
 1834TIP3   OH2 5458   7.551   4.121   2.271
 1834TIP3    H1 5459   7.465   4.142   2.233
 1834TIP3    H2 5460   7.612   4.180   2.227
 1835TIP3   OH2 5461   7.576   2.363   3.147
 1835TIP3    H1 5462   7.518   2.340   3.075
 1835TIP3    H2 5463   7.656   2.313   3.130
 1836TIP3   OH2 5464   5.405   0.822   5.691
 1836TIP3    H1 5465   5.348   0.857   5.622
 1836TIP3    H2 5466   5.437   0.739   5.656
 1837TIP3   OH2 5467   4.097   2.860   1.205
 1837TIP3    H1 5468   4.112   2.788   1.144
 1837TIP3    H2 5469   4.032   2.827   1.266
 1838TIP3   OH2 5470   5.654   4.282   5.930
 1838TIP3    H1 5471   5.586   4.297   5.865
 1838TIP3    H2 5472   5.710   4.360   5.924
 1839TIP3   OH2 5473   0.235   6.482   1.307
 1839TIP3    H1 5474   0.188   6.406   1.273
 1839TIP3    H2 5475   0.169   6.551   1.312
 1840TIP3   OH2 5476   2.814   1.482   4.496
 1840TIP3    H1 5477   2.788   1.466   4.586
 1840TIP3    H2 5478   2.783   1.570   4.477
 1841TIP3   OH2 5479   5.675   5.528   3.146
 1841TIP3    H1 5480   5.657   5.509   3.054
 1841TIP3    H2 5481   5.770   5.532   3.152
 1842TIP3   OH2 5482   8.130   5.890   0.885
 1842TIP3    H1 5483   8.187   5.829   0.837
 1842TIP3    H2 5484   8.181   5.971   0.891
 1843TIP3   OH2 5485   2.395   4.078   6.415
 1843TIP3    H1 5486   2.384   4.140   6.343
 1843TIP3    H2 5487   2.464   4.019   6.386
 1844TIP3   OH2 5488   5.078   5.950   5.133
 1844TIP3    H1 5489   4.997   6.002   5.133
 1844TIP3    H2 5490   5.099   5.939   5.040
 1845TIP3   OH2 5491   4.550   3.401   1.620
 1845TIP3    H1 5492   4.588   3.410   1.707
 1845TIP3    H2 5493   4.460   3.371   1.636
 1846TIP3   OH2 5494   4.446   7.173   3.214
 1846TIP3    H1 5495   4.465   7.267   3.209
 1846TIP3    H2 5496   4.433   7.147   3.123
 1847TIP3   OH2 5497   5.323   3.673   3.118
 1847TIP3    H1 5498   5.255   3.730   3.083
 1847TIP3    H2 5499   5.280   3.589   3.131
 1848TIP3   OH2 5500   0.733   2.889   3.336
 1848TIP3    H1 5501   0.803   2.951   3.354
 1848TIP3    H2 5502   0.769   2.804   3.359
 1849TIP3   OH2 5503   6.832   3.521   5.109
 1849TIP3    H1 5504   6.887   3.452   5.074
 1849TIP3    H2 5505   6.850   3.521   5.203
 1850TIP3   OH2 5506   3.440   6.321   3.543
 1850TIP3    H1 5507   3.432   6.404   3.496
 1850TIP3    H2 5508   3.455   6.347   3.634
 1851TIP3   OH2 5509   3.447   0.969   0.524
 1851TIP3    H1 5510   3.428   0.877   0.544
 1851TIP3    H2 5511   3.513   0.966   0.455
 1852TIP3   OH2 5512   2.353   1.223   3.761
 1852TIP3    H1 5513   2.378   1.249   3.673
 1852TIP3    H2 5514   2.358   1.128   3.761
 1853TIP3   OH2 5515   5.295   6.710   4.028
 1853TIP3    H1 5516   5.339   6.794   4.017
 1853TIP3    H2 5517   5.209   6.732   4.062
 1854TIP3   OH2 5518   5.947   0.041   1.296
 1854TIP3    H1 5519   5.918   0.110   1.236
 1854TIP3    H2 5520   6.042   0.039   1.285
 1855TIP3   OH2 5521   2.893   7.696   5.224
 1855TIP3    H1 5522   2.905   7.605   5.251
 1855TIP3    H2 5523   2.970   7.741   5.260
 1856TIP3   OH2 5524   3.472   7.010   3.396
 1856TIP3    H1 5525   3.472   6.999   3.491
 1856TIP3    H2 5526   3.565   7.015   3.373
 1857TIP3   OH2 5527   7.776   3.527   3.503
 1857TIP3    H1 5528   7.709   3.480   3.454
 1857TIP3    H2 5529   7.795   3.605   3.450
 1858TIP3   OH2 5530   3.220   1.596   3.205
 1858TIP3    H1 5531   3.244   1.564   3.118
 1858TIP3    H2 5532   3.209   1.690   3.194
 1859TIP3   OH2 5533   1.612   7.153   2.087
 1859TIP3    H1 5534   1.611   7.209   2.009
 1859TIP3    H2 5535   1.561   7.076   2.062
 1860TIP3   OH2 5536   0.953   4.807   4.051
 1860TIP3    H1 5537   0.997   4.892   4.057
 1860TIP3    H2 5538   0.879   4.823   3.991
 1861TIP3   OH2 5539   2.839   5.951   0.498
 1861TIP3    H1 5540   2.923   5.960   0.453
 1861TIP3    H2 5541   2.786   5.896   0.440
 1862TIP3   OH2 5542   4.967   0.206   3.079
 1862TIP3    H1 5543   5.001   0.295   3.090
 1862TIP3    H2 5544   5.044   0.150   3.086
 1863TIP3   OH2 5545   4.006   5.492   4.202
 1863TIP3    H1 5546   3.953   5.529   4.131
 1863TIP3    H2 5547   3.954   5.420   4.236
 1864TIP3   OH2 5548   1.207   0.108   1.965
 1864TIP3    H1 5549   1.123   0.146   1.940
 1864TIP3    H2 5550   1.191   0.066   2.049
 1865TIP3   OH2 5551   7.876   5.876   2.723
 1865TIP3    H1 5552   7.863   5.903   2.632
 1865TIP3    H2 5553   7.818   5.800   2.734
 1866TIP3   OH2 5554   2.646   2.449   1.750
 1866TIP3    H1 5555   2.619   2.357   1.750
 1866TIP3    H2 5556   2.565   2.498   1.742
 1867TIP3   OH2 5557   7.568   3.841   2.260
 1867TIP3    H1 5558   7.550   3.935   2.260
 1867TIP3    H2 5559   7.630   3.828   2.189
 1868TIP3   OH2 5560   2.049   6.803   4.049
 1868TIP3    H1 5561   2.100   6.722   4.037
 1868TIP3    H2 5562   2.005   6.816   3.965
 1869TIP3   OH2 5563   5.406   0.922   6.721
 1869TIP3    H1 5564   5.350   0.985   6.675
 1869TIP3    H2 5565   5.352   0.844   6.730
 1870TIP3   OH2 5566   4.706   0.956   3.696
 1870TIP3    H1 5567   4.714   1.049   3.679
 1870TIP3    H2 5568   4.719   0.948   3.791
 1871TIP3   OH2 5569   1.622   1.763   3.496
 1871TIP3    H1 5570   1.640   1.695   3.431
 1871TIP3    H2 5571   1.643   1.722   3.580
 1872TIP3   OH2 5572   7.171   7.001   2.656
 1872TIP3    H1 5573   7.097   6.986   2.715
 1872TIP3    H2 5574   7.175   7.096   2.645
 1873TIP3   OH2 5575   7.733   5.649   1.764
 1873TIP3    H1 5576   7.776   5.724   1.723
 1873TIP3    H2 5577   7.651   5.640   1.716
 1874TIP3   OH2 5578   2.614   7.791   3.446
 1874TIP3    H1 5579   2.648   7.831   3.366
 1874TIP3    H2 5580   2.635   7.698   3.437
 1875TIP3   OH2 5581   2.783   3.420   5.348
 1875TIP3    H1 5582   2.829   3.336   5.352
 1875TIP3    H2 5583   2.789   3.453   5.438
 1876TIP3   OH2 5584   4.988   3.233   3.985
 1876TIP3    H1 5585   5.001   3.323   4.016
 1876TIP3    H2 5586   5.050   3.223   3.913
 1877TIP3   OH2 5587   7.346   6.009   3.633
 1877TIP3    H1 5588   7.421   6.061   3.605
 1877TIP3    H2 5589   7.272   6.070   3.629
 1878TIP3   OH2 5590   7.665   3.080   3.797
 1878TIP3    H1 5591   7.682   3.044   3.710
 1878TIP3    H2 5592   7.669   3.174   3.785
 1879TIP3   OH2 5593   2.937   3.532   4.502
 1879TIP3    H1 5594   2.910   3.486   4.582
 1879TIP3    H2 5595   3.010   3.587   4.531
 1880TIP3   OH2 5596   6.817   3.417   4.524
 1880TIP3    H1 5597   6.769   3.465   4.456
 1880TIP3    H2 5598   6.749   3.367   4.570
 1881TIP3   OH2 5599   1.806   3.185   2.544
 1881TIP3    H1 5600   1.763   3.218   2.623
 1881TIP3    H2 5601   1.808   3.260   2.485
 1882TIP3   OH2 5602   4.769   7.179   4.931
 1882TIP3    H1 5603   4.858   7.167   4.963
 1882TIP3    H2 5604   4.769   7.139   4.844
 1883TIP3   OH2 5605   5.608   3.425   1.854
 1883TIP3    H1 5606   5.572   3.486   1.918
 1883TIP3    H2 5607   5.540   3.358   1.843
 1884TIP3   OH2 5608   0.583   7.627   0.307
 1884TIP3    H1 5609   0.665   7.675   0.292
 1884TIP3    H2 5610   0.601   7.574   0.385
 1885TIP3   OH2 5611   6.504   5.735   0.288
 1885TIP3    H1 5612   6.562   5.661   0.269
 1885TIP3    H2 5613   6.452   5.705   0.362
 1886TIP3   OH2 5614   2.008   5.886   4.089
 1886TIP3    H1 5615   2.042   5.818   4.032
 1886TIP3    H2 5616   2.068   5.887   4.164
 1887TIP3   OH2 5617   6.320   2.981   3.112
 1887TIP3    H1 5618   6.236   2.942   3.137
 1887TIP3    H2 5619   6.369   2.986   3.194
 1888TIP3   OH2 5620   1.566   7.580   0.411
 1888TIP3    H1 5621   1.512   7.549   0.339
 1888TIP3    H2 5622   1.527   7.664   0.436
 1889TIP3   OH2 5623   1.827   2.241   4.301
 1889TIP3    H1 5624   1.805   2.289   4.221
 1889TIP3    H2 5625   1.781   2.158   4.294
 1890TIP3   OH2 5626   6.483   2.276   3.645
 1890TIP3    H1 5627   6.435   2.210   3.594
 1890TIP3    H2 5628   6.571   2.240   3.652
 1891TIP3   OH2 5629   7.744   0.945   6.216
 1891TIP3    H1 5630   7.811   0.936   6.149
 1891TIP3    H2 5631   7.699   0.861   6.217
 1892TIP3   OH2 5632   1.504   3.434   4.998
 1892TIP3    H1 5633   1.543   3.462   5.080
 1892TIP3    H2 5634   1.503   3.338   5.003
 1893TIP3   OH2 5635   7.482   4.418   1.021
 1893TIP3    H1 5636   7.548   4.382   1.079
 1893TIP3    H2 5637   7.468   4.507   1.053
 1894TIP3   OH2 5638   3.380   6.360   3.076
 1894TIP3    H1 5639   3.424   6.275   3.076
 1894TIP3    H2 5640   3.365   6.379   3.169
 1895TIP3   OH2 5641   5.080   5.598   4.219
 1895TIP3    H1 5642   5.084   5.614   4.125
 1895TIP3    H2 5643   4.990   5.618   4.244
 1896TIP3   OH2 5644   2.366   1.822   1.345
 1896TIP3    H1 5645   2.344   1.742   1.392
 1896TIP3    H2 5646   2.448   1.801   1.300
 1897TIP3   OH2 5647   2.330   0.121   2.444
 1897TIP3    H1 5648   2.390   0.196   2.448
 1897TIP3    H2 5649   2.311   0.101   2.535
 1898TIP3   OH2 5650   5.177   3.333   5.288
 1898TIP3    H1 5651   5.083   3.326   5.272
 1898TIP3    H2 5652   5.184   3.355   5.381
 1899TIP3   OH2 5653   0.198   4.814   6.142
 1899TIP3    H1 5654   0.282   4.783   6.178
 1899TIP3    H2 5655   0.223   4.885   6.082
 1900TIP3   OH2 5656   0.373   6.597   3.727
 1900TIP3    H1 5657   0.436   6.624   3.660
 1900TIP3    H2 5658   0.315   6.536   3.682
 1901TIP3   OH2 5659   0.788   7.658   1.445
 1901TIP3    H1 5660   0.737   7.594   1.494
 1901TIP3    H2 5661   0.724   7.727   1.423
 1902TIP3   OH2 5662   3.176   0.072   0.522
 1902TIP3    H1 5663   3.195   0.164   0.542
 1902TIP3    H2 5664   3.262   0.033   0.508
 1903TIP3   OH2 5665   6.984   2.112   4.487
 1903TIP3    H1 5666   6.978   2.130   4.393
 1903TIP3    H2 5667   7.010   2.020   4.493
 1904TIP3   OH2 5668   3.190   3.375   3.382
 1904TIP3    H1 5669   3.158   3.332   3.303
 1904TIP3    H2 5670   3.270   3.327   3.405
 1905TIP3   OH2 5671   1.858   1.256   3.184
 1905TIP3    H1 5672   1.829   1.250   3.093
 1905TIP3    H2 5673   1.799   1.198   3.232
 1906TIP3   OH2 5674   7.852   4.709   5.576
 1906TIP3    H1 5675   7.842   4.678   5.486
 1906TIP3    H2 5676   7.916   4.780   5.570
 1907TIP3   OH2 5677   7.787   3.687   3.998
 1907TIP3    H1 5678   7.855   3.696   3.931
 1907TIP3    H2 5679   7.788   3.594   4.020
 1908TIP3   OH2 5680   4.316   5.475   5.053
 1908TIP3    H1 5681   4.333   5.385   5.081
 1908TIP3    H2 5682   4.319   5.471   4.957
 1909TIP3   OH2 5683   5.466   6.914   4.528
 1909TIP3    H1 5684   5.547   6.885   4.569
 1909TIP3    H2 5685   5.473   6.887   4.437
 1910TIP3   OH2 5686   7.864   6.466   4.604
 1910TIP3    H1 5687   7.889   6.462   4.511
 1910TIP3    H2 5688   7.901   6.386   4.642
 1911TIP3   OH2 5689   1.048   3.375   1.314
 1911TIP3    H1 5690   1.039   3.333   1.229
 1911TIP3    H2 5691   0.958   3.398   1.339
 1912TIP3   OH2 5692   6.075   4.923   6.335
 1912TIP3    H1 5693   6.073   4.959   6.423
 1912TIP3    H2 5694   6.031   4.838   6.343
 1913TIP3   OH2 5695   0.840   0.460   4.146
 1913TIP3    H1 5696   0.793   0.529   4.193
 1913TIP3    H2 5697   0.919   0.503   4.112
 1914TIP3   OH2 5698   2.559   6.324   0.221
 1914TIP3    H1 5699   2.589   6.412   0.242
 1914TIP3    H2 5700   2.638   6.277   0.194
 1915TIP3   OH2 5701   1.700   0.308   0.536
 1915TIP3    H1 5702   1.745   0.239   0.489
 1915TIP3    H2 5703   1.758   0.328   0.610
 1916TIP3   OH2 5704   2.396   4.578   5.458
 1916TIP3    H1 5705   2.486   4.567   5.490
 1916TIP3    H2 5706   2.376   4.497   5.412
 1917TIP3   OH2 5707   3.464   2.523   5.887
 1917TIP3    H1 5708   3.532   2.537   5.822
 1917TIP3    H2 5709   3.405   2.598   5.877
 1918TIP3   OH2 5710   3.621   3.166   1.297
 1918TIP3    H1 5711   3.575   3.166   1.213
 1918TIP3    H2 5712   3.670   3.248   1.298
 1919TIP3   OH2 5713   3.541   3.532   1.097
 1919TIP3    H1 5714   3.576   3.508   1.183
 1919TIP3    H2 5715   3.482   3.461   1.074
 1920TIP3   OH2 5716   4.970   4.046   6.453
 1920TIP3    H1 5717   5.036   4.048   6.522
 1920TIP3    H2 5718   4.900   3.991   6.488
 1921TIP3   OH2 5719   1.554   0.917   4.944
 1921TIP3    H1 5720   1.582   0.829   4.967
 1921TIP3    H2 5721   1.465   0.924   4.980
 1922TIP3   OH2 5722   0.644   1.386   0.704
 1922TIP3    H1 5723   0.696   1.306   0.703
 1922TIP3    H2 5724   0.698   1.450   0.657
 1923TIP3   OH2 5725   1.904   7.214   0.151
 1923TIP3    H1 5726   1.836   7.149   0.138
 1923TIP3    H2 5727   1.975   7.166   0.195
 1924TIP3   OH2 5728   6.583   7.702   5.285
 1924TIP3    H1 5729   6.496   7.728   5.255
 1924TIP3    H2 5730   6.622   7.656   5.211
 1925TIP3   OH2 5731   3.936   5.559   5.010
 1925TIP3    H1 5732   3.976   5.645   5.020
 1925TIP3    H2 5733   3.952   5.515   5.093
 1926TIP3   OH2 5734   3.360   1.135   1.337
 1926TIP3    H1 5735   3.269   1.139   1.307
 1926TIP3    H2 5736   3.396   1.058   1.292
 1927TIP3   OH2 5737   4.210   5.432   5.669
 1927TIP3    H1 5738   4.199   5.527   5.669
 1927TIP3    H2 5739   4.304   5.418   5.655
 1928TIP3   OH2 5740   0.651   0.599   3.678
 1928TIP3    H1 5741   0.643   0.673   3.618
 1928TIP3    H2 5742   0.585   0.536   3.647
 1929TIP3   OH2 5743   4.765   7.036   6.745
 1929TIP3    H1 5744   4.708   7.095   6.795
 1929TIP3    H2 5745   4.707   6.999   6.679
 1930TIP3   OH2 5746   6.538   4.535   1.748
 1930TIP3    H1 5747   6.513   4.553   1.839
 1930TIP3    H2 5748   6.632   4.552   1.745
 1931TIP3   OH2 5749   5.765   3.018   0.340
 1931TIP3    H1 5750   5.710   3.027   0.262
 1931TIP3    H2 5751   5.766   3.106   0.379
 1932TIP3   OH2 5752   6.203   6.345   5.134
 1932TIP3    H1 5753   6.254   6.394   5.070
 1932TIP3    H2 5754   6.225   6.386   5.218
 1933TIP3   OH2 5755   0.559   6.677   0.289
 1933TIP3    H1 5756   0.487   6.654   0.348
 1933TIP3    H2 5757   0.524   6.747   0.234
 1934TIP3   OH2 5758   5.383   0.507   4.821
 1934TIP3    H1 5759   5.410   0.504   4.729
 1934TIP3    H2 5760   5.372   0.600   4.840
 1935TIP3   OH2 5761   4.537   0.270   0.744
 1935TIP3    H1 5762   4.619   0.279   0.696
 1935TIP3    H2 5763   4.534   0.178   0.770
 1936TIP3   OH2 5764   7.515   7.810   0.055
 1936TIP3    H1 5765   7.523   7.778  -0.035
 1936TIP3    H2 5766   7.476   7.896   0.047
 1937TIP3   OH2 5767   4.670   5.514   3.345
 1937TIP3    H1 5768   4.702   5.499   3.256
 1937TIP3    H2 5769   4.581   5.547   3.333
 1938TIP3   OH2 5770   7.172   4.148   5.796
 1938TIP3    H1 5771   7.155   4.176   5.706
 1938TIP3    H2 5772   7.109   4.196   5.849
 1939TIP3   OH2 5773   3.538   5.195   6.216
 1939TIP3    H1 5774   3.482   5.227   6.145
 1939TIP3    H2 5775   3.528   5.260   6.286
 1940TIP3   OH2 5776   6.525   4.583   6.072
 1940TIP3    H1 5777   6.505   4.606   5.981
 1940TIP3    H2 5778   6.459   4.628   6.124
 1941TIP3   OH2 5779   2.132   4.853   3.018
 1941TIP3    H1 5780   2.106   4.817   2.933
 1941TIP3    H2 5781   2.093   4.941   3.020
 1942TIP3   OH2 5782   7.021   3.689   2.765
 1942TIP3    H1 5783   7.064   3.686   2.679
 1942TIP3    H2 5784   6.929   3.673   2.746
 1943TIP3   OH2 5785   7.884   0.953   5.461
 1943TIP3    H1 5786   7.943   0.943   5.386
 1943TIP3    H2 5787   7.902   1.041   5.494
 1944TIP3   OH2 5788   2.256   1.716   4.497
 1944TIP3    H1 5789   2.271   1.676   4.583
 1944TIP3    H2 5790   2.264   1.644   4.435
 1945TIP3   OH2 5791   0.311   7.705   1.636
 1945TIP3    H1 5792   0.244   7.722   1.569
 1945TIP3    H2 5793   0.263   7.660   1.706
 1946TIP3   OH2 5794   7.167   1.161   4.933
 1946TIP3    H1 5795   7.118   1.231   4.977
 1946TIP3    H2 5796   7.259   1.182   4.950
 1947TIP3   OH2 5797   4.539   3.691   4.727
 1947TIP3    H1 5798   4.597   3.689   4.651
 1947TIP3    H2 5799   4.574   3.761   4.782
 1948TIP3   OH2 5800   6.434   3.733   1.039
 1948TIP3    H1 5801   6.354   3.743   1.092
 1948TIP3    H2 5802   6.407   3.679   0.965
 1949TIP3   OH2 5803   6.847   3.935   1.745
 1949TIP3    H1 5804   6.919   3.884   1.784
 1949TIP3    H2 5805   6.876   4.026   1.752
 1950TIP3   OH2 5806   8.084   6.349   2.582
 1950TIP3    H1 5807   8.154   6.309   2.532
 1950TIP3    H2 5808   8.123   6.368   2.668
 1951TIP3   OH2 5809   2.265   0.824   1.962
 1951TIP3    H1 5810   2.320   0.797   1.889
 1951TIP3    H2 5811   2.286   0.763   2.032
 1952TIP3   OH2 5812   0.292   4.267   1.233
 1952TIP3    H1 5813   0.388   4.268   1.239
 1952TIP3    H2 5814   0.272   4.312   1.151
 1953TIP3   OH2 5815   1.616   6.919   3.129
 1953TIP3    H1 5816   1.528   6.880   3.126
 1953TIP3    H2 5817   1.603   7.005   3.170
 1954TIP3   OH2 5818   7.777   5.662   4.842
 1954TIP3    H1 5819   7.706   5.719   4.870
 1954TIP3    H2 5820   7.854   5.691   4.891
 1955TIP3   OH2 5821   1.356   1.567   0.872
 1955TIP3    H1 5822   1.305   1.551   0.793
 1955TIP3    H2 5823   1.320   1.506   0.937
 1956TIP3   OH2 5824   0.175   3.083   1.837
 1956TIP3    H1 5825   0.175   3.105   1.744
 1956TIP3    H2 5826   0.263   3.105   1.867
 1957TIP3   OH2 5827   5.466   6.997   6.761
 1957TIP3    H1 5828   5.408   6.937   6.807
 1957TIP3    H2 5829   5.538   6.942   6.731
 1958TIP3   OH2 5830   0.242   7.416   0.203
 1958TIP3    H1 5831   0.236   7.384   0.113
 1958TIP3    H2 5832   0.161   7.465   0.217
 1959TIP3   OH2 5833   1.114   4.881   1.240
 1959TIP3    H1 5834   1.087   4.797   1.203
 1959TIP3    H2 5835   1.160   4.925   1.168
 1960TIP3   OH2 5836   3.832   6.441   0.026
 1960TIP3    H1 5837   3.827   6.417  -0.067
 1960TIP3    H2 5838   3.744   6.474   0.046
 1961TIP3   OH2 5839   2.998   7.820   1.533
 1961TIP3    H1 5840   3.025   7.799   1.444
 1961TIP3    H2 5841   2.946   7.745   1.561
 1962TIP3   OH2 5842   3.970   5.691   2.887
 1962TIP3    H1 5843   4.044   5.709   2.829
 1962TIP3    H2 5844   3.893   5.715   2.835
 1963TIP3   OH2 5845   1.744   7.250   5.968
 1963TIP3    H1 5846   1.791   7.236   6.050
 1963TIP3    H2 5847   1.697   7.333   5.982
 1964TIP3   OH2 5848   8.150   5.456   2.031
 1964TIP3    H1 5849   8.235   5.487   2.064
 1964TIP3    H2 5850   8.160   5.361   2.026
 1965TIP3   OH2 5851   6.637   6.576   2.988
 1965TIP3    H1 5852   6.588   6.499   2.960
 1965TIP3    H2 5853   6.676   6.611   2.907
 1966TIP3   OH2 5854   1.660   1.907   3.193
 1966TIP3    H1 5855   1.702   1.832   3.149
 1966TIP3    H2 5856   1.615   1.954   3.122
 1967TIP3   OH2 5857   1.288   3.219   5.955
 1967TIP3    H1 5858   1.281   3.123   5.954
 1967TIP3    H2 5859   1.345   3.238   6.030
 1968TIP3   OH2 5860   0.171   1.709   6.236
 1968TIP3    H1 5861   0.242   1.650   6.214
 1968TIP3    H2 5862   0.129   1.669   6.312
 1969TIP3   OH2 5863   5.616   3.232   4.260
 1969TIP3    H1 5864   5.659   3.292   4.321
 1969TIP3    H2 5865   5.595   3.155   4.313
 1970TIP3   OH2 5866   5.468   7.720   0.260
 1970TIP3    H1 5867   5.452   7.640   0.309
 1970TIP3    H2 5868   5.563   7.731   0.261
 1971TIP3   OH2 5869   6.738   3.053   6.232
 1971TIP3    H1 5870   6.667   3.041   6.170
 1971TIP3    H2 5871   6.784   2.969   6.232
 1972TIP3   OH2 5872   6.380   3.581   6.412
 1972TIP3    H1 5873   6.300   3.578   6.465
 1972TIP3    H2 5874   6.349   3.568   6.322
 1973TIP3   OH2 5875   7.718   7.389   6.553
 1973TIP3    H1 5876   7.682   7.478   6.551
 1973TIP3    H2 5877   7.704   7.359   6.643
 1974TIP3   OH2 5878   1.148   3.659   5.551
 1974TIP3    H1 5879   1.115   3.573   5.578
 1974TIP3    H2 5880   1.234   3.641   5.513
 1975TIP3   OH2 5881   5.986   6.178   0.154
 1975TIP3    H1 5882   5.972   6.083   0.149
 1975TIP3    H2 5883   6.017   6.202   0.066
 1976TIP3   OH2 5884   1.805   5.533   2.131
 1976TIP3    H1 5885   1.790   5.456   2.187
 1976TIP3    H2 5886   1.732   5.591   2.150
 1977TIP3   OH2 5887   1.586   1.185   2.149
 1977TIP3    H1 5888   1.659   1.133   2.117
 1977TIP3    H2 5889   1.534   1.203   2.071
 1978TIP3   OH2 5890   5.321   1.480   4.494
 1978TIP3    H1 5891   5.284   1.504   4.410
 1978TIP3    H2 5892   5.411   1.515   4.491
 1979TIP3   OH2 5893   2.400   7.378   0.658
 1979TIP3    H1 5894   2.392   7.460   0.707
 1979TIP3    H2 5895   2.470   7.330   0.704
 1980TIP3   OH2 5896   7.197   6.313   1.398
 1980TIP3    H1 5897   7.187   6.403   1.429
 1980TIP3    H2 5898   7.136   6.262   1.451
 1981TIP3   OH2 5899   7.886   4.128   0.230
 1981TIP3    H1 5900   7.879   4.068   0.156
 1981TIP3    H2 5901   7.976   4.161   0.227
 1982TIP3   OH2 5902   0.853   1.685   6.637
 1982TIP3    H1 5903   0.778   1.722   6.590
 1982TIP3    H2 5904   0.902   1.638   6.570
 1983TIP3   OH2 5905   3.357   6.832   4.248
 1983TIP3    H1 5906   3.295   6.760   4.255
 1983TIP3    H2 5907   3.440   6.790   4.226
 1984TIP3   OH2 5908   4.494   7.299   1.087
 1984TIP3    H1 5909   4.558   7.231   1.106
 1984TIP3    H2 5910   4.523   7.375   1.138
 1985TIP3   OH2 5911   2.504   3.004   1.819
 1985TIP3    H1 5912   2.517   2.919   1.862
 1985TIP3    H2 5913   2.569   3.005   1.749
 1986TIP3   OH2 5914   4.181   2.319   0.310
 1986TIP3    H1 5915   4.270   2.353   0.314
 1986TIP3    H2 5916   4.128   2.383   0.357
 1987TIP3   OH2 5917   6.123   3.342   0.116
 1987TIP3    H1 5918   6.065   3.370   0.046
 1987TIP3    H2 5919   6.079   3.267   0.156
 1988TIP3   OH2 5920   6.054   1.064   5.521
 1988TIP3    H1 5921   6.041   1.040   5.613
 1988TIP3    H2 5922   6.114   1.138   5.524
 1989TIP3   OH2 5923   4.383   6.613   0.821
 1989TIP3    H1 5924   4.426   6.527   0.819
 1989TIP3    H2 5925   4.327   6.610   0.898
 1990TIP3   OH2 5926   6.458   1.257   3.596
 1990TIP3    H1 5927   6.517   1.321   3.635
 1990TIP3    H2 5928   6.371   1.282   3.628
 1991TIP3   OH2 5929   7.389   5.349   3.602
 1991TIP3    H1 5930   7.474   5.379   3.636
 1991TIP3    H2 5931   7.398   5.253   3.597
 1992TIP3   OH2 5932   7.150   7.097   5.933
 1992TIP3    H1 5933   7.083   7.110   6.000
 1992TIP3    H2 5934   7.221   7.156   5.958
 1993TIP3   OH2 5935   4.081   3.256   2.299
 1993TIP3    H1 5936   4.033   3.282   2.377
 1993TIP3    H2 5937   4.120   3.337   2.267
 1994TIP3   OH2 5938   4.962   1.503   5.246
 1994TIP3    H1 5939   4.911   1.549   5.313
 1994TIP3    H2 5940   4.987   1.420   5.287
 1995TIP3   OH2 5941   5.513   7.443   4.494
 1995TIP3    H1 5942   5.573   7.369   4.487
 1995TIP3    H2 5943   5.426   7.403   4.502
 1996TIP3   OH2 5944   8.046   5.696   3.517
 1996TIP3    H1 5945   8.001   5.779   3.499
 1996TIP3    H2 5946   8.137   5.713   3.494
 1997TIP3   OH2 5947   1.126   2.278   4.230
 1997TIP3    H1 5948   1.212   2.250   4.199
 1997TIP3    H2 5949   1.144   2.333   4.306
 1998TIP3   OH2 5950   4.153   4.743   2.570
 1998TIP3    H1 5951   4.119   4.653   2.574
 1998TIP3    H2 5952   4.082   4.796   2.607
 1999TIP3   OH2 5953   4.822   3.192   1.295
 1999TIP3    H1 5954   4.893   3.131   1.274
 1999TIP3    H2 5955   4.767   3.193   1.216
 2000TIP3   OH2 5956   3.312   2.468   1.263
 2000TIP3    H1 5957   3.304   2.562   1.246
 2000TIP3    H2 5958   3.314   2.460   1.358
 2001TIP3   OH2 5959   0.969   4.422   4.995
 2001TIP3    H1 5960   0.890   4.411   4.943
 2001TIP3    H2 5961   0.965   4.351   5.060
 2002TIP3   OH2 5962   3.762   0.307   5.943
 2002TIP3    H1 5963   3.829   0.332   6.007
 2002TIP3    H2 5964   3.807   0.245   5.885
 2003TIP3   OH2 5965   3.996   1.345   2.269
 2003TIP3    H1 5966   3.932   1.300   2.214
 2003TIP3    H2 5967   4.059   1.277   2.292
 2004TIP3   OH2 5968   7.082   3.159   1.132
 2004TIP3    H1 5969   7.044   3.153   1.219
 2004TIP3    H2 5970   7.173   3.183   1.146
 2005TIP3   OH2 5971   7.802   5.677   6.145
 2005TIP3    H1 5972   7.842   5.716   6.222
 2005TIP3    H2 5973   7.710   5.702   6.150
 2006TIP3   OH2 5974   0.425   4.337   6.271
 2006TIP3    H1 5975   0.492   4.377   6.215
 2006TIP3    H2 5976   0.355   4.402   6.274
 2007TIP3   OH2 5977   0.530   7.762   1.754
 2007TIP3    H1 5978   0.494   7.823   1.818
 2007TIP3    H2 5979   0.455   7.731   1.704
 2008TIP3   OH2 5980   1.611   5.477   5.784
 2008TIP3    H1 5981   1.581   5.539   5.718
 2008TIP3    H2 5982   1.532   5.437   5.818
 2009TIP3   OH2 5983   1.585   2.789   0.831
 2009TIP3    H1 5984   1.546   2.723   0.888
 2009TIP3    H2 5985   1.529   2.791   0.754
 2010TIP3   OH2 5986   6.913   2.096   2.891
 2010TIP3    H1 5987   6.962   2.028   2.846
 2010TIP3    H2 5988   6.913   2.069   2.983
 2011TIP3   OH2 5989   0.059   7.626   3.607
 2011TIP3    H1 5990   0.016   7.665   3.530
 2011TIP3    H2 5991   0.014   7.542   3.619
 2012TIP3   OH2 5992   7.557   2.176   0.519
 2012TIP3    H1 5993   7.613   2.109   0.482
 2012TIP3    H2 5994   7.584   2.257   0.476
 2013TIP3   OH2 5995   0.167  -0.001   2.587
 2013TIP3    H1 5996   0.208   0.017   2.503
 2013TIP3    H2 5997   0.074   0.018   2.573
 2014TIP3   OH2 5998   6.119   2.442   2.104
 2014TIP3    H1 5999   6.039   2.490   2.083
 2014TIP3    H2 6000   6.139   2.466   2.194
 2015TIP3   OH2 6001   3.034   4.456   6.522
 2015TIP3    H1 6002   2.975   4.525   6.492
 2015TIP3    H2 6003   2.975   4.385   6.549
 2016TIP3   OH2 6004   5.606   0.390   0.419
 2016TIP3    H1 6005   5.519   0.353   0.408
 2016TIP3    H2 6006   5.665   0.315   0.410
 2017TIP3   OH2 6007   5.030   2.240   2.759
 2017TIP3    H1 6008   5.006   2.331   2.747
 2017TIP3    H2 6009   4.994   2.217   2.845
 2018TIP3   OH2 6010   5.977   3.468   2.196
 2018TIP3    H1 6011   5.914   3.401   2.221
 2018TIP3    H2 6012   5.961   3.482   2.102
 2019TIP3   OH2 6013   2.111   3.103   3.638
 2019TIP3    H1 6014   2.167   3.181   3.642
 2019TIP3    H2 6015   2.101   3.076   3.729
 2020TIP3   OH2 6016   3.583   4.791   1.604
 2020TIP3    H1 6017   3.638   4.869   1.606
 2020TIP3    H2 6018   3.499   4.819   1.638
 2021TIP3   OH2 6019   7.509   7.270   4.092
 2021TIP3    H1 6020   7.588   7.250   4.042
 2021TIP3    H2 6021   7.441   7.284   4.026
 2022TIP3   OH2 6022   5.292   1.022   4.173
 2022TIP3    H1 6023   5.200   1.003   4.191
 2022TIP3    H2 6024   5.296   1.117   4.165
 2023TIP3   OH2 6025   8.278   1.286   5.621
 2023TIP3    H1 6026   8.302   1.238   5.542
 2023TIP3    H2 6027   8.183   1.281   5.624
 2024TIP3   OH2 6028   0.321   0.636   1.728
 2024TIP3    H1 6029   0.303   0.575   1.799
 2024TIP3    H2 6030   0.357   0.582   1.658
 2025TIP3   OH2 6031   3.816   7.746   6.132
 2025TIP3    H1 6032   3.905   7.774   6.110
 2025TIP3    H2 6033   3.813   7.752   6.228
 2026TIP3   OH2 6034   0.435   7.057   0.699
 2026TIP3    H1 6035   0.418   6.996   0.771
 2026TIP3    H2 6036   0.456   6.999   0.625
 2027TIP3   OH2 6037   7.524   4.861   2.282
 2027TIP3    H1 6038   7.486   4.813   2.208
 2027TIP3    H2 6039   7.492   4.815   2.359
 2028TIP3   OH2 6040   2.366   4.713   1.535
 2028TIP3    H1 6041   2.323   4.645   1.483
 2028TIP3    H2 6042   2.431   4.751   1.475
 2029TIP3   OH2 6043   8.051   0.646   5.379
 2029TIP3    H1 6044   8.073   0.591   5.304
 2029TIP3    H2 6045   8.116   0.624   5.445
 2030TIP3   OH2 6046   1.034   3.563   2.171
 2030TIP3    H1 6047   1.070   3.480   2.204
 2030TIP3    H2 6048   0.939   3.550   2.174
 2031TIP3   OH2 6049   7.255   3.842   3.930
 2031TIP3    H1 6050   7.185   3.903   3.907
 2031TIP3    H2 6051   7.335   3.882   3.897
 2032TIP3   OH2 6052   6.745   0.677   0.966
 2032TIP3    H1 6053   6.698   0.735   0.906
 2032TIP3    H2 6054   6.685   0.663   1.038
 2033TIP3   OH2 6055   6.541   0.076   5.593
 2033TIP3    H1 6056   6.464   0.132   5.598
 2033TIP3    H2 6057   6.505  -0.013   5.593
 2034TIP3   OH2 6058   4.912   0.324   2.663
 2034TIP3    H1 6059   4.964   0.403   2.681
 2034TIP3    H2 6060   4.975   0.260   2.631
 2035TIP3   OH2 6061   3.463   5.311   5.306
 2035TIP3    H1 6062   3.405   5.283   5.235
 2035TIP3    H2 6063   3.550   5.315   5.266
 2036TIP3   OH2 6064   1.402   4.779   1.056
 2036TIP3    H1 6065   1.367   4.695   1.088
 2036TIP3    H2 6066   1.324   4.830   1.034
 2037TIP3   OH2 6067   5.864   4.757   3.834
 2037TIP3    H1 6068   5.899   4.829   3.782
 2037TIP3    H2 6069   5.918   4.681   3.809
 2038TIP3   OH2 6070   4.906   0.177   1.198
 2038TIP3    H1 6071   4.906   0.109   1.266
 2038TIP3    H2 6072   4.872   0.133   1.120
 2039TIP3   OH2 6073   3.771   6.442   5.513
 2039TIP3    H1 6074   3.799   6.402   5.430
 2039TIP3    H2 6075   3.852   6.470   5.555
 2040TIP3   OH2 6076   6.854   4.900   3.499
 2040TIP3    H1 6077   6.948   4.884   3.508
 2040TIP3    H2 6078   6.843   4.927   3.407
 2041TIP3   OH2 6079   3.835   5.949   6.454
 2041TIP3    H1 6080   3.845   6.021   6.392
 2041TIP3    H2 6081   3.802   5.990   6.534
 2042TIP3   OH2 6082   7.935   0.912   3.940
 2042TIP3    H1 6083   7.849   0.870   3.948
 2042TIP3    H2 6084   7.915   1.005   3.926
 2043TIP3   OH2 6085   7.348   3.921   6.663
 2043TIP3    H1 6086   7.389   3.894   6.746
 2043TIP3    H2 6087   7.416   3.908   6.598
 2044TIP3   OH2 6088   6.277   5.268   0.656
 2044TIP3    H1 6089   6.331   5.320   0.596
 2044TIP3    H2 6090   6.187   5.294   0.636
 2045TIP3   OH2 6091   6.468   1.101   4.557
 2045TIP3    H1 6092   6.401   1.088   4.490
 2045TIP3    H2 6093   6.420   1.138   4.632
 2046TIP3   OH2 6094   8.079   3.602   4.940
 2046TIP3    H1 6095   8.115   3.592   4.852
 2046TIP3    H2 6096   8.086   3.515   4.979
 2047TIP3   OH2 6097   4.804   4.510   6.697
 2047TIP3    H1 6098   4.842   4.461   6.624
 2047TIP3    H2 6099   4.878   4.552   6.740
 2048TIP3   OH2 6100   1.691   0.044   4.705
 2048TIP3    H1 6101   1.658   0.121   4.659
 2048TIP3    H2 6102   1.624   0.025   4.771
 2049TIP3   OH2 6103   4.995   0.243   1.838
 2049TIP3    H1 6104   5.041   0.163   1.813
 2049TIP3    H2 6105   5.065   0.303   1.864
 2050TIP3   OH2 6106   3.917   0.217   0.180
 2050TIP3    H1 6107   3.894   0.269   0.257
 2050TIP3    H2 6108   3.873   0.134   0.193
 2051TIP3   OH2 6109   6.803   3.363   2.049
 2051TIP3    H1 6110   6.786   3.347   2.142
 2051TIP3    H2 6111   6.790   3.458   2.039
 2052TIP3   OH2 6112   6.968   2.043   3.205
 2052TIP3    H1 6113   7.052   2.022   3.164
 2052TIP3    H2 6114   6.985   2.124   3.253
 2053TIP3   OH2 6115   7.121   3.800   4.866
 2053TIP3    H1 6116   7.199   3.853   4.881
 2053TIP3    H2 6117   7.110   3.800   4.770
 2054TIP3   OH2 6118   8.198   0.523   3.947
 2054TIP3    H1 6119   8.289   0.537   3.973
 2054TIP3    H2 6120   8.173   0.605   3.905
 2055TIP3   OH2 6121   2.974   4.914   0.983
 2055TIP3    H1 6122   2.934   4.999   0.966
 2055TIP3    H2 6123   3.068   4.931   0.981
 2056TIP3   OH2 6124   4.637   2.536   3.903
 2056TIP3    H1 6125   4.563   2.592   3.878
 2056TIP3    H2 6126   4.713   2.577   3.862
 2057TIP3   OH2 6127   7.013   3.396   2.563
 2057TIP3    H1 6128   7.047   3.486   2.561
 2057TIP3    H2 6129   6.938   3.400   2.623
 2058TIP3   OH2 6130   7.305   7.644   3.801
 2058TIP3    H1 6131   7.254   7.655   3.721
 2058TIP3    H2 6132   7.258   7.694   3.868
 2059TIP3   OH2 6133   3.333   0.761   1.485
 2059TIP3    H1 6134   3.274   0.824   1.524
 2059TIP3    H2 6135   3.341   0.691   1.550
 2060TIP3   OH2 6136   3.356   0.244   0.008
 2060TIP3    H1 6137   3.450   0.254   0.025
 2060TIP3    H2 6138   3.315   0.251   0.095
 2061TIP3   OH2 6139   7.766   2.694   1.060
 2061TIP3    H1 6140   7.702   2.726   1.124
 2061TIP3    H2 6141   7.844   2.677   1.112
 2062TIP3   OH2 6142   3.574   5.890   1.038
 2062TIP3    H1 6143   3.515   5.936   1.097
 2062TIP3    H2 6144   3.549   5.798   1.046
 2063TIP3   OH2 6145   1.321   4.460   5.910
 2063TIP3    H1 6146   1.314   4.371   5.874
 2063TIP3    H2 6147   1.279   4.516   5.844
 2064TIP3   OH2 6148   0.458   5.708   6.251
 2064TIP3    H1 6149   0.405   5.748   6.320
 2064TIP3    H2 6150   0.415   5.624   6.234
 2065TIP3   OH2 6151   5.761   2.257   2.605
 2065TIP3    H1 6152   5.856   2.258   2.592
 2065TIP3    H2 6153   5.726   2.295   2.525
 2066TIP3   OH2 6154   4.340   3.836   0.690
 2066TIP3    H1 6155   4.382   3.776   0.752
 2066TIP3    H2 6156   4.318   3.781   0.615
 2067TIP3   OH2 6157   0.335   2.938   4.454
 2067TIP3    H1 6158   0.360   2.889   4.376
 2067TIP3    H2 6159   0.241   2.951   4.446
 2068TIP3   OH2 6160   2.748   7.541   3.563
 2068TIP3    H1 6161   2.834   7.558   3.525
 2068TIP3    H2 6162   2.742   7.445   3.566
 2069TIP3   OH2 6163   0.997   3.814   5.676
 2069TIP3    H1 6164   0.916   3.822   5.627
 2069TIP3    H2 6165   1.054   3.762   5.620
 2070TIP3   OH2 6166   7.535   1.026   6.393
 2070TIP3    H1 6167   7.510   1.108   6.351
 2070TIP3    H2 6168   7.602   0.990   6.335
 2071TIP3   OH2 6169   0.220   3.820   0.665
 2071TIP3    H1 6170   0.136   3.857   0.689
 2071TIP3    H2 6171   0.276   3.835   0.742
 2072TIP3   OH2 6172   3.546   4.604   6.618
 2072TIP3    H1 6173   3.569   4.518   6.654
 2072TIP3    H2 6174   3.580   4.667   6.683
 2073TIP3   OH2 6175   8.132   1.280   0.921
 2073TIP3    H1 6176   8.202   1.339   0.949
 2073TIP3    H2 6177   8.153   1.197   0.965
 2074TIP3   OH2 6178   4.596   7.768   5.172
 2074TIP3    H1 6179   4.652   7.804   5.103
 2074TIP3    H2 6180   4.560   7.845   5.216
 2075TIP3   OH2 6181   4.817   5.433   1.133
 2075TIP3    H1 6182   4.900   5.390   1.158
 2075TIP3    H2 6183   4.830   5.524   1.157
 2076TIP3   OH2 6184   5.296   7.484   1.684
 2076TIP3    H1 6185   5.379   7.526   1.709
 2076TIP3    H2 6186   5.317   7.390   1.683
 2077TIP3   OH2 6187   6.814   1.372   2.397
 2077TIP3    H1 6188   6.737   1.429   2.393
 2077TIP3    H2 6189   6.859   1.397   2.477
 2078TIP3   OH2 6190   0.213   6.381   2.727
 2078TIP3    H1 6191   0.251   6.389   2.639
 2078TIP3    H2 6192   0.281   6.337   2.778
 2079TIP3   OH2 6193   1.286   1.657   2.570
 2079TIP3    H1 6194   1.252   1.602   2.500
 2079TIP3    H2 6195   1.301   1.598   2.643
 2080TIP3   OH2 6196   2.075   1.987   3.721
 2080TIP3    H1 6197   2.091   2.074   3.757
 2080TIP3    H2 6198   2.049   2.002   3.630
 2081TIP3   OH2 6199   6.377   0.365   1.789
 2081TIP3    H1 6200   6.325   0.390   1.865
 2081TIP3    H2 6201   6.358   0.432   1.723
 2082TIP3   OH2 6202   7.543   3.670   1.667
 2082TIP3    H1 6203   7.580   3.647   1.753
 2082TIP3    H2 6204   7.539   3.586   1.620
 2083TIP3   OH2 6205   4.959   2.422   4.296
 2083TIP3    H1 6206   4.989   2.344   4.343
 2083TIP3    H2 6207   4.934   2.390   4.209
 2084TIP3   OH2 6208   3.771   2.808   4.139
 2084TIP3    H1 6209   3.851   2.763   4.164
 2084TIP3    H2 6210   3.703   2.741   4.143
 2085TIP3   OH2 6211   1.015   6.572   0.621
 2085TIP3    H1 6212   0.982   6.533   0.702
 2085TIP3    H2 6213   0.939   6.615   0.581
 2086TIP3   OH2 6214   4.155   3.202   1.931
 2086TIP3    H1 6215   4.143   3.270   1.997
 2086TIP3    H2 6216   4.242   3.218   1.895
 2087TIP3   OH2 6217   6.174   0.380   3.062
 2087TIP3    H1 6218   6.163   0.472   3.087
 2087TIP3    H2 6219   6.094   0.359   3.013
 2088TIP3   OH2 6220   2.336   6.412   5.939
 2088TIP3    H1 6221   2.407   6.437   5.879
 2088TIP3    H2 6222   2.344   6.474   6.011
 2089TIP3   OH2 6223   6.257   1.064   1.051
 2089TIP3    H1 6224   6.241   0.970   1.055
 2089TIP3    H2 6225   6.348   1.073   1.023
 2090TIP3   OH2 6226   2.087   1.124   3.429
 2090TIP3    H1 6227   2.112   1.036   3.457
 2090TIP3    H2 6228   2.025   1.153   3.496
 2091TIP3   OH2 6229   6.437   7.189   2.936
 2091TIP3    H1 6230   6.501   7.122   2.914
 2091TIP3    H2 6231   6.381   7.149   3.002
 2092TIP3   OH2 6232   4.780   1.748   1.360
 2092TIP3    H1 6233   4.800   1.663   1.320
 2092TIP3    H2 6234   4.752   1.802   1.287
 2093TIP3   OH2 6235   3.687   5.532   4.859
 2093TIP3    H1 6236   3.694   5.457   4.800
 2093TIP3    H2 6237   3.774   5.540   4.899
 2094TIP3   OH2 6238   7.917   7.374   1.980
 2094TIP3    H1 6239   7.936   7.280   1.977
 2094TIP3    H2 6240   7.959   7.405   2.060
 2095TIP3   OH2 6241   4.463   3.130   5.272
 2095TIP3    H1 6242   4.409   3.208   5.258
 2095TIP3    H2 6243   4.401   3.057   5.274
 2096TIP3   OH2 6244   0.814   3.272   4.644
 2096TIP3    H1 6245   0.749   3.212   4.682
 2096TIP3    H2 6246   0.854   3.314   4.720
 2097TIP3   OH2 6247   0.245   4.545   0.898
 2097TIP3    H1 6248   0.213   4.526   0.986
 2097TIP3    H2 6249   0.314   4.610   0.911
 2098TIP3   OH2 6250   6.273   4.054   0.047
 2098TIP3    H1 6251   6.271   4.100  -0.037
 2098TIP3    H2 6252   6.304   4.120   0.109
 2099TIP3   OH2 6253   4.836   5.328   1.506
 2099TIP3    H1 6254   4.869   5.415   1.527
 2099TIP3    H2 6255   4.911   5.284   1.466
 2100TIP3   OH2 6256   7.211   4.891   3.770
 2100TIP3    H1 6257   7.138   4.863   3.715
 2100TIP3    H2 6258   7.282   4.829   3.750
 2101TIP3   OH2 6259   3.875   4.433   4.422
 2101TIP3    H1 6260   3.920   4.411   4.503
 2101TIP3    H2 6261   3.943   4.469   4.365
 2102TIP3   OH2 6262   3.972   7.823   2.542
 2102TIP3    H1 6263   3.968   7.883   2.616
 2102TIP3    H2 6264   3.916   7.750   2.567
 2103TIP3   OH2 6265   0.934   1.394   2.820
 2103TIP3    H1 6266   0.970   1.350   2.742
 2103TIP3    H2 6267   0.931   1.486   2.796
 2104TIP3   OH2 6268   4.959   2.865   5.542
 2104TIP3    H1 6269   4.969   2.772   5.561
 2104TIP3    H2 6270   5.037   2.907   5.579
 2105TIP3   OH2 6271   5.962   5.444   0.033
 2105TIP3    H1 6272   5.904   5.514   0.065
 2105TIP3    H2 6273   5.981   5.469  -0.057
 2106TIP3   OH2 6274   7.991   2.152   5.298
 2106TIP3    H1 6275   8.054   2.080   5.301
 2106TIP3    H2 6276   7.906   2.110   5.312
 2107TIP3   OH2 6277   3.703   4.466   6.354
 2107TIP3    H1 6278   3.782   4.451   6.303
 2107TIP3    H2 6279   3.734   4.501   6.438
 2108TIP3   OH2 6280   6.787   1.170   1.373
 2108TIP3    H1 6281   6.792   1.173   1.277
 2108TIP3    H2 6282   6.858   1.111   1.398
 2109TIP3   OH2 6283   4.763   5.617   5.570
 2109TIP3    H1 6284   4.723   5.652   5.649
 2109TIP3    H2 6285   4.702   5.640   5.500
 2110TIP3   OH2 6286   6.416   0.115   1.914
 2110TIP3    H1 6287   6.404   0.200   1.872
 2110TIP3    H2 6288   6.388   0.130   2.005
 2111TIP3   OH2 6289   1.082   5.837   1.727
 2111TIP3    H1 6290   1.170   5.800   1.735
 2111TIP3    H2 6291   1.034   5.801   1.801
 2112TIP3   OH2 6292   7.983   1.644   2.162
 2112TIP3    H1 6293   8.043   1.641   2.236
 2112TIP3    H2 6294   7.929   1.566   2.172
 2113TIP3   OH2 6295   0.613   4.182   4.320
 2113TIP3    H1 6296   0.580   4.146   4.402
 2113TIP3    H2 6297   0.708   4.177   4.329
 2114TIP3   OH2 6298   3.520   7.565   5.968
 2114TIP3    H1 6299   3.588   7.561   6.034
 2114TIP3    H2 6300   3.442   7.596   6.015
 2115TIP3   OH2 6301   6.934   2.803   4.786
 2115TIP3    H1 6302   7.000   2.842   4.843
 2115TIP3    H2 6303   6.981   2.735   4.737
 2116TIP3   OH2 6304   5.177   2.203   5.046
 2116TIP3    H1 6305   5.130   2.151   4.982
 2116TIP3    H2 6306   5.121   2.201   5.124
 2117TIP3   OH2 6307   5.711   2.713   3.391
 2117TIP3    H1 6308   5.772   2.783   3.370
 2117TIP3    H2 6309   5.638   2.756   3.436
 2118TIP3   OH2 6310   2.244   5.672   2.122
 2118TIP3    H1 6311   2.284   5.626   2.048
 2118TIP3    H2 6312   2.245   5.764   2.096
 2119TIP3   OH2 6313   1.076   2.420   6.162
 2119TIP3    H1 6314   1.035   2.411   6.076
 2119TIP3    H2 6315   1.117   2.506   6.160
 2120TIP3   OH2 6316   4.868   1.810   2.695
 2120TIP3    H1 6317   4.947   1.755   2.697
 2120TIP3    H2 6318   4.856   1.837   2.786
 2121TIP3   OH2 6319   1.200   6.176   3.337
 2121TIP3    H1 6320   1.259   6.102   3.352
 2121TIP3    H2 6321   1.257   6.248   3.311
 2122TIP3   OH2 6322   8.057   1.873   0.424
 2122TIP3    H1 6323   8.062   1.927   0.502
 2122TIP3    H2 6324   8.144   1.879   0.384
 2123TIP3   OH2 6325   1.681   0.772   1.765
 2123TIP3    H1 6326   1.772   0.743   1.761
 2123TIP3    H2 6327   1.679   0.850   1.709
 2124TIP3   OH2 6328   3.294   0.377   6.208
 2124TIP3    H1 6329   3.293   0.305   6.145
 2124TIP3    H2 6330   3.351   0.345   6.279
 2125TIP3   OH2 6331   0.020   7.201   2.547
 2125TIP3    H1 6332   0.077   7.275   2.526
 2125TIP3    H2 6333  -0.068   7.239   2.551
 2126TIP3   OH2 6334   1.819   3.560   3.096
 2126TIP3    H1 6335   1.841   3.474   3.060
 2126TIP3    H2 6336   1.892   3.582   3.153
 2127TIP3   OH2 6337   5.694   1.483   1.534
 2127TIP3    H1 6338   5.775   1.466   1.486
 2127TIP3    H2 6339   5.626   1.485   1.467
 2128TIP3   OH2 6340   1.468   6.846   5.256
 2128TIP3    H1 6341   1.498   6.781   5.319
 2128TIP3    H2 6342   1.422   6.911   5.308
 2129TIP3   OH2 6343   0.398   1.056   3.983
 2129TIP3    H1 6344   0.338   0.991   4.019
 2129TIP3    H2 6345   0.372   1.065   3.892
 2130TIP3   OH2 6346   3.685   4.526   1.163
 2130TIP3    H1 6347   3.603   4.478   1.153
 2130TIP3    H2 6348   3.679   4.565   1.250
 2131TIP3   OH2 6349   4.752   2.593   0.431
 2131TIP3    H1 6350   4.749   2.561   0.341
 2131TIP3    H2 6351   4.774   2.686   0.422
 2132TIP3   OH2 6352   3.015   1.284   4.415
 2132TIP3    H1 6353   2.937   1.322   4.456
 2132TIP3    H2 6354   3.087   1.341   4.441
 2133TIP3   OH2 6355   5.884   0.493   5.824
 2133TIP3    H1 6356   5.913   0.548   5.897
 2133TIP3    H2 6357   5.964   0.457   5.787
 2134TIP3   OH2 6358   0.785   4.836   4.266
 2134TIP3    H1 6359   0.831   4.793   4.194
 2134TIP3    H2 6360   0.768   4.924   4.233
 2135TIP3   OH2 6361   5.924   0.759   0.593
 2135TIP3    H1 6362   5.868   0.791   0.523
 2135TIP3    H2 6363   5.953   0.673   0.564
 2136TIP3   OH2 6364   2.706   7.797   5.069
 2136TIP3    H1 6365   2.744   7.852   5.001
 2136TIP3    H2 6366   2.781   7.758   5.114
 2137TIP3   OH2 6367   0.083   5.756   1.643
 2137TIP3    H1 6368   0.034   5.837   1.624
 2137TIP3    H2 6369   0.170   5.771   1.606
 2138TIP3   OH2 6370   7.620   0.406   4.181
 2138TIP3    H1 6371   7.624   0.491   4.138
 2138TIP3    H2 6372   7.685   0.411   4.251
 2139TIP3   OH2 6373   4.230   4.596   3.033
 2139TIP3    H1 6374   4.214   4.665   2.968
 2139TIP3    H2 6375   4.149   4.593   3.084
 2140TIP3   OH2 6376   2.661   7.647   3.926
 2140TIP3    H1 6377   2.681   7.709   3.995
 2140TIP3    H2 6378   2.736   7.588   3.925
 2141TIP3   OH2 6379   4.472   0.909   5.685
 2141TIP3    H1 6380   4.425   0.991   5.700
 2141TIP3    H2 6381   4.427   0.845   5.741
 2142TIP3   OH2 6382   2.000   0.261   4.797
 2142TIP3    H1 6383   1.980   0.316   4.721
 2142TIP3    H2 6384   2.075   0.208   4.769
 2143TIP3   OH2 6385   7.561   4.791   3.058
 2143TIP3    H1 6386   7.638   4.741   3.087
 2143TIP3    H2 6387   7.556   4.774   2.964
 2144TIP3   OH2 6388   0.481   7.333   6.662
 2144TIP3    H1 6389   0.412   7.295   6.608
 2144TIP3    H2 6390   0.485   7.425   6.635
 2145TIP3   OH2 6391   3.790   1.227   2.125
 2145TIP3    H1 6392   3.802   1.136   2.154
 2145TIP3    H2 6393   3.697   1.233   2.105
 2146TIP3   OH2 6394   0.341   7.443   4.667
 2146TIP3    H1 6395   0.312   7.384   4.737
 2146TIP3    H2 6396   0.408   7.394   4.620
 2147TIP3   OH2 6397   5.039   1.475   1.015
 2147TIP3    H1 6398   4.950   1.451   0.987
 2147TIP3    H2 6399   5.047   1.567   0.991
 2148TIP3   OH2 6400   6.398   1.692   4.353
 2148TIP3    H1 6401   6.434   1.609   4.382
 2148TIP3    H2 6402   6.343   1.722   4.425
 2149TIP3   OH2 6403   4.942   2.301   3.351
 2149TIP3    H1 6404   4.995   2.232   3.311
 2149TIP3    H2 6405   4.997   2.379   3.347
 2150TIP3   OH2 6406   5.832   7.807   0.039
 2150TIP3    H1 6407   5.888   7.857  -0.019
 2150TIP3    H2 6408   5.837   7.717   0.007
 2151TIP3   OH2 6409   4.014   4.645   1.033
 2151TIP3    H1 6410   3.939   4.610   0.985
 2151TIP3    H2 6411   4.025   4.585   1.107
 2152TIP3   OH2 6412   6.322   0.417   6.770
 2152TIP3    H1 6413   6.404   0.464   6.780
 2152TIP3    H2 6414   6.286   0.449   6.687
 2153TIP3   OH2 6415   3.303   1.799   3.419
 2153TIP3    H1 6416   3.313   1.893   3.404
 2153TIP3    H2 6417   3.359   1.780   3.494
 2154TIP3   OH2 6418   5.900   2.181   3.337
 2154TIP3    H1 6419   5.905   2.276   3.347
 2154TIP3    H2 6420   5.989   2.154   3.314
 2155TIP3   OH2 6421   3.290   7.196   3.539
 2155TIP3    H1 6422   3.195   7.204   3.542
 2155TIP3    H2 6423   3.306   7.105   3.513
 2156TIP3   OH2 6424   0.175   3.489   1.697
 2156TIP3    H1 6425   0.188   3.537   1.779
 2156TIP3    H2 6426   0.101   3.534   1.655
 2157TIP3   OH2 6427   7.887   4.145   5.631
 2157TIP3    H1 6428   7.906   4.228   5.675
 2157TIP3    H2 6429   7.797   4.152   5.602
 2158TIP3   OH2 6430   1.155   0.348   2.920
 2158TIP3    H1 6431   1.164   0.443   2.927
 2158TIP3    H2 6432   1.106   0.323   2.998
 2159TIP3   OH2 6433   3.688   0.806   4.435
 2159TIP3    H1 6434   3.783   0.804   4.435
 2159TIP3    H2 6435   3.663   0.780   4.346
 2160TIP3   OH2 6436   2.961   3.642   0.252
 2160TIP3    H1 6437   2.888   3.585   0.228
 2160TIP3    H2 6438   2.935   3.680   0.336
 2161TIP3   OH2 6439   2.565   4.891   0.953
 2161TIP3    H1 6440   2.533   4.925   0.869
 2161TIP3    H2 6441   2.532   4.801   0.956
 2162TIP3   OH2 6442   2.128   4.998   6.311
 2162TIP3    H1 6443   2.064   4.960   6.250
 2162TIP3    H2 6444   2.079   5.012   6.392
 2163TIP3   OH2 6445   3.010   5.533   0.183
 2163TIP3    H1 6446   3.025   5.442   0.157
 2163TIP3    H2 6447   3.060   5.585   0.119
 2164TIP3   OH2 6448   6.993   0.556   2.559
 2164TIP3    H1 6449   7.026   0.488   2.500
 2164TIP3    H2 6450   6.943   0.614   2.502
 2165TIP3   OH2 6451   3.264   0.967   2.070
 2165TIP3    H1 6452   3.251   1.034   2.137
 2165TIP3    H2 6453   3.238   1.010   1.988
 2166TIP3   OH2 6454   5.515   3.226   6.618
 2166TIP3    H1 6455   5.544   3.244   6.708
 2166TIP3    H2 6456   5.556   3.142   6.597
 2167TIP3   OH2 6457   2.242   1.300   1.223
 2167TIP3    H1 6458   2.194   1.383   1.221
 2167TIP3    H2 6459   2.335   1.326   1.225
 2168TIP3   OH2 6460   0.609   1.599   4.840
 2168TIP3    H1 6461   0.652   1.614   4.756
 2168TIP3    H2 6462   0.674   1.551   4.892
 2169TIP3   OH2 6463   5.246   0.071   3.989
 2169TIP3    H1 6464   5.281   0.049   3.903
 2169TIP3    H2 6465   5.316   0.122   4.030
 2170TIP3   OH2 6466   3.404   5.298   4.043
 2170TIP3    H1 6467   3.430   5.391   4.044
 2170TIP3    H2 6468   3.408   5.273   3.951
 2171TIP3   OH2 6469   1.803   0.132   0.870
 2171TIP3    H1 6470   1.721   0.178   0.884
 2171TIP3    H2 6471   1.862   0.167   0.938
 2172TIP3   OH2 6472   7.820   4.124   1.861
 2172TIP3    H1 6473   7.859   4.039   1.842
 2172TIP3    H2 6474   7.888   4.172   1.908
 2173TIP3   OH2 6475   4.378   2.742   5.943
 2173TIP3    H1 6476   4.406   2.782   6.026
 2173TIP3    H2 6477   4.380   2.648   5.961
 2174TIP3   OH2 6478   1.475   5.354   0.182
 2174TIP3    H1 6479   1.570   5.367   0.182
 2174TIP3    H2 6480   1.443   5.410   0.111
 2175TIP3   OH2 6481   3.854   5.767   1.381
 2175TIP3    H1 6482   3.908   5.734   1.309
 2175TIP3    H2 6483   3.793   5.696   1.400
 2176TIP3   OH2 6484   5.522   5.609   5.282
 2176TIP3    H1 6485   5.451   5.593   5.344
 2176TIP3    H2 6486   5.478   5.624   5.198
 2177TIP3   OH2 6487   3.893   6.441   1.102
 2177TIP3    H1 6488   3.957   6.380   1.067
 2177TIP3    H2 6489   3.824   6.385   1.140
 2178TIP3   OH2 6490   0.205   4.515   6.365
 2178TIP3    H1 6491   0.179   4.507   6.456
 2178TIP3    H2 6492   0.201   4.608   6.346
 2179TIP3   OH2 6493   3.252   6.500   3.316
 2179TIP3    H1 6494   3.301   6.580   3.298
 2179TIP3    H2 6495   3.160   6.529   3.321
 2180TIP3   OH2 6496   2.120   1.006   6.205
 2180TIP3    H1 6497   2.047   1.063   6.181
 2180TIP3    H2 6498   2.176   1.060   6.261
 2181TIP3   OH2 6499   5.878   7.806   1.213
 2181TIP3    H1 6500   5.831   7.801   1.129
 2181TIP3    H2 6501   5.930   7.726   1.216
 2182TIP3   OH2 6502   2.948   7.078   5.370
 2182TIP3    H1 6503   3.014   7.118   5.427
 2182TIP3    H2 6504   2.996   7.055   5.290
 2183TIP3   OH2 6505   0.111   0.371   6.774
 2183TIP3    H1 6506   0.206   0.376   6.780
 2183TIP3    H2 6507   0.091   0.381   6.680
 2184TIP3   OH2 6508   2.256   0.433   6.609
 2184TIP3    H1 6509   2.189   0.366   6.596
 2184TIP3    H2 6510   2.266   0.474   6.523
 2185TIP3   OH2 6511   7.743   3.014   6.543
 2185TIP3    H1 6512   7.663   2.973   6.510
 2185TIP3    H2 6513   7.724   3.108   6.542
 2186TIP3   OH2 6514   0.310   1.469   2.916
 2186TIP3    H1 6515   0.393   1.449   2.871
 2186TIP3    H2 6516   0.244   1.460   2.847
 2187TIP3   OH2 6517   1.971   2.719   1.048
 2187TIP3    H1 6518   2.057   2.678   1.044
 2187TIP3    H2 6519   1.947   2.734   0.956
 2188TIP3   OH2 6520   6.469   1.215   2.459
 2188TIP3    H1 6521   6.497   1.170   2.380
 2188TIP3    H2 6522   6.480   1.150   2.529
 2189TIP3   OH2 6523   1.617   5.912   1.247
 2189TIP3    H1 6524   1.697   5.945   1.288
 2189TIP3    H2 6525   1.546   5.963   1.286
 2190TIP3   OH2 6526   0.420   3.837   6.152
 2190TIP3    H1 6527   0.485   3.870   6.214
 2190TIP3    H2 6528   0.346   3.896   6.161
 2191TIP3   OH2 6529   4.078   3.234   1.274
 2191TIP3    H1 6530   4.129   3.239   1.355
 2191TIP3    H2 6531   4.143   3.237   1.204
 2192TIP3   OH2 6532   4.847   7.508   6.254
 2192TIP3    H1 6533   4.904   7.510   6.331
 2192TIP3    H2 6534   4.766   7.468   6.285
 2193TIP3   OH2 6535   3.836   4.227   4.661
 2193TIP3    H1 6536   3.877   4.297   4.712
 2193TIP3    H2 6537   3.765   4.196   4.716
 2194TIP3   OH2 6538   3.494   3.279   0.474
 2194TIP3    H1 6539   3.465   3.277   0.566
 2194TIP3    H2 6540   3.586   3.254   0.478
 2195TIP3   OH2 6541   5.785   2.832   4.664
 2195TIP3    H1 6542   5.703   2.796   4.697
 2195TIP3    H2 6543   5.768   2.925   4.651
 2196TIP3   OH2 6544   4.733   0.332   3.044
 2196TIP3    H1 6545   4.789   0.407   3.026
 2196TIP3    H2 6546   4.792   0.256   3.042
 2197TIP3   OH2 6547   4.197   2.244   1.167
 2197TIP3    H1 6548   4.210   2.311   1.099
 2197TIP3    H2 6549   4.233   2.282   1.246
 2198TIP3   OH2 6550   8.187   0.784   5.751
 2198TIP3    H1 6551   8.094   0.793   5.729
 2198TIP3    H2 6552   8.232   0.786   5.667
 2199TIP3   OH2 6553   2.292   2.266   0.623
 2199TIP3    H1 6554   2.366   2.205   0.619
 2199TIP3    H2 6555   2.266   2.267   0.715
 2200TIP3   OH2 6556   1.620   3.040   5.318
 2200TIP3    H1 6557   1.707   3.005   5.298
 2200TIP3    H2 6558   1.637   3.119   5.369
 2201TIP3   OH2 6559   5.118   4.325   1.646
 2201TIP3    H1 6560   5.188   4.266   1.618
 2201TIP3    H2 6561   5.109   4.387   1.574
 2202TIP3   OH2 6562   0.411   3.184   1.909
 2202TIP3    H1 6563   0.437   3.109   1.855
 2202TIP3    H2 6564   0.475   3.252   1.889
 2203TIP3   OH2 6565   7.766   4.617   3.123
 2203TIP3    H1 6566   7.767   4.535   3.172
 2203TIP3    H2 6567   7.776   4.590   3.032
 2204TIP3   OH2 6568   2.125   4.738   1.282
 2204TIP3    H1 6569   2.158   4.824   1.256
 2204TIP3    H2 6570   2.189   4.676   1.247
 2205TIP3   OH2 6571   4.343   2.481   5.497
 2205TIP3    H1 6572   4.313   2.465   5.587
 2205TIP3    H2 6573   4.407   2.552   5.505
 2206TIP3   OH2 6574   3.133   2.118   2.112
 2206TIP3    H1 6575   3.070   2.060   2.156
 2206TIP3    H2 6576   3.134   2.197   2.167
 2207TIP3   OH2 6577   2.329   0.197   2.007
 2207TIP3    H1 6578   2.397   0.258   2.035
 2207TIP3    H2 6579   2.270   0.251   1.953
 2208TIP3   OH2 6580   4.288   3.636   4.408
 2208TIP3    H1 6581   4.256   3.711   4.357
 2208TIP3    H2 6582   4.378   3.624   4.378
 2209TIP3   OH2 6583   7.643   5.085   0.520
 2209TIP3    H1 6584   7.694   5.007   0.501
 2209TIP3    H2 6585   7.681   5.119   0.601
 2210TIP3   OH2 6586   7.954   1.097   6.346
 2210TIP3    H1 6587   7.867   1.085   6.307
 2210TIP3    H2 6588   7.979   1.010   6.377
 2211TIP3   OH2 6589   4.325   1.531   5.290
 2211TIP3    H1 6590   4.328   1.575   5.205
 2211TIP3    H2 6591   4.408   1.483   5.295
 2212TIP3   OH2 6592   3.743   7.036   3.465
 2212TIP3    H1 6593   3.824   7.068   3.504
 2212TIP3    H2 6594   3.763   6.947   3.436
 2213TIP3   OH2 6595   1.675   3.684   6.103
 2213TIP3    H1 6596   1.623   3.604   6.109
 2213TIP3    H2 6597   1.622   3.751   6.148
 2214TIP3   OH2 6598   6.843   5.319   0.270
 2214TIP3    H1 6599   6.876   5.319   0.180
 2214TIP3    H2 6600   6.921   5.319   0.324
 2215TIP3   OH2 6601   7.482   1.151   4.339
 2215TIP3    H1 6602   7.435   1.172   4.258
 2215TIP3    H2 6603   7.447   1.066   4.366
 2216TIP3   OH2 6604   3.684   7.192   5.468
 2216TIP3    H1 6605   3.776   7.192   5.439
 2216TIP3    H2 6606   3.689   7.171   5.562
 2217TIP3   OH2 6607   4.094   4.135   3.635
 2217TIP3    H1 6608   4.029   4.156   3.702
 2217TIP3    H2 6609   4.146   4.215   3.626
 2218TIP3   OH2 6610   8.279   7.683   5.440
 2218TIP3    H1 6611   8.233   7.685   5.524
 2218TIP3    H2 6612   8.279   7.775   5.411
 2219TIP3   OH2 6613   6.449   3.736   4.737
 2219TIP3    H1 6614   6.410   3.820   4.713
 2219TIP3    H2 6615   6.527   3.759   4.786
 2220TIP3   OH2 6616   3.965   0.818   4.879
 2220TIP3    H1 6617   3.956   0.832   4.974
 2220TIP3    H2 6618   3.914   0.739   4.862
 2221TIP3   OH2 6619   2.657   1.743   0.772
 2221TIP3    H1 6620   2.575   1.695   0.783
 2221TIP3    H2 6621   2.725   1.681   0.798
 2222TIP3   OH2 6622   4.149   4.270   5.604
 2222TIP3    H1 6623   4.099   4.197   5.566
 2222TIP3    H2 6624   4.105   4.349   5.572
 2223TIP3   OH2 6625   4.569   2.292   1.700
 2223TIP3    H1 6626   4.654   2.337   1.705
 2223TIP3    H2 6627   4.551   2.287   1.606
 2224TIP3   OH2 6628   1.682   2.840   1.745
 2224TIP3    H1 6629   1.748   2.885   1.797
 2224TIP3    H2 6630   1.635   2.786   1.809
 2225TIP3   OH2 6631   3.029   0.730   1.310
 2225TIP3    H1 6632   3.113   0.773   1.328
 2225TIP3    H2 6633   2.999   0.769   1.228
 2226TIP3   OH2 6634   4.246   2.713   6.498
 2226TIP3    H1 6635   4.330   2.666   6.490
 2226TIP3    H2 6636   4.251   2.757   6.583
 2227TIP3   OH2 6637   5.992   1.484   3.582
 2227TIP3    H1 6638   5.911   1.471   3.631
 2227TIP3    H2 6639   5.963   1.513   3.495
 2228TIP3   OH2 6640   0.299   0.411   2.013
 2228TIP3    H1 6641   0.224   0.420   2.072
 2228TIP3    H2 6642   0.270   0.348   1.946
 2229TIP3   OH2 6643   4.936   0.505   4.385
 2229TIP3    H1 6644   4.862   0.497   4.326
 2229TIP3    H2 6645   4.912   0.575   4.446
 2230TIP3   OH2 6646   4.787   4.811   6.562
 2230TIP3    H1 6647   4.828   4.731   6.529
 2230TIP3    H2 6648   4.693   4.790   6.562
 2231TIP3   OH2 6649   2.083   1.724   2.357
 2231TIP3    H1 6650   2.143   1.652   2.375
 2231TIP3    H2 6651   2.128   1.802   2.391
 2232TIP3   OH2 6652   4.630   4.217   4.922
 2232TIP3    H1 6653   4.724   4.228   4.906
 2232TIP3    H2 6654   4.595   4.188   4.838
 2233TIP3   OH2 6655   0.459   1.972   4.246
 2233TIP3    H1 6656   0.424   1.906   4.185
 2233TIP3    H2 6657   0.429   1.943   4.332
 2234TIP3   OH2 6658   6.079   7.356   1.661
 2234TIP3    H1 6659   6.104   7.410   1.586
 2234TIP3    H2 6660   6.004   7.305   1.629
 2235TIP3   OH2 6661   5.132   4.921   6.519
 2235TIP3    H1 6662   5.061   4.975   6.484
 2235TIP3    H2 6663   5.105   4.831   6.502
 2236TIP3   OH2 6664   4.012   0.240   6.452
 2236TIP3    H1 6665   3.939   0.266   6.508
 2236TIP3    H2 6666   4.074   0.313   6.457
 2237TIP3   OH2 6667   2.286   4.587   4.198
 2237TIP3    H1 6668   2.281   4.581   4.103
 2237TIP3    H2 6669   2.241   4.669   4.219
 2238TIP3   OH2 6670   1.705   7.080   6.331
 2238TIP3    H1 6671   1.623   7.105   6.373
 2238TIP3    H2 6672   1.684   6.997   6.287
 2239TIP3   OH2 6673   7.007   5.578   5.455
 2239TIP3    H1 6674   6.980   5.594   5.545
 2239TIP3    H2 6675   7.091   5.533   5.463
 2240TIP3   OH2 6676   3.985   5.091   5.782
 2240TIP3    H1 6677   3.902   5.055   5.814
 2240TIP3    H2 6678   4.000   5.047   5.698
 2241TIP3   OH2 6679   3.850   6.829   6.598
 2241TIP3    H1 6680   3.819   6.899   6.656
 2241TIP3    H2 6681   3.919   6.870   6.546
 2242TIP3   OH2 6682   6.930   1.934   4.239
 2242TIP3    H1 6683   6.856   1.879   4.264
 2242TIP3    H2 6684   6.890   2.012   4.201
 2243TIP3   OH2 6685   2.989   1.914   2.219
 2243TIP3    H1 6686   2.900   1.912   2.255
 2243TIP3    H2 6687   3.020   1.824   2.228
 2244TIP3   OH2 6688   0.752   2.155   3.988
 2244TIP3    H1 6689   0.733   2.096   3.914
 2244TIP3    H2 6690   0.667   2.188   4.015
 2245TIP3   OH2 6691   5.912   3.123   6.447
 2245TIP3    H1 6692   5.980   3.132   6.380
 2245TIP3    H2 6693   5.951   3.067   6.514
 2246TIP3   OH2 6694   1.072   0.245   4.923
 2246TIP3    H1 6695   1.066   0.282   4.834
 2246TIP3    H2 6696   1.005   0.293   4.972
 2247TIP3   OH2 6697   0.357   2.821   6.010
 2247TIP3    H1 6698   0.390   2.732   6.002
 2247TIP3    H2 6699   0.361   2.857   5.922
 2248TIP3   OH2 6700   1.756   4.279   6.487
 2248TIP3    H1 6701   1.686   4.317   6.434
 2248TIP3    H2 6702   1.732   4.301   6.577
 2249TIP3   OH2 6703   2.447   1.209   2.572
 2249TIP3    H1 6704   2.459   1.115   2.584
 2249TIP3    H2 6705   2.358   1.226   2.603
 2250TIP3   OH2 6706   4.555   7.361   2.136
 2250TIP3    H1 6707   4.490   7.411   2.085
 2250TIP3    H2 6708   4.504   7.290   2.176
 2251TIP3   OH2 6709   5.234   6.659   0.021
 2251TIP3    H1 6710   5.260   6.748   0.044
 2251TIP3    H2 6711   5.154   6.670  -0.031
 2252TIP3   OH2 6712   8.251   1.465   4.007
 2252TIP3    H1 6713   8.212   1.507   3.931
 2252TIP3    H2 6714   8.195   1.389   4.025
 2253TIP3   OH2 6715   0.838   3.799   0.618
 2253TIP3    H1 6716   0.792   3.883   0.618
 2253TIP3    H2 6717   0.769   3.734   0.607
 2254TIP3   OH2 6718   7.794   4.964   1.431
 2254TIP3    H1 6719   7.868   5.026   1.431
 2254TIP3    H2 6720   7.833   4.880   1.451
 2255TIP3   OH2 6721   3.930   4.395   3.618
 2255TIP3    H1 6722   3.920   4.471   3.560
 2255TIP3    H2 6723   3.932   4.432   3.706
 2256TIP3   OH2 6724   6.138   3.549   6.542
 2256TIP3    H1 6725   6.119   3.554   6.636
 2256TIP3    H2 6726   6.053   3.542   6.500
 2257TIP3   OH2 6727   0.928   2.072   2.255
 2257TIP3    H1 6728   0.903   2.005   2.192
 2257TIP3    H2 6729   0.998   2.032   2.307
 2258TIP3   OH2 6730   8.149   1.905   3.279
 2258TIP3    H1 6731   8.229   1.858   3.300
 2258TIP3    H2 6732   8.164   1.941   3.191
 2259TIP3   OH2 6733   1.528   0.740   4.255
 2259TIP3    H1 6734   1.445   0.695   4.237
 2259TIP3    H2 6735   1.593   0.670   4.259
 2260TIP3   OH2 6736   0.330   5.862   2.605
 2260TIP3    H1 6737   0.301   5.945   2.642
 2260TIP3    H2 6738   0.410   5.883   2.557
 2261TIP3   OH2 6739   7.859   0.265   5.868
 2261TIP3    H1 6740   7.931   0.202   5.870
 2261TIP3    H2 6741   7.820   0.254   5.781
 2262TIP3   OH2 6742   0.657   2.376   1.241
 2262TIP3    H1 6743   0.731   2.317   1.227
 2262TIP3    H2 6744   0.686   2.435   1.310
 2263TIP3   OH2 6745   6.717   6.171   1.713
 2263TIP3    H1 6746   6.736   6.103   1.648
 2263TIP3    H2 6747   6.669   6.237   1.664
 2264TIP3   OH2 6748   2.318   4.184   1.408
 2264TIP3    H1 6749   2.304   4.107   1.353
 2264TIP3    H2 6750   2.337   4.149   1.495
 2265TIP3   OH2 6751   2.889   3.828   1.711
 2265TIP3    H1 6752   2.795   3.809   1.704
 2265TIP3    H2 6753   2.927   3.747   1.745
 2266TIP3   OH2 6754   0.820   1.997   0.823
 2266TIP3    H1 6755   0.893   1.949   0.784
 2266TIP3    H2 6756   0.851   2.088   0.828
 2267TIP3   OH2 6757   2.773   2.135   6.486
 2267TIP3    H1 6758   2.716   2.062   6.510
 2267TIP3    H2 6759   2.812   2.164   6.568
 2268TIP3   OH2 6760   8.165   6.341   3.637
 2268TIP3    H1 6761   8.170   6.248   3.660
 2268TIP3    H2 6762   8.246   6.357   3.588
 2269TIP3   OH2 6763   2.255   4.657   2.158
 2269TIP3    H1 6764   2.209   4.589   2.207
 2269TIP3    H2 6765   2.306   4.704   2.224
 2270TIP3   OH2 6766   7.543   0.342   5.168
 2270TIP3    H1 6767   7.518   0.355   5.259
 2270TIP3    H2 6768   7.473   0.382   5.117
 2271TIP3   OH2 6769   3.625   7.658   4.445
 2271TIP3    H1 6770   3.720   7.668   4.451
 2271TIP3    H2 6771   3.611   7.563   4.450
 2272TIP3   OH2 6772   0.301   6.701   4.715
 2272TIP3    H1 6773   0.238   6.741   4.655
 2272TIP3    H2 6774   0.321   6.769   4.778
 2273TIP3   OH2 6775   6.092   3.066   6.240
 2273TIP3    H1 6776   6.086   3.070   6.145
 2273TIP3    H2 6777   6.052   2.982   6.263
 2274TIP3   OH2 6778   5.211   3.116   4.386
 2274TIP3    H1 6779   5.292   3.085   4.426
 2274TIP3    H2 6780   5.238   3.188   4.329
 2275TIP3   OH2 6781   0.350   6.956   4.108
 2275TIP3    H1 6782   0.257   6.972   4.119
 2275TIP3    H2 6783   0.374   6.900   4.182
 2276TIP3   OH2 6784   3.872   7.770   1.155
 2276TIP3    H1 6785   3.797   7.726   1.115
 2276TIP3    H2 6786   3.894   7.714   1.230
 2277TIP3   OH2 6787   0.469   6.696   3.430
 2277TIP3    H1 6788   0.412   6.619   3.424
 2277TIP3    H2 6789   0.415   6.762   3.474
 2278TIP3   OH2 6790   1.415   1.996   1.860
 2278TIP3    H1 6791   1.452   1.958   1.939
 2278TIP3    H2 6792   1.322   2.009   1.881
 2279TIP3   OH2 6793   1.116   4.493   4.785
 2279TIP3    H1 6794   1.076   4.457   4.864
 2279TIP3    H2 6795   1.202   4.523   4.812
 2280TIP3   OH2 6796   2.824   4.240   3.710
 2280TIP3    H1 6797   2.872   4.164   3.744
 2280TIP3    H2 6798   2.737   4.233   3.749
 2281TIP3   OH2 6799   3.809   3.477   5.287
 2281TIP3    H1 6800   3.867   3.484   5.363
 2281TIP3    H2 6801   3.766   3.392   5.298
 2282TIP3   OH2 6802   1.582   1.803   6.136
 2282TIP3    H1 6803   1.635   1.729   6.166
 2282TIP3    H2 6804   1.498   1.766   6.112
 2283TIP3   OH2 6805   1.299   4.225   0.548
 2283TIP3    H1 6806   1.308   4.305   0.497
 2283TIP3    H2 6807   1.311   4.253   0.639
 2284TIP3   OH2 6808   7.531   6.763   6.317
 2284TIP3    H1 6809   7.443   6.799   6.331
 2284TIP3    H2 6810   7.562   6.742   6.405
 2285TIP3   OH2 6811   5.960   3.263   1.271
 2285TIP3    H1 6812   6.036   3.316   1.246
 2285TIP3    H2 6813   5.985   3.223   1.354
 2286TIP3   OH2 6814   4.678   4.135   3.662
 2286TIP3    H1 6815   4.610   4.190   3.623
 2286TIP3    H2 6816   4.675   4.054   3.611
 2287TIP3   OH2 6817   1.434   1.546   5.160
 2287TIP3    H1 6818   1.355   1.571   5.111
 2287TIP3    H2 6819   1.440   1.612   5.229
 2288TIP3   OH2 6820   7.050   1.362   5.072
 2288TIP3    H1 6821   7.101   1.343   5.151
 2288TIP3    H2 6822   7.066   1.455   5.056
 2289TIP3   OH2 6823   3.813   5.071   3.925
 2289TIP3    H1 6824   3.893   5.022   3.908
 2289TIP3    H2 6825   3.743   5.005   3.923
 2290TIP3   OH2 6826   5.520   5.927   2.790
 2290TIP3    H1 6827   5.562   5.912   2.875
 2290TIP3    H2 6828   5.446   5.985   2.811
 2291TIP3   OH2 6829   3.309   4.721   5.308
 2291TIP3    H1 6830   3.324   4.717   5.214
 2291TIP3    H2 6831   3.293   4.813   5.326
 2292TIP3   OH2 6832   2.986   1.261   6.236
 2292TIP3    H1 6833   3.031   1.222   6.162
 2292TIP3    H2 6834   2.894   1.262   6.210
 2293TIP3   OH2 6835   4.241   3.021   2.872
 2293TIP3    H1 6836   4.316   3.000   2.817
 2293TIP3    H2 6837   4.272   3.091   2.930
 2294TIP3   OH2 6838   4.471   1.140   0.296
 2294TIP3    H1 6839   4.459   1.189   0.377
 2294TIP3    H2 6840   4.414   1.184   0.233
 2295TIP3   OH2 6841   0.214   4.573   2.801
 2295TIP3    H1 6842   0.212   4.663   2.834
 2295TIP3    H2 6843   0.226   4.519   2.879
 2296TIP3   OH2 6844   2.277   5.251   5.187
 2296TIP3    H1 6845   2.239   5.270   5.101
 2296TIP3    H2 6846   2.214   5.289   5.249
 2297TIP3   OH2 6847   4.467   7.189   5.984
 2297TIP3    H1 6848   4.488   7.102   6.019
 2297TIP3    H2 6849   4.537   7.206   5.920
 2298TIP3   OH2 6850   2.499   6.472   6.516
 2298TIP3    H1 6851   2.515   6.560   6.481
 2298TIP3    H2 6852   2.535   6.413   6.450
 2299TIP3   OH2 6853   0.772   1.489   1.888
 2299TIP3    H1 6854   0.772   1.560   1.824
 2299TIP3    H2 6855   0.827   1.421   1.848
 2300TIP3   OH2 6856   1.642   1.318   6.394
 2300TIP3    H1 6857   1.571   1.320   6.458
 2300TIP3    H2 6858   1.694   1.242   6.418
 2301TIP3   OH2 6859   3.520   7.668   4.141
 2301TIP3    H1 6860   3.518   7.739   4.204
 2301TIP3    H2 6861   3.553   7.593   4.190
 2302TIP3   OH2 6862   5.166   2.772   2.735
 2302TIP3    H1 6863   5.145   2.741   2.823
 2302TIP3    H2 6864   5.081   2.791   2.696
 2303TIP3   OH2 6865   3.301   1.304   5.852
 2303TIP3    H1 6866   3.309   1.237   5.920
 2303TIP3    H2 6867   3.218   1.285   5.809
 2304TIP3   OH2 6868   6.261   3.534   6.151
 2304TIP3    H1 6869   6.196   3.525   6.081
 2304TIP3    H2 6870   6.321   3.461   6.137
 2305TIP3   OH2 6871   7.980   1.045   0.571
 2305TIP3    H1 6872   8.029   1.101   0.511
 2305TIP3    H2 6873   8.021   0.959   0.563
 2306TIP3   OH2 6874   7.877   0.425   1.355
 2306TIP3    H1 6875   7.823   0.425   1.276
 2306TIP3    H2 6876   7.832   0.365   1.414
 2307TIP3   OH2 6877   6.030   1.425   5.398
 2307TIP3    H1 6878   5.946   1.469   5.413
 2307TIP3    H2 6879   6.030   1.405   5.304
 2308TIP3   OH2 6880   1.454   6.126   1.794
 2308TIP3    H1 6881   1.463   6.080   1.710
 2308TIP3    H2 6882   1.519   6.084   1.851
 2309TIP3   OH2 6883   6.613   1.027   3.312
 2309TIP3    H1 6884   6.640   1.119   3.307
 2309TIP3    H2 6885   6.642   0.989   3.229
 2310TIP3   OH2 6886   5.397   6.686   2.579
 2310TIP3    H1 6887   5.438   6.772   2.570
 2310TIP3    H2 6888   5.376   6.680   2.672
 2311TIP3   OH2 6889   6.137   2.419   5.394
 2311TIP3    H1 6890   6.191   2.446   5.468
 2311TIP3    H2 6891   6.141   2.493   5.333
 2312TIP3   OH2 6892   6.228   2.541   4.582
 2312TIP3    H1 6893   6.264   2.571   4.666
 2312TIP3    H2 6894   6.303   2.508   4.534
 2313TIP3   OH2 6895   5.259   7.232   1.922
 2313TIP3    H1 6896   5.183   7.177   1.901
 2313TIP3    H2 6897   5.305   7.243   1.838
 2314TIP3   OH2 6898   2.492   3.322   4.867
 2314TIP3    H1 6899   2.509   3.309   4.774
 2314TIP3    H2 6900   2.397   3.315   4.876
 2315TIP3   OH2 6901   3.431   3.282   6.380
 2315TIP3    H1 6902   3.471   3.216   6.323
 2315TIP3    H2 6903   3.350   3.307   6.335
 2316TIP3   OH2 6904   2.500   3.643   5.067
 2316TIP3    H1 6905   2.515   3.734   5.043
 2316TIP3    H2 6906   2.425   3.616   5.015
 2317TIP3   OH2 6907   5.227   1.570   5.159
 2317TIP3    H1 6908   5.265   1.483   5.169
 2317TIP3    H2 6909   5.139   1.562   5.197
 2318TIP3   OH2 6910   5.206   2.839   4.485
 2318TIP3    H1 6911   5.123   2.879   4.511
 2318TIP3    H2 6912   5.273   2.891   4.530
 2319TIP3   OH2 6913   1.747   3.646   6.762
 2319TIP3    H1 6914   1.835   3.667   6.794
 2319TIP3    H2 6915   1.753   3.658   6.667
 2320TIP3   OH2 6916   0.398   1.426   0.128
 2320TIP3    H1 6917   0.415   1.390   0.215
 2320TIP3    H2 6918   0.385   1.519   0.143
 2321TIP3   OH2 6919   3.843   5.645   6.805
 2321TIP3    H1 6920   3.820   5.552   6.811
 2321TIP3    H2 6921   3.927   5.647   6.759
 2322TIP3   OH2 6922   2.587   2.451   3.897
 2322TIP3    H1 6923   2.661   2.434   3.955
 2322TIP3    H2 6924   2.617   2.422   3.811
 2323TIP3   OH2 6925   0.909   1.606   3.935
 2323TIP3    H1 6926   0.832   1.627   3.881
 2323TIP3    H2 6927   0.943   1.691   3.962
 2324TIP3   OH2 6928   2.562   1.450   6.400
 2324TIP3    H1 6929   2.658   1.440   6.401
 2324TIP3    H2 6930   2.548   1.543   6.415
 2325TIP3   OH2 6931   0.508   5.922   3.642
 2325TIP3    H1 6932   0.583   5.918   3.702
 2325TIP3    H2 6933   0.467   6.006   3.661
 2326TIP3   OH2 6934   5.371   7.076   0.094
 2326TIP3    H1 6935   5.281   7.052   0.072
 2326TIP3    H2 6936   5.380   7.166   0.062
 2327TIP3   OH2 6937   2.934   5.418   0.592
 2327TIP3    H1 6938   2.882   5.393   0.669
 2327TIP3    H2 6939   2.950   5.336   0.546
 2328TIP3   OH2 6940   2.086   6.794   0.697
 2328TIP3    H1 6941   2.069   6.834   0.612
 2328TIP3    H2 6942   2.029   6.717   0.699
 2329TIP3   OH2 6943   1.797   6.307   1.352
 2329TIP3    H1 6944   1.748   6.305   1.270
 2329TIP3    H2 6945   1.875   6.254   1.335
 2330TIP3   OH2 6946   7.089   3.464   4.289
 2330TIP3    H1 6947   7.055   3.534   4.233
 2330TIP3    H2 6948   7.108   3.507   4.372
 2331TIP3   OH2 6949   2.422   3.119   5.193
 2331TIP3    H1 6950   2.456   3.204   5.221
 2331TIP3    H2 6951   2.500   3.072   5.163
 2332TIP3   OH2 6952   7.431   6.697   0.832
 2332TIP3    H1 6953   7.384   6.745   0.900
 2332TIP3    H2 6954   7.373   6.624   0.809
 2333TIP3   OH2 6955   6.078   6.977   1.418
 2333TIP3    H1 6956   6.086   7.052   1.359
 2333TIP3    H2 6957   6.046   7.014   1.500
 2334TIP3   OH2 6958   3.407   1.579   4.811
 2334TIP3    H1 6959   3.330   1.524   4.823
 2334TIP3    H2 6960   3.477   1.517   4.788
 2335TIP3   OH2 6961   0.039   2.123   0.656
 2335TIP3    H1 6962   0.128   2.129   0.620
 2335TIP3    H2 6963   0.051   2.136   0.750
 2336TIP3   OH2 6964   5.382   5.982   6.673
 2336TIP3    H1 6965   5.367   5.935   6.755
 2336TIP3    H2 6966   5.404   5.914   6.610
 2337TIP3   OH2 6967   0.968   6.745   4.381
 2337TIP3    H1 6968   0.891   6.699   4.414
 2337TIP3    H2 6969   0.959   6.834   4.416
 2338TIP3   OH2 6970   7.522   6.284   2.252
 2338TIP3    H1 6971   7.606   6.329   2.237
 2338TIP3    H2 6972   7.522   6.212   2.189
 2339TIP3   OH2 6973   2.140   5.279   0.694
 2339TIP3    H1 6974   2.047   5.299   0.684
 2339TIP3    H2 6975   2.170   5.337   0.764
 2340TIP3   OH2 6976   4.102   2.697   3.082
 2340TIP3    H1 6977   4.039   2.704   3.155
 2340TIP3    H2 6978   4.054   2.731   3.006
 2341TIP3   OH2 6979   0.505   5.158   3.917
 2341TIP3    H1 6980   0.531   5.178   3.827
 2341TIP3    H2 6981   0.466   5.239   3.949
 2342TIP3   OH2 6982   6.865   7.313   0.209
 2342TIP3    H1 6983   6.897   7.400   0.232
 2342TIP3    H2 6984   6.816   7.285   0.287
 2343TIP3   OH2 6985   0.651   5.505   1.923
 2343TIP3    H1 6986   0.579   5.443   1.923
 2343TIP3    H2 6987   0.728   5.454   1.947
 2344TIP3   OH2 6988   0.541   4.692   5.726
 2344TIP3    H1 6989   0.556   4.674   5.634
 2344TIP3    H2 6990   0.516   4.784   5.729
 2345TIP3   OH2 6991   5.100   2.729   3.652
 2345TIP3    H1 6992   5.120   2.806   3.706
 2345TIP3    H2 6993   5.146   2.657   3.696
 2346TIP3   OH2 6994   6.765   6.952   6.112
 2346TIP3    H1 6995   6.834   6.888   6.093
 2346TIP3    H2 6996   6.726   6.971   6.027
 2347TIP3   OH2 6997   6.825   6.615   3.688
 2347TIP3    H1 6998   6.754   6.592   3.628
 2347TIP3    H2 6999   6.894   6.552   3.668
 2348TIP3   OH2 7000   7.424   6.301   4.332
 2348TIP3    H1 7001   7.486   6.298   4.405
 2348TIP3    H2 7002   7.469   6.254   4.261
 2349TIP3   OH2 7003   0.698   2.684   1.910
 2349TIP3    H1 7004   0.640   2.699   1.836
 2349TIP3    H2 7005   0.782   2.724   1.884
 2350TIP3   OH2 7006   6.617   2.302   6.501
 2350TIP3    H1 7007   6.560   2.349   6.439
 2350TIP3    H2 7008   6.588   2.211   6.496
 2351TIP3   OH2 7009   4.734   2.342   6.709
 2351TIP3    H1 7010   4.766   2.429   6.732
 2351TIP3    H2 7011   4.745   2.289   6.788
 2352TIP3   OH2 7012   4.200   4.564   3.586
 2352TIP3    H1 7013   4.196   4.544   3.492
 2352TIP3    H2 7014   4.240   4.487   3.625
 2353TIP3   OH2 7015   2.991   5.558   2.036
 2353TIP3    H1 7016   2.948   5.476   2.011
 2353TIP3    H2 7017   2.992   5.609   1.955
 2354TIP3   OH2 7018   3.683   4.937   6.510
 2354TIP3    H1 7019   3.717   4.965   6.595
 2354TIP3    H2 7020   3.737   4.862   6.486
 2355TIP3   OH2 7021   1.635   5.433   3.442
 2355TIP3    H1 7022   1.586   5.351   3.452
 2355TIP3    H2 7023   1.682   5.423   3.360
 2356TIP3   OH2 7024   4.947   3.077   3.424
 2356TIP3    H1 7025   4.949   3.172   3.431
 2356TIP3    H2 7026   4.912   3.060   3.337
 2357TIP3   OH2 7027   3.824   2.393   6.633
 2357TIP3    H1 7028   3.888   2.461   6.611
 2357TIP3    H2 7029   3.850   2.363   6.720
 2358TIP3   OH2 7030   2.858   1.528   2.144
 2358TIP3    H1 7031   2.909   1.471   2.086
 2358TIP3    H2 7032   2.923   1.587   2.182
 2359TIP3   OH2 7033   0.330   5.793   1.485
 2359TIP3    H1 7034   0.277   5.868   1.457
 2359TIP3    H2 7035   0.399   5.832   1.538
 2360TIP3   OH2 7036   0.441   0.117   1.668
 2360TIP3    H1 7037   0.510   0.098   1.604
 2360TIP3    H2 7038   0.470   0.071   1.747
 2361TIP3   OH2 7039   7.937   7.708   4.441
 2361TIP3    H1 7040   7.971   7.716   4.530
 2361TIP3    H2 7041   7.988   7.637   4.402
 2362TIP3   OH2 7042   2.439   2.548   1.343
 2362TIP3    H1 7043   2.443   2.452   1.348
 2362TIP3    H2 7044   2.346   2.568   1.335
 2363TIP3   OH2 7045   2.349   4.197   6.186
 2363TIP3    H1 7046   2.427   4.239   6.150
 2363TIP3    H2 7047   2.342   4.115   6.137
 2364TIP3   OH2 7048   3.469   3.003   0.785
 2364TIP3    H1 7049   3.440   2.945   0.856
 2364TIP3    H2 7050   3.550   2.962   0.753
 2365TIP3   OH2 7051   7.027   5.577   6.505
 2365TIP3    H1 7052   7.099   5.625   6.545
 2365TIP3    H2 7053   6.964   5.644   6.480
 2366TIP3   OH2 7054   5.466   1.037   3.685
 2366TIP3    H1 7055   5.557   1.050   3.710
 2366TIP3    H2 7056   5.436   0.963   3.737
 2367TIP3   OH2 7057   2.201   7.766   6.299
 2367TIP3    H1 7058   2.182   7.786   6.208
 2367TIP3    H2 7059   2.282   7.714   6.297
 2368TIP3   OH2 7060   0.234   4.138   0.031
 2368TIP3    H1 7061   0.215   4.210   0.091
 2368TIP3    H2 7062   0.318   4.163  -0.010
 2369TIP3   OH2 7063   8.280   1.802   2.176
 2369TIP3    H1 7064   8.332   1.786   2.097
 2369TIP3    H2 7065   8.332   1.864   2.227
 2370TIP3   OH2 7066   4.468   5.417   5.586
 2370TIP3    H1 7067   4.562   5.427   5.570
 2370TIP3    H2 7068   4.444   5.338   5.538
 2371TIP3   OH2 7069   5.411   3.058   4.034
 2371TIP3    H1 7070   5.410   3.153   4.029
 2371TIP3    H2 7071   5.322   3.034   4.061
 2372TIP3   OH2 7072   4.248   3.652   5.289
 2372TIP3    H1 7073   4.153   3.657   5.279
 2372TIP3    H2 7074   4.281   3.649   5.199
 2373TIP3   OH2 7075   0.972   6.839   4.079
 2373TIP3    H1 7076   1.028   6.803   4.147
 2373TIP3    H2 7077   0.885   6.807   4.100
 2374TIP3   OH2 7078   5.926   1.118   5.213
 2374TIP3    H1 7079   6.019   1.099   5.221
 2374TIP3    H2 7080   5.888   1.089   5.296
 2375TIP3   OH2 7081   1.824   0.692   0.183
 2375TIP3    H1 7082   1.806   0.611   0.134
 2375TIP3    H2 7083   1.852   0.754   0.115
 2376TIP3   OH2 7084   1.377   0.733   1.366
 2376TIP3    H1 7085   1.338   0.819   1.350
 2376TIP3    H2 7086   1.338   0.704   1.448
 2377TIP3   OH2 7087   7.897   5.145   4.363
 2377TIP3    H1 7088   7.805   5.146   4.390
 2377TIP3    H2 7089   7.932   5.063   4.398
 2378TIP3   OH2 7090   5.368   7.748   2.882
 2378TIP3    H1 7091   5.401   7.811   2.947
 2378TIP3    H2 7092   5.444   7.693   2.862
 2379TIP3   OH2 7093   6.794   6.280   4.566
 2379TIP3    H1 7094   6.822   6.334   4.491
 2379TIP3    H2 7095   6.787   6.342   4.638
 2380TIP3   OH2 7096   4.744   3.020   2.444
 2380TIP3    H1 7097   4.700   3.102   2.423
 2380TIP3    H2 7098   4.673   2.957   2.459
 2381TIP3   OH2 7099   3.034   7.078   4.195
 2381TIP3    H1 7100   3.122   7.116   4.200
 2381TIP3    H2 7101   2.988   7.114   4.271
 2382TIP3   OH2 7102   7.118   1.895   3.887
 2382TIP3    H1 7103   7.122   1.833   3.959
 2382TIP3    H2 7104   7.186   1.960   3.907
 2383TIP3   OH2 7105   4.367   0.515   1.616
 2383TIP3    H1 7106   4.369   0.465   1.697
 2383TIP3    H2 7107   4.451   0.495   1.574
 2384TIP3   OH2 7108   6.727   2.492   2.047
 2384TIP3    H1 7109   6.776   2.562   2.089
 2384TIP3    H2 7110   6.791   2.447   1.992
 2385TIP3   OH2 7111   6.069   6.272   2.281
 2385TIP3    H1 7112   6.145   6.320   2.313
 2385TIP3    H2 7113   6.098   6.181   2.279
 2386TIP3   OH2 7114   3.328   7.532   1.848
 2386TIP3    H1 7115   3.405   7.500   1.896
 2386TIP3    H2 7116   3.330   7.627   1.859
 2387TIP3   OH2 7117   8.232   4.692   1.578
 2387TIP3    H1 7118   8.256   4.784   1.580
 2387TIP3    H2 7119   8.258   4.659   1.664
 2388TIP3   OH2 7120   5.783   2.405   4.679
 2388TIP3    H1 7121   5.837   2.409   4.601
 2388TIP3    H2 7122   5.844   2.386   4.750
 2389TIP3   OH2 7123   7.263   3.775   6.101
 2389TIP3    H1 7124   7.204   3.713   6.058
 2389TIP3    H2 7125   7.349   3.755   6.064
 2390TIP3   OH2 7126   7.623   3.917   0.890
 2390TIP3    H1 7127   7.704   3.893   0.846
 2390TIP3    H2 7128   7.554   3.897   0.826
 2391TIP3   OH2 7129   1.530   3.161   4.534
 2391TIP3    H1 7130   1.599   3.146   4.598
 2391TIP3    H2 7131   1.495   3.247   4.556
 2392TIP3   OH2 7132   2.756   2.618   6.138
 2392TIP3    H1 7133   2.704   2.598   6.060
 2392TIP3    H2 7134   2.829   2.556   6.135
 2393TIP3   OH2 7135   2.606   3.869   1.347
 2393TIP3    H1 7136   2.693   3.907   1.332
 2393TIP3    H2 7137   2.577   3.909   1.429
 2394TIP3   OH2 7138   8.006   1.522   4.308
 2394TIP3    H1 7139   8.065   1.463   4.355
 2394TIP3    H2 7140   7.923   1.516   4.355
 2395TIP3   OH2 7141   4.978   5.950   3.572
 2395TIP3    H1 7142   5.037   5.917   3.504
 2395TIP3    H2 7143   4.910   5.883   3.580
 2396TIP3   OH2 7144   8.126   1.802   3.734
 2396TIP3    H1 7145   8.059   1.871   3.728
 2396TIP3    H2 7146   8.086   1.736   3.791
 2397TIP3   OH2 7147   2.584   2.649   0.737
 2397TIP3    H1 7148   2.554   2.740   0.734
 2397TIP3    H2 7149   2.639   2.640   0.659
 2398TIP3   OH2 7150   1.522   1.109   0.462
 2398TIP3    H1 7151   1.436   1.087   0.496
 2398TIP3    H2 7152   1.563   1.025   0.443
 2399TIP3   OH2 7153   5.815   4.769   5.367
 2399TIP3    H1 7154   5.886   4.713   5.336
 2399TIP3    H2 7155   5.821   4.764   5.462
 2400TIP3   OH2 7156   7.677   3.875   2.968
 2400TIP3    H1 7157   7.766   3.890   3.000
 2400TIP3    H2 7158   7.642   3.962   2.950
 2401TIP3   OH2 7159   4.994   2.603   5.612
 2401TIP3    H1 7160   5.069   2.586   5.669
 2401TIP3    H2 7161   4.996   2.532   5.548
 2402TIP3   OH2 7162   7.930   5.333   3.714
 2402TIP3    H1 7163   7.984   5.316   3.636
 2402TIP3    H2 7164   7.922   5.428   3.717
 2403TIP3   OH2 7165   8.027   2.846   2.856
 2403TIP3    H1 7166   8.089   2.883   2.793
 2403TIP3    H2 7167   8.074   2.772   2.894
 2404TIP3   OH2 7168   3.287   2.167   6.088
 2404TIP3    H1 7169   3.196   2.153   6.061
 2404TIP3    H2 7170   3.330   2.201   6.009
 2405TIP3   OH2 7171   4.881   4.274   5.137
 2405TIP3    H1 7172   4.880   4.297   5.230
 2405TIP3    H2 7173   4.974   4.270   5.114
 2406TIP3   OH2 7174   5.760   6.112   2.187
 2406TIP3    H1 7175   5.758   6.016   2.183
 2406TIP3    H2 7176   5.725   6.133   2.274
 2407TIP3   OH2 7177   7.296   4.831   6.512
 2407TIP3    H1 7178   7.388   4.841   6.487
 2407TIP3    H2 7179   7.299   4.809   6.605
 2408TIP3   OH2 7180  -0.020   2.018   2.345
 2408TIP3    H1 7181  -0.064   2.067   2.276
 2408TIP3    H2 7182   0.056   2.072   2.368
 2409TIP3   OH2 7183   0.678   1.681   1.210
 2409TIP3    H1 7184   0.753   1.645   1.163
 2409TIP3    H2 7185   0.627   1.605   1.238
 2410TIP3   OH2 7186   1.284   5.758   2.634
 2410TIP3    H1 7187   1.189   5.749   2.626
 2410TIP3    H2 7188   1.304   5.726   2.722
 2411TIP3   OH2 7189   6.148   6.960   2.848
 2411TIP3    H1 7190   6.074   6.965   2.909
 2411TIP3    H2 7191   6.159   7.051   2.818
 2412TIP3   OH2 7192   5.791   0.196   0.403
 2412TIP3    H1 7193   5.854   0.182   0.332
 2412TIP3    H2 7194   5.740   0.116   0.407
 2413TIP3   OH2 7195   0.790   3.937   3.674
 2413TIP3    H1 7196   0.847   3.943   3.751
 2413TIP3    H2 7197   0.713   3.988   3.698
 2414TIP3   OH2 7198   5.697   6.548   3.072
 2414TIP3    H1 7199   5.792   6.560   3.065
 2414TIP3    H2 7200   5.674   6.585   3.157
 2415TIP3   OH2 7201   1.873   6.736   4.238
 2415TIP3    H1 7202   1.936   6.761   4.170
 2415TIP3    H2 7203   1.923   6.679   4.297
 2416TIP3   OH2 7204   4.641   3.860   3.901
 2416TIP3    H1 7205   4.698   3.875   3.977
 2416TIP3    H2 7206   4.577   3.931   3.905
 2417TIP3   OH2 7207   7.954   2.332   2.865
 2417TIP3    H1 7208   7.982   2.422   2.884
 2417TIP3    H2 7209   8.015   2.301   2.799
 2418TIP3   OH2 7210   5.702   2.446   2.792
 2418TIP3    H1 7211   5.693   2.377   2.726
 2418TIP3    H2 7212   5.732   2.401   2.871
 2419TIP3   OH2 7213   2.927   5.742   5.362
 2419TIP3    H1 7214   2.975   5.732   5.444
 2419TIP3    H2 7215   2.972   5.685   5.300
 2420TIP3   OH2 7216   1.565   4.545   2.148
 2420TIP3    H1 7217   1.641   4.602   2.136
 2420TIP3    H2 7218   1.544   4.553   2.241
 2421TIP3   OH2 7219   5.443   7.238   1.702
 2421TIP3    H1 7220   5.520   7.201   1.745
 2421TIP3    H2 7221   5.477   7.272   1.619
 2422TIP3   OH2 7222   7.912   3.824   5.021
 2422TIP3    H1 7223   7.950   3.738   5.003
 2422TIP3    H2 7224   7.846   3.807   5.089
 2423TIP3   OH2 7225   7.995   7.333   6.624
 2423TIP3    H1 7226   8.065   7.398   6.623
 2423TIP3    H2 7227   7.915   7.383   6.606
 2424TIP3   OH2 7228   1.208   7.102   2.699
 2424TIP3    H1 7229   1.156   7.035   2.742
 2424TIP3    H2 7230   1.286   7.112   2.754
 2425TIP3   OH2 7231   0.392   2.521   0.337
 2425TIP3    H1 7232   0.365   2.481   0.420
 2425TIP3    H2 7233   0.326   2.589   0.321
 2426TIP3   OH2 7234   2.920   2.374   1.325
 2426TIP3    H1 7235   2.952   2.301   1.377
 2426TIP3    H2 7236   2.995   2.400   1.271
 2427TIP3   OH2 7237   0.858   2.343   2.222
 2427TIP3    H1 7238   0.883   2.251   2.227
 2427TIP3    H2 7239   0.815   2.352   2.137
 2428TIP3   OH2 7240   1.163   5.373   5.246
 2428TIP3    H1 7241   1.183   5.360   5.338
 2428TIP3    H2 7242   1.127   5.289   5.218
 2429TIP3   OH2 7243   5.708   5.880   1.992
 2429TIP3    H1 7244   5.672   5.793   1.974
 2429TIP3    H2 7245   5.638   5.941   1.966
 2430TIP3   OH2 7246   3.298   1.647   2.590
 2430TIP3    H1 7247   3.337   1.732   2.572
 2430TIP3    H2 7248   3.239   1.663   2.664
 2431TIP3   OH2 7249   4.596   5.270   2.058
 2431TIP3    H1 7250   4.541   5.206   2.104
 2431TIP3    H2 7251   4.633   5.324   2.127
 2432TIP3   OH2 7252   4.547   3.819   2.715
 2432TIP3    H1 7253   4.495   3.746   2.682
 2432TIP3    H2 7254   4.512   3.896   2.670
 2433TIP3   OH2 7255   0.677   6.014   4.796
 2433TIP3    H1 7256   0.687   6.105   4.824
 2433TIP3    H2 7257   0.698   6.016   4.703
 2434TIP3   OH2 7258   6.254   7.473   0.151
 2434TIP3    H1 7259   6.295   7.541   0.204
 2434TIP3    H2 7260   6.306   7.469   0.071
 2435TIP3   OH2 7261   1.602   1.795   1.407
 2435TIP3    H1 7262   1.514   1.791   1.446
 2435TIP3    H2 7263   1.643   1.712   1.431
 2436TIP3   OH2 7264   0.202   4.504   2.536
 2436TIP3    H1 7265   0.117   4.460   2.538
 2436TIP3    H2 7266   0.219   4.526   2.628
 2437TIP3   OH2 7267   1.710   6.323   1.108
 2437TIP3    H1 7268   1.774   6.373   1.058
 2437TIP3    H2 7269   1.636   6.312   1.048
 2438TIP3   OH2 7270   3.945   7.290   5.409
 2438TIP3    H1 7271   3.959   7.365   5.468
 2438TIP3    H2 7272   3.929   7.330   5.324
 2439TIP3   OH2 7273   5.073   3.137   0.742
 2439TIP3    H1 7274   5.075   3.229   0.768
 2439TIP3    H2 7275   5.140   3.096   0.796
 2440TIP3   OH2 7276   4.503   6.037   1.716
 2440TIP3    H1 7277   4.461   5.966   1.668
 2440TIP3    H2 7278   4.432   6.077   1.767
 2441TIP3   OH2 7279   2.832   4.158   4.512
 2441TIP3    H1 7280   2.913   4.152   4.564
 2441TIP3    H2 7281   2.788   4.075   4.526
 2442TIP3   OH2 7282   4.921   4.351   2.129
 2442TIP3    H1 7283   4.959   4.439   2.133
 2442TIP3    H2 7284   4.971   4.306   2.061
 2443TIP3   OH2 7285   1.111   6.795   4.638
 2443TIP3    H1 7286   1.046   6.785   4.708
 2443TIP3    H2 7287   1.122   6.890   4.629
 2444TIP3   OH2 7288   3.931   6.283   6.577
 2444TIP3    H1 7289   4.019   6.273   6.540
 2444TIP3    H2 7290   3.921   6.377   6.591
 2445TIP3   OH2 7291   6.029   7.609   4.191
 2445TIP3    H1 7292   6.088   7.626   4.117
 2445TIP3    H2 7293   5.962   7.551   4.156
 2446TIP3   OH2 7294   1.882   6.923   3.076
 2446TIP3    H1 7295   1.923   6.912   3.162
 2446TIP3    H2 7296   1.789   6.932   3.095
 2447TIP3   OH2 7297   2.133   7.726   2.951
 2447TIP3    H1 7298   2.147   7.778   3.030
 2447TIP3    H2 7299   2.168   7.639   2.972
 2448TIP3   OH2 7300   4.210   1.511   4.242
 2448TIP3    H1 7301   4.201   1.448   4.313
 2448TIP3    H2 7302   4.123   1.515   4.202
 2449TIP3   OH2 7303   0.897   6.971   5.537
 2449TIP3    H1 7304   0.933   7.058   5.520
 2449TIP3    H2 7305   0.867   6.940   5.451
 2450TIP3   OH2 7306   6.157   4.401   0.469
 2450TIP3    H1 7307   6.191   4.489   0.450
 2450TIP3    H2 7308   6.183   4.384   0.559
 2451TIP3   OH2 7309   2.686   7.811   5.883
 2451TIP3    H1 7310   2.656   7.895   5.850
 2451TIP3    H2 7311   2.606   7.763   5.904
 2452TIP3   OH2 7312   4.796   7.592   2.788
 2452TIP3    H1 7313   4.860   7.624   2.852
 2452TIP3    H2 7314   4.716   7.642   2.808
 2453TIP3   OH2 7315   5.250   2.741   3.015
 2453TIP3    H1 7316   5.271   2.830   3.041
 2453TIP3    H2 7317   5.318   2.717   2.952
 2454TIP3   OH2 7318   7.257   4.826   0.649
 2454TIP3    H1 7319   7.209   4.841   0.567
 2454TIP3    H2 7320   7.281   4.914   0.679
 2455TIP3   OH2 7321   2.876   6.888   1.989
 2455TIP3    H1 7322   2.885   6.830   1.913
 2455TIP3    H2 7323   2.890   6.976   1.954
 2456TIP3   OH2 7324   8.170   7.554   6.628
 2456TIP3    H1 7325   8.250   7.501   6.624
 2456TIP3    H2 7326   8.154   7.566   6.722
 2457TIP3   OH2 7327   2.353   0.258   0.961
 2457TIP3    H1 7328   2.338   0.307   1.042
 2457TIP3    H2 7329   2.447   0.237   0.963
 2458TIP3   OH2 7330   2.679   2.937   1.614
 2458TIP3    H1 7331   2.760   2.984   1.633
 2458TIP3    H2 7332   2.648   2.973   1.531
 2459TIP3   OH2 7333   2.271   1.805   3.714
 2459TIP3    H1 7334   2.262   1.734   3.778
 2459TIP3    H2 7335   2.195   1.860   3.729
 2460TIP3   OH2 7336   2.411   6.974   4.997
 2460TIP3    H1 7337   2.343   7.000   4.935
 2460TIP3    H2 7338   2.385   7.014   5.080
 2461TIP3   OH2 7339   2.967   2.403   4.225
 2461TIP3    H1 7340   2.904   2.344   4.185
 2461TIP3    H2 7341   3.030   2.346   4.268
 2462TIP3   OH2 7342   4.976   2.498   1.427
 2462TIP3    H1 7343   5.041   2.446   1.381
 2462TIP3    H2 7344   4.892   2.471   1.389
 2463TIP3   OH2 7345   6.395   4.932   0.980
 2463TIP3    H1 7346   6.465   4.915   1.043
 2463TIP3    H2 7347   6.436   4.987   0.913
 2464TIP3   OH2 7348   8.274   1.585   3.520
 2464TIP3    H1 7349   8.195   1.634   3.544
 2464TIP3    H2 7350   8.294   1.532   3.596
 2465TIP3   OH2 7351   0.605   6.682   0.792
 2465TIP3    H1 7352   0.515   6.651   0.786
 2465TIP3    H2 7353   0.653   6.632   0.725
 2466TIP3   OH2 7354   3.289   1.558   3.865
 2466TIP3    H1 7355   3.262   1.484   3.919
 2466TIP3    H2 7356   3.277   1.527   3.775
 2467TIP3   OH2 7357   4.131   5.889   3.759
 2467TIP3    H1 7358   4.129   5.856   3.849
 2467TIP3    H2 7359   4.121   5.984   3.768
 2468TIP3   OH2 7360   0.795   2.450   2.471
 2468TIP3    H1 7361   0.875   2.492   2.502
 2468TIP3    H2 7362   0.813   2.428   2.380
 2469TIP3   OH2 7363   1.626   3.434   5.241
 2469TIP3    H1 7364   1.720   3.429   5.263
 2469TIP3    H2 7365   1.583   3.383   5.310
 2470TIP3   OH2 7366   4.835   1.580   4.132
 2470TIP3    H1 7367   4.749   1.595   4.093
 2470TIP3    H2 7368   4.825   1.499   4.182
 2471TIP3   OH2 7369   0.057   7.402   3.361
 2471TIP3    H1 7370   0.041   7.332   3.424
 2471TIP3    H2 7371   0.008   7.477   3.395
 2472TIP3   OH2 7372   7.064   2.283   2.765
 2472TIP3    H1 7373   7.009   2.206   2.780
 2472TIP3    H2 7374   7.121   2.288   2.841
 2473TIP3   OH2 7375   3.053   6.345   1.071
 2473TIP3    H1 7376   2.999   6.316   0.997
 2473TIP3    H2 7377   3.102   6.268   1.097
 2474TIP3   OH2 7378   5.754   7.203   4.898
 2474TIP3    H1 7379   5.836   7.250   4.916
 2474TIP3    H2 7380   5.700   7.218   4.976
 2475TIP3   OH2 7381   5.402   6.245   0.532
 2475TIP3    H1 7382   5.377   6.170   0.478
 2475TIP3    H2 7383   5.445   6.305   0.471
 2476TIP3   OH2 7384   2.596   2.209   1.439
 2476TIP3    H1 7385   2.507   2.228   1.467
 2476TIP3    H2 7386   2.616   2.276   1.374
 2477TIP3   OH2 7387   7.344   6.970   3.991
 2477TIP3    H1 7388   7.260   6.984   4.034
 2477TIP3    H2 7389   7.341   7.026   3.914
 2478TIP3   OH2 7390   7.450   1.214   5.397
 2478TIP3    H1 7391   7.533   1.195   5.353
 2478TIP3    H2 7392   7.450   1.310   5.406
 2479TIP3   OH2 7393   0.404   3.881   0.457
 2479TIP3    H1 7394   0.419   3.913   0.368
 2479TIP3    H2 7395   0.397   3.961   0.509
 2480TIP3   OH2 7396   7.895   1.104   3.409
 2480TIP3    H1 7397   7.964   1.164   3.380
 2480TIP3    H2 7398   7.920   1.019   3.372
 2481TIP3   OH2 7399   8.287   6.686   5.960
 2481TIP3    H1 7400   8.301   6.637   6.042
 2481TIP3    H2 7401   8.197   6.668   5.936
 2482TIP3   OH2 7402   4.830   5.064   2.087
 2482TIP3    H1 7403   4.904   5.124   2.077
 2482TIP3    H2 7404   4.773   5.106   2.150
 2483TIP3   OH2 7405   7.625   0.512   2.104
 2483TIP3    H1 7406   7.610   0.467   2.021
 2483TIP3    H2 7407   7.705   0.563   2.090
 2484TIP3   OH2 7408   0.468   2.740   0.511
 2484TIP3    H1 7409   0.520   2.816   0.488
 2484TIP3    H2 7410   0.464   2.688   0.431
 2485TIP3   OH2 7411   1.096   6.318   0.860
 2485TIP3    H1 7412   1.109   6.360   0.945
 2485TIP3    H2 7413   1.038   6.377   0.812
 2486TIP3   OH2 7414   4.926   1.923   6.739
 2486TIP3    H1 7415   4.865   1.913   6.666
 2486TIP3    H2 7416   5.009   1.887   6.705
 2487TIP3   OH2 7417   0.304   5.651   0.326
 2487TIP3    H1 7418   0.298   5.675   0.419
 2487TIP3    H2 7419   0.220   5.609   0.307
 2488TIP3   OH2 7420   1.543   5.921   2.964
 2488TIP3    H1 7421   1.553   5.862   2.889
 2488TIP3    H2 7422   1.505   6.000   2.926
 2489TIP3   OH2 7423   6.456   7.313   5.706
 2489TIP3    H1 7424   6.389   7.247   5.688
 2489TIP3    H2 7425   6.512   7.273   5.772
 2490TIP3   OH2 7426   4.794   4.211   0.759
 2490TIP3    H1 7427   4.841   4.288   0.729
 2490TIP3    H2 7428   4.717   4.206   0.702
 2491TIP3   OH2 7429   2.656   1.849   3.816
 2491TIP3    H1 7430   2.629   1.762   3.787
 2491TIP3    H2 7431   2.573   1.895   3.832
 2492TIP3   OH2 7432   3.175   4.353   1.140
 2492TIP3    H1 7433   3.204   4.440   1.114
 2492TIP3    H2 7434   3.121   4.367   1.218
 2493TIP3   OH2 7435   6.709   2.256   0.787
 2493TIP3    H1 7436   6.733   2.246   0.695
 2493TIP3    H2 7437   6.793   2.253   0.833
 2494TIP3   OH2 7438   2.112   1.784   6.157
 2494TIP3    H1 7439   2.131   1.812   6.067
 2494TIP3    H2 7440   2.183   1.724   6.179
 2495TIP3   OH2 7441   4.270   3.147   4.666
 2495TIP3    H1 7442   4.345   3.207   4.663
 2495TIP3    H2 7443   4.204   3.194   4.716
 2496TIP3   OH2 7444   7.942   0.139   1.765
 2496TIP3    H1 7445   8.035   0.117   1.775
 2496TIP3    H2 7446   7.899   0.093   1.838
 2497TIP3   OH2 7447   8.208   4.886   0.724
 2497TIP3    H1 7448   8.122   4.911   0.758
 2497TIP3    H2 7449   8.257   4.856   0.801
 2498TIP3   OH2 7450   5.642   0.396   4.922
 2498TIP3    H1 7451   5.583   0.465   4.891
 2498TIP3    H2 7452   5.703   0.441   4.980
 2499TIP3   OH2 7453   5.941   5.996   3.505
 2499TIP3    H1 7454   6.021   5.998   3.558
 2499TIP3    H2 7455   5.870   5.986   3.568
 2500TIP3   OH2 7456   4.647   3.954   5.237
 2500TIP3    H1 7457   4.673   4.020   5.301
 2500TIP3    H2 7458   4.570   3.912   5.276
 2501TIP3   OH2 7459   4.365   7.218   5.026
 2501TIP3    H1 7460   4.340   7.131   4.996
 2501TIP3    H2 7461   4.327   7.277   4.960
 2502TIP3   OH2 7462   4.296   2.659   0.002
 2502TIP3    H1 7463   4.365   2.648   0.067
 2502TIP3    H2 7464   4.247   2.736   0.033
 2503TIP3   OH2 7465   3.632   3.573   0.421
 2503TIP3    H1 7466   3.687   3.567   0.498
 2503TIP3    H2 7467   3.577   3.495   0.425
 2504TIP3   OH2 7468   6.681   1.064   0.649
 2504TIP3    H1 7469   6.726   1.137   0.606
 2504TIP3    H2 7470   6.607   1.106   0.694
 2505TIP3   OH2 7471   3.068   0.181   0.787
 2505TIP3    H1 7472   3.035   0.178   0.877
 2505TIP3    H2 7473   3.156   0.144   0.792
 2506TIP3   OH2 7474   1.531   7.663   2.761
 2506TIP3    H1 7475   1.551   7.753   2.734
 2506TIP3    H2 7476   1.540   7.612   2.680
 2507TIP3   OH2 7477   8.267   7.320   0.297
 2507TIP3    H1 7478   8.175   7.319   0.323
 2507TIP3    H2 7479   8.315   7.331   0.379
 2508TIP3   OH2 7480   3.582   7.211   2.122
 2508TIP3    H1 7481   3.499   7.167   2.108
 2508TIP3    H2 7482   3.610   7.184   2.209
 2509TIP3   OH2 7483   6.186   2.927   5.172
 2509TIP3    H1 7484   6.106   2.943   5.121
 2509TIP3    H2 7485   6.211   3.013   5.204
 2510TIP3   OH2 7486   6.991   0.132   2.098
 2510TIP3    H1 7487   7.011   0.224   2.081
 2510TIP3    H2 7488   6.979   0.128   2.193
 2511TIP3   OH2 7489   1.767   7.324   3.184
 2511TIP3    H1 7490   1.845   7.287   3.143
 2511TIP3    H2 7491   1.720   7.367   3.112
 2512TIP3   OH2 7492   5.184   0.337   4.677
 2512TIP3    H1 7493   5.259   0.393   4.658
 2512TIP3    H2 7494   5.188   0.267   4.611
 2513TIP3   OH2 7495   2.464   5.310   0.770
 2513TIP3    H1 7496   2.421   5.224   0.767
 2513TIP3    H2 7497   2.399   5.371   0.736
 2514TIP3   OH2 7498   1.156   1.821   4.124
 2514TIP3    H1 7499   1.208   1.743   4.142
 2514TIP3    H2 7500   1.126   1.810   4.034
 2515TIP3   OH2 7501   2.075   7.197   0.402
 2515TIP3    H1 7502   2.139   7.267   0.391
 2515TIP3    H2 7503   1.994   7.242   0.426
 2516TIP3   OH2 7504   3.979   1.666   2.902
 2516TIP3    H1 7505   3.987   1.584   2.951
 2516TIP3    H2 7506   3.893   1.700   2.926
 2517TIP3   OH2 7507   6.584   3.885   0.179
 2517TIP3    H1 7508   6.653   3.935   0.223
 2517TIP3    H2 7509   6.630   3.811   0.139
 2518TIP3   OH2 7510   2.651   5.554   3.691
 2518TIP3    H1 7511   2.730   5.599   3.721
 2518TIP3    H2 7512   2.590   5.625   3.668
 2519TIP3   OH2 7513   7.834   6.108   1.674
 2519TIP3    H1 7514   7.831   6.203   1.670
 2519TIP3    H2 7515   7.858   6.088   1.764
 2520TIP3   OH2 7516   4.524   6.832   1.784
 2520TIP3    H1 7517   4.554   6.888   1.712
 2520TIP3    H2 7518   4.531   6.743   1.749
 2521TIP3   OH2 7519   5.742   1.187   4.066
 2521TIP3    H1 7520   5.810   1.249   4.092
 2521TIP3    H2 7521   5.662   1.222   4.107
 2522TIP3   OH2 7522   2.662   5.834   1.828
 2522TIP3    H1 7523   2.664   5.911   1.885
 2522TIP3    H2 7524   2.655   5.760   1.888
 2523TIP3   OH2 7525   5.407   7.754   3.195
 2523TIP3    H1 7526   5.372   7.842   3.202
 2523TIP3    H2 7527   5.357   7.713   3.124
 2524TIP3   OH2 7528   1.757   2.661   1.224
 2524TIP3    H1 7529   1.713   2.747   1.223
 2524TIP3    H2 7530   1.829   2.670   1.162
 2525TIP3   OH2 7531   0.285   0.135   2.364
 2525TIP3    H1 7532   0.274   0.226   2.393
 2525TIP3    H2 7533   0.200   0.112   2.327
 2526TIP3   OH2 7534   6.366   7.414   5.406
 2526TIP3    H1 7535   6.311   7.343   5.438
 2526TIP3    H2 7536   6.331   7.493   5.447
 2527TIP3   OH2 7537   5.267   0.089   0.886
 2527TIP3    H1 7538   5.178   0.112   0.858
 2527TIP3    H2 7539   5.318   0.086   0.806
 2528TIP3   OH2 7540   7.303   7.159   6.568
 2528TIP3    H1 7541   7.383   7.129   6.612
 2528TIP3    H2 7542   7.231   7.123   6.620
 2529TIP3   OH2 7543   6.585   0.282   2.791
 2529TIP3    H1 7544   6.497   0.276   2.827
 2529TIP3    H2 7545   6.624   0.196   2.807
 2530TIP3   OH2 7546   3.008   0.941   3.728
 2530TIP3    H1 7547   2.948   0.921   3.799
 2530TIP3    H2 7548   3.087   0.972   3.772
 2531TIP3   OH2 7549   7.471   0.506   3.812
 2531TIP3    H1 7550   7.380   0.501   3.841
 2531TIP3    H2 7551   7.500   0.415   3.806
 2532TIP3   OH2 7552   5.483   3.616   4.050
 2532TIP3    H1 7553   5.404   3.660   4.082
 2532TIP3    H2 7554   5.455   3.526   4.033
 2533TIP3   OH2 7555   3.267   0.742   3.847
 2533TIP3    H1 7556   3.357   0.756   3.878
 2533TIP3    H2 7557   3.276   0.685   3.771
 2534TIP3   OH2 7558   8.303   7.407   5.263
 2534TIP3    H1 7559   8.274   7.472   5.199
 2534TIP3    H2 7560   8.277   7.323   5.226
 2535TIP3   OH2 7561   0.817   2.820   3.057
 2535TIP3    H1 7562   0.865   2.858   3.130
 2535TIP3    H2 7563   0.886   2.790   2.997
 2536TIP3   OH2 7564   6.248   6.358   1.025
 2536TIP3    H1 7565   6.301   6.309   0.962
 2536TIP3    H2 7566   6.292   6.442   1.034
 2537TIP3   OH2 7567   5.117   3.467   3.317
 2537TIP3    H1 7568   5.094   3.560   3.312
 2537TIP3    H2 7569   5.125   3.439   3.226
 2538TIP3   OH2 7570   6.366   5.500   2.874
 2538TIP3    H1 7571   6.276   5.468   2.867
 2538TIP3    H2 7572   6.418   5.432   2.831
 2539TIP3   OH2 7573   2.013   2.447   6.649
 2539TIP3    H1 7574   2.086   2.498   6.684
 2539TIP3    H2 7575   1.935   2.494   6.678
 2540TIP3   OH2 7576   5.240   1.391   0.813
 2540TIP3    H1 7577   5.241   1.391   0.909
 2540TIP3    H2 7578   5.186   1.467   0.790
 2541TIP3   OH2 7579   3.959   4.967   5.212
 2541TIP3    H1 7580   3.929   4.915   5.287
 2541TIP3    H2 7581   4.050   4.941   5.201
 2542TIP3   OH2 7582   3.351   2.254   4.355
 2542TIP3    H1 7583   3.393   2.271   4.439
 2542TIP3    H2 7584   3.413   2.289   4.290
 2543TIP3   OH2 7585   3.847   6.074   6.716
 2543TIP3    H1 7586   3.759   6.094   6.747
 2543TIP3    H2 7587   3.881   6.157   6.684
 2544TIP3   OH2 7588   2.611   7.518   1.704
 2544TIP3    H1 7589   2.617   7.458   1.630
 2544TIP3    H2 7590   2.571   7.467   1.774
 2545TIP3   OH2 7591   5.868   7.708   5.683
 2545TIP3    H1 7592   5.916   7.784   5.650
 2545TIP3    H2 7593   5.832   7.738   5.766
 2546TIP3   OH2 7594   0.822   4.373   2.010
 2546TIP3    H1 7595   0.835   4.463   1.983
 2546TIP3    H2 7596   0.873   4.321   1.948
 2547TIP3   OH2 7597   6.569   3.462   0.258
 2547TIP3    H1 7598   6.544   3.441   0.168
 2547TIP3    H2 7599   6.519   3.401   0.312
 2548TIP3   OH2 7600   6.267   3.505   1.470
 2548TIP3    H1 7601   6.292   3.486   1.561
 2548TIP3    H2 7602   6.214   3.584   1.476
 2549TIP3   OH2 7603   2.939   3.895   4.155
 2549TIP3    H1 7604   2.915   3.805   4.176
 2549TIP3    H2 7605   2.856   3.938   4.135
 2550TIP3   OH2 7606   5.358   4.861   2.610
 2550TIP3    H1 7607   5.329   4.928   2.672
 2550TIP3    H2 7608   5.451   4.879   2.597
 2551TIP3   OH2 7609   3.128   7.245   6.403
 2551TIP3    H1 7610   3.175   7.277   6.325
 2551TIP3    H2 7611   3.046   7.209   6.368
 2552TIP3   OH2 7612   6.073   1.285   6.465
 2552TIP3    H1 7613   6.039   1.239   6.541
 2552TIP3    H2 7614   6.144   1.230   6.432
 2553TIP3   OH2 7615   5.520   0.093   1.771
 2553TIP3    H1 7616   5.448   0.145   1.807
 2553TIP3    H2 7617   5.478   0.036   1.707
 2554TIP3   OH2 7618   2.269   1.454   5.874
 2554TIP3    H1 7619   2.348   1.500   5.843
 2554TIP3    H2 7620   2.302   1.390   5.937
 2555TIP3   OH2 7621   6.310   3.805   5.827
 2555TIP3    H1 7622   6.255   3.818   5.749
 2555TIP3    H2 7623   6.288   3.879   5.884
 2556TIP3   OH2 7624   5.621   5.641   6.443
 2556TIP3    H1 7625   5.544   5.623   6.497
 2556TIP3    H2 7626   5.674   5.699   6.497
 2557TIP3   OH2 7627   5.182   7.409   3.973
 2557TIP3    H1 7628   5.126   7.474   4.017
 2557TIP3    H2 7629   5.243   7.381   4.041
 2558TIP3   OH2 7630   1.493   1.034   1.902
 2558TIP3    H1 7631   1.566   1.075   1.854
 2558TIP3    H2 7632   1.535   0.970   1.959
 2559TIP3   OH2 7633   0.813   4.823   5.358
 2559TIP3    H1 7634   0.802   4.744   5.410
 2559TIP3    H2 7635   0.907   4.832   5.347
 2560TIP3   OH2 7636   3.721   0.636   3.717
 2560TIP3    H1 7637   3.746   0.564   3.660
 2560TIP3    H2 7638   3.664   0.597   3.783
 2561TIP3   OH2 7639   0.291   5.798   4.452
 2561TIP3    H1 7640   0.236   5.832   4.523
 2561TIP3    H2 7641   0.293   5.703   4.466
 2562TIP3   OH2 7642   4.481   2.293   5.108
 2562TIP3    H1 7643   4.470   2.379   5.149
 2562TIP3    H2 7644   4.571   2.292   5.077
 2563TIP3   OH2 7645   6.344   1.414   2.136
 2563TIP3    H1 7646   6.291   1.452   2.066
 2563TIP3    H2 7647   6.422   1.382   2.092
 2564TIP3   OH2 7648   3.120   6.487   0.773
 2564TIP3    H1 7649   3.104   6.556   0.709
 2564TIP3    H2 7650   3.054   6.500   0.841
 2565TIP3   OH2 7651   2.908   3.498   0.799
 2565TIP3    H1 7652   2.835   3.519   0.741
 2565TIP3    H2 7653   2.907   3.402   0.806
 2566TIP3   OH2 7654   2.908   1.184   4.790
 2566TIP3    H1 7655   2.875   1.154   4.874
 2566TIP3    H2 7656   2.885   1.277   4.787
 2567TIP3   OH2 7657   1.249   7.404   1.361
 2567TIP3    H1 7658   1.198   7.472   1.404
 2567TIP3    H2 7659   1.298   7.449   1.293
 2568TIP3   OH2 7660   5.453   4.055   3.245
 2568TIP3    H1 7661   5.470   4.000   3.321
 2568TIP3    H2 7662   5.384   4.115   3.275
 2569TIP3   OH2 7663   1.654   2.603   3.794
 2569TIP3    H1 7664   1.665   2.694   3.767
 2569TIP3    H2 7665   1.561   2.585   3.781
 2570TIP3   OH2 7666   8.033   2.135   4.870
 2570TIP3    H1 7667   8.114   2.122   4.820
 2570TIP3    H2 7668   8.060   2.192   4.943
 2571TIP3   OH2 7669   0.306   7.541   3.648
 2571TIP3    H1 7670   0.332   7.556   3.739
 2571TIP3    H2 7671   0.225   7.591   3.637
 2572TIP3   OH2 7672   3.147   1.008   0.373
 2572TIP3    H1 7673   3.057   1.039   0.366
 2572TIP3    H2 7674   3.185   1.021   0.286
 2573TIP3   OH2 7675   4.146   6.616   5.075
 2573TIP3    H1 7676   4.221   6.557   5.073
 2573TIP3    H2 7677   4.102   6.601   4.990
 2574TIP3   OH2 7678   5.290   6.377   5.677
 2574TIP3    H1 7679   5.274   6.439   5.749
 2574TIP3    H2 7680   5.202   6.357   5.644
 2575TIP3   OH2 7681   4.430   0.850   4.189
 2575TIP3    H1 7682   4.383   0.771   4.215
 2575TIP3    H2 7683   4.514   0.844   4.233
 2576TIP3   OH2 7684   3.613   4.875   2.335
 2576TIP3    H1 7685   3.597   4.812   2.406
 2576TIP3    H2 7686   3.528   4.915   2.319
 2577TIP3   OH2 7687   2.353   1.879   0.695
 2577TIP3    H1 7688   2.257   1.882   0.692
 2577TIP3    H2 7689   2.374   1.863   0.786
 2578TIP3   OH2 7690   4.258   4.038   4.607
 2578TIP3    H1 7691   4.329   4.045   4.543
 2578TIP3    H2 7692   4.262   4.120   4.657
 2579TIP3   OH2 7693   1.826   4.230   4.751
 2579TIP3    H1 7694   1.777   4.288   4.809
 2579TIP3    H2 7695   1.879   4.177   4.810
 2580TIP3   OH2 7696   0.123   4.883   5.797
 2580TIP3    H1 7697   0.102   4.790   5.787
 2580TIP3    H2 7698   0.160   4.909   5.713
 2581TIP3   OH2 7699   7.943   6.787   4.545
 2581TIP3    H1 7700   7.934   6.692   4.549
 2581TIP3    H2 7701   8.012   6.807   4.609
 2582TIP3   OH2 7702   2.066   3.928   6.000
 2582TIP3    H1 7703   2.106   3.982   6.068
 2582TIP3    H2 7704   2.119   3.944   5.922
 2583TIP3   OH2 7705   2.317   1.520   4.733
 2583TIP3    H1 7706   2.337   1.548   4.822
 2583TIP3    H2 7707   2.277   1.434   4.743
 2584TIP3   OH2 7708   7.913   2.482   4.790
 2584TIP3    H1 7709   7.832   2.434   4.805
 2584TIP3    H2 7710   7.950   2.442   4.711
 2585TIP3   OH2 7711   8.266   6.888   0.026
 2585TIP3    H1 7712   8.306   6.953   0.085
 2585TIP3    H2 7713   8.338   6.859  -0.030
 2586TIP3   OH2 7714   4.658   5.865   5.057
 2586TIP3    H1 7715   4.698   5.920   4.990
 2586TIP3    H2 7716   4.655   5.777   5.019
 2587TIP3   OH2 7717   6.884   7.473   0.581
 2587TIP3    H1 7718   6.888   7.414   0.505
 2587TIP3    H2 7719   6.935   7.429   0.649
 2588TIP3   OH2 7720   4.591   6.554   6.350
 2588TIP3    H1 7721   4.626   6.489   6.288
 2588TIP3    H2 7722   4.646   6.545   6.428
 2589TIP3   OH2 7723   5.841   2.770   3.066
 2589TIP3    H1 7724   5.856   2.685   3.026
 2589TIP3    H2 7725   5.756   2.799   3.032
 2590TIP3   OH2 7726   5.329   6.073   0.288
 2590TIP3    H1 7727   5.256   6.120   0.248
 2590TIP3    H2 7728   5.407   6.116   0.253
 2591TIP3   OH2 7729   4.575   5.265   5.947
 2591TIP3    H1 7730   4.594   5.336   6.008
 2591TIP3    H2 7731   4.510   5.211   5.993
 2592TIP3   OH2 7732   4.310   1.370   6.582
 2592TIP3    H1 7733   4.291   1.382   6.675
 2592TIP3    H2 7734   4.244   1.309   6.551
 2593TIP3   OH2 7735   2.644   0.773   2.805
 2593TIP3    H1 7736   2.712   0.792   2.870
 2593TIP3    H2 7737   2.565   0.813   2.840
 2594TIP3   OH2 7738   6.126   0.911   3.420
 2594TIP3    H1 7739   6.169   0.996   3.421
 2594TIP3    H2 7740   6.197   0.847   3.428
 2595TIP3   OH2 7741   5.513   5.431   1.839
 2595TIP3    H1 7742   5.556   5.351   1.869
 2595TIP3    H2 7743   5.528   5.494   1.909
 2596TIP3   OH2 7744   0.585   6.037   4.041
 2596TIP3    H1 7745   0.674   6.064   4.064
 2596TIP3    H2 7746   0.557   5.981   4.114
 2597TIP3   OH2 7747   7.160   5.172   4.653
 2597TIP3    H1 7748   7.104   5.244   4.624
 2597TIP3    H2 7749   7.249   5.201   4.631
 2598TIP3   OH2 7750   5.114   1.632   2.733
 2598TIP3    H1 7751   5.206   1.612   2.752
 2598TIP3    H2 7752   5.064   1.571   2.787
 2599TIP3   OH2 7753   6.761   1.423   0.199
 2599TIP3    H1 7754   6.744   1.515   0.178
 2599TIP3    H2 7755   6.684   1.376   0.167
 2600TIP3   OH2 7756   6.872   6.222   3.085
 2600TIP3    H1 7757   6.777   6.222   3.097
 2600TIP3    H2 7758   6.887   6.288   3.018
 2601TIP3   OH2 7759   0.047   7.557   1.598
 2601TIP3    H1 7760   0.043   7.619   1.671
 2601TIP3    H2 7761  -0.027   7.582   1.543
 2602TIP3   OH2 7762   1.866   1.737   0.235
 2602TIP3    H1 7763   1.843   1.830   0.228
 2602TIP3    H2 7764   1.791   1.691   0.196
 2603TIP3   OH2 7765   5.973   3.741   1.835
 2603TIP3    H1 7766   5.967   3.647   1.850
 2603TIP3    H2 7767   5.882   3.770   1.824
 2604TIP3   OH2 7768   6.131   2.029   1.465
 2604TIP3    H1 7769   6.145   2.074   1.381
 2604TIP3    H2 7770   6.070   2.086   1.512
 2605TIP3   OH2 7771   4.596   3.991   2.032
 2605TIP3    H1 7772   4.687   3.973   2.056
 2605TIP3    H2 7773   4.587   4.085   2.042
 2606TIP3   OH2 7774   3.213   7.272   4.190
 2606TIP3    H1 7775   3.280   7.337   4.210
 2606TIP3    H2 7776   3.202   7.277   4.096
 2607TIP3   OH2 7777   3.920   5.061   1.982
 2607TIP3    H1 7778   3.910   5.152   1.954
 2607TIP3    H2 7779   3.830   5.028   1.988
 2608TIP3   OH2 7780   0.018   3.597   3.943
 2608TIP3    H1 7781   0.085   3.654   3.905
 2608TIP3    H2 7782   0.055   3.509   3.939
 2609TIP3   OH2 7783   6.623   3.900   0.577
 2609TIP3    H1 7784   6.570   3.827   0.546
 2609TIP3    H2 7785   6.596   3.974   0.522
 2610TIP3   OH2 7786   7.491   3.761   4.863
 2610TIP3    H1 7787   7.450   3.835   4.907
 2610TIP3    H2 7788   7.552   3.726   4.928
 2611TIP3   OH2 7789   2.767   0.355   0.920
 2611TIP3    H1 7790   2.813   0.371   0.837
 2611TIP3    H2 7791   2.816   0.405   0.985
 2612TIP3   OH2 7792   5.997   5.782   0.450
 2612TIP3    H1 7793   5.959   5.733   0.523
 2612TIP3    H2 7794   6.019   5.715   0.385
 2613TIP3   OH2 7795   6.357   2.010   4.264
 2613TIP3    H1 7796   6.371   1.958   4.343
 2613TIP3    H2 7797   6.264   2.001   4.245
 2614TIP3   OH2 7798   0.280   3.277   5.531
 2614TIP3    H1 7799   0.262   3.352   5.474
 2614TIP3    H2 7800   0.202   3.222   5.524
 2615TIP3   OH2 7801   2.957   3.009   3.305
 2615TIP3    H1 7802   3.006   3.055   3.238
 2615TIP3    H2 7803   2.980   3.054   3.387
 2616TIP3   OH2 7804   3.974   5.829   3.131
 2616TIP3    H1 7805   4.019   5.913   3.142
 2616TIP3    H2 7806   3.996   5.802   3.042
 2617TIP3   OH2 7807   4.502   1.957   3.151
 2617TIP3    H1 7808   4.431   1.971   3.214
 2617TIP3    H2 7809   4.510   1.861   3.145
 2618TIP3   OH2 7810   7.719   2.401   1.499
 2618TIP3    H1 7811   7.631   2.373   1.523
 2618TIP3    H2 7812   7.752   2.446   1.577
 2619TIP3   OH2 7813   4.161   7.157   3.149
 2619TIP3    H1 7814   4.231   7.220   3.168
 2619TIP3    H2 7815   4.208   7.074   3.134
 2620TIP3   OH2 7816   2.506   4.798   6.517
 2620TIP3    H1 7817   2.410   4.801   6.515
 2620TIP3    H2 7818   2.527   4.767   6.605
 2621TIP3   OH2 7819   4.307   0.973   6.264
 2621TIP3    H1 7820   4.337   0.947   6.351
 2621TIP3    H2 7821   4.388   0.983   6.213
 2622TIP3   OH2 7822   4.745   3.355   3.408
 2622TIP3    H1 7823   4.669   3.319   3.454
 2622TIP3    H2 7824   4.761   3.293   3.337
 2623TIP3   OH2 7825   6.151   6.035   5.120
 2623TIP3    H1 7826   6.171   5.953   5.073
 2623TIP3    H2 7827   6.223   6.045   5.182
 2624TIP3   OH2 7828   2.615   0.531   5.905
 2624TIP3    H1 7829   2.682   0.519   5.972
 2624TIP3    H2 7830   2.532   0.527   5.953
 2625TIP3   OH2 7831   6.499   5.107   3.543
 2625TIP3    H1 7832   6.416   5.131   3.503
 2625TIP3    H2 7833   6.565   5.151   3.491
 2626TIP3   OH2 7834   0.737   0.500   3.371
 2626TIP3    H1 7835   0.806   0.487   3.436
 2626TIP3    H2 7836   0.707   0.590   3.385
 2627TIP3   OH2 7837   4.472   2.385   1.264
 2627TIP3    H1 7838   4.394   2.395   1.318
 2627TIP3    H2 7839   4.466   2.455   1.199
 2628TIP3   OH2 7840   0.457   4.963   4.253
 2628TIP3    H1 7841   0.535   4.999   4.211
 2628TIP3    H2 7842   0.386   5.022   4.225
 2629TIP3   OH2 7843   7.254   6.151   5.085
 2629TIP3    H1 7844   7.159   6.142   5.098
 2629TIP3    H2 7845   7.285   6.061   5.075
 2630TIP3   OH2 7846   1.382   3.971   1.982
 2630TIP3    H1 7847   1.340   3.987   2.067
 2630TIP3    H2 7848   1.354   4.044   1.927
 2631TIP3   OH2 7849   3.214   4.268   4.267
 2631TIP3    H1 7850   3.245   4.192   4.218
 2631TIP3    H2 7851   3.128   4.242   4.301
 2632TIP3   OH2 7852   0.282   5.029   5.987
 2632TIP3    H1 7853   0.208   5.002   5.934
 2632TIP3    H2 7854   0.357   5.024   5.927
 2633TIP3   OH2 7855   2.619   3.747   3.547
 2633TIP3    H1 7856   2.710   3.776   3.553
 2633TIP3    H2 7857   2.579   3.809   3.486
 2634TIP3   OH2 7858   1.957   4.431   5.883
 2634TIP3    H1 7859   1.903   4.356   5.905
 2634TIP3    H2 7860   2.047   4.403   5.902
 2635TIP3   OH2 7861   2.016   2.154   0.325
 2635TIP3    H1 7862   1.982   2.158   0.414
 2635TIP3    H2 7863   2.059   2.238   0.312
 2636TIP3   OH2 7864   5.457   7.151   2.642
 2636TIP3    H1 7865   5.521   7.191   2.583
 2636TIP3    H2 7866   5.401   7.223   2.669
 2637TIP3   OH2 7867   3.552   2.421   4.279
 2637TIP3    H1 7868   3.546   2.511   4.246
 2637TIP3    H2 7869   3.554   2.367   4.201
 2638TIP3   OH2 7870   1.613   1.378   3.409
 2638TIP3    H1 7871   1.524   1.406   3.433
 2638TIP3    H2 7872   1.627   1.298   3.461
 2639TIP3   OH2 7873   0.835   3.295   2.331
 2639TIP3    H1 7874   0.775   3.240   2.281
 2639TIP3    H2 7875   0.793   3.381   2.334
 2640TIP3   OH2 7876   8.218   0.530   2.013
 2640TIP3    H1 7877   8.262   0.613   1.991
 2640TIP3    H2 7878   8.194   0.493   1.929
 2641TIP3   OH2 7879   2.858   0.178   0.536
 2641TIP3    H1 7880   2.844   0.169   0.442
 2641TIP3    H2 7881   2.953   0.177   0.545
 2642TIP3   OH2 7882   5.031   3.612   1.574
 2642TIP3    H1 7883   5.127   3.610   1.585
 2642TIP3    H2 7884   5.018   3.654   1.489
 2643TIP3   OH2 7885   5.560   0.213   6.462
 2643TIP3    H1 7886   5.609   0.172   6.390
 2643TIP3    H2 7887   5.627   0.258   6.513
 2644TIP3   OH2 7888   7.977   5.148   1.188
 2644TIP3    H1 7889   8.018   5.172   1.105
 2644TIP3    H2 7890   7.973   5.230   1.237
 2645TIP3   OH2 7891   2.977   5.875   6.278
 2645TIP3    H1 7892   3.026   5.794   6.269
 2645TIP3    H2 7893   2.969   5.889   6.373
 2646TIP3   OH2 7894   1.281   4.135   1.042
 2646TIP3    H1 7895   1.215   4.148   1.111
 2646TIP3    H2 7896   1.363   4.124   1.090
 2647TIP3   OH2 7897   0.357   2.201   6.249
 2647TIP3    H1 7898   0.374   2.236   6.162
 2647TIP3    H2 7899   0.339   2.108   6.235
 2648TIP3   OH2 7900   3.691   2.598   3.940
 2648TIP3    H1 7901   3.637   2.633   4.011
 2648TIP3    H2 7902   3.653   2.636   3.861
 2649TIP3   OH2 7903   7.300   0.837   5.718
 2649TIP3    H1 7904   7.315   0.785   5.639
 2649TIP3    H2 7905   7.329   0.925   5.694
 2650TIP3   OH2 7906   6.600   1.830   2.963
 2650TIP3    H1 7907   6.577   1.883   2.886
 2650TIP3    H2 7908   6.528   1.767   2.971
 2651TIP3   OH2 7909   3.974   0.824   5.155
 2651TIP3    H1 7910   4.012   0.762   5.217
 2651TIP3    H2 7911   4.009   0.909   5.180
 2652TIP3   OH2 7912   4.262   6.612   2.236
 2652TIP3    H1 7913   4.237   6.647   2.150
 2652TIP3    H2 7914   4.254   6.517   2.226
 2653TIP3   OH2 7915   2.776   1.145   4.284
 2653TIP3    H1 7916   2.861   1.180   4.312
 2653TIP3    H2 7917   2.779   1.052   4.306
 2654TIP3   OH2 7918   2.819   6.029   0.855
 2654TIP3    H1 7919   2.868   6.111   0.850
 2654TIP3    H2 7920   2.839   5.994   0.941
 2655TIP3   OH2 7921   6.813   2.815   6.605
 2655TIP3    H1 7922   6.728   2.780   6.631
 2655TIP3    H2 7923   6.876   2.748   6.632
 2656TIP3   OH2 7924   7.425   2.424   4.811
 2656TIP3    H1 7925   7.492   2.492   4.815
 2656TIP3    H2 7926   7.383   2.426   4.897
 2657TIP3   OH2 7927   2.942   0.307   6.790
 2657TIP3    H1 7928   2.853   0.272   6.792
 2657TIP3    H2 7929   2.965   0.310   6.697
 2658TIP3   OH2 7930   2.128   7.015   3.631
 2658TIP3    H1 7931   2.096   7.084   3.573
 2658TIP3    H2 7932   2.222   7.011   3.613
 2659TIP3   OH2 7933   7.103   2.534   1.955
 2659TIP3    H1 7934   7.145   2.597   1.896
 2659TIP3    H2 7935   7.168   2.518   2.023
 2660TIP3   OH2 7936   7.743   5.882   6.498
 2660TIP3    H1 7937   7.819   5.862   6.442
 2660TIP3    H2 7938   7.777   5.877   6.587
 2661TIP3   OH2 7939   5.682   0.572   0.199
 2661TIP3    H1 7940   5.708   0.647   0.253
 2661TIP3    H2 7941   5.642   0.510   0.261
 2662TIP3   OH2 7942   1.072   3.677   5.918
 2662TIP3    H1 7943   1.041   3.692   5.829
 2662TIP3    H2 7944   1.162   3.710   5.917
 2663TIP3   OH2 7945   1.940   2.260   0.924
 2663TIP3    H1 7946   1.950   2.293   1.013
 2663TIP3    H2 7947   2.012   2.198   0.913
 2664TIP3   OH2 7948   3.127   7.035   1.820
 2664TIP3    H1 7949   3.143   6.945   1.790
 2664TIP3    H2 7950   3.037   7.053   1.793
 2665TIP3   OH2 7951   5.550   5.639   2.037
 2665TIP3    H1 7952   5.479   5.699   2.016
 2665TIP3    H2 7953   5.527   5.603   2.122
 2666TIP3   OH2 7954   5.084   4.418   6.207
 2666TIP3    H1 7955   5.127   4.411   6.292
 2666TIP3    H2 7956   5.074   4.327   6.178
 2667TIP3   OH2 7957   2.063   7.307   5.953
 2667TIP3    H1 7958   2.036   7.388   5.997
 2667TIP3    H2 7959   2.072   7.243   6.023
 2668TIP3   OH2 7960   3.120   0.798   5.499
 2668TIP3    H1 7961   3.214   0.793   5.519
 2668TIP3    H2 7962   3.100   0.715   5.456
 2669TIP3   OH2 7963   7.105   5.624   0.189
 2669TIP3    H1 7964   7.131   5.545   0.235
 2669TIP3    H2 7965   7.131   5.695   0.247
 2670TIP3   OH2 7966   5.663   2.496   3.195
 2670TIP3    H1 7967   5.738   2.507   3.254
 2670TIP3    H2 7968   5.684   2.549   3.119
 2671TIP3   OH2 7969   0.884   1.062   0.276
 2671TIP3    H1 7970   0.904   1.087   0.186
 2671TIP3    H2 7971   0.791   1.081   0.286
 2672TIP3   OH2 7972   2.917   3.932   2.042
 2672TIP3    H1 7973   2.902   3.840   2.020
 2672TIP3    H2 7974   2.991   3.958   1.988
 2673TIP3   OH2 7975   6.114   5.400   1.761
 2673TIP3    H1 7976   6.024   5.387   1.732
 2673TIP3    H2 7977   6.110   5.471   1.824
 2674TIP3   OH2 7978   3.821   1.793   5.039
 2674TIP3    H1 7979   3.874   1.714   5.054
 2674TIP3    H2 7980   3.758   1.767   4.972
 2675TIP3   OH2 7981   0.554   7.474   2.091
 2675TIP3    H1 7982   0.601   7.480   2.008
 2675TIP3    H2 7983   0.478   7.532   2.080
 2676TIP3   OH2 7984   6.263   0.844   4.660
 2676TIP3    H1 7985   6.283   0.773   4.599
 2676TIP3    H2 7986   6.170   0.863   4.644
 2677TIP3   OH2 7987   5.276   7.085   6.085
 2677TIP3    H1 7988   5.283   7.176   6.115
 2677TIP3    H2 7989   5.304   7.032   6.160
 2678TIP3   OH2 7990   3.562   1.918   1.909
 2678TIP3    H1 7991   3.614   1.937   1.831
 2678TIP3    H2 7992   3.622   1.869   1.966
 2679TIP3   OH2 7993   8.007   4.328   6.161
 2679TIP3    H1 7994   8.080   4.270   6.138
 2679TIP3    H2 7995   8.048   4.405   6.199
 2680TIP3   OH2 7996   4.204   1.869   0.732
 2680TIP3    H1 7997   4.147   1.849   0.657
 2680TIP3    H2 7998   4.150   1.847   0.808
 2681TIP3   OH2 7999   4.886   0.709   4.084
 2681TIP3    H1 8000   4.858   0.619   4.098
 2681TIP3    H2 8001   4.980   0.703   4.070
 2682TIP3   OH2 8002   8.146   1.624   0.773
 2682TIP3    H1 8003   8.185   1.684   0.710
 2682TIP3    H2 8004   8.151   1.670   0.856
 2683TIP3   OH2 8005   6.302   0.270   4.210
 2683TIP3    H1 8006   6.263   0.343   4.161
 2683TIP3    H2 8007   6.228   0.213   4.229
 2684TIP3   OH2 8008   7.631   4.353   2.465
 2684TIP3    H1 8009   7.587   4.271   2.445
 2684TIP3    H2 8010   7.562   4.411   2.497
 2685TIP3   OH2 8011   3.344   6.624   5.651
 2685TIP3    H1 8012   3.426   6.645   5.606
 2685TIP3    H2 8013   3.302   6.558   5.596
 2686TIP3   OH2 8014   1.114   0.176   0.934
 2686TIP3    H1 8015   1.117   0.148   1.026
 2686TIP3    H2 8016   1.061   0.110   0.890
 2687TIP3   OH2 8017   6.497   3.560   4.525
 2687TIP3    H1 8018   6.504   3.617   4.449
 2687TIP3    H2 8019   6.497   3.620   4.600
 2688TIP3   OH2 8020   1.447   4.673   4.430
 2688TIP3    H1 8021   1.511   4.705   4.367
 2688TIP3    H2 8022   1.467   4.581   4.442
 2689TIP3   OH2 8023   2.759   5.279   0.321
 2689TIP3    H1 8024   2.793   5.297   0.233
 2689TIP3    H2 8025   2.790   5.352   0.374
 2690TIP3   OH2 8026   5.836   5.620   3.432
 2690TIP3    H1 8027   5.751   5.622   3.477
 2690TIP3    H2 8028   5.894   5.576   3.493
 2691TIP3   OH2 8029   1.305   2.649   0.477
 2691TIP3    H1 8030   1.359   2.595   0.534
 2691TIP3    H2 8031   1.341   2.634   0.389
 2692TIP3   OH2 8032   0.087   5.119   5.046
 2692TIP3    H1 8033   0.087   5.210   5.073
 2692TIP3    H2 8034   0.177   5.089   5.062
 2693TIP3   OH2 8035   7.097   2.622   0.051
 2693TIP3    H1 8036   7.130   2.631   0.140
 2693TIP3    H2 8037   7.026   2.558   0.057
 2694TIP3   OH2 8038   3.597   5.055   0.371
 2694TIP3    H1 8039   3.680   5.014   0.350
 2694TIP3    H2 8040   3.535   5.020   0.307
 2695TIP3   OH2 8041   4.728   4.517   2.964
 2695TIP3    H1 8042   4.778   4.598   2.953
 2695TIP3    H2 8043   4.751   4.464   2.888
 2696TIP3   OH2 8044   2.249   3.649   4.961
 2696TIP3    H1 8045   2.249   3.728   4.907
 2696TIP3    H2 8046   2.210   3.582   4.905
 2697TIP3   OH2 8047   6.432   7.291   6.677
 2697TIP3    H1 8048   6.373   7.244   6.618
 2697TIP3    H2 8049   6.378   7.313   6.753
 2698TIP3   OH2 8050   1.255   4.890   3.011
 2698TIP3    H1 8051   1.340   4.897   3.056
 2698TIP3    H2 8052   1.220   4.979   3.011
 2699TIP3   OH2 8053   6.201   0.590   0.955
 2699TIP3    H1 8054   6.172   0.523   1.017
 2699TIP3    H2 8055   6.171   0.558   0.870
 2700TIP3   OH2 8056   1.200   0.709   2.817
 2700TIP3    H1 8057   1.212   0.687   2.909
 2700TIP3    H2 8058   1.107   0.728   2.808
 2701TIP3   OH2 8059   4.944   6.461   0.664
 2701TIP3    H1 8060   4.873   6.397   0.668
 2701TIP3    H2 8061   5.013   6.415   0.615
 2702TIP3   OH2 8062   3.120   2.330   2.274
 2702TIP3    H1 8063   3.067   2.406   2.249
 2702TIP3    H2 8064   3.201   2.368   2.309
 2703TIP3   OH2 8065  -0.011   2.786   0.121
 2703TIP3    H1 8066   0.021   2.874   0.100
 2703TIP3    H2 8067   0.052   2.753   0.186
 2704TIP3   OH2 8068   0.965   7.277   2.811
 2704TIP3    H1 8069   1.040   7.273   2.752
 2704TIP3    H2 8070   1.003   7.283   2.899
 2705TIP3   OH2 8071   6.740   5.182   3.401
 2705TIP3    H1 8072   6.742   5.272   3.367
 2705TIP3    H2 8073   6.825   5.145   3.376
 2706TIP3   OH2 8074   0.740   3.416   1.107
 2706TIP3    H1 8075   0.746   3.433   1.013
 2706TIP3    H2 8076   0.824   3.376   1.129
 2707TIP3   OH2 8077   1.224   2.270   0.546
 2707TIP3    H1 8078   1.302   2.230   0.508
 2707TIP3    H2 8079   1.227   2.246   0.639
 2708TIP3   OH2 8080   7.743   2.685   0.570
 2708TIP3    H1 8081   7.699   2.655   0.491
 2708TIP3    H2 8082   7.673   2.695   0.635
 2709TIP3   OH2 8083   2.673   4.350   2.239
 2709TIP3    H1 8084   2.608   4.407   2.280
 2709TIP3    H2 8085   2.728   4.320   2.311
 2710TIP3   OH2 8086   4.309   4.055   6.126
 2710TIP3    H1 8087   4.231   4.058   6.181
 2710TIP3    H2 8088   4.366   4.122   6.163
 2711TIP3   OH2 8089   7.828   7.048   2.559
 2711TIP3    H1 8090   7.834   7.106   2.483
 2711TIP3    H2 8091   7.747   7.074   2.603
 2712TIP3   OH2 8092   5.980   1.633   0.059
 2712TIP3    H1 8093   6.008   1.618   0.149
 2712TIP3    H2 8094   6.035   1.573   0.007
 2713TIP3   OH2 8095   3.424   6.146   4.962
 2713TIP3    H1 8096   3.420   6.062   4.916
 2713TIP3    H2 8097   3.435   6.211   4.893
 2714TIP3   OH2 8098   4.895   3.479   1.770
 2714TIP3    H1 8099   4.941   3.526   1.700
 2714TIP3    H2 8100   4.944   3.398   1.781
 2715TIP3   OH2 8101   0.200   5.954   3.555
 2715TIP3    H1 8102   0.267   5.968   3.488
 2715TIP3    H2 8103   0.181   6.042   3.588
 2716TIP3   OH2 8104   1.524   1.921   0.340
 2716TIP3    H1 8105   1.467   1.848   0.361
 2716TIP3    H2 8106   1.604   1.905   0.391
 2717TIP3   OH2 8107   3.355   3.364   6.050
 2717TIP3    H1 8108   3.280   3.401   6.004
 2717TIP3    H2 8109   3.396   3.305   5.986
 2718TIP3   OH2 8110   2.206   6.324   5.449
 2718TIP3    H1 8111   2.213   6.415   5.476
 2718TIP3    H2 8112   2.274   6.278   5.499
 2719TIP3   OH2 8113   3.817   0.527   5.181
 2719TIP3    H1 8114   3.817   0.474   5.101
 2719TIP3    H2 8115   3.910   0.542   5.200
 2720TIP3   OH2 8116   2.567   1.904   4.815
 2720TIP3    H1 8117   2.610   1.936   4.894
 2720TIP3    H2 8118   2.607   1.819   4.798
 2721TIP3   OH2 8119   5.161   7.637   0.744
 2721TIP3    H1 8120   5.104   7.694   0.795
 2721TIP3    H2 8121   5.106   7.561   0.722
 2722TIP3   OH2 8122   0.098   6.750   6.308
 2722TIP3    H1 8123   0.015   6.796   6.311
 2722TIP3    H2 8124   0.076   6.663   6.275
 2723TIP3   OH2 8125   7.605   6.154   4.904
 2723TIP3    H1 8126   7.653   6.145   4.822
 2723TIP3    H2 8127   7.593   6.065   4.935
 2724TIP3   OH2 8128   1.017   1.900   0.414
 2724TIP3    H1 8129   0.941   1.953   0.392
 2724TIP3    H2 8130   1.080   1.917   0.345
 2725TIP3   OH2 8131   3.735   4.080   6.589
 2725TIP3    H1 8132   3.829   4.066   6.604
 2725TIP3    H2 8133   3.703   3.996   6.555
 2726TIP3   OH2 8134   1.276   3.052   6.194
 2726TIP3    H1 8135   1.185   3.026   6.177
 2726TIP3    H2 8136   1.300   3.005   6.273
 2727TIP3   OH2 8137   7.445   7.801   4.951
 2727TIP3    H1 8138   7.393   7.817   4.872
 2727TIP3    H2 8139   7.460   7.889   4.987
 2728TIP3   OH2 8140   3.035   6.091   0.165
 2728TIP3    H1 8141   3.046   6.063   0.074
 2728TIP3    H2 8142   3.074   6.021   0.217
 2729TIP3   OH2 8143   6.931   0.506   0.838
 2729TIP3    H1 8144   6.963   0.548   0.758
 2729TIP3    H2 8145   6.886   0.576   0.886
 2730TIP3   OH2 8146   6.434   5.817   1.421
 2730TIP3    H1 8147   6.417   5.775   1.337
 2730TIP3    H2 8148   6.411   5.750   1.486
 2731TIP3   OH2 8149   2.948   7.649   4.845
 2731TIP3    H1 8150   2.989   7.581   4.900
 2731TIP3    H2 8151   3.022   7.695   4.805
 2732TIP3   OH2 8152   6.444   5.078   4.655
 2732TIP3    H1 8153   6.532   5.116   4.649
 2732TIP3    H2 8154   6.421   5.058   4.564
 2733TIP3   OH2 8155   3.087   0.512   5.394
 2733TIP3    H1 8156   3.122   0.434   5.350
 2733TIP3    H2 8157   3.028   0.477   5.461
 2734TIP3   OH2 8158   7.117   4.230   1.284
 2734TIP3    H1 8159   7.089   4.139   1.290
 2734TIP3    H2 8160   7.170   4.233   1.204
 2735TIP3   OH2 8161   7.355   5.452   0.927
 2735TIP3    H1 8162   7.428   5.513   0.943
 2735TIP3    H2 8163   7.290   5.475   0.993
 2736TIP3   OH2 8164   2.274   3.716   3.184
 2736TIP3    H1 8165   2.308   3.663   3.257
 2736TIP3    H2 8166   2.353   3.755   3.145
 2737TIP3   OH2 8167   2.888   2.126   6.742
 2737TIP3    H1 8168   2.980   2.100   6.746
 2737TIP3    H2 8169   2.891   2.221   6.735
 2738TIP3   OH2 8170   7.387   5.625   0.435
 2738TIP3    H1 8171   7.430   5.562   0.492
 2738TIP3    H2 8172   7.295   5.624   0.463
 2739TIP3   OH2 8173   3.112   6.226   3.285
 2739TIP3    H1 8174   3.147   6.315   3.295
 2739TIP3    H2 8175   3.180   6.170   3.322
 2740TIP3   OH2 8176   2.083   5.262   2.094
 2740TIP3    H1 8177   2.083   5.349   2.133
 2740TIP3    H2 8178   2.147   5.213   2.145
 2741TIP3   OH2 8179   6.992   6.484   1.541
 2741TIP3    H1 8180   7.052   6.550   1.507
 2741TIP3    H2 8181   6.997   6.493   1.636
 2742TIP3   OH2 8182   3.678   5.184   3.435
 2742TIP3    H1 8183   3.705   5.097   3.463
 2742TIP3    H2 8184   3.730   5.201   3.357
 2743TIP3   OH2 8185   0.851   2.036   4.889
 2743TIP3    H1 8186   0.817   2.013   4.802
 2743TIP3    H2 8187   0.773   2.046   4.943
 2744TIP3   OH2 8188   3.463   0.621   6.507
 2744TIP3    H1 8189   3.450   0.702   6.457
 2744TIP3    H2 8190   3.374   0.589   6.523
 2745TIP3   OH2 8191   5.144   6.870   2.270
 2745TIP3    H1 8192   5.107   6.955   2.246
 2745TIP3    H2 8193   5.228   6.890   2.311
 2746TIP3   OH2 8194   7.232   6.635   0.078
 2746TIP3    H1 8195   7.279   6.552   0.088
 2746TIP3    H2 8196   7.140   6.611   0.079
 2747TIP3   OH2 8197   8.087   5.638   6.558
 2747TIP3    H1 8198   8.089   5.587   6.477
 2747TIP3    H2 8199   8.063   5.575   6.626
 2748TIP3   OH2 8200   5.746   6.802   3.807
 2748TIP3    H1 8201   5.829   6.765   3.837
 2748TIP3    H2 8202   5.718   6.859   3.878
 2749TIP3   OH2 8203   6.084   0.241   2.078
 2749TIP3    H1 8204   6.011   0.295   2.047
 2749TIP3    H2 8205   6.088   0.168   2.016
 2750TIP3   OH2 8206   1.748   2.331   3.515
 2750TIP3    H1 8207   1.829   2.381   3.523
 2750TIP3    H2 8208   1.749   2.271   3.589
 2751TIP3   OH2 8209   2.704   2.069   2.546
 2751TIP3    H1 8210   2.679   2.101   2.633
 2751TIP3    H2 8211   2.624   2.027   2.513
 2752TIP3   OH2 8212   4.813   3.401   2.424
 2752TIP3    H1 8213   4.884   3.353   2.467
 2752TIP3    H2 8214   4.744   3.336   2.411
 2753TIP3   OH2 8215   3.711   6.381   4.019
 2753TIP3    H1 8216   3.761   6.407   4.097
 2753TIP3    H2 8217   3.680   6.293   4.039
 2754TIP3   OH2 8218   5.749   2.936   4.296
 2754TIP3    H1 8219   5.705   2.866   4.345
 2754TIP3    H2 8220   5.820   2.892   4.249
 2755TIP3   OH2 8221   5.105   2.575   3.188
 2755TIP3    H1 8222   5.063   2.512   3.129
 2755TIP3    H2 8223   5.156   2.632   3.130
 2756TIP3   OH2 8224   6.490   3.922   1.531
 2756TIP3    H1 8225   6.473   4.012   1.503
 2756TIP3    H2 8226   6.447   3.867   1.466
 2757TIP3   OH2 8227   7.990   5.126   1.502
 2757TIP3    H1 8228   7.997   5.208   1.453
 2757TIP3    H2 8229   7.984   5.153   1.593
 2758TIP3   OH2 8230   5.481   5.256   1.612
 2758TIP3    H1 8231   5.454   5.191   1.677
 2758TIP3    H2 8232   5.508   5.332   1.664
 2759TIP3   OH2 8233   1.634   2.633   5.455
 2759TIP3    H1 8234   1.541   2.651   5.468
 2759TIP3    H2 8235   1.658   2.576   5.528
 2760TIP3   OH2 8236   0.642   0.221   6.099
 2760TIP3    H1 8237   0.624   0.127   6.096
 2760TIP3    H2 8238   0.565   0.259   6.140
 2761TIP3   OH2 8239   1.072   3.783   3.402
 2761TIP3    H1 8240   1.153   3.770   3.352
 2761TIP3    H2 8241   1.100   3.827   3.482
 2762TIP3   OH2 8242   7.645   1.012   4.120
 2762TIP3    H1 8243   7.647   1.021   4.025
 2762TIP3    H2 8244   7.559   0.973   4.138
 2763TIP3   OH2 8245   8.054   3.163   6.562
 2763TIP3    H1 8246   8.012   3.249   6.567
 2763TIP3    H2 8247   8.050   3.140   6.469
 2764TIP3   OH2 8248   0.827   0.192   2.201
 2764TIP3    H1 8249   0.783   0.228   2.124
 2764TIP3    H2 8250   0.830   0.098   2.186
 2765TIP3   OH2 8251   5.844   6.663   4.980
 2765TIP3    H1 8252   5.796   6.724   5.036
 2765TIP3    H2 8253   5.853   6.708   4.897
 2766TIP3   OH2 8254   2.725   2.340   6.324
 2766TIP3    H1 8255   2.732   2.262   6.379
 2766TIP3    H2 8256   2.805   2.389   6.341
 2767TIP3   OH2 8257   2.515   2.376   0.833
 2767TIP3    H1 8258   2.537   2.467   0.813
 2767TIP3    H2 8259   2.600   2.333   0.845
 2768TIP3   OH2 8260   5.614   1.908   3.513
 2768TIP3    H1 8261   5.643   1.974   3.576
 2768TIP3    H2 8262   5.644   1.941   3.428
 2769TIP3   OH2 8263   3.034   5.644   3.490
 2769TIP3    H1 8264   3.121   5.629   3.454
 2769TIP3    H2 8265   3.046   5.714   3.554
 2770TIP3   OH2 8266   2.437   2.785   1.596
 2770TIP3    H1 8267   2.379   2.842   1.546
 2770TIP3    H2 8268   2.522   2.828   1.592
 2771TIP3   OH2 8269   6.032   3.995   2.001
 2771TIP3    H1 8270   6.023   3.926   2.066
 2771TIP3    H2 8271   6.116   4.037   2.023
 2772TIP3   OH2 8272   7.233   5.184   2.492
 2772TIP3    H1 8273   7.156   5.135   2.463
 2772TIP3    H2 8274   7.197   5.258   2.541
 2773TIP3   OH2 8275   6.896   1.832   5.032
 2773TIP3    H1 8276   6.958   1.838   4.959
 2773TIP3    H2 8277   6.839   1.908   5.022
 2774TIP3   OH2 8278   0.640   6.006   2.906
 2774TIP3    H1 8279   0.682   6.087   2.936
 2774TIP3    H2 8280   0.551   6.012   2.940
 2775TIP3   OH2 8281   4.112   0.430   1.610
 2775TIP3    H1 8282   4.061   0.509   1.627
 2775TIP3    H2 8283   4.203   0.460   1.611
 2776TIP3   OH2 8284   0.933   0.113   0.548
 2776TIP3    H1 8285   0.988   0.153   0.481
 2776TIP3    H2 8286   0.995   0.069   0.606
 2777TIP3   OH2 8287   4.958   2.950   2.616
 2777TIP3    H1 8288   4.883   2.960   2.557
 2777TIP3    H2 8289   4.949   3.023   2.678
 2778TIP3   OH2 8290   5.080   6.934   6.709
 2778TIP3    H1 8291   5.157   6.908   6.761
 2778TIP3    H2 8292   5.006   6.895   6.755
 2779TIP3   OH2 8293   7.626   0.046   1.893
 2779TIP3    H1 8294   7.544   0.023   1.849
 2779TIP3    H2 8295   7.689  -0.018   1.861
 2780TIP3   OH2 8296   4.120   1.688   3.888
 2780TIP3    H1 8297   4.059   1.730   3.949
 2780TIP3    H2 8298   4.132   1.753   3.818
 2781TIP3   OH2 8299   2.823   0.607   5.143
 2781TIP3    H1 8300   2.776   0.566   5.215
 2781TIP3    H2 8301   2.863   0.686   5.181
 2782TIP3   OH2 8302   4.305   0.495   4.564
 2782TIP3    H1 8303   4.388   0.531   4.595
 2782TIP3    H2 8304   4.243   0.513   4.635
 2783TIP3   OH2 8305   3.129   2.507   5.525
 2783TIP3    H1 8306   3.210   2.497   5.474
 2783TIP3    H2 8307   3.059   2.494   5.462
 2784TIP3   OH2 8308   6.491   5.275   4.866
 2784TIP3    H1 8309   6.534   5.277   4.781
 2784TIP3    H2 8310   6.411   5.225   4.851
 2785TIP3   OH2 8311   5.211   7.558   6.256
 2785TIP3    H1 8312   5.229   7.629   6.319
 2785TIP3    H2 8313   5.131   7.585   6.213
 2786TIP3   OH2 8314   5.426   5.582   4.803
 2786TIP3    H1 8315   5.436   5.530   4.724
 2786TIP3    H2 8316   5.349   5.637   4.786
 2787TIP3   OH2 8317   4.634   4.503   4.700
 2787TIP3    H1 8318   4.714   4.550   4.723
 2787TIP3    H2 8319   4.664   4.429   4.647
 2788TIP3   OH2 8320   4.389   6.532   2.702
 2788TIP3    H1 8321   4.369   6.558   2.612
 2788TIP3    H2 8322   4.351   6.445   2.710
 2789TIP3   OH2 8323   1.917   3.367   1.619
 2789TIP3    H1 8324   1.979   3.418   1.566
 2789TIP3    H2 8325   1.843   3.426   1.634
 2790TIP3   OH2 8326   5.051   6.098   0.832
 2790TIP3    H1 8327   5.050   6.098   0.928
 2790TIP3    H2 8328   5.073   6.008   0.808
 2791TIP3   OH2 8329   7.229   4.258   1.876
 2791TIP3    H1 8330   7.153   4.227   1.826
 2791TIP3    H2 8331   7.279   4.311   1.814
 2792TIP3   OH2 8332   3.073   1.642   3.564
 2792TIP3    H1 8333   3.150   1.636   3.508
 2792TIP3    H2 8334   3.022   1.564   3.544
 2793TIP3   OH2 8335   4.375   4.880   2.631
 2793TIP3    H1 8336   4.438   4.811   2.654
 2793TIP3    H2 8337   4.304   4.834   2.586
 2794TIP3   OH2 8338   1.282   2.807   1.718
 2794TIP3    H1 8339   1.255   2.885   1.671
 2794TIP3    H2 8340   1.311   2.839   1.804
 2795TIP3   OH2 8341   5.562   1.289   0.639
 2795TIP3    H1 8342   5.602   1.343   0.571
 2795TIP3    H2 8343   5.472   1.277   0.609
 2796TIP3   OH2 8344   5.034   2.387   6.363
 2796TIP3    H1 8345   4.965   2.453   6.367
 2796TIP3    H2 8346   4.997   2.311   6.410
 2797TIP3   OH2 8347   6.688   1.700   5.269
 2797TIP3    H1 8348   6.626   1.627   5.261
 2797TIP3    H2 8349   6.639   1.776   5.238
 2798TIP3   OH2 8350   7.672   6.820   0.830
 2798TIP3    H1 8351   7.579   6.813   0.851
 2798TIP3    H2 8352   7.690   6.914   0.834
 2799TIP3   OH2 8353   3.079   5.919   0.367
 2799TIP3    H1 8354   3.152   5.964   0.410
 2799TIP3    H2 8355   3.094   5.826   0.385
 2800TIP3   OH2 8356   2.012   3.500   6.187
 2800TIP3    H1 8357   2.005   3.544   6.102
 2800TIP3    H2 8358   2.071   3.556   6.237
 2801TIP3   OH2 8359   0.972   7.045   1.926
 2801TIP3    H1 8360   1.051   7.062   1.977
 2801TIP3    H2 8361   0.961   6.950   1.930
 2802TIP3   OH2 8362   6.737   1.623   1.125
 2802TIP3    H1 8363   6.826   1.641   1.154
 2802TIP3    H2 8364   6.745   1.613   1.030
 2803TIP3   OH2 8365   1.910   2.767   4.970
 2803TIP3    H1 8366   1.978   2.771   4.903
 2803TIP3    H2 8367   1.866   2.684   4.955
 2804TIP3   OH2 8368   6.485   3.635   2.397
 2804TIP3    H1 8369   6.408   3.691   2.396
 2804TIP3    H2 8370   6.509   3.627   2.489
 2805TIP3   OH2 8371   1.369   3.174   2.297
 2805TIP3    H1 8372   1.406   3.232   2.231
 2805TIP3    H2 8373   1.408   3.203   2.379
 2806TIP3   OH2 8374   5.862   7.512   0.420
 2806TIP3    H1 8375   5.890   7.422   0.438
 2806TIP3    H2 8376   5.921   7.566   0.473
 2807TIP3   OH2 8377   3.306   7.013  -0.054
 2807TIP3    H1 8378   3.399   7.029  -0.037
 2807TIP3    H2 8379   3.262   7.040   0.027
 2808TIP3   OH2 8380   1.578   6.329   2.969
 2808TIP3    H1 8381   1.631   6.356   2.894
 2808TIP3    H2 8382   1.553   6.239   2.950
 2809TIP3   OH2 8383   4.404   0.637   4.897
 2809TIP3    H1 8384   4.479   0.690   4.868
 2809TIP3    H2 8385   4.330   0.671   4.847
 2810TIP3   OH2 8386   0.018  -0.030   6.215
 2810TIP3    H1 8387   0.065   0.021   6.281
 2810TIP3    H2 8388   0.036   0.016   6.133
 2811TIP3   OH2 8389   7.523   3.042   0.038
 2811TIP3    H1 8390   7.586   2.992  -0.014
 2811TIP3    H2 8391   7.460   2.977   0.069
 2812TIP3   OH2 8392   2.303   5.706   4.567
 2812TIP3    H1 8393   2.384   5.756   4.575
 2812TIP3    H2 8394   2.310   5.661   4.483
 2813TIP3   OH2 8395   1.444   6.770   3.794
 2813TIP3    H1 8396   1.490   6.838   3.843
 2813TIP3    H2 8397   1.357   6.767   3.834
 2814TIP3   OH2 8398   0.093   3.128   6.513
 2814TIP3    H1 8399   0.082   3.037   6.541
 2814TIP3    H2 8400   0.006   3.155   6.483
 2815TIP3   OH2 8401   4.019   6.877   5.143
 2815TIP3    H1 8402   4.066   6.803   5.181
 2815TIP3    H2 8403   3.998   6.933   5.218
 2816TIP3   OH2 8404   0.938   3.493   4.267
 2816TIP3    H1 8405   0.908   3.417   4.316
 2816TIP3    H2 8406   0.862   3.521   4.217
 2817TIP3   OH2 8407   2.134   1.300   3.201
 2817TIP3    H1 8408   2.173   1.374   3.155
 2817TIP3    H2 8409   2.040   1.317   3.199
 2818TIP3   OH2 8410   7.078   3.623   4.017
 2818TIP3    H1 8411   7.032   3.545   3.985
 2818TIP3    H2 8412   7.095   3.675   3.939
 2819TIP3   OH2 8413   0.348   3.942   4.828
 2819TIP3    H1 8414   0.425   3.984   4.865
 2819TIP3    H2 8415   0.306   4.010   4.776
 2820TIP3   OH2 8416   2.358   7.428   5.586
 2820TIP3    H1 8417   2.430   7.486   5.562
 2820TIP3    H2 8418   2.319   7.469   5.663
 2821TIP3   OH2 8419   2.910   3.803   0.937
 2821TIP3    H1 8420   2.827   3.810   0.890
 2821TIP3    H2 8421   2.927   3.709   0.941
 2822TIP3   OH2 8422   2.789   6.147   3.169
 2822TIP3    H1 8423   2.737   6.066   3.174
 2822TIP3    H2 8424   2.875   6.123   3.202
 2823TIP3   OH2 8425   1.527   0.641   0.109
 2823TIP3    H1 8426   1.539   0.682   0.195
 2823TIP3    H2 8427   1.563   0.553   0.120
 2824TIP3   OH2 8428   3.862   7.592   2.301
 2824TIP3    H1 8429   3.819   7.527   2.246
 2824TIP3    H2 8430   3.791   7.632   2.352
 2825TIP3   OH2 8431   7.101   4.471   4.435
 2825TIP3    H1 8432   7.106   4.402   4.502
 2825TIP3    H2 8433   7.137   4.431   4.356
 2826TIP3   OH2 8434   4.134   5.327   5.937
 2826TIP3    H1 8435   4.160   5.308   5.846
 2826TIP3    H2 8436   4.053   5.277   5.949
 2827TIP3   OH2 8437   7.703   5.180   4.099
 2827TIP3    H1 8438   7.679   5.093   4.129
 2827TIP3    H2 8439   7.703   5.174   4.004
 2828TIP3   OH2 8440   3.164   2.498   6.686
 2828TIP3    H1 8441   3.237   2.436   6.683
 2828TIP3    H2 8442   3.206   2.584   6.688
 2829TIP3   OH2 8443   0.993   6.233   0.256
 2829TIP3    H1 8444   1.049   6.258   0.329
 2829TIP3    H2 8445   1.048   6.177   0.201
 2830TIP3   OH2 8446   5.163   0.286   5.365
 2830TIP3    H1 8447   5.222   0.231   5.314
 2830TIP3    H2 8448   5.215   0.314   5.441
 2831TIP3   OH2 8449   0.389   6.475   3.003
 2831TIP3    H1 8450   0.391   6.519   2.918
 2831TIP3    H2 8451   0.307   6.504   3.042
 2832TIP3   OH2 8452   3.789   6.603   4.872
 2832TIP3    H1 8453   3.782   6.638   4.961
 2832TIP3    H2 8454   3.750   6.671   4.817
 2833TIP3   OH2 8455   3.378   6.716   3.570
 2833TIP3    H1 8456   3.309   6.730   3.505
 2833TIP3    H2 8457   3.448   6.673   3.521
 2834TIP3   OH2 8458   1.133   0.590   6.705
 2834TIP3    H1 8459   1.083   0.527   6.756
 2834TIP3    H2 8460   1.202   0.619   6.764
 2835TIP3   OH2 8461   3.948   7.626   6.519
 2835TIP3    H1 8462   4.036   7.588   6.522
 2835TIP3    H2 8463   3.890   7.551   6.507
 2836TIP3   OH2 8464   7.770   7.343   3.949
 2836TIP3    H1 8465   7.797   7.380   3.865
 2836TIP3    H2 8466   7.828   7.268   3.961
 2837TIP3   OH2 8467   7.331   5.901   5.069
 2837TIP3    H1 8468   7.275   5.836   5.110
 2837TIP3    H2 8469   7.417   5.889   5.110
 2838TIP3   OH2 8470   5.179   3.911   3.498
 2838TIP3    H1 8471   5.256   3.892   3.552
 2838TIP3    H2 8472   5.104   3.885   3.552
 2839TIP3   OH2 8473   7.304   4.226   5.409
 2839TIP3    H1 8474   7.311   4.313   5.369
 2839TIP3    H2 8475   7.321   4.241   5.502
 2840TIP3   OH2 8476   3.854   1.281   5.734
 2840TIP3    H1 8477   3.856   1.242   5.821
 2840TIP3    H2 8478   3.858   1.375   5.750
 2841TIP3   OH2 8479   2.038   7.512   4.679
 2841TIP3    H1 8480   2.121   7.486   4.638
 2841TIP3    H2 8481   1.972   7.457   4.636
 2842TIP3   OH2 8482   3.323   4.721   2.088
 2842TIP3    H1 8483   3.398   4.666   2.067
 2842TIP3    H2 8484   3.252   4.660   2.106
 2843TIP3   OH2 8485   0.520   7.151   5.677
 2843TIP3    H1 8486   0.428   7.175   5.667
 2843TIP3    H2 8487   0.560   7.226   5.722
 2844TIP3   OH2 8488   2.805   0.252   3.570
 2844TIP3    H1 8489   2.736   0.319   3.562
 2844TIP3    H2 8490   2.793   0.217   3.659
 2845TIP3   OH2 8491   7.088   2.733   5.832
 2845TIP3    H1 8492   7.057   2.790   5.903
 2845TIP3    H2 8493   7.050   2.771   5.753
 2846TIP3   OH2 8494   4.526   5.961   4.493
 2846TIP3    H1 8495   4.478   5.978   4.574
 2846TIP3    H2 8496   4.609   6.007   4.504
 2847TIP3   OH2 8497   2.919   0.944   1.154
 2847TIP3    H1 8498   2.884   0.943   1.065
 2847TIP3    H2 8499   2.844   0.926   1.210
 2848TIP3   OH2 8500   6.071   6.974   5.432
 2848TIP3    H1 8501   6.074   7.042   5.365
 2848TIP3    H2 8502   5.978   6.956   5.443
 2849TIP3   OH2 8503   7.443   1.488   5.363
 2849TIP3    H1 8504   7.468   1.545   5.435
 2849TIP3    H2 8505   7.363   1.526   5.328
 2850TIP3   OH2 8506   2.922   5.560   4.533
 2850TIP3    H1 8507   2.907   5.521   4.447
 2850TIP3    H2 8508   3.010   5.531   4.558
 2851TIP3   OH2 8509   3.945   1.107   4.729
 2851TIP3    H1 8510   3.952   1.024   4.775
 2851TIP3    H2 8511   4.024   1.110   4.674
 2852TIP3   OH2 8512   0.262   4.493   4.073
 2852TIP3    H1 8513   0.215   4.489   4.156
 2852TIP3    H2 8514   0.309   4.577   4.076
 2853TIP3   OH2 8515   3.788   6.658   2.023
 2853TIP3    H1 8516   3.788   6.711   1.943
 2853TIP3    H2 8517   3.771   6.721   2.093
 2854TIP3   OH2 8518   0.482   3.440   1.900
 2854TIP3    H1 8519   0.433   3.486   1.968
 2854TIP3    H2 8520   0.523   3.508   1.849
 2855TIP3   OH2 8521   6.779   0.299   1.884
 2855TIP3    H1 8522   6.714   0.287   1.816
 2855TIP3    H2 8523   6.839   0.225   1.873
 2856TIP3   OH2 8524   5.041   0.980   3.667
 2856TIP3    H1 8525   5.067   0.947   3.581
 2856TIP3    H2 8526   4.965   1.035   3.650
 2857TIP3   OH2 8527   6.736   4.316   1.915
 2857TIP3    H1 8528   6.753   4.266   1.995
 2857TIP3    H2 8529   6.720   4.250   1.848
 2858TIP3   OH2 8530   6.833   0.186   4.042
 2858TIP3    H1 8531   6.924   0.165   4.064
 2858TIP3    H2 8532   6.840   0.259   3.981
 2859TIP3   OH2 8533   5.230   4.426   0.781
 2859TIP3    H1 8534   5.259   4.354   0.836
 2859TIP3    H2 8535   5.249   4.397   0.691
 2860TIP3   OH2 8536   2.896   4.775   2.113
 2860TIP3    H1 8537   2.909   4.744   2.203
 2860TIP3    H2 8538   2.841   4.852   2.121
 2861TIP3   OH2 8539   1.294   3.367   6.605
 2861TIP3    H1 8540   1.301   3.272   6.615
 2861TIP3    H2 8541   1.385   3.397   6.598
 2862TIP3   OH2 8542   4.917   1.922   5.110
 2862TIP3    H1 8543   4.831   1.894   5.079
 2862TIP3    H2 8544   4.977   1.897   5.040
 2863TIP3   OH2 8545   2.307   4.240   0.757
 2863TIP3    H1 8546   2.303   4.285   0.842
 2863TIP3    H2 8547   2.379   4.283   0.710
 2864TIP3   OH2 8548   8.119   4.877   5.810
 2864TIP3    H1 8549   8.078   4.959   5.780
 2864TIP3    H2 8550   8.211   4.901   5.826
 2865TIP3   OH2 8551   1.010   6.063   1.130
 2865TIP3    H1 8552   1.006   6.142   1.184
 2865TIP3    H2 8553   0.951   6.002   1.174
 2866TIP3   OH2 8554   5.053   2.081   4.821
 2866TIP3    H1 8555   5.146   2.063   4.806
 2866TIP3    H2 8556   5.010   2.054   4.739
 2867TIP3   OH2 8557   4.962   3.779   4.308
 2867TIP3    H1 8558   4.919   3.716   4.367
 2867TIP3    H2 8559   5.044   3.800   4.352
 2868TIP3   OH2 8560   0.288   5.482   3.435
 2868TIP3    H1 8561   0.306   5.557   3.492
 2868TIP3    H2 8562   0.287   5.407   3.494
 2869TIP3   OH2 8563   1.714   5.045   6.502
 2869TIP3    H1 8564   1.661   5.010   6.430
 2869TIP3    H2 8565   1.661   5.116   6.538
 2870TIP3   OH2 8566   3.515   2.302   4.573
 2870TIP3    H1 8567   3.555   2.385   4.601
 2870TIP3    H2 8568   3.582   2.236   4.593
 2871TIP3   OH2 8569   5.219   2.951   5.395
 2871TIP3    H1 8570   5.135   2.959   5.350
 2871TIP3    H2 8571   5.282   2.993   5.336
 2872TIP3   OH2 8572   4.758   3.076   4.883
 2872TIP3    H1 8573   4.753   3.051   4.975
 2872TIP3    H2 8574   4.751   3.171   4.883
 2873TIP3   OH2 8575   5.028   1.918   1.255
 2873TIP3    H1 8576   4.978   1.880   1.328
 2873TIP3    H2 8577   5.116   1.930   1.291
 2874TIP3   OH2 8578   8.274   6.227   2.432
 2874TIP3    H1 8579   8.326   6.148   2.420
 2874TIP3    H2 8580   8.277   6.272   2.348
 2875TIP3   OH2 8581   4.659   2.537   5.291
 2875TIP3    H1 8582   4.587   2.594   5.319
 2875TIP3    H2 8583   4.689   2.494   5.372
 2876TIP3   OH2 8584   7.467   2.164   2.224
 2876TIP3    H1 8585   7.507   2.248   2.244
 2876TIP3    H2 8586   7.376   2.172   2.253
 2877TIP3   OH2 8587   7.785   2.973   5.764
 2877TIP3    H1 8588   7.801   3.059   5.724
 2877TIP3    H2 8589   7.851   2.967   5.834
 2878TIP3   OH2 8590   7.374   5.317   0.102
 2878TIP3    H1 8591   7.427   5.261   0.159
 2878TIP3    H2 8592   7.437   5.376   0.061
 2879TIP3   OH2 8593   6.186   5.120   2.816
 2879TIP3    H1 8594   6.106   5.092   2.772
 2879TIP3    H2 8595   6.189   5.067   2.896
 2880TIP3   OH2 8596   5.515   7.715   4.435
 2880TIP3    H1 8597   5.520   7.620   4.424
 2880TIP3    H2 8598   5.556   7.732   4.520
 2881TIP3   OH2 8599   6.691   7.494   4.960
 2881TIP3    H1 8600   6.651   7.580   4.943
 2881TIP3    H2 8601   6.639   7.457   5.031
 2882TIP3   OH2 8602   1.023   4.379   3.331
 2882TIP3    H1 8603   1.105   4.360   3.376
 2882TIP3    H2 8604   0.967   4.419   3.398
 2883TIP3   OH2 8605   3.944   5.292   3.557
 2883TIP3    H1 8606   3.992   5.362   3.601
 2883TIP3    H2 8607   3.864   5.281   3.610
 2884TIP3   OH2 8608   0.967   1.690   4.827
 2884TIP3    H1 8609   0.982   1.760   4.891
 2884TIP3    H2 8610   1.054   1.669   4.794
 2885TIP3   OH2 8611   7.399   6.372   3.438
 2885TIP3    H1 8612   7.401   6.368   3.342
 2885TIP3    H2 8613   7.308   6.395   3.459
 2886TIP3   OH2 8614   3.880   1.059   6.381
 2886TIP3    H1 8615   3.832   1.130   6.338
 2886TIP3    H2 8616   3.812   1.004   6.419
 2887TIP3   OH2 8617   0.506   1.915   1.863
 2887TIP3    H1 8618   0.567   1.974   1.908
 2887TIP3    H2 8619   0.446   1.973   1.816
 2888TIP3   OH2 8620   5.431   2.446   4.957
 2888TIP3    H1 8621   5.497   2.505   4.920
 2888TIP3    H2 8622   5.369   2.504   5.000
 2889TIP3   OH2 8623   5.352   5.179   2.104
 2889TIP3    H1 8624   5.377   5.252   2.049
 2889TIP3    H2 8625   5.260   5.195   2.125
 2890TIP3   OH2 8626   5.312   6.737   5.693
 2890TIP3    H1 8627   5.255   6.703   5.761
 2890TIP3    H2 8628   5.320   6.830   5.712
 2891TIP3   OH2 8629   5.419   2.062   0.836
 2891TIP3    H1 8630   5.458   2.142   0.872
 2891TIP3    H2 8631   5.352   2.094   0.774
 2892TIP3   OH2 8632   4.635   7.139   5.423
 2892TIP3    H1 8633   4.594   7.183   5.349
 2892TIP3    H2 8634   4.725   7.172   5.422
 2893TIP3   OH2 8635   6.376   1.105   0.255
 2893TIP3    H1 8636   6.465   1.070   0.247
 2893TIP3    H2 8637   6.388   1.189   0.299
 2894TIP3   OH2 8638   6.709   4.808   6.120
 2894TIP3    H1 8639   6.793   4.765   6.105
 2894TIP3    H2 8640   6.645   4.737   6.116
 2895TIP3   OH2 8641   5.410   5.387   1.387
 2895TIP3    H1 8642   5.421   5.312   1.445
 2895TIP3    H2 8643   5.431   5.463   1.442
 2896TIP3   OH2 8644   3.648   3.885   2.629
 2896TIP3    H1 8645   3.734   3.872   2.589
 2896TIP3    H2 8646   3.587   3.849   2.565
 2897TIP3   OH2 8647   3.774   7.430   6.805
 2897TIP3    H1 8648   3.760   7.394   6.718
 2897TIP3    H2 8649   3.866   7.413   6.824
 2898TIP3   OH2 8650   7.096   4.122   4.259
 2898TIP3    H1 8651   7.052   4.187   4.204
 2898TIP3    H2 8652   7.030   4.097   4.324
 2899TIP3   OH2 8653   3.115   1.817   6.545
 2899TIP3    H1 8654   3.080   1.792   6.630
 2899TIP3    H2 8655   3.164   1.897   6.562
 2900TIP3   OH2 8656   4.088   6.720   0.655
 2900TIP3    H1 8657   3.995   6.694   0.655
 2900TIP3    H2 8658   4.125   6.674   0.730
 2901TIP3   OH2 8659   3.812   7.621   0.434
 2901TIP3    H1 8660   3.825   7.696   0.493
 2901TIP3    H2 8661   3.877   7.557   0.462
 2902TIP3   OH2 8662   7.762   1.905   2.864
 2902TIP3    H1 8663   7.679   1.883   2.905
 2902TIP3    H2 8664   7.805   1.820   2.850
 2903TIP3   OH2 8665   4.865   1.934   0.148
 2903TIP3    H1 8666   4.779   1.909   0.112
 2903TIP3    H2 8667   4.877   2.025   0.121
 2904TIP3   OH2 8668   7.611   4.914   3.337
 2904TIP3    H1 8669   7.607   4.878   3.248
 2904TIP3    H2 8670   7.645   5.003   3.325
 2905TIP3   OH2 8671   1.544   5.054   5.698
 2905TIP3    H1 8672   1.622   5.006   5.671
 2905TIP3    H2 8673   1.570   5.101   5.777
 2906TIP3   OH2 8674   3.063   1.122   3.466
 2906TIP3    H1 8675   2.984   1.175   3.472
 2906TIP3    H2 8676   3.065   1.070   3.547
 2907TIP3   OH2 8677   2.125   3.010   5.149
 2907TIP3    H1 8678   2.158   2.954   5.079
 2907TIP3    H2 8679   2.201   3.026   5.205
 2908TIP3   OH2 8680   4.304   1.981   1.775
 2908TIP3    H1 8681   4.216   1.969   1.810
 2908TIP3    H2 8682   4.348   1.898   1.794
 2909TIP3   OH2 8683   6.317   2.741   1.623
 2909TIP3    H1 8684   6.290   2.740   1.531
 2909TIP3    H2 8685   6.367   2.661   1.635
 2910TIP3   OH2 8686   4.391   0.830   2.518
 2910TIP3    H1 8687   4.379   0.752   2.572
 2910TIP3    H2 8688   4.478   0.819   2.479
 2911TIP3   OH2 8689   5.633   1.840   0.847
 2911TIP3    H1 8690   5.563   1.889   0.805
 2911TIP3    H2 8691   5.600   1.750   0.854
 2912TIP3   OH2 8692   5.170   7.326   5.706
 2912TIP3    H1 8693   5.156   7.420   5.701
 2912TIP3    H2 8694   5.250   7.316   5.758
 2913TIP3   OH2 8695   7.295   0.584   6.589
 2913TIP3    H1 8696   7.315   0.666   6.544
 2913TIP3    H2 8697   7.341   0.590   6.672
 2914TIP3   OH2 8698   7.859   3.820   1.422
 2914TIP3    H1 8699   7.867   3.725   1.432
 2914TIP3    H2 8700   7.766   3.838   1.432
 2915TIP3   OH2 8701   7.209   2.826   1.127
 2915TIP3    H1 8702   7.147   2.796   1.060
 2915TIP3    H2 8703   7.279   2.868   1.078
 2916TIP3   OH2 8704   7.185   2.657   2.451
 2916TIP3    H1 8705   7.252   2.664   2.383
 2916TIP3    H2 8706   7.114   2.714   2.421
 2917TIP3   OH2 8707   8.069   2.508   3.269
 2917TIP3    H1 8708   8.118   2.517   3.187
 2917TIP3    H2 8709   7.983   2.546   3.250
 2918TIP3   OH2 8710   0.508   4.063   4.545
 2918TIP3    H1 8711   0.480   3.976   4.516
 2918TIP3    H2 8712   0.428   4.103   4.579
 2919TIP3   OH2 8713   4.651   1.624   4.846
 2919TIP3    H1 8714   4.732   1.643   4.895
 2919TIP3    H2 8715   4.646   1.693   4.780
 2920TIP3   OH2 8716   4.798   6.682   6.010
 2920TIP3    H1 8717   4.841   6.601   6.039
 2920TIP3    H2 8718   4.870   6.736   5.976
 2921TIP3   OH2 8719   4.988   0.090   5.862
 2921TIP3    H1 8720   4.991   0.070   5.768
 2921TIP3    H2 8721   4.921   0.158   5.870
 2922TIP3   OH2 8722   2.150   3.909   2.021
 2922TIP3    H1 8723   2.204   3.937   1.947
 2922TIP3    H2 8724   2.084   3.852   1.982
 2923TIP3   OH2 8725   4.507   4.368   2.452
 2923TIP3    H1 8726   4.470   4.443   2.498
 2923TIP3    H2 8727   4.598   4.364   2.482
 2924TIP3   OH2 8728   5.141   2.498   5.068
 2924TIP3    H1 8729   5.138   2.502   4.972
 2924TIP3    H2 8730   5.114   2.409   5.089
 2925TIP3   OH2 8731   1.490   3.991   1.237
 2925TIP3    H1 8732   1.408   3.946   1.216
 2925TIP3    H2 8733   1.552   3.921   1.254
 2926TIP3   OH2 8734   4.532   0.560   3.740
 2926TIP3    H1 8735   4.443   0.584   3.764
 2926TIP3    H2 8736   4.583   0.574   3.820
 2927TIP3   OH2 8737   2.467   0.359   1.302
 2927TIP3    H1 8738   2.452   0.291   1.367
 2927TIP3    H2 8739   2.379   0.385   1.274
 2928TIP3   OH2 8740   1.956   0.879   2.961
 2928TIP3    H1 8741   1.941   0.792   2.924
 2928TIP3    H2 8742   1.926   0.939   2.892
 2929TIP3   OH2 8743   2.720   7.139   3.763
 2929TIP3    H1 8744   2.667   7.171   3.836
 2929TIP3    H2 8745   2.713   7.043   3.768
 2930TIP3   OH2 8746   1.297   0.360   5.523
 2930TIP3    H1 8747   1.341   0.277   5.542
 2930TIP3    H2 8748   1.262   0.389   5.607
 2931TIP3   OH2 8749   4.283   4.882   6.760
 2931TIP3    H1 8750   4.188   4.874   6.756
 2931TIP3    H2 8751   4.303   4.953   6.698
 2932TIP3   OH2 8752   1.948   7.398   1.245
 2932TIP3    H1 8753   1.881   7.331   1.261
 2932TIP3    H2 8754   2.031   7.354   1.265
 2933TIP3   OH2 8755   7.129   1.338   2.328
 2933TIP3    H1 8756   7.039   1.328   2.359
 2933TIP3    H2 8757   7.161   1.417   2.373
 2934TIP3   OH2 8758   4.530   1.781   4.256
 2934TIP3    H1 8759   4.531   1.688   4.277
 2934TIP3    H2 8760   4.437   1.804   4.255
 2935TIP3   OH2 8761   7.637   6.634   3.096
 2935TIP3    H1 8762   7.646   6.539   3.091
 2935TIP3    H2 8763   7.548   6.648   3.130
 2936TIP3   OH2 8764   0.151   4.327   3.871
 2936TIP3    H1 8765   0.154   4.243   3.917
 2936TIP3    H2 8766   0.196   4.388   3.929
 2937TIP3   OH2 8767   0.836   1.644   6.227
 2937TIP3    H1 8768   0.835   1.729   6.182
 2937TIP3    H2 8769   0.749   1.608   6.213
 2938TIP3   OH2 8770   5.067   5.025   1.471
 2938TIP3    H1 8771   5.071   5.120   1.487
 2938TIP3    H2 8772   4.987   5.013   1.421
 2939TIP3   OH2 8773   0.636   2.127   4.537
 2939TIP3    H1 8774   0.695   2.170   4.475
 2939TIP3    H2 8775   0.681   2.046   4.562
 2940TIP3   OH2 8776   5.110   7.768   4.583
 2940TIP3    H1 8777   5.183   7.830   4.577
 2940TIP3    H2 8778   5.145   7.695   4.632
 2941TIP3   OH2 8779   8.193   0.126   5.352
 2941TIP3    H1 8780   8.190   0.031   5.360
 2941TIP3    H2 8781   8.226   0.142   5.264
 2942TIP3   OH2 8782   2.462   3.538   1.963
 2942TIP3    H1 8783   2.412   3.524   1.882
 2942TIP3    H2 8784   2.517   3.614   1.944
 2943TIP3   OH2 8785   2.578   7.220   4.773
 2943TIP3    H1 8786   2.530   7.243   4.853
 2943TIP3    H2 8787   2.608   7.130   4.788
 2944TIP3   OH2 8788   1.743   0.129   1.451
 2944TIP3    H1 8789   1.725   0.084   1.369
 2944TIP3    H2 8790   1.662   0.177   1.470
 2945TIP3   OH2 8791   8.047   7.479   2.193
 2945TIP3    H1 8792   8.001   7.555   2.229
 2945TIP3    H2 8793   8.113   7.459   2.259
 2946TIP3   OH2 8794   7.248   5.912   6.617
 2946TIP3    H1 8795   7.253   5.829   6.569
 2946TIP3    H2 8796   7.280   5.891   6.705
 2947TIP3   OH2 8797   7.982   2.278   1.428
 2947TIP3    H1 8798   7.892   2.304   1.450
 2947TIP3    H2 8799   8.010   2.224   1.501
 2948TIP3   OH2 8800   7.308   6.028   5.427
 2948TIP3    H1 8801   7.287   5.943   5.467
 2948TIP3    H2 8802   7.349   6.006   5.343
 2949TIP3   OH2 8803   7.785   2.522   3.292
 2949TIP3    H1 8804   7.736   2.579   3.353
 2949TIP3    H2 8805   7.724   2.452   3.270
 2950TIP3   OH2 8806   3.136   3.557   3.586
 2950TIP3    H1 8807   3.133   3.482   3.526
 2950TIP3    H2 8808   3.088   3.626   3.540
 2951TIP3   OH2 8809   1.654   1.616   5.002
 2951TIP3    H1 8810   1.603   1.696   5.013
 2951TIP3    H2 8811   1.631   1.562   5.078
 2952TIP3   OH2 8812   1.958   0.243   5.063
 2952TIP3    H1 8813   1.989   0.255   4.973
 2952TIP3    H2 8814   1.863   0.246   5.057
 2953TIP3   OH2 8815   5.543   3.784   4.369
 2953TIP3    H1 8816   5.601   3.847   4.411
 2953TIP3    H2 8817   5.581   3.769   4.283
 2954TIP3   OH2 8818   8.242   4.724   0.994
 2954TIP3    H1 8819   8.187   4.760   1.064
 2954TIP3    H2 8820   8.321   4.694   1.039
 2955TIP3   OH2 8821   3.866   4.735   6.542
 2955TIP3    H1 8822   3.860   4.743   6.637
 2955TIP3    H2 8823   3.955   4.702   6.526
 2956TIP3   OH2 8824   5.941   3.407   0.961
 2956TIP3    H1 8825   5.876   3.475   0.977
 2956TIP3    H2 8826   5.894   3.325   0.979
 2957TIP3   OH2 8827   0.035   7.223   0.819
 2957TIP3    H1 8828   0.026   7.299   0.877
 2957TIP3    H2 8829  -0.010   7.152   0.864
 2958TIP3   OH2 8830   2.219   6.295   5.159
 2958TIP3    H1 8831   2.226   6.307   5.253
 2958TIP3    H2 8832   2.271   6.217   5.140
 2959TIP3   OH2 8833   1.949   1.757   3.541
 2959TIP3    H1 8834   1.860   1.724   3.531
 2959TIP3    H2 8835   1.944   1.848   3.510
 2960TIP3   OH2 8836   3.994   6.685   2.278
 2960TIP3    H1 8837   4.064   6.747   2.297
 2960TIP3    H2 8838   4.024   6.638   2.200
 2961TIP3   OH2 8839   4.781   1.091   6.476
 2961TIP3    H1 8840   4.792   1.174   6.523
 2961TIP3    H2 8841   4.738   1.115   6.394
 2962TIP3   OH2 8842   3.943   1.376   2.979
 2962TIP3    H1 8843   3.995   1.359   3.058
 2962TIP3    H2 8844   3.862   1.327   2.992
 2963TIP3   OH2 8845   2.031   6.664   3.175
 2963TIP3    H1 8846   2.118   6.640   3.206
 2963TIP3    H2 8847   1.990   6.706   3.251
 2964TIP3   OH2 8848   4.032   4.014   0.480
 2964TIP3    H1 8849   3.979   3.935   0.491
 2964TIP3    H2 8850   4.017   4.063   0.561
 2965TIP3   OH2 8851   0.919   4.918   5.733
 2965TIP3    H1 8852   0.944   4.966   5.812
 2965TIP3    H2 8853   0.850   4.971   5.693
 2966TIP3   OH2 8854   6.399   1.268   6.717
 2966TIP3    H1 8855   6.312   1.304   6.733
 2966TIP3    H2 8856   6.395   1.233   6.628
 2967TIP3   OH2 8857   2.717   0.611   4.584
 2967TIP3    H1 8858   2.727   0.528   4.630
 2967TIP3    H2 8859   2.801   0.625   4.541
 2968TIP3   OH2 8860   2.415   0.605   0.433
 2968TIP3    H1 8861   2.351   0.660   0.477
 2968TIP3    H2 8862   2.498   0.626   0.476
 2969TIP3   OH2 8863   2.801   3.841   4.519
 2969TIP3    H1 8864   2.748   3.772   4.559
 2969TIP3    H2 8865   2.889   3.828   4.555
 2970TIP3   OH2 8866   0.778   4.409   4.773
 2970TIP3    H1 8867   0.695   4.378   4.808
 2970TIP3    H2 8868   0.771   4.395   4.679
 2971TIP3   OH2 8869   2.664   0.245   5.165
 2971TIP3    H1 8870   2.607   0.207   5.232
 2971TIP3    H2 8871   2.627   0.332   5.148
 2972TIP3   OH2 8872   7.114   7.135   0.506
 2972TIP3    H1 8873   7.155   7.074   0.568
 2972TIP3    H2 8874   7.030   7.094   0.486
 2973TIP3   OH2 8875   5.852   3.778   2.612
 2973TIP3    H1 8876   5.763   3.790   2.579
 2973TIP3    H2 8877   5.851   3.690   2.651
 2974TIP3   OH2 8878   4.239   0.896   3.497
 2974TIP3    H1 8879   4.327   0.866   3.520
 2974TIP3    H2 8880   4.212   0.839   3.426
 2975TIP3   OH2 8881   4.139   4.786   6.240
 2975TIP3    H1 8882   4.128   4.766   6.333
 2975TIP3    H2 8883   4.111   4.877   6.232
 2976TIP3   OH2 8884   7.077   1.265   2.666
 2976TIP3    H1 8885   7.025   1.333   2.623
 2976TIP3    H2 8886   7.167   1.298   2.662
 2977TIP3   OH2 8887   8.080   2.964   0.840
 2977TIP3    H1 8888   8.063   2.952   0.747
 2977TIP3    H2 8889   8.170   2.934   0.853
 2978TIP3   OH2 8890   2.212   1.641   0.397
 2978TIP3    H1 8891   2.164   1.643   0.314
 2978TIP3    H2 8892   2.259   1.724   0.400
 2979TIP3   OH2 8893   5.590   6.456   4.042
 2979TIP3    H1 8894   5.539   6.392   4.092
 2979TIP3    H2 8895   5.566   6.438   3.951
 2980TIP3   OH2 8896   3.261   4.104   2.611
 2980TIP3    H1 8897   3.311   4.054   2.675
 2980TIP3    H2 8898   3.178   4.124   2.655
 2981TIP3   OH2 8899   8.261   2.993   2.346
 2981TIP3    H1 8900   8.316   3.066   2.319
 2981TIP3    H2 8901   8.190   2.991   2.282
 2982TIP3   OH2 8902   2.285   2.374   6.690
 2982TIP3    H1 8903   2.261   2.374   6.782
 2982TIP3    H2 8904   2.329   2.458   6.676
 2983TIP3   OH2 8905   2.859   1.723   5.612
 2983TIP3    H1 8906   2.821   1.655   5.666
 2983TIP3    H2 8907   2.834   1.805   5.654
 2984TIP3   OH2 8908   3.899   4.897   1.388
 2984TIP3    H1 8909   3.829   4.835   1.411
 2984TIP3    H2 8910   3.980   4.852   1.413
 2985TIP3   OH2 8911   1.065   4.864   0.082
 2985TIP3    H1 8912   0.992   4.925   0.072
 2985TIP3    H2 8913   1.143   4.920   0.079
 2986TIP3   OH2 8914   7.823   0.292   6.151
 2986TIP3    H1 8915   7.855   0.379   6.126
 2986TIP3    H2 8916   7.762   0.269   6.081
 2987TIP3   OH2 8917   1.552   7.642   3.483
 2987TIP3    H1 8918   1.474   7.671   3.531
 2987TIP3    H2 8919   1.561   7.705   3.412
 2988TIP3   OH2 8920   7.310   3.752   1.997
 2988TIP3    H1 8921   7.300   3.847   2.002
 2988TIP3    H2 8922   7.403   3.737   2.017
 2989TIP3   OH2 8923   6.820   2.247   3.386
 2989TIP3    H1 8924   6.793   2.247   3.478
 2989TIP3    H2 8925   6.750   2.199   3.341
 2990TIP3   OH2 8926   2.313   5.115   2.182
 2990TIP3    H1 8927   2.327   5.138   2.273
 2990TIP3    H2 8928   2.388   5.060   2.160
 2991TIP3   OH2 8929   6.956   6.229   4.859
 2991TIP3    H1 8930   7.026   6.274   4.906
 2991TIP3    H2 8931   6.878   6.244   4.912
 2992TIP3   OH2 8932   4.567   4.676   4.498
 2992TIP3    H1 8933   4.649   4.724   4.487
 2992TIP3    H2 8934   4.579   4.623   4.577
 2993TIP3   OH2 8935   6.437   5.174   5.692
 2993TIP3    H1 8936   6.346   5.170   5.723
 2993TIP3    H2 8937   6.436   5.123   5.611
 2994TIP3   OH2 8938   4.112   1.617   4.776
 2994TIP3    H1 8939   4.096   1.629   4.870
 2994TIP3    H2 8940   4.030   1.581   4.743
 2995TIP3   OH2 8941   2.304   6.542   5.600
 2995TIP3    H1 8942   2.241   6.598   5.645
 2995TIP3    H2 8943   2.382   6.545   5.654
 2996TIP3   OH2 8944   4.948   2.857   0.638
 2996TIP3    H1 8945   4.900   2.879   0.558
 2996TIP3    H2 8946   4.886   2.878   0.708
 2997TIP3   OH2 8947   1.379   4.160   1.781
 2997TIP3    H1 8948   1.377   4.255   1.774
 2997TIP3    H2 8949   1.470   4.140   1.803
 2998TIP3   OH2 8950   6.288   0.365   0.598
 2998TIP3    H1 8951   6.331   0.447   0.621
 2998TIP3    H2 8952   6.195   0.382   0.614
 2999TIP3   OH2 8953   5.294   2.439   1.314
 2999TIP3    H1 8954   5.369   2.422   1.257
 2999TIP3    H2 8955   5.293   2.365   1.375
 3000TIP3   OH2 8956   6.745   5.054   5.703
 3000TIP3    H1 8957   6.796   5.007   5.770
 3000TIP3    H2 8958   6.762   5.146   5.721
 3001TIP3   OH2 8959   0.064   7.706   1.823
 3001TIP3    H1 8960  -0.011   7.765   1.832
 3001TIP3    H2 8961   0.051   7.640   1.890
 3002TIP3   OH2 8962   7.577   6.396   0.664
 3002TIP3    H1 8963   7.530   6.450   0.727
 3002TIP3    H2 8964   7.519   6.322   0.647
 3003TIP3   OH2 8965   1.198   1.826   5.236
 3003TIP3    H1 8966   1.205   1.833   5.140
 3003TIP3    H2 8967   1.114   1.865   5.256
 3004TIP3   OH2 8968   2.843   4.769   3.352
 3004TIP3    H1 8969   2.911   4.701   3.344
 3004TIP3    H2 8970   2.866   4.816   3.432
 3005TIP3   OH2 8971   3.867   3.933   1.363
 3005TIP3    H1 8972   3.832   3.845   1.347
 3005TIP3    H2 8973   3.914   3.925   1.446
 3006TIP3   OH2 8974   3.377   0.482   0.764
 3006TIP3    H1 8975   3.429   0.428   0.823
 3006TIP3    H2 8976   3.328   0.541   0.822
 3007TIP3   OH2 8977   7.825   5.768   2.050
 3007TIP3    H1 8978   7.844   5.751   2.142
 3007TIP3    H2 8979   7.841   5.685   2.007
 3008TIP3   OH2 8980   1.360   5.767   1.749
 3008TIP3    H1 8981   1.400   5.850   1.722
 3008TIP3    H2 8982   1.379   5.707   1.677
 3009TIP3   OH2 8983   4.279   7.452   3.724
 3009TIP3    H1 8984   4.248   7.506   3.797
 3009TIP3    H2 8985   4.321   7.515   3.665
 3010TIP3   OH2 8986   4.460   3.770   1.996
 3010TIP3    H1 8987   4.502   3.856   2.006
 3010TIP3    H2 8988   4.532   3.708   2.004
 3011TIP3   OH2 8989   7.732   3.869   0.350
 3011TIP3    H1 8990   7.692   3.944   0.307
 3011TIP3    H2 8991   7.754   3.901   0.438
 3012TIP3   OH2 8992   1.180   4.746   0.323
 3012TIP3    H1 8993   1.254   4.771   0.267
 3012TIP3    H2 8994   1.103   4.774   0.275
 3013TIP3   OH2 8995   4.334   5.448   0.772
 3013TIP3    H1 8996   4.278   5.525   0.761
 3013TIP3    H2 8997   4.414   5.482   0.810
 3014TIP3   OH2 8998   2.783   6.034   3.704
 3014TIP3    H1 8999   2.711   6.068   3.651
 3014TIP3    H2 9000   2.807   6.107   3.762
 3015TIP3   OH2 9001   8.181   0.946   1.835
 3015TIP3    H1 9002   8.096   0.964   1.876
 3015TIP3    H2 9003   8.168   0.970   1.743
 3016TIP3   OH2 9004   4.689   3.085   0.234
 3016TIP3    H1 9005   4.696   3.133   0.317
 3016TIP3    H2 9006   4.626   3.015   0.253
 3017TIP3   OH2 9007   5.571   7.672   4.705
 3017TIP3    H1 9008   5.588   7.651   4.797
 3017TIP3    H2 9009   5.635   7.620   4.656
 3018TIP3   OH2 9010   6.534   0.669   1.177
 3018TIP3    H1 9011   6.449   0.712   1.172
 3018TIP3    H2 9012   6.552   0.662   1.271
 3019TIP3   OH2 9013   4.226   4.167   4.874
 3019TIP3    H1 9014   4.246   4.111   4.949
 3019TIP3    H2 9015   4.131   4.175   4.874
 3020TIP3   OH2 9016   6.280   2.117   3.509
 3020TIP3    H1 9017   6.342   2.047   3.531
 3020TIP3    H2 9018   6.209   2.107   3.573
 3021TIP3   OH2 9019   3.989   7.788   1.477
 3021TIP3    H1 9020   4.061   7.845   1.505
 3021TIP3    H2 9021   3.961   7.745   1.557
 3022TIP3   OH2 9022   1.370   0.683   2.160
 3022TIP3    H1 9023   1.296   0.635   2.197
 3022TIP3    H2 9024   1.419   0.619   2.110
 3023TIP3   OH2 9025   3.549   3.370   3.474
 3023TIP3    H1 9026   3.531   3.305   3.406
 3023TIP3    H2 9027   3.525   3.327   3.556
 3024TIP3   OH2 9028   0.616   2.491   5.031
 3024TIP3    H1 9029   0.560   2.463   4.959
 3024TIP3    H2 9030   0.567   2.560   5.076
 3025TIP3   OH2 9031   7.848   6.039   2.496
 3025TIP3    H1 9032   7.852   6.135   2.497
 3025TIP3    H2 9033   7.770   6.019   2.445
 3026TIP3   OH2 9034   3.579   3.572   5.136
 3026TIP3    H1 9035   3.511   3.506   5.126
 3026TIP3    H2 9036   3.640   3.534   5.200
 3027TIP3   OH2 9037   6.344   5.237   3.849
 3027TIP3    H1 9038   6.439   5.227   3.847
 3027TIP3    H2 9039   6.323   5.253   3.941
 3028TIP3   OH2 9040   2.184   3.176   4.559
 3028TIP3    H1 9041   2.116   3.230   4.600
 3028TIP3    H2 9042   2.155   3.167   4.468
 3029TIP3   OH2 9043   4.096   4.434   0.814
 3029TIP3    H1 9044   4.129   4.506   0.868
 3029TIP3    H2 9045   4.051   4.377   0.876
 3030TIP3   OH2 9046   2.381   2.052   0.271
 3030TIP3    H1 9047   2.328   2.040   0.192
 3030TIP3    H2 9048   2.365   1.974   0.323
 3031TIP3   OH2 9049   5.223   0.446   5.625
 3031TIP3    H1 9050   5.306   0.494   5.631
 3031TIP3    H2 9051   5.168   0.500   5.568
 3032TIP3   OH2 9052   0.297   4.604   1.350
 3032TIP3    H1 9053   0.383   4.642   1.334
 3032TIP3    H2 9054   0.311   4.543   1.423
 3033TIP3   OH2 9055   3.984   4.852   2.995
 3033TIP3    H1 9056   3.957   4.776   2.942
 3033TIP3    H2 9057   4.040   4.903   2.936
 3034TIP3   OH2 9058   8.133   4.890   2.352
 3034TIP3    H1 9059   8.087   4.906   2.269
 3034TIP3    H2 9060   8.161   4.799   2.346
 3035TIP3   OH2 9061   4.758   2.147   1.109
 3035TIP3    H1 9062   4.788   2.161   1.199
 3035TIP3    H2 9063   4.712   2.063   1.112
 3036TIP3   OH2 9064   2.177   6.717   5.331
 3036TIP3    H1 9065   2.241   6.686   5.396
 3036TIP3    H2 9066   2.227   6.724   5.250
 3037TIP3   OH2 9067   6.364   5.195   4.273
 3037TIP3    H1 9068   6.297   5.216   4.208
 3037TIP3    H2 9069   6.417   5.275   4.278
 3038TIP3   OH2 9070   3.133   3.408   5.031
 3038TIP3    H1 9071   3.098   3.473   4.970
 3038TIP3    H2 9072   3.123   3.448   5.117
 3039TIP3   OH2 9073   4.803   0.173   4.866
 3039TIP3    H1 9074   4.787   0.105   4.932
 3039TIP3    H2 9075   4.763   0.252   4.903
 3040TIP3   OH2 9076   1.616   5.068   5.976
 3040TIP3    H1 9077   1.638   4.976   5.966
 3040TIP3    H2 9078   1.523   5.068   6.000
 3041TIP3   OH2 9079   7.522   3.387   0.042
 3041TIP3    H1 9080   7.439   3.395  -0.006
 3041TIP3    H2 9081   7.563   3.308   0.007
 3042TIP3   OH2 9082   3.315   1.174   3.367
 3042TIP3    H1 9083   3.224   1.146   3.377
 3042TIP3    H2 9084   3.349   1.121   3.296
 3043TIP3   OH2 9085   5.322   1.678   3.845
 3043TIP3    H1 9086   5.364   1.697   3.761
 3043TIP3    H2 9087   5.300   1.765   3.881
 3044TIP3   OH2 9088   0.511   0.071   5.601
 3044TIP3    H1 9089   0.506   0.080   5.506
 3044TIP3    H2 9090   0.604   0.084   5.621
 3045TIP3   OH2 9091   3.047   7.387   0.898
 3045TIP3    H1 9092   2.959   7.393   0.936
 3045TIP3    H2 9093   3.062   7.293   0.887
 3046TIP3   OH2 9094   2.827   2.499   0.889
 3046TIP3    H1 9095   2.807   2.556   0.964
 3046TIP3    H2 9096   2.794   2.413   0.915
 3047TIP3   OH2 9097   4.011   1.899   3.422
 3047TIP3    H1 9098   4.058   1.876   3.501
 3047TIP3    H2 9099   4.023   1.823   3.364
 3048TIP3   OH2 9100   0.860   5.937   2.757
 3048TIP3    H1 9101   0.791   5.967   2.817
 3048TIP3    H2 9102   0.814   5.924   2.674
 3049TIP3   OH2 9103   3.547   6.246   1.710
 3049TIP3    H1 9104   3.634   6.263   1.673
 3049TIP3    H2 9105   3.500   6.329   1.700
 3050TIP3   OH2 9106   3.239   7.237   5.791
 3050TIP3    H1 9107   3.173   7.306   5.789
 3050TIP3    H2 9108   3.321   7.282   5.773
 3051TIP3   OH2 9109   3.939   0.796   5.556
 3051TIP3    H1 9110   3.872   0.758   5.499
 3051TIP3    H2 9111   4.008   0.824   5.495
 3052TIP3   OH2 9112   2.240   5.930   5.543
 3052TIP3    H1 9113   2.298   5.854   5.548
 3052TIP3    H2 9114   2.156   5.894   5.515
 3053TIP3   OH2 9115   1.923   5.431   1.163
 3053TIP3    H1 9116   1.853   5.379   1.204
 3053TIP3    H2 9117   1.894   5.522   1.173
 3054TIP3   OH2 9118   4.089   6.075   2.655
 3054TIP3    H1 9119   4.107   6.166   2.631
 3054TIP3    H2 9120   4.017   6.049   2.598
 3055TIP3   OH2 9121   1.483   4.977   2.149
 3055TIP3    H1 9122   1.405   4.926   2.127
 3055TIP3    H2 9123   1.540   4.915   2.195
 3056TIP3   OH2 9124   8.136   3.664   1.861
 3056TIP3    H1 9125   8.230   3.653   1.853
 3056TIP3    H2 9126   8.125   3.752   1.898
 3057TIP3   OH2 9127   5.870   4.403   5.806
 3057TIP3    H1 9128   5.941   4.467   5.809
 3057TIP3    H2 9129   5.914   4.318   5.802
 3058TIP3   OH2 9130   4.755   5.259   3.890
 3058TIP3    H1 9131   4.682   5.262   3.828
 3058TIP3    H2 9132   4.812   5.190   3.856
 3059TIP3   OH2 9133   3.112   4.725   3.756
 3059TIP3    H1 9134   3.073   4.641   3.780
 3059TIP3    H2 9135   3.189   4.702   3.703
 3060TIP3   OH2 9136   3.170   6.989   3.802
 3060TIP3    H1 9137   3.197   7.076   3.833
 3060TIP3    H2 9138   3.252   6.944   3.782
 3061TIP3   OH2 9139   0.072   0.247   0.625
 3061TIP3    H1 9140  -0.021   0.271   0.625
 3061TIP3    H2 9141   0.083   0.195   0.704
 3062TIP3   OH2 9142   1.832   3.087   0.533
 3062TIP3    H1 9143   1.847   3.003   0.490
 3062TIP3    H2 9144   1.919   3.123   0.548
 3063TIP3   OH2 9145   8.244   2.498   3.796
 3063TIP3    H1 9146   8.225   2.567   3.859
 3063TIP3    H2 9147   8.311   2.444   3.839
 3064TIP3   OH2 9148   4.513   3.926   0.149
 3064TIP3    H1 9149   4.440   3.959   0.202
 3064TIP3    H2 9150   4.572   3.887   0.213
 3065TIP3   OH2 9151   3.096   7.609   0.591
 3065TIP3    H1 9152   3.079   7.654   0.508
 3065TIP3    H2 9153   3.108   7.679   0.655
 3066TIP3   OH2 9154   2.316   7.497   4.891
 3066TIP3    H1 9155   2.404   7.521   4.917
 3066TIP3    H2 9156   2.261   7.569   4.921
 3067TIP3   OH2 9157   4.142   1.066   4.538
 3067TIP3    H1 9158   4.236   1.049   4.553
 3067TIP3    H2 9159   4.113   0.992   4.485
 3068TIP3   OH2 9160   1.218   4.238   5.785
 3068TIP3    H1 9161   1.134   4.193   5.784
 3068TIP3    H2 9162   1.223   4.282   5.700
 3069TIP3   OH2 9163   5.511   3.245   1.402
 3069TIP3    H1 9164   5.452   3.319   1.417
 3069TIP3    H2 9165   5.592   3.285   1.370
 3070TIP3   OH2 9166   7.154   6.888   0.648
 3070TIP3    H1 9167   7.234   6.863   0.694
 3070TIP3    H2 9168   7.083   6.857   0.703
 3071TIP3   OH2 9169   7.642   0.849   5.857
 3071TIP3    H1 9170   7.632   0.796   5.778
 3071TIP3    H2 9171   7.582   0.810   5.920
 3072TIP3   OH2 9172   6.731   4.071   1.036
 3072TIP3    H1 9173   6.686   4.082   0.953
 3072TIP3    H2 9174   6.819   4.043   1.013
 3073TIP3   OH2 9175   6.720   3.182   0.541
 3073TIP3    H1 9176   6.766   3.226   0.612
 3073TIP3    H2 9177   6.638   3.232   0.531
 3074TIP3   OH2 9178   0.142   2.471   4.197
 3074TIP3    H1 9179   0.083   2.400   4.223
 3074TIP3    H2 9180   0.199   2.432   4.131
 3075TIP3   OH2 9181   3.912   3.753   4.426
 3075TIP3    H1 9182   3.925   3.706   4.343
 3075TIP3    H2 9183   3.877   3.688   4.486
 3076TIP3   OH2 9184   3.686   2.532   3.550
 3076TIP3    H1 9185   3.596   2.564   3.550
 3076TIP3    H2 9186   3.708   2.521   3.642
 3077TIP3   OH2 9187   7.862   5.954   6.025
 3077TIP3    H1 9188   7.805   6.007   6.082
 3077TIP3    H2 9189   7.863   5.868   6.066
 3078TIP3   OH2 9190   4.869   7.690   3.484
 3078TIP3    H1 9191   4.818   7.619   3.445
 3078TIP3    H2 9192   4.805   7.742   3.533
 3079TIP3   OH2 9193   8.031   7.476   5.369
 3079TIP3    H1 9194   8.126   7.489   5.362
 3079TIP3    H2 9195   8.003   7.464   5.278
 3080TIP3   OH2 9196   0.014   4.135   2.065
 3080TIP3    H1 9197   0.069   4.095   1.998
 3080TIP3    H2 9198  -0.060   4.074   2.074
 3081TIP3   OH2 9199   2.297   2.716   3.318
 3081TIP3    H1 9200   2.244   2.772   3.374
 3081TIP3    H2 9201   2.239   2.644   3.293
 3082TIP3   OH2 9202   4.769   2.073   4.895
 3082TIP3    H1 9203   4.823   2.137   4.849
 3082TIP3    H2 9204   4.731   2.122   4.968
 3083TIP3   OH2 9205   3.655   6.547   0.919
 3083TIP3    H1 9206   3.685   6.512   1.003
 3083TIP3    H2 9207   3.597   6.480   0.883
 3084TIP3   OH2 9208   5.647   1.716   5.432
 3084TIP3    H1 9209   5.630   1.803   5.466
 3084TIP3    H2 9210   5.716   1.728   5.366
 3085TIP3   OH2 9211   3.583   3.198   5.083
 3085TIP3    H1 9212   3.505   3.239   5.120
 3085TIP3    H2 9213   3.647   3.200   5.154
 3086TIP3   OH2 9214   7.549   3.910   6.455
 3086TIP3    H1 9215   7.526   3.930   6.364
 3086TIP3    H2 9216   7.567   3.995   6.494
 3087TIP3   OH2 9217   1.478   2.164   0.472
 3087TIP3    H1 9218   1.533   2.213   0.411
 3087TIP3    H2 9219   1.488   2.073   0.445
 3088TIP3   OH2 9220   3.395   2.356   6.681
 3088TIP3    H1 9221   3.436   2.274   6.654
 3088TIP3    H2 9222   3.436   2.423   6.626
 3089TIP3   OH2 9223   2.328   4.982   3.530
 3089TIP3    H1 9224   2.284   5.043   3.589
 3089TIP3    H2 9225   2.314   4.896   3.569
 3090TIP3   OH2 9226   3.869   3.556   1.815
 3090TIP3    H1 9227   3.889   3.534   1.906
 3090TIP3    H2 9228   3.944   3.523   1.766
 3091TIP3   OH2 9229   2.100   0.332   0.492
 3091TIP3    H1 9230   2.035   0.334   0.562
 3091TIP3    H2 9231   2.184   0.336   0.537
 3092TIP3   OH2 9232   7.800   1.539   4.028
 3092TIP3    H1 9233   7.819   1.451   4.060
 3092TIP3    H2 9234   7.754   1.581   4.101
 3093TIP3   OH2 9235   5.984   7.275   0.504
 3093TIP3    H1 9236   6.007   7.250   0.414
 3093TIP3    H2 9237   5.925   7.206   0.534
 3094TIP3   OH2 9238   1.367   1.912   3.257
 3094TIP3    H1 9239   1.375   1.822   3.227
 3094TIP3    H2 9240   1.446   1.927   3.310
 3095TIP3   OH2 9241   5.402   3.334   4.084
 3095TIP3    H1 9242   5.330   3.338   4.146
 3095TIP3    H2 9243   5.474   3.295   4.134
 3096TIP3   OH2 9244   7.853   5.855   1.614
 3096TIP3    H1 9245   7.851   5.942   1.655
 3096TIP3    H2 9246   7.946   5.831   1.614
 3097TIP3   OH2 9247   5.026   0.492   1.505
 3097TIP3    H1 9248   5.050   0.400   1.509
 3097TIP3    H2 9249   5.110   0.538   1.496
 3098TIP3   OH2 9250   6.979   6.711   2.979
 3098TIP3    H1 9251   6.970   6.800   2.946
 3098TIP3    H2 9252   7.028   6.720   3.061
 3099TIP3   OH2 9253   7.860   5.014   2.423
 3099TIP3    H1 9254   7.888   5.094   2.379
 3099TIP3    H2 9255   7.891   4.943   2.367
 3100TIP3   OH2 9256   1.715   4.010   6.163
 3100TIP3    H1 9257   1.732   4.007   6.257
 3100TIP3    H2 9258   1.623   4.038   6.156
 3101TIP3   OH2 9259   2.965   6.654   3.082
 3101TIP3    H1 9260   3.037   6.644   3.020
 3101TIP3    H2 9261   2.888   6.624   3.033
 3102TIP3   OH2 9262   5.734   1.785   1.197
 3102TIP3    H1 9263   5.710   1.695   1.178
 3102TIP3    H2 9264   5.819   1.778   1.241
 3103TIP3   OH2 9265   0.129   6.810   0.711
 3103TIP3    H1 9266   0.160   6.750   0.644
 3103TIP3    H2 9267   0.208   6.834   0.760
 3104TIP3   OH2 9268   4.552   0.267   5.907
 3104TIP3    H1 9269   4.550   0.174   5.932
 3104TIP3    H2 9270   4.645   0.288   5.900
 3105TIP3   OH2 9271   7.075   4.321   2.987
 3105TIP3    H1 9272   7.082   4.242   2.933
 3105TIP3    H2 9273   7.034   4.386   2.930
 3106TIP3   OH2 9274   3.781   1.294   6.251
 3106TIP3    H1 9275   3.827   1.374   6.277
 3106TIP3    H2 9276   3.690   1.309   6.274
 3107TIP3   OH2 9277   1.582   2.940   2.574
 3107TIP3    H1 9278   1.594   2.985   2.658
 3107TIP3    H2 9279   1.671   2.930   2.540
 3108TIP3   OH2 9280   6.096   0.712   6.260
 3108TIP3    H1 9281   6.120   0.789   6.208
 3108TIP3    H2 9282   6.104   0.742   6.351
 3109TIP3   OH2 9283   5.862   5.808   3.238
 3109TIP3    H1 9284   5.849   5.725   3.285
 3109TIP3    H2 9285   5.895   5.868   3.304
 3110TIP3   OH2 9286   5.804   4.866   5.650
 3110TIP3    H1 9287   5.721   4.908   5.629
 3110TIP3    H2 9288   5.848   4.928   5.709
 3111TIP3   OH2 9289   6.132   5.521   4.540
 3111TIP3    H1 9290   6.144   5.515   4.635
 3111TIP3    H2 9291   6.215   5.558   4.509
 3112TIP3   OH2 9292   6.879   0.044   1.067
 3112TIP3    H1 9293   6.799   0.000   1.095
 3112TIP3    H2 9294   6.851   0.102   0.996
 3113TIP3   OH2 9295   2.308   0.617   2.132
 3113TIP3    H1 9296   2.277   0.587   2.218
 3113TIP3    H2 9297   2.382   0.560   2.112
 3114TIP3   OH2 9298   6.587   2.098   3.424
 3114TIP3    H1 9299   6.664   2.046   3.448
 3114TIP3    H2 9300   6.572   2.077   3.332
 3115TIP3   OH2 9301   5.367   4.234   4.429
 3115TIP3    H1 9302   5.422   4.209   4.355
 3115TIP3    H2 9303   5.426   4.234   4.504
 3116TIP3   OH2 9304   6.960   1.235   0.238
 3116TIP3    H1 9305   7.016   1.247   0.161
 3116TIP3    H2 9306   6.882   1.288   0.218
 3117TIP3   OH2 9307   6.045   6.079   5.537
 3117TIP3    H1 9308   6.031   5.992   5.499
 3117TIP3    H2 9309   5.972   6.090   5.598
 3118TIP3   OH2 9310   0.508   6.985   1.551
 3118TIP3    H1 9311   0.584   6.985   1.608
 3118TIP3    H2 9312   0.512   6.901   1.505
 3119TIP3   OH2 9313   2.371   2.154   6.195
 3119TIP3    H1 9314   2.386   2.059   6.196
 3119TIP3    H2 9315   2.346   2.175   6.285
 3120TIP3   OH2 9316   6.334   6.018   1.691
 3120TIP3    H1 9317   6.385   5.956   1.742
 3120TIP3    H2 9318   6.326   5.978   1.604
 3121TIP3   OH2 9319   3.789   3.995   2.052
 3121TIP3    H1 9320   3.826   4.070   2.005
 3121TIP3    H2 9321   3.714   4.031   2.099
 3122TIP3   OH2 9322   4.876   5.032   1.261
 3122TIP3    H1 9323   4.812   4.985   1.314
 3122TIP3    H2 9324   4.824   5.071   1.191
 3123TIP3   OH2 9325   0.252   0.733   3.587
 3123TIP3    H1 9326   0.171   0.681   3.584
 3123TIP3    H2 9327   0.275   0.746   3.495
 3124TIP3   OH2 9328   2.507   3.292   3.546
 3124TIP3    H1 9329   2.523   3.203   3.515
 3124TIP3    H2 9330   2.555   3.348   3.485
 3125TIP3   OH2 9331   6.019   7.810   6.305
 3125TIP3    H1 9332   6.054   7.732   6.348
 3125TIP3    H2 9333   6.042   7.799   6.213
 3126TIP3   OH2 9334   4.396   1.269   1.968
 3126TIP3    H1 9335   4.387   1.351   1.918
 3126TIP3    H2 9336   4.483   1.275   2.007
 3127TIP3   OH2 9337   2.280   5.548   3.746
 3127TIP3    H1 9338   2.197   5.545   3.697
 3127TIP3    H2 9339   2.348   5.542   3.678
 3128TIP3   OH2 9340   5.615   3.942   1.132
 3128TIP3    H1 9341   5.524   3.918   1.118
 3128TIP3    H2 9342   5.611   4.030   1.171
 3129TIP3   OH2 9343   6.603   1.089   4.953
 3129TIP3    H1 9344   6.612   1.143   4.874
 3129TIP3    H2 9345   6.540   1.021   4.929
 3130TIP3   OH2 9346   0.260   2.169   0.473
 3130TIP3    H1 9347   0.225   2.195   0.388
 3130TIP3    H2 9348   0.321   2.098   0.452
 3131TIP3   OH2 9349   2.347   5.343   1.019
 3131TIP3    H1 9350   2.262   5.358   0.977
 3131TIP3    H2 9351   2.411   5.352   0.948
 3132TIP3   OH2 9352   2.601   0.449   1.596
 3132TIP3    H1 9353   2.580   0.364   1.557
 3132TIP3    H2 9354   2.657   0.427   1.670
 3133TIP3   OH2 9355   3.148   5.037   6.576
 3133TIP3    H1 9356   3.100   4.988   6.510
 3133TIP3    H2 9357   3.240   5.029   6.551
 3134TIP3   OH2 9358   2.329   4.890   4.676
 3134TIP3    H1 9359   2.264   4.826   4.705
 3134TIP3    H2 9360   2.338   4.951   4.750
 3135TIP3   OH2 9361   1.193   1.490   5.904
 3135TIP3    H1 9362   1.183   1.424   5.835
 3135TIP3    H2 9363   1.139   1.563   5.875
 3136TIP3   OH2 9364   4.486   5.775   2.603
 3136TIP3    H1 9365   4.424   5.825   2.550
 3136TIP3    H2 9366   4.564   5.768   2.548
 3137TIP3   OH2 9367   7.822   2.642   5.716
 3137TIP3    H1 9368   7.758   2.689   5.769
 3137TIP3    H2 9369   7.823   2.689   5.633
 3138TIP3   OH2 9370   0.173   2.133   5.952
 3138TIP3    H1 9371   0.245   2.175   5.905
 3138TIP3    H2 9372   0.189   2.039   5.943
 3139TIP3   OH2 9373   0.658   6.783   5.124
 3139TIP3    H1 9374   0.565   6.778   5.104
 3139TIP3    H2 9375   0.697   6.713   5.073
 3140TIP3   OH2 9376   7.373   3.170   6.173
 3140TIP3    H1 9377   7.369   3.266   6.164
 3140TIP3    H2 9378   7.466   3.149   6.162
 3141TIP3   OH2 9379   1.413   1.148   4.603
 3141TIP3    H1 9380   1.370   1.176   4.684
 3141TIP3    H2 9381   1.345   1.153   4.536
 3142TIP3   OH2 9382   6.423   4.178   1.488
 3142TIP3    H1 9383   6.450   4.214   1.404
 3142TIP3    H2 9384   6.385   4.252   1.534
 3143TIP3   OH2 9385   1.519   2.557   6.101
 3143TIP3    H1 9386   1.500   2.607   6.022
 3143TIP3    H2 9387   1.559   2.620   6.161
 3144TIP3   OH2 9388   4.748   0.355   3.715
 3144TIP3    H1 9389   4.720   0.307   3.637
 3144TIP3    H2 9390   4.672   0.408   3.739
 3145TIP3   OH2 9391   4.361   5.383   1.471
 3145TIP3    H1 9392   4.450   5.348   1.482
 3145TIP3    H2 9393   4.374   5.477   1.458
 3146TIP3   OH2 9394   3.175   7.667   4.138
 3146TIP3    H1 9395   3.255   7.646   4.186
 3146TIP3    H2 9396   3.109   7.608   4.175
 3147TIP3   OH2 9397   4.008   0.226   4.118
 3147TIP3    H1 9398   4.061   0.298   4.084
 3147TIP3    H2 9399   4.070   0.155   4.135
 3148TIP3   OH2 9400   6.277   2.660   1.309
 3148TIP3    H1 9401   6.347   2.720   1.333
 3148TIP3    H2 9402   6.201   2.716   1.293
 3149TIP3   OH2 9403   4.718   3.884   0.354
 3149TIP3    H1 9404   4.797   3.926   0.388
 3149TIP3    H2 9405   4.646   3.930   0.398
 3150TIP3   OH2 9406   1.409   1.679   5.979
 3150TIP3    H1 9407   1.345   1.625   5.931
 3150TIP3    H2 9408   1.455   1.728   5.910
 3151TIP3   OH2 9409   3.488   6.546   1.379
 3151TIP3    H1 9410   3.532   6.474   1.333
 3151TIP3    H2 9411   3.550   6.618   1.374
 3152TIP3   OH2 9412   4.907   6.504   3.208
 3152TIP3    H1 9413   4.886   6.411   3.213
 3152TIP3    H2 9414   4.940   6.516   3.119
 3153TIP3   OH2 9415   2.223   5.741   6.444
 3153TIP3    H1 9416   2.219   5.651   6.474
 3153TIP3    H2 9417   2.131   5.769   6.438
 3154TIP3   OH2 9418   7.933   1.424   2.554
 3154TIP3    H1 9419   7.876   1.460   2.623
 3154TIP3    H2 9420   8.019   1.461   2.572
 3155TIP3   OH2 9421   8.234   7.232   2.111
 3155TIP3    H1 9422   8.303   7.166   2.105
 3155TIP3    H2 9423   8.280   7.314   2.127
 3156TIP3   OH2 9424   3.436   5.640   2.376
 3156TIP3    H1 9425   3.348   5.668   2.402
 3156TIP3    H2 9426   3.432   5.637   2.280
 3157TIP3   OH2 9427   4.300   0.103   1.264
 3157TIP3    H1 9428   4.390   0.137   1.259
 3157TIP3    H2 9429   4.285   0.063   1.178
 3158TIP3   OH2 9430   7.772   4.544   4.803
 3158TIP3    H1 9431   7.831   4.563   4.876
 3158TIP3    H2 9432   7.772   4.625   4.751
 3159TIP3   OH2 9433   4.926   1.120   2.121
 3159TIP3    H1 9434   4.856   1.085   2.067
 3159TIP3    H2 9435   5.004   1.073   2.092
 3160TIP3   OH2 9436   7.583   5.824   0.722
 3160TIP3    H1 9437   7.509   5.812   0.782
 3160TIP3    H2 9438   7.644   5.880   0.770
 3161TIP3   OH2 9439   1.383   6.508   3.959
 3161TIP3    H1 9440   1.379   6.572   3.887
 3161TIP3    H2 9441   1.477   6.496   3.974
 3162TIP3   OH2 9442   6.168   4.932   0.530
 3162TIP3    H1 9443   6.257   4.967   0.534
 3162TIP3    H2 9444   6.130   4.971   0.452
 3163TIP3   OH2 9445   3.091   5.616   5.570
 3163TIP3    H1 9446   3.162   5.554   5.553
 3163TIP3    H2 9447   3.026   5.565   5.619
 3164TIP3   OH2 9448   3.141   4.090   0.382
 3164TIP3    H1 9449   3.118   4.097   0.290
 3164TIP3    H2 9450   3.056   4.078   0.426
 3165TIP3   OH2 9451   6.014   0.969   6.336
 3165TIP3    H1 9452   6.092   0.970   6.391
 3165TIP3    H2 9453   6.048   0.977   6.247
 3166TIP3   OH2 9454   4.509   0.625   0.804
 3166TIP3    H1 9455   4.460   0.543   0.803
 3166TIP3    H2 9456   4.496   0.659   0.893
 3167TIP3   OH2 9457   4.241   1.841   2.498
 3167TIP3    H1 9458   4.248   1.936   2.508
 3167TIP3    H2 9459   4.328   1.812   2.473
 3168TIP3   OH2 9460   6.063   6.539   5.609
 3168TIP3    H1 9461   6.122   6.605   5.572
 3168TIP3    H2 9462   5.979   6.556   5.567
 3169TIP3   OH2 9463   1.294   0.207   6.051
 3169TIP3    H1 9464   1.236   0.142   6.089
 3169TIP3    H2 9465   1.248   0.290   6.063
 3170TIP3   OH2 9466   3.745   3.087   3.423
 3170TIP3    H1 9467   3.680   3.076   3.492
 3170TIP3    H2 9468   3.823   3.042   3.455
 3171TIP3   OH2 9469   6.995   4.023   5.557
 3171TIP3    H1 9470   6.998   3.938   5.512
 3171TIP3    H2 9471   7.039   4.083   5.497
 3172TIP3   OH2 9472   7.961   4.986   0.814
 3172TIP3    H1 9473   7.916   4.903   0.801
 3172TIP3    H2 9474   7.892   5.052   0.804
 3173TIP3   OH2 9475   5.955   0.976   1.947
 3173TIP3    H1 9476   5.998   1.054   1.983
 3173TIP3    H2 9477   6.027   0.914   1.932
 3174TIP3   OH2 9478   2.614   7.475   2.651
 3174TIP3    H1 9479   2.596   7.521   2.733
 3174TIP3    H2 9480   2.582   7.386   2.666
 3175TIP3   OH2 9481   6.951   0.852   1.088
 3175TIP3    H1 9482   7.009   0.781   1.060
 3175TIP3    H2 9483   6.863   0.818   1.075
 3176TIP3   OH2 9484   3.523   5.833   6.101
 3176TIP3    H1 9485   3.514   5.754   6.048
 3176TIP3    H2 9486   3.561   5.898   6.042
 3177TIP3   OH2 9487   0.720   6.445   3.584
 3177TIP3    H1 9488   0.722   6.535   3.552
 3177TIP3    H2 9489   0.742   6.392   3.508
 3178TIP3   OH2 9490   0.916   5.462   3.866
 3178TIP3    H1 9491   0.876   5.504   3.943
 3178TIP3    H2 9492   0.904   5.525   3.795
 3179TIP3   OH2 9493   0.041   4.091   4.922
 3179TIP3    H1 9494   0.033   4.162   4.859
 3179TIP3    H2 9495  -0.008   4.018   4.883
 3180TIP3   OH2 9496   3.708   7.640   1.906
 3180TIP3    H1 9497   3.690   7.734   1.893
 3180TIP3    H2 9498   3.645   7.613   1.973
 3181TIP3   OH2 9499   4.084   1.653   5.043
 3181TIP3    H1 9500   4.158   1.592   5.039
 3181TIP3    H2 9501   4.093   1.697   5.128
 3182TIP3   OH2 9502   4.408   6.752   2.917
 3182TIP3    H1 9503   4.319   6.753   2.953
 3182TIP3    H2 9504   4.407   6.683   2.852
 3183TIP3   OH2 9505   6.866   7.394   2.354
 3183TIP3    H1 9506   6.879   7.473   2.302
 3183TIP3    H2 9507   6.860   7.324   2.289
 3184TIP3   OH2 9508   2.096   3.971   3.872
 3184TIP3    H1 9509   2.007   3.999   3.896
 3184TIP3    H2 9510   2.114   4.018   3.790
 3185TIP3   OH2 9511   2.215   5.999   2.221
 3185TIP3    H1 9512   2.216   6.036   2.133
 3185TIP3    H2 9513   2.292   6.038   2.264
 3186TIP3   OH2 9514   8.090   3.912   3.313
 3186TIP3    H1 9515   8.140   3.993   3.324
 3186TIP3    H2 9516   8.154   3.842   3.330
 3187TIP3   OH2 9517   7.969   5.871   6.670
 3187TIP3    H1 9518   8.034   5.804   6.651
 3187TIP3    H2 9519   7.994   5.906   6.756
 3188TIP3   OH2 9520   7.294   4.502   3.014
 3188TIP3    H1 9521   7.232   4.430   3.002
 3188TIP3    H2 9522   7.328   4.519   2.926
 3189TIP3   OH2 9523   7.120   0.193   1.799
 3189TIP3    H1 9524   7.122   0.283   1.768
 3189TIP3    H2 9525   7.049   0.152   1.749
 3190TIP3   OH2 9526   4.705   1.681   5.290
 3190TIP3    H1 9527   4.694   1.593   5.254
 3190TIP3    H2 9528   4.677   1.740   5.220
 3191TIP3   OH2 9529   2.394   5.061   6.211
 3191TIP3    H1 9530   2.314   5.012   6.228
 3191TIP3    H2 9531   2.402   5.121   6.285
 3192TIP3   OH2 9532   7.565   4.040   2.547
 3192TIP3    H1 9533   7.545   4.073   2.460
 3192TIP3    H2 9534   7.659   4.019   2.543
 3193TIP3   OH2 9535   7.257   1.095   0.060
 3193TIP3    H1 9536   7.242   1.007   0.025
 3193TIP3    H2 9537   7.350   1.112   0.045
 3194TIP3   OH2 9538   4.040   5.670   0.833
 3194TIP3    H1 9539   4.073   5.677   0.744
 3194TIP3    H2 9540   3.973   5.601   0.829
 3195TIP3   OH2 9541   7.974   5.508   4.262
 3195TIP3    H1 9542   8.030   5.443   4.220
 3195TIP3    H2 9543   7.981   5.489   4.356
 3196TIP3   OH2 9544   3.727   7.396   4.622
 3196TIP3    H1 9545   3.772   7.475   4.592
 3196TIP3    H2 9546   3.644   7.395   4.574
 3197TIP3   OH2 9547   0.129   2.819   2.666
 3197TIP3    H1 9548   0.062   2.753   2.684
 3197TIP3    H2 9549   0.201   2.770   2.627
 3198TIP3   OH2 9550   3.133   2.595   6.248
 3198TIP3    H1 9551   3.227   2.605   6.231
 3198TIP3    H2 9552   3.103   2.683   6.272
 3199TIP3   OH2 9553   7.141   4.369   0.107
 3199TIP3    H1 9554   7.085   4.318   0.047
 3199TIP3    H2 9555   7.128   4.328   0.192
 3200TIP3   OH2 9556   7.877   0.294   2.240
 3200TIP3    H1 9557   7.914   0.380   2.261
 3200TIP3    H2 9558   7.793   0.292   2.286
 3201TIP3   OH2 9559   3.400   6.856   4.753
 3201TIP3    H1 9560   3.393   6.928   4.690
 3201TIP3    H2 9561   3.311   6.842   4.784
 3202TIP3   OH2 9562   5.758   1.424   2.995
 3202TIP3    H1 9563   5.848   1.454   2.984
 3202TIP3    H2 9564   5.714   1.449   2.914
 3203TIP3   OH2 9565   2.056   7.576   5.450
 3203TIP3    H1 9566   2.056   7.574   5.546
 3203TIP3    H2 9567   1.971   7.612   5.427
 3204TIP3   OH2 9568   0.359   2.397   0.593
 3204TIP3    H1 9569   0.315   2.313   0.578
 3204TIP3    H2 9570   0.291   2.453   0.631
 3205TIP3   OH2 9571   3.579   0.886   1.407
 3205TIP3    H1 9572   3.617   0.925   1.486
 3205TIP3    H2 9573   3.505   0.835   1.439
 3206TIP3   OH2 9574   5.357   2.250   1.499
 3206TIP3    H1 9575   5.436   2.293   1.533
 3206TIP3    H2 9576   5.311   2.220   1.577
 3207TIP3   OH2 9577   6.809   1.692   0.184
 3207TIP3    H1 9578   6.848   1.750   0.119
 3207TIP3    H2 9579   6.881   1.634   0.210
 3208TIP3   OH2 9580   6.203   5.817   0.103
 3208TIP3    H1 9581   6.215   5.738   0.154
 3208TIP3    H2 9582   6.213   5.889   0.166
 3209TIP3   OH2 9583   5.265   2.983   0.866
 3209TIP3    H1 9584   5.281   2.910   0.927
 3209TIP3    H2 9585   5.345   2.989   0.815
 3210TIP3   OH2 9586   2.679   0.433   2.293
 3210TIP3    H1 9587   2.601   0.398   2.337
 3210TIP3    H2 9588   2.711   0.501   2.352
 3211TIP3   OH2 9589   5.776   1.260   2.254
 3211TIP3    H1 9590   5.779   1.243   2.348
 3211TIP3    H2 9591   5.864   1.291   2.232
 3212TIP3   OH2 9592   3.577   5.859   1.571
 3212TIP3    H1 9593   3.596   5.768   1.547
 3212TIP3    H2 9594   3.489   5.875   1.536
 3213TIP3   OH2 9595   7.621   5.233   4.768
 3213TIP3    H1 9596   7.691   5.290   4.800
 3213TIP3    H2 9597   7.651   5.205   4.682
 3214TIP3   OH2 9598   7.853   0.034   3.328
 3214TIP3    H1 9599   7.823   0.071   3.244
 3214TIP3    H2 9600   7.775   0.036   3.384
 3215TIP3   OH2 9601   3.038   6.612   6.540
 3215TIP3    H1 9602   2.962   6.670   6.545
 3215TIP3    H2 9603   3.113   6.670   6.557
 3216TIP3   OH2 9604   4.900   0.951   3.394
 3216TIP3    H1 9605   4.970   0.996   3.347
 3216TIP3    H2 9606   4.834   0.933   3.327
 3217TIP3   OH2 9607   6.365   6.481   4.336
 3217TIP3    H1 9608   6.368   6.388   4.359
 3217TIP3    H2 9609   6.457   6.505   4.324
 3218TIP3   OH2 9610   0.504   0.594   1.982
 3218TIP3    H1 9611   0.550   0.568   1.902
 3218TIP3    H2 9612   0.431   0.533   1.989
 3219TIP3   OH2 9613   5.961   3.119   0.946
 3219TIP3    H1 9614   6.025   3.048   0.955
 3219TIP3    H2 9615   5.889   3.094   1.004
 3220TIP3   OH2 9616   8.007   6.922   0.698
 3220TIP3    H1 9617   8.057   6.987   0.648
 3220TIP3    H2 9618   7.965   6.973   0.768
 3221TIP3   OH2 9619   3.330   0.912   3.264
 3221TIP3    H1 9620   3.330   0.920   3.359
 3221TIP3    H2 9621   3.389   0.839   3.246
 3222TIP3   OH2 9622   3.740   4.067   0.873
 3222TIP3    H1 9623   3.672   4.016   0.829
 3222TIP3    H2 9624   3.701   4.092   0.956
 3223TIP3   OH2 9625   7.150   0.773   5.955
 3223TIP3    H1 9626   7.215   0.813   5.898
 3223TIP3    H2 9627   7.112   0.703   5.902
 3224TIP3   OH2 9628   1.282   3.833   6.653
 3224TIP3    H1 9629   1.256   3.742   6.661
 3224TIP3    H2 9630   1.203   3.879   6.625
 3225TIP3   OH2 9631   2.197   3.817   0.941
 3225TIP3    H1 9632   2.264   3.875   0.977
 3225TIP3    H2 9633   2.238   3.730   0.943
 3226TIP3   OH2 9634   3.968   3.143   4.318
 3226TIP3    H1 9635   3.876   3.116   4.307
 3226TIP3    H2 9636   4.018   3.077   4.270
 3227TIP3   OH2 9637   2.268   1.355   0.439
 3227TIP3    H1 9638   2.340   1.387   0.494
 3227TIP3    H2 9639   2.250   1.426   0.378
 3228TIP3   OH2 9640   0.985   0.226   0.116
 3228TIP3    H1 9641   1.004   0.257   0.028
 3228TIP3    H2 9642   0.892   0.247   0.129
 3229TIP3   OH2 9643   7.968   1.972   5.798
 3229TIP3    H1 9644   8.050   1.955   5.751
 3229TIP3    H2 9645   7.943   2.061   5.772
 3230TIP3   OH2 9646   2.881   0.303   2.573
 3230TIP3    H1 9647   2.884   0.399   2.563
 3230TIP3    H2 9648   2.966   0.273   2.540
 3231TIP3   OH2 9649   7.578   3.123   4.545
 3231TIP3    H1 9650   7.511   3.070   4.589
 3231TIP3    H2 9651   7.536   3.154   4.465
 3232TIP3   OH2 9652   4.341   3.721   1.758
 3232TIP3    H1 9653   4.281   3.796   1.759
 3232TIP3    H2 9654   4.401   3.738   1.831
 3233TIP3   OH2 9655   8.026   6.136   0.160
 3233TIP3    H1 9656   7.953   6.138   0.222
 3233TIP3    H2 9657   8.060   6.225   0.159
 3234TIP3   OH2 9658   0.560   5.643   4.313
 3234TIP3    H1 9659   0.466   5.647   4.295
 3234TIP3    H2 9660   0.598   5.703   4.248
 3235TIP3   OH2 9661   2.307   1.850   5.120
 3235TIP3    H1 9662   2.397   1.849   5.087
 3235TIP3    H2 9663   2.317   1.867   5.214
 3236TIP3   OH2 9664   6.593   4.393   1.299
 3236TIP3    H1 9665   6.571   4.471   1.350
 3236TIP3    H2 9666   6.624   4.428   1.215
 3237TIP3   OH2 9667   4.151   7.548   5.813
 3237TIP3    H1 9668   4.166   7.492   5.890
 3237TIP3    H2 9669   4.237   7.588   5.796
 3238TIP3   OH2 9670   2.486   1.516   1.239
 3238TIP3    H1 9671   2.538   1.453   1.190
 3238TIP3    H2 9672   2.547   1.588   1.257
 3239TIP3   OH2 9673   1.682   3.662   3.963
 3239TIP3    H1 9674   1.767   3.686   3.927
 3239TIP3    H2 9675   1.690   3.569   3.983
 3240TIP3   OH2 9676   3.158   6.488   2.932
 3240TIP3    H1 9677   3.225   6.433   2.973
 3240TIP3    H2 9678   3.087   6.428   2.911
 3241TIP3   OH2 9679   8.167   7.607   5.094
 3241TIP3    H1 9680   8.092   7.633   5.147
 3241TIP3    H2 9681   8.194   7.687   5.050
 3242TIP3   OH2 9682   5.198   3.013   1.735
 3242TIP3    H1 9683   5.229   2.986   1.821
 3242TIP3    H2 9684   5.118   2.962   1.721
 3243TIP3   OH2 9685   3.063   5.047   5.390
 3243TIP3    H1 9686   3.143   5.030   5.341
 3243TIP3    H2 9687   3.026   5.125   5.349
 3244TIP3   OH2 9688   7.864   1.402   5.379
 3244TIP3    H1 9689   7.863   1.457   5.458
 3244TIP3    H2 9690   7.931   1.336   5.396
 3245TIP3   OH2 9691   1.072   1.298   5.045
 3245TIP3    H1 9692   1.103   1.286   4.956
 3245TIP3    H2 9693   1.067   1.209   5.081
 3246TIP3   OH2 9694   2.342   0.428   5.549
 3246TIP3    H1 9695   2.423   0.479   5.545
 3246TIP3    H2 9696   2.273   0.489   5.524
 3247TIP3   OH2 9697   7.875   4.577   5.330
 3247TIP3    H1 9698   7.814   4.503   5.326
 3247TIP3    H2 9699   7.925   4.572   5.249
 3248TIP3   OH2 9700   7.060   7.072   0.160
 3248TIP3    H1 9701   7.139   7.109   0.121
 3248TIP3    H2 9702   7.014   7.147   0.197
 3249TIP3   OH2 9703   4.289   6.926   5.042
 3249TIP3    H1 9704   4.217   6.876   5.082
 3249TIP3    H2 9705   4.366   6.871   5.055
 3250TIP3   OH2 9706   7.499   1.371   0.339
 3250TIP3    H1 9707   7.582   1.332   0.311
 3250TIP3    H2 9708   7.445   1.297   0.366
 3251TIP3   OH2 9709   6.526   3.639   2.663
 3251TIP3    H1 9710   6.432   3.652   2.676
 3251TIP3    H2 9711   6.562   3.634   2.752
 3252TIP3   OH2 9712   6.849   0.204   1.629
 3252TIP3    H1 9713   6.754   0.200   1.626
 3252TIP3    H2 9714   6.873   0.257   1.553
 3253TIP3   OH2 9715   7.853   6.587   3.302
 3253TIP3    H1 9716   7.929   6.644   3.293
 3253TIP3    H2 9717   7.783   6.633   3.257
 3254TIP3   OH2 9718   0.920   7.442   1.742
 3254TIP3    H1 9719   0.846   7.479   1.789
 3254TIP3    H2 9720   0.893   7.352   1.722
 3255TIP3   OH2 9721   7.836   4.327   6.650
 3255TIP3    H1 9722   7.894   4.295   6.580
 3255TIP3    H2 9723   7.816   4.417   6.624
 3256TIP3   OH2 9724   6.875   1.307   5.843
 3256TIP3    H1 9725   6.837   1.233   5.889
 3256TIP3    H2 9726   6.969   1.299   5.859
 3257TIP3   OH2 9727   6.350   3.931   5.163
 3257TIP3    H1 9728   6.336   3.842   5.194
 3257TIP3    H2 9729   6.268   3.954   5.119
 3258TIP3   OH2 9730   6.743   0.799   5.535
 3258TIP3    H1 9731   6.759   0.872   5.595
 3258TIP3    H2 9732   6.681   0.835   5.471
 3259TIP3   OH2 9733   7.022   4.576   1.123
 3259TIP3    H1 9734   7.066   4.658   1.100
 3259TIP3    H2 9735   7.071   4.544   1.199
 3260TIP3   OH2 9736   1.160   1.075   4.565
 3260TIP3    H1 9737   1.221   1.002   4.564
 3260TIP3    H2 9738   1.078   1.038   4.599
 3261TIP3   OH2 9739   7.883   2.080   3.957
 3261TIP3    H1 9740   7.810   2.019   3.947
 3261TIP3    H2 9741   7.849   2.164   3.924
 3262TIP3   OH2 9742   0.632   4.601   6.446
 3262TIP3    H1 9743   0.616   4.530   6.384
 3262TIP3    H2 9744   0.705   4.570   6.500
 3263TIP3   OH2 9745   4.267   5.138   4.618
 3263TIP3    H1 9746   4.356   5.156   4.588
 3263TIP3    H2 9747   4.278   5.089   4.700
 3264TIP3   OH2 9748   4.013   6.657   4.105
 3264TIP3    H1 9749   4.097   6.663   4.150
 3264TIP3    H2 9750   3.955   6.615   4.169
 3265TIP3   OH2 9751   8.145   2.508   1.452
 3265TIP3    H1 9752   8.115   2.417   1.457
 3265TIP3    H2 9753   8.124   2.544   1.538
 3266TIP3   OH2 9754   6.699   2.149   4.452
 3266TIP3    H1 9755   6.791   2.152   4.474
 3266TIP3    H2 9756   6.678   2.238   4.423
 3267TIP3   OH2 9757   1.060   7.315   3.553
 3267TIP3    H1 9758   0.992   7.255   3.584
 3267TIP3    H2 9759   1.140   7.285   3.597
 3268TIP3   OH2 9760   7.128   6.397   5.750
 3268TIP3    H1 9761   7.108   6.307   5.725
 3268TIP3    H2 9762   7.114   6.449   5.671
 3269TIP3   OH2 9763   7.972   2.034   3.693
 3269TIP3    H1 9764   7.983   2.091   3.770
 3269TIP3    H2 9765   8.025   2.076   3.625
 3270TIP3   OH2 9766   2.593   1.802   1.957
 3270TIP3    H1 9767   2.683   1.822   1.930
 3270TIP3    H2 9768   2.538   1.855   1.899
 3271TIP3   OH2 9769   0.643   2.094   1.597
 3271TIP3    H1 9770   0.712   2.146   1.557
 3271TIP3    H2 9771   0.564   2.146   1.585
 3272TIP3   OH2 9772   5.685   1.499   1.130
 3272TIP3    H1 9773   5.624   1.506   1.203
 3272TIP3    H2 9774   5.638   1.448   1.064
 3273TIP3   OH2 9775   1.886   0.672   1.016
 3273TIP3    H1 9776   1.852   0.613   1.084
 3273TIP3    H2 9777   1.933   0.740   1.065
 3274TIP3   OH2 9778   5.923   3.824   4.793
 3274TIP3    H1 9779   5.945   3.859   4.879
 3274TIP3    H2 9780   5.837   3.860   4.773
 3275TIP3   OH2 9781   2.332   1.786   2.901
 3275TIP3    H1 9782   2.245   1.808   2.869
 3275TIP3    H2 9783   2.324   1.699   2.940
 3276TIP3   OH2 9784   1.914   5.845   0.549
 3276TIP3    H1 9785   2.004   5.823   0.526
 3276TIP3    H2 9786   1.920   5.926   0.600
 3277TIP3   OH2 9787   7.328   1.804   5.072
 3277TIP3    H1 9788   7.343   1.888   5.028
 3277TIP3    H2 9789   7.264   1.824   5.140
 3278TIP3   OH2 9790   4.807   6.635   1.013
 3278TIP3    H1 9791   4.885   6.689   0.999
 3278TIP3    H2 9792   4.739   6.697   1.037
 3279TIP3   OH2 9793   7.616   2.405   4.530
 3279TIP3    H1 9794   7.609   2.311   4.514
 3279TIP3    H2 9795   7.567   2.446   4.459
 3280TIP3   OH2 9796   3.983   0.726   0.028
 3280TIP3    H1 9797   4.003   0.819   0.037
 3280TIP3    H2 9798   3.888   0.722   0.027
 3281TIP3   OH2 9799   2.862   1.414   0.160
 3281TIP3    H1 9800   2.788   1.366   0.124
 3281TIP3    H2 9801   2.847   1.505   0.135
 3282TIP3   OH2 9802   0.448   7.681   0.699
 3282TIP3    H1 9803   0.533   7.673   0.656
 3282TIP3    H2 9804   0.419   7.770   0.680
 3283TIP3   OH2 9805   3.065   2.926   5.909
 3283TIP3    H1 9806   3.100   2.973   5.985
 3283TIP3    H2 9807   2.982   2.970   5.890
 3284TIP3   OH2 9808   7.310   0.231   6.723
 3284TIP3    H1 9809   7.348   0.311   6.688
 3284TIP3    H2 9810   7.239   0.260   6.779
 3285TIP3   OH2 9811   0.781   6.189   0.035
 3285TIP3    H1 9812   0.774   6.237  -0.047
 3285TIP3    H2 9813   0.873   6.197   0.059
 3286TIP3   OH2 9814   5.622   3.731   5.456
 3286TIP3    H1 9815   5.717   3.725   5.462
 3286TIP3    H2 9816   5.591   3.641   5.466
 3287TIP3   OH2 9817   7.673   4.686   5.816
 3287TIP3    H1 9818   7.739   4.648   5.758
 3287TIP3    H2 9819   7.651   4.770   5.777
 3288TIP3   OH2 9820   5.467   3.004   4.420
 3288TIP3    H1 9821   5.527   3.052   4.478
 3288TIP3    H2 9822   5.519   2.930   4.388
 3289TIP3   OH2 9823   3.968   4.950   4.526
 3289TIP3    H1 9824   3.879   4.932   4.557
 3289TIP3    H2 9825   4.012   4.989   4.601
 3290TIP3   OH2 9826   1.655   7.537   3.725
 3290TIP3    H1 9827   1.718   7.605   3.704
 3290TIP3    H2 9828   1.630   7.500   3.641
 3291TIP3   OH2 9829   5.246   2.936   6.676
 3291TIP3    H1 9830   5.327   2.978   6.704
 3291TIP3    H2 9831   5.220   2.880   6.750
 3292TIP3   OH2 9832   5.540   6.328   3.802
 3292TIP3    H1 9833   5.540   6.287   3.715
 3292TIP3    H2 9834   5.448   6.348   3.818
 3293TIP3   OH2 9835   4.563   0.146   3.885
 3293TIP3    H1 9836   4.638   0.198   3.913
 3293TIP3    H2 9837   4.495   0.165   3.950
 3294TIP3   OH2 9838   5.650   1.174   6.097
 3294TIP3    H1 9839   5.612   1.258   6.073
 3294TIP3    H2 9840   5.602   1.109   6.045
 3295TIP3   OH2 9841   5.948   0.984   4.671
 3295TIP3    H1 9842   5.957   0.987   4.767
 3295TIP3    H2 9843   5.894   1.060   4.651
 3296TIP3   OH2 9844   8.255   3.144   5.628
 3296TIP3    H1 9845   8.239   3.055   5.659
 3296TIP3    H2 9846   8.290   3.190   5.705
 3297TIP3   OH2 9847   4.096   5.016   5.549
 3297TIP3    H1 9848   4.164   4.950   5.553
 3297TIP3    H2 9849   4.100   5.049   5.459
 3298TIP3   OH2 9850   5.324   6.224   2.440
 3298TIP3    H1 9851   5.410   6.182   2.441
 3298TIP3    H2 9852   5.310   6.252   2.531
 3299TIP3   OH2 9853   6.892   2.428   3.154
 3299TIP3    H1 9854   6.914   2.362   3.219
 3299TIP3    H2 9855   6.973   2.475   3.137
 3300TIP3   OH2 9856   1.786   4.864   2.199
 3300TIP3    H1 9857   1.873   4.828   2.215
 3300TIP3    H2 9858   1.763   4.833   2.111
 3301TIP3   OH2 9859   1.250   6.308   3.026
 3301TIP3    H1 9860   1.320   6.292   3.088
 3301TIP3    H2 9861   1.287   6.282   2.941
 3302TIP3   OH2 9862   1.169   7.343   0.292
 3302TIP3    H1 9863   1.143   7.279   0.358
 3302TIP3    H2 9864   1.162   7.427   0.337
 3303TIP3   OH2 9865   6.301   2.176   2.294
 3303TIP3    H1 9866   6.271   2.133   2.375
 3303TIP3    H2 9867   6.292   2.270   2.312
 3304TIP3   OH2 9868   6.898   4.038   4.450
 3304TIP3    H1 9869   6.901   4.089   4.531
 3304TIP3    H2 9870   6.884   3.947   4.479
 3305TIP3   OH2 9871   0.157   6.732   2.029
 3305TIP3    H1 9872   0.089   6.669   2.052
 3305TIP3    H2 9873   0.116   6.789   1.964
 3306TIP3   OH2 9874   1.603   3.882   1.806
 3306TIP3    H1 9875   1.584   3.855   1.716
 3306TIP3    H2 9876   1.520   3.870   1.852
 3307TIP3   OH2 9877   2.737   3.793   3.891
 3307TIP3    H1 9878   2.763   3.719   3.946
 3307TIP3    H2 9879   2.667   3.759   3.836
 3308TIP3   OH2 9880   2.699   4.306   0.208
 3308TIP3    H1 9881   2.650   4.225   0.225
 3308TIP3    H2 9882   2.774   4.279   0.156
 3309TIP3   OH2 9883   5.128   0.226   1.447
 3309TIP3    H1 9884   5.159   0.181   1.369
 3309TIP3    H2 9885   5.077   0.160   1.494
 3310TIP3   OH2 9886   5.220   5.785   1.305
 3310TIP3    H1 9887   5.163   5.852   1.268
 3310TIP3    H2 9888   5.291   5.834   1.346
 3311TIP3   OH2 9889   2.178   5.427   5.014
 3311TIP3    H1 9890   2.174   5.521   5.034
 3311TIP3    H2 9891   2.215   5.423   4.926
 3312TIP3   OH2 9892   8.054   4.643   5.968
 3312TIP3    H1 9893   8.141   4.660   6.004
 3312TIP3    H2 9894   8.051   4.696   5.888
 3313TIP3   OH2 9895   7.804   0.116   3.879
 3313TIP3    H1 9896   7.842   0.036   3.842
 3313TIP3    H2 9897   7.769   0.163   3.803
 3314TIP3   OH2 9898   2.951   7.340   5.711
 3314TIP3    H1 9899   2.876   7.297   5.753
 3314TIP3    H2 9900   2.976   7.410   5.772
 3315TIP3   OH2 9901   4.051   5.887   3.492
 3315TIP3    H1 9902   4.007   5.962   3.452
 3315TIP3    H2 9903   4.061   5.912   3.584
 3316TIP3   OH2 9904   6.030   0.784   4.027
 3316TIP3    H1 9905   6.105   0.843   4.033
 3316TIP3    H2 9906   6.063   0.707   3.980
 3317TIP3   OH2 9907   0.424   6.321   3.219
 3317TIP3    H1 9908   0.460   6.384   3.157
 3317TIP3    H2 9909   0.391   6.249   3.165
 3318TIP3   OH2 9910   3.697   4.861   3.279
 3318TIP3    H1 9911   3.737   4.909   3.206
 3318TIP3    H2 9912   3.643   4.794   3.236
 3319TIP3   OH2 9913   6.381   0.048   5.943
 3319TIP3    H1 9914   6.295   0.059   5.985
 3319TIP3    H2 9915   6.437   0.014   6.012
 3320TIP3   OH2 9916   6.235   5.816   5.888
 3320TIP3    H1 9917   6.181   5.893   5.871
 3320TIP3    H2 9918   6.249   5.777   5.802
 3321TIP3   OH2 9919   1.875   3.793   5.699
 3321TIP3    H1 9920   1.860   3.829   5.786
 3321TIP3    H2 9921   1.795   3.812   5.650
 3322TIP3   OH2 9922   5.931   5.274   0.416
 3322TIP3    H1 9923   5.871   5.261   0.343
 3322TIP3    H2 9924   5.924   5.193   0.468
 3323TIP3   OH2 9925   1.156   2.232   5.402
 3323TIP3    H1 9926   1.061   2.236   5.389
 3323TIP3    H2 9927   1.170   2.153   5.454
 3324TIP3   OH2 9928   3.559   3.749   3.013
 3324TIP3    H1 9929   3.610   3.746   3.094
 3324TIP3    H2 9930   3.478   3.703   3.033
 3325TIP3   OH2 9931   2.010   2.137   5.611
 3325TIP3    H1 9932   2.101   2.131   5.582
 3325TIP3    H2 9933   2.006   2.083   5.690
 3326TIP3   OH2 9934   1.080   3.525   0.905
 3326TIP3    H1 9935   1.031   3.607   0.914
 3326TIP3    H2 9936   1.062   3.496   0.816
 3327TIP3   OH2 9937   5.203   4.776   3.799
 3327TIP3    H1 9938   5.280   4.780   3.742
 3327TIP3    H2 9939   5.204   4.686   3.833
 3328TIP3   OH2 9940   0.732   0.211   5.660
 3328TIP3    H1 9941   0.818   0.179   5.688
 3328TIP3    H2 9942   0.747   0.246   5.572
 3329TIP3   OH2 9943   6.381   7.328   1.060
 3329TIP3    H1 9944   6.473   7.344   1.080
 3329TIP3    H2 9945   6.372   7.233   1.060
 3330TIP3   OH2 9946   2.176   4.954   3.814
 3330TIP3    H1 9947   2.093   4.952   3.766
 3330TIP3    H2 9948   2.189   5.046   3.837
 3331TIP3   OH2 9949   1.728   3.394   4.670
 3331TIP3    H1 9950   1.657   3.406   4.607
 3331TIP3    H2 9951   1.776   3.317   4.639
 3332TIP3   OH2 9952   0.051   4.005   4.277
 3332TIP3    H1 9953  -0.024   4.028   4.222
 3332TIP3    H2 9954   0.083   3.922   4.242
 3333TIP3   OH2 9955   6.773   4.318   6.409
 3333TIP3    H1 9956   6.777   4.385   6.478
 3333TIP3    H2 9957   6.717   4.356   6.342
 3334TIP3   OH2 9958   4.539   2.544   0.198
 3334TIP3    H1 9959   4.617   2.537   0.144
 3334TIP3    H2 9960   4.526   2.638   0.211
 3335TIP3   OH2 9961   2.342   4.803   2.354
 3335TIP3    H1 9962   2.259   4.850   2.346
 3335TIP3    H2 9963   2.359   4.803   2.449
 3336TIP3   OH2 9964   0.189   1.357   4.400
 3336TIP3    H1 9965   0.274   1.356   4.444
 3336TIP3    H2 9966   0.193   1.283   4.340
 3337TIP3   OH2 9967   3.926   3.494   4.019
 3337TIP3    H1 9968   4.006   3.489   4.071
 3337TIP3    H2 9969   3.935   3.423   3.954
 3338TIP3   OH2 9970   5.735   5.165   1.547
 3338TIP3    H1 9971   5.640   5.164   1.535
 3338TIP3    H2 9972   5.770   5.189   1.461
 3339TIP3   OH2 9973   1.439   7.163   0.266
 3339TIP3    H1 9974   1.469   7.189   0.353
 3339TIP3    H2 9975   1.408   7.244   0.226
 3340TIP3   OH2 9976   2.986   4.265   4.911
 3340TIP3    H1 9977   2.977   4.360   4.903
 3340TIP3    H2 9978   3.043   4.252   4.987
 3341TIP3   OH2 9979   6.561   1.401   4.881
 3341TIP3    H1 9980   6.612   1.482   4.877
 3341TIP3    H2 9981   6.620   1.337   4.919
 3342TIP3   OH2 9982   1.875   3.122   3.240
 3342TIP3    H1 9983   1.805   3.184   3.221
 3342TIP3    H2 9984   1.926   3.118   3.159
 3343TIP3   OH2 9985   6.300   5.496   1.439
 3343TIP3    H1 9986   6.256   5.412   1.425
 3343TIP3    H2 9987   6.242   5.561   1.398
 3344TIP3   OH2 9988   4.343   4.671   2.359
 3344TIP3    H1 9989   4.249   4.685   2.363
 3344TIP3    H2 9990   4.364   4.625   2.441
 3345TIP3   OH2 9991   6.801   0.735   1.939
 3345TIP3    H1 9992   6.798   0.670   1.869
 3345TIP3    H2 9993   6.792   0.685   2.020
 3346TIP3   OH2 9994   0.988   6.729   5.136
 3346TIP3    H1 9995   1.019   6.729   5.045
 3346TIP3    H2 9996   0.986   6.822   5.161
 3347TIP3   OH2 9997   2.033   5.410   4.344
 3347TIP3    H1 9998   1.965   5.419   4.277
 3347TIP3    H2 9999   2.060   5.318   4.339
 3348TIP3   OH210000   7.457   1.184   0.847
 3348TIP3    H110001   7.434   1.201   0.939
 3348TIP3    H210002   7.518   1.254   0.824
 3349TIP3   OH210003   1.579   2.757   6.535
 3349TIP3    H110004   1.640   2.780   6.605
 3349TIP3    H210005   1.564   2.663   6.547
 3350TIP3   OH210006   0.889   3.115   2.030
 3350TIP3    H110007   0.809   3.075   1.995
 3350TIP3    H210008   0.960   3.069   1.985
 3351TIP3   OH210009   3.710   0.736   4.151
 3351TIP3    H110010   3.718   0.644   4.126
 3351TIP3    H210011   3.799   0.762   4.175
 3352TIP3   OH210012   3.425   5.586   2.072
 3352TIP3    H110013   3.431   5.681   2.077
 3352TIP3    H210014   3.480   5.563   1.996
 3353TIP3   OH210015   1.010   6.243   2.090
 3353TIP3    H110016   1.092   6.235   2.042
 3353TIP3    H210017   1.033   6.286   2.172
 3354TIP3   OH210018   5.004   6.109   1.661
 3354TIP3    H110019   5.019   6.064   1.744
 3354TIP3    H210020   4.911   6.131   1.663
 3355TIP3   OH210021   6.057   0.571   4.763
 3355TIP3    H110022   6.033   0.479   4.776
 3355TIP3    H210023   5.973   0.618   4.765
 3356TIP3   OH210024   6.690   2.033   1.770
 3356TIP3    H110025   6.620   2.096   1.754
 3356TIP3    H210026   6.745   2.039   1.692
 3357TIP3   OH210027   3.965   5.676   6.457
 3357TIP3    H110028   3.923   5.760   6.475
 3357TIP3    H210029   4.059   5.696   6.456
 3358TIP3   OH210030   6.725   2.801   1.738
 3358TIP3    H110031   6.639   2.772   1.767
 3358TIP3    H210032   6.762   2.847   1.814
 3359TIP3   OH210033   8.064   5.376   5.994
 3359TIP3    H110034   8.020   5.374   6.079
 3359TIP3    H210035   8.057   5.467   5.966
 3360TIP3   OH210036   1.746   2.309   1.207
 3360TIP3    H110037   1.689   2.308   1.130
 3360TIP3    H210038   1.692   2.346   1.277
 3361TIP3   OH210039   5.559   7.183   3.101
 3361TIP3    H110040   5.534   7.263   3.055
 3361TIP3    H210041   5.502   7.115   3.065
 3362TIP3   OH210042   5.232   0.999   0.910
 3362TIP3    H110043   5.255   0.907   0.923
 3362TIP3    H210044   5.302   1.034   0.855
 3363TIP3   OH210045   8.179   3.901   2.440
 3363TIP3    H110046   8.139   3.879   2.523
 3363TIP3    H210047   8.271   3.919   2.461
 3364TIP3   OH210048   1.651   3.230   3.565
 3364TIP3    H110049   1.716   3.257   3.499
 3364TIP3    H210050   1.610   3.153   3.527
 3365TIP3   OH210051   1.915   7.656   4.389
 3365TIP3    H110052   2.006   7.673   4.415
 3365TIP3    H210053   1.863   7.707   4.451
 3366TIP3   OH210054   0.394   2.178   5.724
 3366TIP3    H110055   0.344   2.176   5.643
 3366TIP3    H210056   0.432   2.090   5.732
 3367TIP3   OH210057   0.194   3.442   5.907
 3367TIP3    H110058   0.127   3.416   5.844
 3367TIP3    H210059   0.220   3.530   5.878
 3368TIP3   OH210060   0.581   1.591   6.145
 3368TIP3    H110061   0.560   1.529   6.075
 3368TIP3    H210062   0.524   1.565   6.217
 3369TIP3   OH210063   8.126   4.772   1.991
 3369TIP3    H110064   8.188   4.728   2.048
 3369TIP3    H210065   8.068   4.703   1.961
 3370TIP3   OH210066   1.577   0.011   3.879
 3370TIP3    H110067   1.560   0.066   3.802
 3370TIP3    H210068   1.491  -0.022   3.904
 3371TIP3   OH210069   1.341   3.841   5.196
 3371TIP3    H110070   1.334   3.863   5.103
 3371TIP3    H210071   1.429   3.803   5.205
 3372TIP3   OH210072   5.733   4.787   4.898
 3372TIP3    H110073   5.693   4.823   4.819
 3372TIP3    H210074   5.824   4.770   4.873
 3373TIP3   OH210075   5.253   0.555   0.419
 3373TIP3    H110076   5.159   0.543   0.406
 3373TIP3    H210077   5.284   0.469   0.446
 3374TIP3   OH210078   8.024   1.620   3.887
 3374TIP3    H110079   8.031   1.543   3.830
 3374TIP3    H210080   7.936   1.615   3.924
 3375TIP3   OH210081   5.121   1.090   5.030
 3375TIP3    H110082   5.157   1.049   4.951
 3375TIP3    H210083   5.028   1.105   5.008
 3376TIP3   OH210084   2.019   0.877   4.243
 3376TIP3    H110085   2.061   0.827   4.314
 3376TIP3    H210086   2.001   0.812   4.176
 3377TIP3   OH210087   6.651   4.093   3.685
 3377TIP3    H110088   6.617   4.083   3.596
 3377TIP3    H210089   6.642   4.187   3.703
 3378TIP3   OH210090   4.182   2.960   3.269
 3378TIP3    H110091   4.117   2.898   3.301
 3378TIP3    H210092   4.266   2.919   3.288
 3379TIP3   OH210093   4.274   1.419   2.500
 3379TIP3    H110094   4.199   1.470   2.531
 3379TIP3    H210095   4.255   1.330   2.529
 3380TIP3   OH210096   3.685   0.647   0.410
 3380TIP3    H110097   3.781   0.650   0.404
 3380TIP3    H210098   3.668   0.607   0.495
 3381TIP3   OH210099   2.428   7.461   4.597
 3381TIP3    H110100   2.442   7.507   4.679
 3381TIP3    H210101   2.353   7.404   4.613
 3382TIP3   OH210102   6.512   2.620   1.887
 3382TIP3    H110103   6.592   2.604   1.937
 3382TIP3    H210104   6.526   2.575   1.804
 3383TIP3   OH210105   5.541   0.765   1.243
 3383TIP3    H110106   5.560   0.744   1.335
 3383TIP3    H210107   5.571   0.688   1.195
 3384TIP3   OH210108   1.283   1.064   0.594
 3384TIP3    H110109   1.228   1.120   0.649
 3384TIP3    H210110   1.228   1.041   0.520
 3385TIP3   OH210111   1.866   0.627   6.741
 3385TIP3    H110112   1.786   0.623   6.689
 3385TIP3    H210113   1.845   0.685   6.815
 3386TIP3   OH210114   5.649   2.842   5.619
 3386TIP3    H110115   5.659   2.762   5.672
 3386TIP3    H210116   5.563   2.876   5.643
 3387TIP3   OH210117   5.450   0.698   4.106
 3387TIP3    H110118   5.515   0.630   4.088
 3387TIP3    H210119   5.451   0.753   4.028
 3388TIP3   OH210120   3.917   2.493   1.169
 3388TIP3    H110121   3.931   2.500   1.264
 3388TIP3    H210122   3.929   2.400   1.150
 3389TIP3   OH210123   2.060   3.474   4.442
 3389TIP3    H110124   2.002   3.542   4.408
 3389TIP3    H210125   2.088   3.425   4.365
 3390TIP3   OH210126   2.653   3.050   1.335
 3390TIP3    H110127   2.567   3.086   1.317
 3390TIP3    H210128   2.650   2.961   1.301
 3391TIP3   OH210129   5.080   5.125   2.662
 3391TIP3    H110130   5.171   5.144   2.685
 3391TIP3    H210131   5.077   5.131   2.567
 3392TIP3   OH210132   5.709   1.339   0.065
 3392TIP3    H110133   5.785   1.309   0.114
 3392TIP3    H210134   5.701   1.432   0.087
 3393TIP3   OH210135   1.308   6.579   6.131
 3393TIP3    H110136   1.238   6.604   6.191
 3393TIP3    H210137   1.263   6.559   6.049
 3394TIP3   OH210138   4.177   2.726   2.627
 3394TIP3    H110139   4.206   2.690   2.711
 3394TIP3    H210140   4.112   2.663   2.595
 3395TIP3   OH210141   3.180   6.383   1.782
 3395TIP3    H110142   3.186   6.463   1.835
 3395TIP3    H210143   3.165   6.415   1.693
 3396TIP3   OH210144   3.850   2.188   5.564
 3396TIP3    H110145   3.826   2.225   5.649
 3396TIP3    H210146   3.939   2.218   5.550
 3397TIP3   OH210147   3.147   6.865   2.163
 3397TIP3    H110148   3.064   6.858   2.117
 3397TIP3    H210149   3.154   6.958   2.186
 3398TIP3   OH210150   6.008   2.799   3.957
 3398TIP3    H110151   5.977   2.784   4.046
 3398TIP3    H210152   6.025   2.712   3.922
 3399TIP3   OH210153   3.375   1.951   6.619
 3399TIP3    H110154   3.399   1.918   6.706
 3399TIP3    H210155   3.425   1.897   6.558
 3400TIP3   OH210156   1.257   0.408   1.868
 3400TIP3    H110157   1.208   0.397   1.950
 3400TIP3    H210158   1.348   0.411   1.895
 3401TIP3   OH210159   3.947   2.729   1.388
 3401TIP3    H110160   3.953   2.790   1.462
 3401TIP3    H210161   3.946   2.642   1.428
 3402TIP3   OH210162   7.963   2.528   4.348
 3402TIP3    H110163   7.933   2.609   4.390
 3402TIP3    H210164   7.999   2.476   4.420
 3403TIP3   OH210165   5.776   6.562   3.545
 3403TIP3    H110166   5.751   6.578   3.454
 3403TIP3    H210167   5.724   6.626   3.595
 3404TIP3   OH210168   7.950   1.198   3.854
 3404TIP3    H110169   7.996   1.264   3.802
 3404TIP3    H210170   7.967   1.223   3.945
 3405TIP3   OH210171   3.313   7.465   0.227
 3405TIP3    H110172   3.329   7.376   0.258
 3405TIP3    H210173   3.400   7.505   0.220
 3406TIP3   OH210174   6.784   3.489   0.414
 3406TIP3    H110175   6.753   3.546   0.485
 3406TIP3    H210176   6.708   3.478   0.357
 3407TIP3   OH210177   2.124   3.250   6.315
 3407TIP3    H110178   2.112   3.319   6.250
 3407TIP3    H210179   2.145   3.297   6.396
 3408TIP3   OH210180   2.557   4.820   5.381
 3408TIP3    H110181   2.494   4.754   5.410
 3408TIP3    H210182   2.594   4.855   5.462
 3409TIP3   OH210183   4.307   7.736   4.825
 3409TIP3    H110184   4.212   7.731   4.815
 3409TIP3    H210185   4.321   7.801   4.893
 3410TIP3   OH210186   1.043   6.179   4.445
 3410TIP3    H110187   1.013   6.265   4.414
 3410TIP3    H210188   0.962   6.130   4.459
 3411TIP3   OH210189   0.079   5.938   2.483
 3411TIP3    H110190   0.088   5.882   2.406
 3411TIP3    H210191   0.016   5.892   2.539
 3412TIP3   OH210192   6.171   7.282   5.533
 3412TIP3    H110193   6.153   7.347   5.600
 3412TIP3    H210194   6.194   7.202   5.581
 3413TIP3   OH210195   0.363   4.168   1.903
 3413TIP3    H110196   0.333   4.123   1.825
 3413TIP3    H210197   0.440   4.217   1.875
 3414TIP3   OH210198   1.173   2.288   2.376
 3414TIP3    H110199   1.206   2.270   2.287
 3414TIP3    H210200   1.081   2.309   2.363
 3415TIP3   OH210201   0.816   2.805   2.535
 3415TIP3    H110202   0.857   2.720   2.548
 3415TIP3    H210203   0.751   2.812   2.605
 3416TIP3   OH210204   2.551   2.854   0.471
 3416TIP3    H110205   2.557   2.780   0.410
 3416TIP3    H210206   2.642   2.879   0.489
 3417TIP3   OH210207   6.516   0.347   4.980
 3417TIP3    H110208   6.487   0.387   4.899
 3417TIP3    H210209   6.438   0.304   5.016
 3418TIP3   OH210210   6.036   6.678   5.191
 3418TIP3    H110211   5.984   6.621   5.247
 3418TIP3    H210212   6.008   6.657   5.102
 3419TIP3   OH210213   6.993   3.452   1.330
 3419TIP3    H110214   6.996   3.360   1.356
 3419TIP3    H210215   6.923   3.489   1.384
 3420TIP3   OH210216   4.879   1.115   5.156
 3420TIP3    H110217   4.891   1.202   5.195
 3420TIP3    H210218   4.930   1.056   5.212
 3421TIP3   OH210219   4.360   0.848   1.301
 3421TIP3    H110220   4.283   0.818   1.253
 3421TIP3    H210221   4.346   0.820   1.391
 3422TIP3   OH210222   1.764   2.372   4.036
 3422TIP3    H110223   1.674   2.389   4.006
 3422TIP3    H210224   1.816   2.370   3.956
 3423TIP3   OH210225   1.071   4.840   4.741
 3423TIP3    H110226   1.162   4.809   4.745
 3423TIP3    H210227   1.029   4.782   4.677
 3424TIP3   OH210228   4.202   5.347   5.392
 3424TIP3    H110229   4.279   5.295   5.415
 3424TIP3    H210230   4.141   5.334   5.465
 3425TIP3   OH210231   6.746   6.154   1.207
 3425TIP3    H110232   6.777   6.231   1.255
 3425TIP3    H210233   6.720   6.091   1.275
 3426TIP3   OH210234   4.055   2.845   2.273
 3426TIP3    H110235   4.019   2.779   2.333
 3426TIP3    H210236   4.002   2.836   2.193
 3427TIP3   OH210237   4.450   2.685   4.231
 3427TIP3    H110238   4.490   2.755   4.281
 3427TIP3    H210239   4.406   2.730   4.158
 3428TIP3   OH210240   4.077   1.527   0.463
 3428TIP3    H110241   4.019   1.451   0.456
 3428TIP3    H210242   4.047   1.574   0.540
 3429TIP3   OH210243   1.532   7.267   3.900
 3429TIP3    H110244   1.519   7.361   3.913
 3429TIP3    H210245   1.570   7.259   3.813
 3430TIP3   OH210246   3.291   2.902   0.603
 3430TIP3    H110247   3.297   2.949   0.519
 3430TIP3    H210248   3.349   2.951   0.661
 3431TIP3   OH210249   7.873   4.530   2.861
 3431TIP3    H110250   7.963   4.499   2.875
 3431TIP3    H210251   7.856   4.512   2.768
 3432TIP3   OH210252   6.292   3.654   5.218
 3432TIP3    H110253   6.314   3.566   5.250
 3432TIP3    H210254   6.229   3.638   5.147
 3433TIP3   OH210255   5.546   3.082   1.633
 3433TIP3    H110256   5.633   3.118   1.649
 3433TIP3    H210257   5.509   3.137   1.564
 3434TIP3   OH210258   4.044   3.844   2.229
 3434TIP3    H110259   4.135   3.817   2.216
 3434TIP3    H210260   3.994   3.763   2.230
 3435TIP3   OH210261   1.093   4.215   1.225
 3435TIP3    H110262   1.073   4.303   1.254
 3435TIP3    H210263   1.015   4.186   1.177
 3436TIP3   OH210264   2.473   1.069   1.065
 3436TIP3    H110265   2.514   0.992   1.102
 3436TIP3    H210266   2.391   1.037   1.028
 3437TIP3   OH210267   4.432   6.093   3.518
 3437TIP3    H110268   4.464   6.066   3.604
 3437TIP3    H210269   4.375   6.022   3.490
 3438TIP3   OH210270   3.137   5.356   6.326
 3438TIP3    H110271   3.073   5.341   6.396
 3438TIP3    H210272   3.108   5.299   6.255
 3439TIP3   OH210273   2.732   0.542   6.601
 3439TIP3    H110274   2.691   0.476   6.657
 3439TIP3    H210275   2.750   0.616   6.659
 3440TIP3   OH210276   6.684   2.382   0.348
 3440TIP3    H110277   6.637   2.380   0.264
 3440TIP3    H210278   6.760   2.437   0.331
 3441TIP3   OH210279   1.645   1.446   2.194
 3441TIP3    H110280   1.728   1.488   2.171
 3441TIP3    H210281   1.638   1.372   2.134
 3442TIP3   OH210282   0.498   2.802   1.127
 3442TIP3    H110283   0.533   2.800   1.216
 3442TIP3    H210284   0.564   2.850   1.077
 3443TIP3   OH210285   6.960   4.719   6.123
 3443TIP3    H110286   7.037   4.755   6.168
 3443TIP3    H210287   6.984   4.629   6.103
 3444TIP3   OH210288   1.015   3.534   3.385
 3444TIP3    H110289   1.071   3.608   3.406
 3444TIP3    H210290   0.929   3.573   3.367
 3445TIP3   OH210291   6.006   1.725   4.792
 3445TIP3    H110292   6.058   1.753   4.867
 3445TIP3    H210293   6.071   1.696   4.728
 3446TIP3   OH210294   0.644   4.552   5.445
 3446TIP3    H110295   0.664   4.517   5.358
 3446TIP3    H210296   0.702   4.504   5.504
 3447TIP3   OH210297   5.532   4.766   2.278
 3447TIP3    H110298   5.505   4.685   2.321
 3447TIP3    H210299   5.626   4.772   2.297
 3448TIP3   OH210300   7.234   0.262   1.461
 3448TIP3    H110301   7.232   0.317   1.539
 3448TIP3    H210302   7.143   0.236   1.448
 3449TIP3   OH210303   5.261   6.338   2.739
 3449TIP3    H110304   5.278   6.422   2.782
 3449TIP3    H210305   5.185   6.354   2.684
 3450TIP3   OH210306   4.563   1.034   1.280
 3450TIP3    H110307   4.491   0.977   1.253
 3450TIP3    H210308   4.639   0.977   1.282
 3451TIP3   OH210309   1.138   2.224   0.840
 3451TIP3    H110310   1.092   2.306   0.851
 3451TIP3    H210311   1.158   2.195   0.929
 3452TIP3   OH210312   5.668   6.549   2.018
 3452TIP3    H110313   5.736   6.534   2.083
 3452TIP3    H210314   5.623   6.465   2.009
 3453TIP3   OH210315   7.585   2.124   2.543
 3453TIP3    H110316   7.639   2.144   2.620
 3453TIP3    H210317   7.644   2.136   2.469
 3454TIP3   OH210318   6.475   5.076   0.734
 3454TIP3    H110319   6.412   5.148   0.730
 3454TIP3    H210320   6.474   5.038   0.646
 3455TIP3   OH210321   0.602   4.257   3.659
 3455TIP3    H110322   0.680   4.239   3.608
 3455TIP3    H210323   0.632   4.256   3.750
 3456TIP3   OH210324   2.834   7.145   0.893
 3456TIP3    H110325   2.781   7.068   0.911
 3456TIP3    H210326   2.923   7.112   0.885
 3457TIP3   OH210327   5.058   0.968   6.355
 3457TIP3    H110328   4.992   0.939   6.418
 3457TIP3    H210329   5.010   0.984   6.275
 3458TIP3   OH210330   6.795   6.662   0.469
 3458TIP3    H110331   6.771   6.670   0.377
 3458TIP3    H210332   6.711   6.669   0.516
 3459TIP3   OH210333   0.934   7.527   1.223
 3459TIP3    H110334   0.862   7.551   1.165
 3459TIP3    H210335   0.893   7.519   1.310
 3460TIP3   OH210336   5.879   0.358   4.734
 3460TIP3    H110337   5.789   0.384   4.757
 3460TIP3    H210338   5.871   0.320   4.646
 3461TIP3   OH210339   0.442   0.419   1.263
 3461TIP3    H110340   0.410   0.334   1.294
 3461TIP3    H210341   0.467   0.404   1.172
 3462TIP3   OH210342   2.209   0.398   1.495
 3462TIP3    H110343   2.300   0.426   1.486
 3462TIP3    H210344   2.209   0.306   1.470
 3463TIP3   OH210345   3.731   1.722   2.088
 3463TIP3    H110346   3.757   1.673   2.166
 3463TIP3    H210347   3.667   1.665   2.045
 3464TIP3   OH210348   3.475   3.797   4.495
 3464TIP3    H110349   3.492   3.835   4.581
 3464TIP3    H210350   3.461   3.871   4.437
 3465TIP3   OH210351   2.366   7.711   1.768
 3465TIP3    H110352   2.421   7.709   1.847
 3465TIP3    H210353   2.426   7.735   1.698
 3466TIP3   OH210354   7.275   2.967   6.585
 3466TIP3    H110355   7.304   3.057   6.569
 3466TIP3    H210356   7.340   2.913   6.539
 3467TIP3   OH210357   1.822   6.124   4.427
 3467TIP3    H110358   1.876   6.059   4.472
 3467TIP3    H210359   1.795   6.081   4.346
 3468TIP3   OH210360   6.086   6.979   4.245
 3468TIP3    H110361   6.123   6.933   4.170
 3468TIP3    H210362   6.092   7.072   4.223
 3469TIP3   OH210363   6.485   3.736   6.620
 3469TIP3    H110364   6.451   3.673   6.557
 3469TIP3    H210365   6.521   3.807   6.566
 3470TIP3   OH210366   8.005   3.665   3.845
 3470TIP3    H110367   8.021   3.750   3.803
 3470TIP3    H210368   8.090   3.640   3.881
 3471TIP3   OH210369   7.173   0.084   3.298
 3471TIP3    H110370   7.269   0.083   3.299
 3471TIP3    H210371   7.150   0.177   3.311
 3472TIP3   OH210372   7.187   4.192   0.632
 3472TIP3    H110373   7.155   4.241   0.708
 3472TIP3    H210374   7.243   4.124   0.669
 3473TIP3   OH210375   6.632   1.622   5.570
 3473TIP3    H110376   6.707   1.565   5.552
 3473TIP3    H210377   6.603   1.652   5.484
 3474TIP3   OH210378   5.266   0.892   4.521
 3474TIP3    H110379   5.217   0.903   4.602
 3474TIP3    H210380   5.204   0.850   4.461
 3475TIP3   OH210381   8.134   1.093   1.554
 3475TIP3    H110382   8.165   1.161   1.494
 3475TIP3    H210383   8.090   1.029   1.498
 3476TIP3   OH210384   5.299   5.091   6.154
 3476TIP3    H110385   5.325   5.038   6.079
 3476TIP3    H210386   5.207   5.111   6.139
 3477TIP3   OH210387   0.935   0.808   1.256
 3477TIP3    H110388   0.856   0.800   1.309
 3477TIP3    H210389   0.973   0.721   1.255
 3478TIP3   OH210390   7.252   2.389   2.544
 3478TIP3    H110391   7.200   2.466   2.519
 3478TIP3    H210392   7.207   2.355   2.622
 3479TIP3   OH210393   1.956   0.914   0.697
 3479TIP3    H110394   1.994   0.838   0.652
 3479TIP3    H210395   1.861   0.902   0.689
 3480TIP3   OH210396   3.130   2.191   5.252
 3480TIP3    H110397   3.197   2.215   5.188
 3480TIP3    H210398   3.174   2.198   5.337
 3481TIP3   OH210399   7.249   2.076   4.810
 3481TIP3    H110400   7.274   2.143   4.747
 3481TIP3    H210401   7.281   2.110   4.894
 3482TIP3   OH210402   1.471   4.554   4.063
 3482TIP3    H110403   1.468   4.632   4.008
 3482TIP3    H210404   1.552   4.563   4.113
 3483TIP3   OH210405   2.038   3.449   0.742
 3483TIP3    H110406   2.025   3.379   0.678
 3483TIP3    H210407   1.953   3.493   0.748
 3484TIP3   OH210408   6.177   4.330   5.935
 3484TIP3    H110409   6.210   4.278   5.862
 3484TIP3    H210410   6.094   4.289   5.959
 3485TIP3   OH210411   1.430   4.331   4.195
 3485TIP3    H110412   1.451   4.393   4.125
 3485TIP3    H210413   1.508   4.278   4.205
 3486TIP3   OH210414   3.831   6.695   3.069
 3486TIP3    H110415   3.814   6.786   3.096
 3486TIP3    H210416   3.746   6.663   3.040
 3487TIP3   OH210417   1.729   3.224   0.293
 3487TIP3    H110418   1.756   3.195   0.380
 3487TIP3    H210419   1.660   3.163   0.268
 3488TIP3   OH210420   0.281   0.342   4.587
 3488TIP3    H110421   0.323   0.418   4.627
 3488TIP3    H210422   0.337   0.320   4.513
 3489TIP3   OH210423   3.758   3.993   0.335
 3489TIP3    H110424   3.684   3.933   0.342
 3489TIP3    H210425   3.811   3.958   0.263
 3490TIP3   OH210426   3.268   3.675   4.770
 3490TIP3    H110427   3.314   3.594   4.749
 3490TIP3    H210428   3.334   3.731   4.811
 3491TIP3   OH210429   6.570   3.265   5.986
 3491TIP3    H110430   6.641   3.315   6.026
 3491TIP3    H210431   6.574   3.287   5.893
 3492TIP3   OH210432   5.133   5.317   6.297
 3492TIP3    H110433   5.185   5.296   6.374
 3492TIP3    H210434   5.099   5.233   6.266
 3493TIP3   OH210435   7.098   4.180   2.412
 3493TIP3    H110436   7.058   4.164   2.497
 3493TIP3    H210437   7.171   4.118   2.407
 3494TIP3   OH210438   7.068   5.648   3.567
 3494TIP3    H110439   7.159   5.661   3.596
 3494TIP3    H210440   7.053   5.554   3.577
 3495TIP3   OH210441   7.240   7.749   0.478
 3495TIP3    H110442   7.292   7.674   0.448
 3495TIP3    H210443   7.294   7.825   0.461
 3496TIP3   OH210444   0.916   1.328   3.971
 3496TIP3    H110445   0.828   1.294   3.957
 3496TIP3    H210446   0.909   1.422   3.953
 3497TIP3   OH210447   5.261   1.948   0.427
 3497TIP3    H110448   5.240   1.961   0.519
 3497TIP3    H210449   5.346   1.904   0.427
 3498TIP3   OH210450   2.616   1.097   3.445
 3498TIP3    H110451   2.625   1.180   3.491
 3498TIP3    H210452   2.676   1.037   3.489
 3499TIP3   OH210453   6.338   5.702   0.501
 3499TIP3    H110454   6.385   5.703   0.585
 3499TIP3    H210455   6.322   5.610   0.484
 3500TIP3   OH210456   1.508   7.739   5.768
 3500TIP3    H110457   1.509   7.727   5.673
 3500TIP3    H210458   1.593   7.707   5.798
 3501TIP3   OH210459   4.125   1.751   5.297
 3501TIP3    H110460   4.141   1.728   5.388
 3501TIP3    H210461   4.178   1.829   5.282
 3502TIP3   OH210462   4.669   3.318   6.309
 3502TIP3    H110463   4.598   3.373   6.277
 3502TIP3    H210464   4.638   3.228   6.298
 3503TIP3   OH210465   0.519   4.807   3.227
 3503TIP3    H110466   0.477   4.743   3.170
 3503TIP3    H210467   0.613   4.789   3.218
 3504TIP3   OH210468   1.870   4.883   5.316
 3504TIP3    H110469   1.948   4.828   5.323
 3504TIP3    H210470   1.877   4.924   5.230
 3505TIP3   OH210471   2.544   1.637   4.567
 3505TIP3    H110472   2.497   1.596   4.639
 3505TIP3    H210473   2.485   1.706   4.536
 3506TIP3   OH210474   1.312   6.988   1.271
 3506TIP3    H110475   1.383   6.928   1.294
 3506TIP3    H210476   1.305   6.982   1.176
 3507TIP3   OH210477   2.289   3.319   3.695
 3507TIP3    H110478   2.369   3.324   3.643
 3507TIP3    H210479   2.276   3.408   3.728
 3508TIP3   OH210480   1.658   1.223   4.723
 3508TIP3    H110481   1.580   1.189   4.679
 3508TIP3    H210482   1.643   1.317   4.730
 3509TIP3   OH210483   6.626   4.273   5.722
 3509TIP3    H110484   6.657   4.228   5.643
 3509TIP3    H210485   6.606   4.362   5.693
 3510TIP3   OH210486   3.288   5.976   5.843
 3510TIP3    H110487   3.244   6.046   5.892
 3510TIP3    H210488   3.378   5.977   5.875
 3511TIP3   OH210489   3.774   0.372   1.692
 3511TIP3    H110490   3.733   0.311   1.631
 3511TIP3    H210491   3.840   0.418   1.639
 3512TIP3   OH210492   6.770   6.961   6.380
 3512TIP3    H110493   6.797   6.967   6.289
 3512TIP3    H210494   6.715   7.038   6.394
 3513TIP3   OH210495   6.636   0.527   3.801
 3513TIP3    H110496   6.632   0.480   3.717
 3513TIP3    H210497   6.620   0.618   3.778
 3514TIP3   OH210498   7.159   7.822   1.243
 3514TIP3    H110499   7.206   7.771   1.176
 3514TIP3    H210500   7.093   7.870   1.193
 3515TIP3   OH210501   1.792   6.488   0.863
 3515TIP3    H110502   1.866   6.439   0.899
 3515TIP3    H210503   1.831   6.553   0.805
 3516TIP3   OH210504   0.250   4.345   5.862
 3516TIP3    H110505   0.189   4.310   5.926
 3516TIP3    H210506   0.331   4.296   5.876
 3517TIP3   OH210507   5.037   6.007   1.917
 3517TIP3    H110508   4.977   5.962   1.976
 3517TIP3    H210509   5.122   5.965   1.933
 3518TIP3   OH210510   4.637   5.458   6.499
 3518TIP3    H110511   4.563   5.422   6.451
 3518TIP3    H210512   4.597   5.520   6.561
 3519TIP3   OH210513   8.199   7.061   0.990
 3519TIP3    H110514   8.193   7.084   1.083
 3519TIP3    H210515   8.226   6.970   0.990
 3520TIP3   OH210516   4.092   1.196   3.198
 3520TIP3    H110517   4.007   1.158   3.174
 3520TIP3    H210518   4.143   1.193   3.117
 3521TIP3   OH210519   2.024   5.523   0.030
 3521TIP3    H110520   2.109   5.562   0.009
 3521TIP3    H210521   1.968   5.546  -0.045
 3522TIP3   OH210522   0.886   5.279   3.640
 3522TIP3    H110523   0.877   5.332   3.561
 3522TIP3    H210524   0.823   5.316   3.702
 3523TIP3   OH210525   6.851   1.121   2.477
 3523TIP3    H110526   6.825   1.210   2.451
 3523TIP3    H210527   6.783   1.065   2.440
 3524TIP3   OH210528   1.747   0.240   4.216
 3524TIP3    H110529   1.701   0.160   4.244
 3524TIP3    H210530   1.834   0.232   4.255
 3525TIP3   OH210531   0.879   4.326   1.027
 3525TIP3    H110532   0.793   4.318   0.987
 3525TIP3    H210533   0.939   4.336   0.953
 3526TIP3   OH210534   5.680   7.636   5.509
 3526TIP3    H110535   5.619   7.694   5.555
 3526TIP3    H210536   5.766   7.658   5.544
 3527TIP3   OH210537   3.002   2.474   0.659
 3527TIP3    H110538   2.970   2.482   0.749
 3527TIP3    H210539   2.966   2.550   0.614
 3528TIP3   OH210540   6.385   2.818   0.436
 3528TIP3    H110541   6.340   2.880   0.379
 3528TIP3    H210542   6.346   2.733   0.416
 3529TIP3   OH210543   5.378   7.372   5.267
 3529TIP3    H110544   5.426   7.370   5.350
 3529TIP3    H210545   5.400   7.289   5.224
 3530TIP3   OH210546   3.408   0.415   5.168
 3530TIP3    H110547   3.481   0.355   5.158
 3530TIP3    H210548   3.341   0.364   5.213
 3531TIP3   OH210549   7.868   4.177   3.435
 3531TIP3    H110550   7.888   4.091   3.397
 3531TIP3    H210551   7.865   4.161   3.530
 3532TIP3   OH210552   2.629   5.949   5.618
 3532TIP3    H110553   2.649   5.860   5.592
 3532TIP3    H210554   2.622   5.997   5.536
 3533TIP3   OH210555   4.521   5.216   4.806
 3533TIP3    H110556   4.439   5.228   4.853
 3533TIP3    H210557   4.515   5.275   4.731
 3534TIP3   OH210558   6.367   4.608   2.005
 3534TIP3    H110559   6.334   4.552   2.075
 3534TIP3    H210560   6.440   4.656   2.044
 3535TIP3   OH210561   5.076   2.562   0.067
 3535TIP3    H110562   5.091   2.474   0.033
 3535TIP3    H210563   5.160   2.588   0.105
 3536TIP3   OH210564   2.568   6.170   0.748
 3536TIP3    H110565   2.656   6.190   0.716
 3536TIP3    H210566   2.529   6.255   0.766
 3537TIP3   OH210567   1.916   4.038   4.977
 3537TIP3    H110568   1.867   4.044   5.059
 3537TIP3    H210569   1.859   3.986   4.919
 3538TIP3   OH210570   4.682   2.053   1.817
 3538TIP3    H110571   4.657   1.961   1.820
 3538TIP3    H210572   4.611   2.096   1.769
 3539TIP3   OH210573   0.233   6.471   6.415
 3539TIP3    H110574   0.296   6.543   6.408
 3539TIP3    H210575   0.210   6.467   6.508
 3540TIP3   OH210576   6.324   2.638   4.893
 3540TIP3    H110577   6.251   2.614   4.951
 3540TIP3    H210578   6.351   2.725   4.924
 3541TIP3   OH210579   5.973   1.986  -0.019
 3541TIP3    H110580   5.940   1.930   0.051
 3541TIP3    H210581   5.895   2.025  -0.058
 3542TIP3   OH210582   7.632   2.207   1.060
 3542TIP3    H110583   7.674   2.257   1.130
 3542TIP3    H210584   7.608   2.272   0.994
 3543TIP3   OH210585   0.015   6.009   5.363
 3543TIP3    H110586   0.043   5.918   5.359
 3543TIP3    H210587   0.037   6.037   5.452
 3544TIP3   OH210588   6.508   0.269   0.761
 3544TIP3    H110589   6.426   0.237   0.798
 3544TIP3    H210590   6.493   0.362   0.747
 3545TIP3   OH210591   7.178   4.396   0.431
 3545TIP3    H110592   7.222   4.348   0.501
 3545TIP3    H210593   7.246   4.451   0.393
 3546TIP3   OH210594   5.956   4.655   6.648
 3546TIP3    H110595   6.034   4.708   6.632
 3546TIP3    H210596   5.901   4.710   6.704
 3547TIP3   OH210597   4.739   6.314   0.764
 3547TIP3    H110598   4.756   6.349   0.851
 3547TIP3    H210599   4.706   6.225   0.780
 3548TIP3   OH210600   4.257   6.905   2.060
 3548TIP3    H110601   4.220   6.901   1.972
 3548TIP3    H210602   4.351   6.901   2.047
 3549TIP3   OH210603   6.199   1.176   0.027
 3549TIP3    H110604   6.192   1.101  -0.032
 3549TIP3    H210605   6.272   1.154   0.085
 3550TIP3   OH210606   4.612   7.787   3.764
 3550TIP3    H110607   4.534   7.765   3.816
 3550TIP3    H210608   4.578   7.810   3.678
 3551TIP3   OH210609   4.927   0.672   2.173
 3551TIP3    H110610   5.010   0.647   2.133
 3551TIP3    H210611   4.899   0.749   2.123
 3552TIP3   OH210612   7.898   0.845   2.645
 3552TIP3    H110613   7.826   0.870   2.587
 3552TIP3    H210614   7.972   0.830   2.587
 3553TIP3   OH210615   6.445   6.619   5.824
 3553TIP3    H110616   6.474   6.549   5.765
 3553TIP3    H210617   6.469   6.589   5.911
 3554TIP3   OH210618   6.743   7.101   4.218
 3554TIP3    H110619   6.683   7.068   4.284
 3554TIP3    H210620   6.696   7.091   4.135
 3555TIP3   OH210621   1.362   0.327   6.777
 3555TIP3    H110622   1.301   0.355   6.845
 3555TIP3    H210623   1.318   0.350   6.695
 3556TIP3   OH210624   7.542   6.653   4.845
 3556TIP3    H110625   7.567   6.729   4.793
 3556TIP3    H210626   7.568   6.578   4.791
 3557TIP3   OH210627   1.391   6.910   0.142
 3557TIP3    H110628   1.387   7.004   0.161
 3557TIP3    H210629   1.367   6.903   0.050
 3558TIP3   OH210630   0.035   2.575   2.245
 3558TIP3    H110631   0.056   2.635   2.173
 3558TIP3    H210632   0.110   2.516   2.249
 3559TIP3   OH210633   7.329   7.500   6.206
 3559TIP3    H110634   7.266   7.566   6.233
 3559TIP3    H210635   7.350   7.453   6.286
 3560TIP3   OH210636   2.775   0.918   1.410
 3560TIP3    H110637   2.816   0.834   1.432
 3560TIP3    H210638   2.715   0.935   1.482
 3561TIP3   OH210639   3.671   7.569   5.320
 3561TIP3    H110640   3.690   7.476   5.313
 3561TIP3    H210641   3.747   7.612   5.280
 3562TIP3   OH210642   6.790   6.526   5.004
 3562TIP3    H110643   6.861   6.586   4.981
 3562TIP3    H210644   6.747   6.567   5.079
 3563TIP3   OH210645   4.446  -0.002   1.959
 3563TIP3    H110646   4.465   0.017   1.867
 3563TIP3    H210647   4.351   0.001   1.965
 3564TIP3   OH210648   4.306   7.494   1.485
 3564TIP3    H110649   4.365   7.527   1.553
 3564TIP3    H210650   4.338   7.534   1.404
 3565TIP3   OH210651   2.879   2.959   2.849
 3565TIP3    H110652   2.845   3.031   2.901
 3565TIP3    H210653   2.962   2.992   2.815
 3566TIP3   OH210654   4.471   7.450   3.420
 3566TIP3    H110655   4.385   7.482   3.449
 3566TIP3    H210656   4.476   7.362   3.456
 3567TIP3   OH210657   6.819   7.030   2.035
 3567TIP3    H110658   6.854   6.945   2.062
 3567TIP3    H210659   6.736   7.010   1.992
 3568TIP3   OH210660   7.345   1.920   0.931
 3568TIP3    H110661   7.280   1.850   0.925
 3568TIP3    H210662   7.344   1.960   0.844
 3569TIP3   OH210663   6.255   1.039   1.677
 3569TIP3    H110664   6.185   1.085   1.723
 3569TIP3    H210665   6.216   1.014   1.593
 3570TIP3   OH210666   3.666   2.505   5.429
 3570TIP3    H110667   3.595   2.520   5.366
 3570TIP3    H210668   3.627   2.523   5.514
 3571TIP3   OH210669   6.430   0.898   4.887
 3571TIP3    H110670   6.367   0.892   4.815
 3571TIP3    H210671   6.490   0.824   4.873
 3572TIP3   OH210672   5.390   6.828   3.189
 3572TIP3    H110673   5.437   6.751   3.222
 3572TIP3    H210674   5.427   6.843   3.102
 3573TIP3   OH210675   6.761   4.252   1.508
 3573TIP3    H110676   6.683   4.285   1.464
 3573TIP3    H210677   6.731   4.230   1.596
 3574TIP3   OH210678   5.321   1.905   1.508
 3574TIP3    H110679   5.401   1.905   1.454
 3574TIP3    H210680   5.261   1.962   1.461
 3575TIP3   OH210681   1.419   4.512   4.847
 3575TIP3    H110682   1.476   4.577   4.806
 3575TIP3    H210683   1.453   4.502   4.936
 3576TIP3   OH210684   5.967   1.563   1.843
 3576TIP3    H110685   5.921   1.483   1.871
 3576TIP3    H210686   5.900   1.631   1.845
 3577TIP3   OH210687   2.539   1.231   1.261
 3577TIP3    H110688   2.523   1.170   1.189
 3577TIP3    H210689   2.478   1.203   1.329
 3578TIP3   OH210690   7.565   0.052   5.671
 3578TIP3    H110691   7.556  -0.014   5.602
 3578TIP3    H210692   7.622   0.011   5.736
 3579TIP3   OH210693   0.727   5.051   2.800
 3579TIP3    H110694   0.774   5.058   2.717
 3579TIP3    H210695   0.642   5.014   2.777
 3580TIP3   OH210696   3.696   2.451   3.104
 3580TIP3    H110697   3.755   2.429   3.032
 3580TIP3    H210698   3.754   2.482   3.173
 3581TIP3   OH210699   0.117   1.393   2.733
 3581TIP3    H110700   0.096   1.475   2.688
 3581TIP3    H210701   0.055   1.329   2.698
 3582TIP3   OH210702   6.510   6.120   2.606
 3582TIP3    H110703   6.579   6.160   2.553
 3582TIP3    H210704   6.480   6.045   2.554
 3583TIP3   OH210705   8.044   6.069   6.375
 3583TIP3    H110706   8.063   6.147   6.324
 3583TIP3    H210707   8.014   6.102   6.460
 3584TIP3   OH210708   3.160   6.780   4.500
 3584TIP3    H110709   3.221   6.854   4.504
 3584TIP3    H210710   3.158   6.756   4.407
 3585TIP3   OH210711   3.483   7.359   5.775
 3585TIP3    H110712   3.487   7.408   5.858
 3585TIP3    H210713   3.546   7.404   5.719
 3586TIP3   OH210714   7.030   2.168   6.013
 3586TIP3    H110715   7.105   2.205   6.060
 3586TIP3    H210716   6.992   2.243   5.967
 3587TIP3   OH210717   6.848   6.336   2.659
 3587TIP3    H110718   6.928   6.311   2.614
 3587TIP3    H210719   6.828   6.424   2.625
 3588TIP3   OH210720   5.874   1.921   1.803
 3588TIP3    H110721   5.966   1.918   1.777
 3588TIP3    H210722   5.830   1.860   1.743
 3589TIP3   OH210723   1.451   1.647   2.213
 3589TIP3    H110724   1.522   1.583   2.208
 3589TIP3    H210725   1.377   1.597   2.248
 3590TIP3   OH210726   7.159   1.007   3.726
 3590TIP3    H110727   7.081   0.973   3.769
 3590TIP3    H210728   7.131   1.089   3.686
 3591TIP3   OH210729   6.174   7.602   6.775
 3591TIP3    H110730   6.221   7.535   6.825
 3591TIP3    H210731   6.242   7.653   6.732
 3592TIP3   OH210732   4.946   4.000   0.475
 3592TIP3    H110733   4.931   4.081   0.426
 3592TIP3    H210734   5.014   4.022   0.538
 3593TIP3   OH210735   2.180   3.822   4.175
 3593TIP3    H110736   2.148   3.752   4.118
 3593TIP3    H210737   2.140   3.901   4.140
 3594TIP3   OH210738   6.252   5.052   1.410
 3594TIP3    H110739   6.286   4.990   1.475
 3594TIP3    H210740   6.171   5.085   1.448
 3595TIP3   OH210741   3.623   1.201   6.592
 3595TIP3    H110742   3.629   1.110   6.561
 3595TIP3    H210743   3.542   1.204   6.642
 3596TIP3   OH210744   7.744   3.173   5.228
 3596TIP3    H110745   7.778   3.243   5.284
 3596TIP3    H210746   7.651   3.169   5.251
 3597TIP3   OH210747   3.245   3.735   4.323
 3597TIP3    H110748   3.200   3.816   4.346
 3597TIP3    H210749   3.311   3.724   4.392
 3598TIP3   OH210750   6.559   5.305   5.113
 3598TIP3    H110751   6.537   5.280   5.023
 3598TIP3    H210752   6.476   5.298   5.161
 3599TIP3   OH210753   5.469   5.511   6.654
 3599TIP3    H110754   5.558   5.520   6.689
 3599TIP3    H210755   5.453   5.417   6.651
 3600TIP3   OH210756   6.234   0.737   4.350
 3600TIP3    H110757   6.302   0.795   4.316
 3600TIP3    H210758   6.164   0.796   4.377
 3601TIP3   OH210759   0.195   4.795   2.547
 3601TIP3    H110760   0.217   4.721   2.491
 3601TIP3    H210761   0.148   4.757   2.621
 3602TIP3   OH210762   5.349   2.950   6.070
 3602TIP3    H110763   5.419   2.943   6.006
 3602TIP3    H210764   5.278   2.993   6.023
 3603TIP3   OH210765   7.704   1.686   3.630
 3603TIP3    H110766   7.698   1.694   3.535
 3603TIP3    H210767   7.696   1.775   3.663
 3604TIP3   OH210768   6.219   1.922   6.155
 3604TIP3    H110769   6.215   1.980   6.230
 3604TIP3    H210770   6.204   1.979   6.079
 3605TIP3   OH210771   5.059   6.073   4.395
 3605TIP3    H110772   5.084   6.158   4.431
 3605TIP3    H210773   5.096   6.074   4.306
 3606TIP3   OH210774   2.492   1.230   2.063
 3606TIP3    H110775   2.556   1.182   2.115
 3606TIP3    H210776   2.432   1.268   2.127
 3607TIP3   OH210777   5.816   1.714   3.439
 3607TIP3    H110778   5.804   1.797   3.392
 3607TIP3    H210779   5.732   1.698   3.482
 3608TIP3   OH210780   4.032   5.567   4.748
 3608TIP3    H110781   4.002   5.542   4.835
 3608TIP3    H210782   4.052   5.484   4.705
 3609TIP3   OH210783   1.497   6.748   5.552
 3609TIP3    H110784   1.537   6.835   5.552
 3609TIP3    H210785   1.448   6.744   5.634
 3610TIP3   OH210786   8.213   6.605   2.187
 3610TIP3    H110787   8.153   6.574   2.255
 3610TIP3    H210788   8.214   6.700   2.197
 3611TIP3   OH210789   1.226   6.302   4.034
 3611TIP3    H110790   1.158   6.339   4.090
 3611TIP3    H210791   1.283   6.376   4.012
 3612TIP3   OH210792   6.806   3.082   1.642
 3612TIP3    H110793   6.832   3.140   1.713
 3612TIP3    H210794   6.803   2.995   1.681
 3613TIP3   OH210795   3.784   4.327   0.646
 3613TIP3    H110796   3.868   4.371   0.635
 3613TIP3    H210797   3.774   4.318   0.741
 3614TIP3   OH210798   0.780   6.287   0.848
 3614TIP3    H110799   0.817   6.200   0.860
 3614TIP3    H210800   0.707   6.273   0.787
 3615TIP3   OH210801   1.033   0.608   4.035
 3615TIP3    H110802   1.074   0.559   3.963
 3615TIP3    H210803   0.984   0.678   3.993
 3616TIP3   OH210804   0.495   1.240   2.369
 3616TIP3    H110805   0.402   1.262   2.376
 3616TIP3    H210806   0.524   1.282   2.288
 3617TIP3   OH210807   7.396   1.327   3.331
 3617TIP3    H110808   7.486   1.359   3.323
 3617TIP3    H210809   7.342   1.402   3.306
 3618TIP3   OH210810   3.809   1.992   6.407
 3618TIP3    H110811   3.797   2.081   6.440
 3618TIP3    H210812   3.742   1.941   6.452
 3619TIP3   OH210813   2.991   2.258   2.672
 3619TIP3    H110814   2.903   2.245   2.708
 3619TIP3    H210815   3.022   2.339   2.712
 3620TIP3   OH210816   7.734   2.475   5.046
 3620TIP3    H110817   7.730   2.425   4.964
 3620TIP3    H210818   7.687   2.421   5.109
 3621TIP3   OH210819   7.590   2.769   1.264
 3621TIP3    H110820   7.511   2.718   1.274
 3621TIP3    H210821   7.575   2.823   1.186
 3622TIP3   OH210822   1.118   5.223   6.562
 3622TIP3    H110823   1.087   5.273   6.487
 3622TIP3    H210824   1.092   5.133   6.544
 3623TIP3   OH210825   4.903   1.052   0.661
 3623TIP3    H110826   4.978   1.070   0.604
 3623TIP3    H210827   4.887   0.959   0.651
 3624TIP3   OH210828   3.566   3.736   3.835
 3624TIP3    H110829   3.657   3.764   3.836
 3624TIP3    H210830   3.537   3.745   3.925
 3625TIP3   OH210831   5.226   4.278   3.038
 3625TIP3    H110832   5.288   4.351   3.041
 3625TIP3    H210833   5.142   4.318   3.060
 3626TIP3   OH210834   7.074   6.301   2.148
 3626TIP3    H110835   7.018   6.378   2.134
 3626TIP3    H210836   7.153   6.320   2.098
 3627TIP3   OH210837   3.286   6.072   0.469
 3627TIP3    H110838   3.381   6.079   0.469
 3627TIP3    H210839   3.256   6.162   0.480
 3628TIP3   OH210840   4.452   3.412   0.420
 3628TIP3    H110841   4.480   3.396   0.510
 3628TIP3    H210842   4.511   3.480   0.388
 3629TIP3   OH210843   3.562   5.206   0.879
 3629TIP3    H110844   3.570   5.185   0.786
 3629TIP3    H210845   3.648   5.184   0.916
 3630TIP3   OH210846   1.918   6.474   4.004
 3630TIP3    H110847   2.008   6.504   4.018
 3630TIP3    H210848   1.897   6.425   4.083
 3631TIP3   OH210849   4.086   6.498   5.708
 3631TIP3    H110850   4.051   6.506   5.796
 3631TIP3    H210851   4.163   6.442   5.717
 3632TIP3   OH210852   5.142   6.923   0.197
 3632TIP3    H110853   5.092   6.933   0.116
 3632TIP3    H210854   5.140   7.011   0.236
 3633TIP3   OH210855   4.434   6.080   2.242
 3633TIP3    H110856   4.437   6.070   2.337
 3633TIP3    H210857   4.427   5.990   2.209
 3634TIP3   OH210858   1.054   7.221   0.526
 3634TIP3    H110859   1.038   7.190   0.615
 3634TIP3    H210860   0.966   7.241   0.492
 3635TIP3   OH210861   3.225   1.360   4.843
 3635TIP3    H110862   3.158   1.309   4.889
 3635TIP3    H210863   3.308   1.318   4.868
 3636TIP3   OH210864   5.323   1.276   5.109
 3636TIP3    H110865   5.344   1.300   5.019
 3636TIP3    H210866   5.253   1.211   5.101
 3637TIP3   OH210867   5.844   6.936   2.478
 3637TIP3    H110868   5.875   6.858   2.524
 3637TIP3    H210869   5.923   6.979   2.446
 3638TIP3   OH210870   2.052   5.003   5.709
 3638TIP3    H110871   2.146   5.015   5.719
 3638TIP3    H210872   2.017   5.002   5.798
 3639TIP3   OH210873   3.583   2.004   4.263
 3639TIP3    H110874   3.667   2.044   4.243
 3639TIP3    H210875   3.560   1.953   4.185
 3640TIP3   OH210876   6.222   4.760   4.455
 3640TIP3    H110877   6.172   4.682   4.480
 3640TIP3    H210878   6.203   4.823   4.525
 3641TIP3   OH210879   1.441   3.507   6.117
 3641TIP3    H110880   1.392   3.461   6.184
 3641TIP3    H210881   1.379   3.570   6.080
 3642TIP3   OH210882   4.064   0.863   6.239
 3642TIP3    H110883   4.157   0.882   6.233
 3642TIP3    H210884   4.037   0.901   6.322
 3643TIP3   OH210885   0.009   6.340   4.607
 3643TIP3    H110886   0.077   6.337   4.673
 3643TIP3    H210887  -0.003   6.249   4.580
 3644TIP3   OH210888   1.463   2.281   0.768
 3644TIP3    H110889   1.470   2.251   0.858
 3644TIP3    H210890   1.520   2.222   0.718
 3645TIP3   OH210891   3.542   4.550   1.978
 3645TIP3    H110892   3.511   4.552   1.887
 3645TIP3    H210893   3.638   4.555   1.971
 3646TIP3   OH210894   1.426   5.757   0.992
 3646TIP3    H110895   1.421   5.749   1.087
 3646TIP3    H210896   1.515   5.727   0.971
 3647TIP3   OH210897   7.003   5.377   2.531
 3647TIP3    H110898   6.980   5.350   2.442
 3647TIP3    H210899   7.012   5.472   2.527
 3648TIP3   OH210900   7.491   6.124   3.287
 3648TIP3    H110901   7.411   6.108   3.238
 3648TIP3    H210902   7.544   6.046   3.273
 3649TIP3   OH210903   5.914   4.605   3.499
 3649TIP3    H110904   5.966   4.615   3.419
 3649TIP3    H210905   5.971   4.636   3.569
 3650TIP3   OH210906   2.895   5.612   3.079
 3650TIP3    H110907   2.879   5.586   2.988
 3650TIP3    H210908   2.825   5.571   3.129
 3651TIP3   OH210909   3.198   6.364   6.520
 3651TIP3    H110910   3.149   6.312   6.457
 3651TIP3    H210911   3.135   6.429   6.552
 3652TIP3   OH210912   1.674   3.407   3.992
 3652TIP3    H110913   1.585   3.380   3.969
 3652TIP3    H210914   1.730   3.339   3.955
 3653TIP3   OH210915   7.538   0.373   4.494
 3653TIP3    H110916   7.577   0.410   4.573
 3653TIP3    H210917   7.481   0.442   4.461
 3654TIP3   OH210918   1.827   5.203   2.047
 3654TIP3    H110919   1.777   5.190   2.128
 3654TIP3    H210920   1.913   5.232   2.076
 3655TIP3   OH210921   4.253   3.510   1.267
 3655TIP3    H110922   4.247   3.589   1.320
 3655TIP3    H210923   4.289   3.444   1.325
 3656TIP3   OH210924   2.625   4.252   5.809
 3656TIP3    H110925   2.579   4.336   5.799
 3656TIP3    H210926   2.698   4.258   5.748
 3657TIP3   OH210927  -0.028   7.010   0.589
 3657TIP3    H110928   0.023   6.947   0.640
 3657TIP3    H210929  -0.006   7.095   0.627
 3658TIP3   OH210930   7.576   6.719   6.596
 3658TIP3    H110931   7.575   6.634   6.640
 3658TIP3    H210932   7.485   6.749   6.601
 3659TIP3   OH210933   1.873  -0.013   6.152
 3659TIP3    H110934   1.796  -0.035   6.203
 3659TIP3    H210935   1.839   0.028   6.072
 3660TIP3   OH210936   1.510   7.441   1.719
 3660TIP3    H110937   1.454   7.381   1.669
 3660TIP3    H210938   1.491   7.527   1.682
 3661TIP3   OH210939   7.226   5.951   0.629
 3661TIP3    H110940   7.135   5.980   0.634
 3661TIP3    H210941   7.278   6.031   0.642
 3662TIP3   OH210942   7.167   6.453   6.165
 3662TIP3    H110943   7.201   6.478   6.079
 3662TIP3    H210944   7.162   6.535   6.214
 3663TIP3   OH210945   7.925   0.744   1.931
 3663TIP3    H110946   7.918   0.748   2.027
 3663TIP3    H210947   7.839   0.714   1.902
 3664TIP3   OH210948   1.183   3.568   1.185
 3664TIP3    H110949   1.139   3.535   1.106
 3664TIP3    H210950   1.150   3.513   1.256
 3665TIP3   OH210951   0.911   7.512   6.494
 3665TIP3    H110952   0.840   7.503   6.558
 3665TIP3    H210953   0.888   7.590   6.444
 3666TIP3   OH210954   4.691   0.468   1.709
 3666TIP3    H110955   4.763   0.502   1.762
 3666TIP3    H210956   4.716   0.378   1.688
 3667TIP3   OH210957   5.413   4.595   4.516
 3667TIP3    H110958   5.336   4.642   4.484
 3667TIP3    H210959   5.484   4.624   4.458
 3668TIP3   OH210960   2.082   6.400   4.415
 3668TIP3    H110961   2.040   6.484   4.435
 3668TIP3    H210962   2.154   6.393   4.478
 3669TIP3   OH210963   1.836   5.563   3.074
 3669TIP3    H110964   1.772   5.629   3.101
 3669TIP3    H210965   1.824   5.554   2.980
 3670TIP3   OH210966   3.240   4.212   6.316
 3670TIP3    H110967   3.291   4.291   6.336
 3670TIP3    H210968   3.292   4.140   6.354
 3671TIP3   OH210969   8.194   6.862   2.260
 3671TIP3    H110970   8.099   6.851   2.260
 3671TIP3    H210971   8.214   6.891   2.349
 3672TIP3   OH210972   1.610   2.606   5.189
 3672TIP3    H110973   1.655   2.592   5.273
 3672TIP3    H210974   1.674   2.581   5.123
 3673TIP3   OH210975   5.708   5.296   6.035
 3673TIP3    H110976   5.737   5.345   5.958
 3673TIP3    H210977   5.667   5.361   6.092
 3674TIP3   OH210978   6.545   0.868   5.335
 3674TIP3    H110979   6.470   0.915   5.297
 3674TIP3    H210980   6.572   0.807   5.266
 3675TIP3   OH210981   0.919   7.649   0.582
 3675TIP3    H110982   0.997   7.685   0.623
 3675TIP3    H210983   0.890   7.579   0.641
 3676TIP3   OH210984   0.256   1.998   1.366
 3676TIP3    H110985   0.263   1.963   1.455
 3676TIP3    H210986   0.306   2.080   1.368
 3677TIP3   OH210987   4.673   5.469   5.311
 3677TIP3    H110988   4.581   5.495   5.319
 3677TIP3    H210989   4.674   5.409   5.237
 3678TIP3   OH210990   3.114   2.991   6.348
 3678TIP3    H110991   3.022   2.975   6.330
 3678TIP3    H210992   3.126   2.964   6.439
 3679TIP3   OH210993   0.363   3.318   0.033
 3679TIP3    H110994   0.383   3.401   0.077
 3679TIP3    H210995   0.440   3.301  -0.021
 3680TIP3   OH210996   0.351   3.972   3.228
 3680TIP3    H110997   0.343   3.939   3.318
 3680TIP3    H210998   0.446   3.979   3.214
 3681TIP3   OH210999   7.555   6.684   5.107
 3681TIP3    H111000   7.532   6.671   5.015
 3681TIP3    H211001   7.509   6.614   5.153
 3682TIP3   OH211002   3.930   7.234   3.290
 3682TIP3    H111003   3.875   7.156   3.288
 3682TIP3    H211004   3.995   7.219   3.221
 3683TIP3   OH211005   7.169   2.400   1.379
 3683TIP3    H111006   7.180   2.414   1.473
 3683TIP3    H211007   7.091   2.344   1.372
 3684TIP3   OH211008   0.801   6.462   4.639
 3684TIP3    H111009   0.750   6.533   4.677
 3684TIP3    H211010   0.781   6.386   4.692
 3685TIP3   OH211011   0.475   3.878   6.598
 3685TIP3    H111012   0.539   3.929   6.648
 3685TIP3    H211013   0.512   3.875   6.509
 3686TIP3   OH211014   4.456   6.010   3.805
 3686TIP3    H111015   4.453   5.933   3.862
 3686TIP3    H211016   4.365   6.024   3.780
 3687TIP3   OH211017   4.859   1.194   3.722
 3687TIP3    H111018   4.919   1.239   3.662
 3687TIP3    H211019   4.825   1.263   3.779
 3688TIP3   OH211020   7.508   7.280   4.790
 3688TIP3    H111021   7.594   7.289   4.832
 3688TIP3    H211022   7.525   7.296   4.697
 3689TIP3   OH211023   3.973   3.570   1.119
 3689TIP3    H111024   3.985   3.640   1.056
 3689TIP3    H211025   4.052   3.572   1.173
 3690TIP3   OH211026   5.971   2.037   4.531
 3690TIP3    H111027   6.023   2.116   4.547
 3690TIP3    H211028   5.905   2.036   4.601
 3691TIP3   OH211029   8.265   3.802   2.102
 3691TIP3    H111030   8.348   3.812   2.148
 3691TIP3    H211031   8.224   3.725   2.142
 3692TIP3   OH211032   2.791   1.813   0.288
 3692TIP3    H111033   2.722   1.824   0.221
 3692TIP3    H211034   2.756   1.857   0.365
 3693TIP3   OH211035   7.502   7.362   5.236
 3693TIP3    H111036   7.444   7.424   5.192
 3693TIP3    H211037   7.517   7.293   5.171
 3694TIP3   OH211038   1.167   0.465   4.719
 3694TIP3    H111039   1.171   0.493   4.627
 3694TIP3    H211040   1.223   0.387   4.723
 3695TIP3   OH211041   5.638   2.867   2.639
 3695TIP3    H111042   5.704   2.798   2.627
 3695TIP3    H211043   5.685   2.948   2.623
 3696TIP3   OH211044   5.494   6.953   0.657
 3696TIP3    H111045   5.564   6.934   0.719
 3696TIP3    H211046   5.537   6.957   0.572
 3697TIP3   OH211047   6.992   6.345   5.231
 3697TIP3    H111048   6.940   6.343   5.311
 3697TIP3    H211049   6.928   6.355   5.161
 3698TIP3   OH211050   5.969   6.396   6.414
 3698TIP3    H111051   6.011   6.442   6.341
 3698TIP3    H211052   5.999   6.306   6.406
 3699TIP3   OH211053   3.468   0.726   4.061
 3699TIP3    H111054   3.563   0.733   4.065
 3699TIP3    H211055   3.437   0.777   4.136
 3700TIP3   OH211056   1.245   5.127   2.428
 3700TIP3    H111057   1.298   5.205   2.445
 3700TIP3    H211058   1.184   5.154   2.360
 3701TIP3   OH211059   1.889   2.465   3.760
 3701TIP3    H111060   1.802   2.503   3.775
 3701TIP3    H211061   1.950   2.530   3.796
 3702TIP3   OH211062   8.104   1.893   5.292
 3702TIP3    H111063   8.059   1.809   5.289
 3702TIP3    H211064   8.188   1.877   5.248
 3703TIP3   OH211065   4.135   3.859   2.636
 3703TIP3    H111066   4.193   3.932   2.614
 3703TIP3    H211067   4.113   3.873   2.728
 3704TIP3   OH211068   3.549   7.622   0.345
 3704TIP3    H111069   3.639   7.623   0.376
 3704TIP3    H211070   3.501   7.570   0.410
 3705TIP3   OH211071   2.353   3.023   6.710
 3705TIP3    H111072   2.386   3.090   6.651
 3705TIP3    H211073   2.291   2.973   6.657
 3706TIP3   OH211074   2.094   6.592   1.172
 3706TIP3    H111075   2.095   6.625   1.082
 3706TIP3    H211076   2.184   6.602   1.203
 3707TIP3   OH211077   5.965   5.781   3.832
 3707TIP3    H111078   6.012   5.758   3.752
 3707TIP3    H211079   5.872   5.773   3.807
 3708TIP3   OH211080   0.357   2.881   4.086
 3708TIP3    H111081   0.389   2.798   4.122
 3708TIP3    H211082   0.274   2.858   4.043
 3709TIP3   OH211083   4.357   0.588   4.209
 3709TIP3    H111084   4.394   0.506   4.241
 3709TIP3    H211085   4.269   0.591   4.247
 3710TIP3   OH211086   0.985   1.184   0.497
 3710TIP3    H111087   0.985   1.272   0.459
 3710TIP3    H211088   0.957   1.127   0.426
 3711TIP3   OH211089   6.219   2.733   5.362
 3711TIP3    H111090   6.169   2.749   5.443
 3711TIP3    H211091   6.181   2.793   5.298
 3712TIP3   OH211092   1.336   2.918   1.997
 3712TIP3    H111093   1.314   2.897   2.088
 3712TIP3    H211094   1.417   2.969   2.003
 3713TIP3   OH211095   4.364   5.545   5.308
 3713TIP3    H111096   4.329   5.545   5.219
 3713TIP3    H211097   4.327   5.467   5.348
 3714TIP3   OH211098   0.636   0.806   1.329
 3714TIP3    H111099   0.597   0.830   1.413
 3714TIP3    H211100   0.662   0.715   1.340
 3715TIP3   OH211101   1.880   0.143   0.415
 3715TIP3    H111102   1.970   0.176   0.418
 3715TIP3    H211103   1.883   0.070   0.353
 3716TIP3   OH211104   8.055   1.583   5.518
 3716TIP3    H111105   8.150   1.587   5.527
 3716TIP3    H211106   8.021   1.612   5.602
 3717TIP3   OH211107   3.911   6.506   0.307
 3717TIP3    H111108   3.864   6.585   0.332
 3717TIP3    H211109   3.894   6.496   0.214
 3718TIP3   OH211110   7.817   2.743   1.422
 3718TIP3    H111111   7.854   2.830   1.407
 3718TIP3    H211112   7.743   2.738   1.362
 3719TIP3   OH211113   6.001   0.497   4.452
 3719TIP3    H111114   5.989   0.572   4.511
 3719TIP3    H211115   5.950   0.518   4.375
 3720TIP3   OH211116   2.264   7.541   1.394
 3720TIP3    H111117   2.333   7.602   1.422
 3720TIP3    H211118   2.299   7.455   1.416
 3721TIP3   OH211119   0.198   3.761   5.834
 3721TIP3    H111120   0.294   3.761   5.831
 3721TIP3    H211121   0.172   3.794   5.748
 3722TIP3   OH211122   5.917   5.030   2.462
 3722TIP3    H111123   6.004   5.056   2.492
 3722TIP3    H211124   5.869   5.112   2.452
 3723TIP3   OH211125   7.173   6.420   2.767
 3723TIP3    H111126   7.175   6.378   2.681
 3723TIP3    H211127   7.165   6.514   2.748
 3724TIP3   OH211128   7.868   6.501   1.461
 3724TIP3    H111129   7.928   6.442   1.416
 3724TIP3    H211130   7.850   6.570   1.396
 3725TIP3   OH211131   1.993   4.402   6.762
 3725TIP3    H111132   2.007   4.313   6.729
 3725TIP3    H211133   2.039   4.404   6.846
 3726TIP3   OH211134   4.255   0.058   4.628
 3726TIP3    H111135   4.254   0.053   4.723
 3726TIP3    H211136   4.228  -0.030   4.599
 3727TIP3   OH211137   7.868   5.294   0.488
 3727TIP3    H111138   7.875   5.389   0.478
 3727TIP3    H211139   7.774   5.276   0.486
 3728TIP3   OH211140   1.245   4.043   3.373
 3728TIP3    H111141   1.292   3.963   3.351
 3728TIP3    H211142   1.208   4.025   3.460
 3729TIP3   OH211143   7.669   5.770   5.512
 3729TIP3    H111144   7.704   5.700   5.457
 3729TIP3    H211145   7.575   5.768   5.497
 3730TIP3   OH211146   2.156   1.339   3.937
 3730TIP3    H111147   2.101   1.376   3.868
 3730TIP3    H211148   2.208   1.272   3.892
 3731TIP3   OH211149   1.590   0.309   6.114
 3731TIP3    H111150   1.669   0.354   6.143
 3731TIP3    H211151   1.533   0.379   6.082
 3732TIP3   OH211152   0.819   2.269   4.348
 3732TIP3    H111153   0.902   2.269   4.396
 3732TIP3    H211154   0.843   2.243   4.259
 3733TIP3   OH211155   6.862   0.881   0.326
 3733TIP3    H111156   6.833   0.911   0.240
 3733TIP3    H211157   6.957   0.887   0.323
 3734TIP3   OH211158   4.446   7.504   2.810
 3734TIP3    H111159   4.512   7.435   2.822
 3734TIP3    H211160   4.363   7.460   2.823
 3735TIP3   OH211161   4.366   5.544   4.477
 3735TIP3    H111162   4.459   5.567   4.477
 3735TIP3    H211163   4.359   5.473   4.414
 3736TIP3   OH211164   2.496   3.905   4.998
 3736TIP3    H111165   2.412   3.941   4.971
 3736TIP3    H211166   2.562   3.963   4.959
 3737TIP3   OH211167   2.131   7.803   1.383
 3737TIP3    H111168   2.172   7.746   1.448
 3737TIP3    H211169   2.078   7.743   1.330
 3738TIP3   OH211170   0.559   5.646   3.330
 3738TIP3    H111171   0.635   5.691   3.368
 3738TIP3    H211172   0.556   5.561   3.375
 3739TIP3   OH211173   4.783   7.698   3.940
 3739TIP3    H111174   4.791   7.782   3.986
 3739TIP3    H211175   4.749   7.720   3.854
 3740TIP3   OH211176   7.692   2.450   2.810
 3740TIP3    H111177   7.691   2.503   2.890
 3740TIP3    H211178   7.718   2.362   2.840
 3741TIP3   OH211179   3.139   4.539   3.047
 3741TIP3    H111180   3.092   4.555   2.966
 3741TIP3    H211181   3.177   4.624   3.071
 3742TIP3   OH211182   4.527   3.871   6.058
 3742TIP3    H111183   4.488   3.893   6.143
 3742TIP3    H211184   4.452   3.852   6.002
 3743TIP3   OH211185   0.945   1.267   1.839
 3743TIP3    H111186   0.991   1.284   1.921
 3743TIP3    H211187   1.011   1.282   1.771
 3744TIP3   OH211188   0.206   3.852   2.230
 3744TIP3    H111189   0.244   3.938   2.211
 3744TIP3    H211190   0.162   3.863   2.314
 3745TIP3   OH211191   5.176   6.395   1.363
 3745TIP3    H111192   5.253   6.427   1.411
 3745TIP3    H211193   5.172   6.450   1.285
 3746TIP3   OH211194   3.076   3.955   4.411
 3746TIP3    H111195   3.109   4.044   4.416
 3746TIP3    H211196   3.030   3.950   4.327
 3747TIP3   OH211197   2.792   3.687   3.238
 3747TIP3    H111198   2.884   3.677   3.265
 3747TIP3    H211199   2.794   3.757   3.173
 3748TIP3   OH211200   0.822   6.275   5.662
 3748TIP3    H111201   0.794   6.366   5.650
 3748TIP3    H211202   0.857   6.249   5.577
 3749TIP3   OH211203   4.068   6.768   6.191
 3749TIP3    H111204   4.009   6.774   6.116
 3749TIP3    H211205   4.151   6.739   6.154
 3750TIP3   OH211206   5.522   5.229   6.568
 3750TIP3    H111207   5.593   5.181   6.526
 3750TIP3    H211208   5.447   5.218   6.509
 3751TIP3   OH211209   6.967   3.215   2.793
 3751TIP3    H111210   7.011   3.295   2.822
 3751TIP3    H211211   6.974   3.217   2.698
 3752TIP3   OH211212   2.460   3.865   3.063
 3752TIP3    H111213   2.536   3.863   3.005
 3752TIP3    H211214   2.404   3.934   3.027
 3753TIP3   OH211215   7.263   0.367   0.036
 3753TIP3    H111216   7.287   0.291   0.088
 3753TIP3    H211217   7.344   0.419   0.030
 3754TIP3   OH211218   7.710   5.835   3.813
 3754TIP3    H111219   7.629   5.786   3.825
 3754TIP3    H211220   7.690   5.898   3.744
 3755TIP3   OH211221   0.171   5.226   3.269
 3755TIP3    H111222   0.236   5.293   3.248
 3755TIP3    H211223   0.222   5.151   3.297
 3756TIP3   OH211224   0.233   4.665   0.068
 3756TIP3    H111225   0.240   4.727   0.141
 3756TIP3    H211226   0.266   4.583   0.104
 3757TIP3   OH211227   1.557   5.549   0.727
 3757TIP3    H111228   1.623   5.577   0.664
 3757TIP3    H211229   1.587   5.584   0.811
 3758TIP3   OH211230   0.758   5.227   3.006
 3758TIP3    H111231   0.814   5.292   2.963
 3758TIP3    H211232   0.752   5.156   2.942
 3759TIP3   OH211233   7.315   7.227   5.554
 3759TIP3    H111234   7.295   7.301   5.496
 3759TIP3    H211235   7.233   7.178   5.558
 3760TIP3   OH211236   6.934   6.408   4.352
 3760TIP3    H111237   7.025   6.421   4.323
 3760TIP3    H211238   6.893   6.494   4.343
 3761TIP3   OH211239   8.125   7.007   0.354
 3761TIP3    H111240   8.178   7.070   0.307
 3761TIP3    H211241   8.173   6.989   0.435
 3762TIP3   OH211242   5.517   6.577   5.588
 3762TIP3    H111243   5.464   6.543   5.516
 3762TIP3    H211244   5.453   6.599   5.656
 3763TIP3   OH211245   2.108   7.753   1.666
 3763TIP3    H111246   2.047   7.691   1.706
 3763TIP3    H211247   2.190   7.739   1.713
 3764TIP3   OH211248   1.513   5.332   6.548
 3764TIP3    H111249   1.531   5.413   6.501
 3764TIP3    H211250   1.429   5.346   6.590
 3765TIP3   OH211251   4.505   7.661   4.636
 3765TIP3    H111252   4.445   7.690   4.703
 3765TIP3    H211253   4.478   7.708   4.557
 3766TIP3   OH211254   6.698   2.016   3.179
 3766TIP3    H111255   6.687   1.948   3.113
 3766TIP3    H211256   6.793   2.023   3.191
 3767TIP3   OH211257   7.791   1.437   3.028
 3767TIP3    H111258   7.748   1.454   3.112
 3767TIP3    H211259   7.721   1.402   2.972
 3768TIP3   OH211260   4.227   6.724   1.433
 3768TIP3    H111261   4.317   6.713   1.402
 3768TIP3    H211262   4.184   6.776   1.365
 3769TIP3   OH211263   4.116   5.157   0.466
 3769TIP3    H111264   4.064   5.106   0.529
 3769TIP3    H211265   4.110   5.106   0.385
 3770TIP3   OH211266   1.771   1.701   3.029
 3770TIP3    H111267   1.819   1.624   3.059
 3770TIP3    H211268   1.703   1.665   2.971
 3771TIP3   OH211269   5.947   0.313   4.214
 3771TIP3    H111270   5.959   0.403   4.182
 3771TIP3    H211271   5.942   0.260   4.134
 3772TIP3   OH211272   0.259   1.615   6.593
 3772TIP3    H111273   0.289   1.524   6.588
 3772TIP3    H211274   0.164   1.608   6.597
 3773TIP3   OH211275   7.457   4.444   5.278
 3773TIP3    H111276   7.436   4.529   5.315
 3773TIP3    H211277   7.398   4.435   5.203
 3774TIP3   OH211278   0.272   4.013   5.183
 3774TIP3    H111279   0.295   3.989   5.093
 3774TIP3    H211280   0.186   4.055   5.176
 3775TIP3   OH211281   1.300   7.765   2.250
 3775TIP3    H111282   1.355   7.836   2.219
 3775TIP3    H211283   1.355   7.687   2.241
 3776TIP3   OH211284   6.949   3.136   1.389
 3776TIP3    H111285   6.911   3.117   1.475
 3776TIP3    H211286   6.896   3.086   1.327
 3777TIP3   OH211287   4.585   1.865   5.122
 3777TIP3    H111288   4.529   1.803   5.075
 3777TIP3    H211289   4.557   1.951   5.091
 3778TIP3   OH211290   4.560   7.246   2.429
 3778TIP3    H111291   4.550   7.185   2.501
 3778TIP3    H211292   4.481   7.234   2.376
 3779TIP3   OH211293   3.521   6.005   2.865
 3779TIP3    H111294   3.485   6.075   2.811
 3779TIP3    H211295   3.613   6.000   2.841
 3780TIP3   OH211296   2.432   1.991   0.993
 3780TIP3    H111297   2.497   2.000   1.063
 3780TIP3    H211298   2.349   2.016   1.035
 3781TIP3   OH211299   0.328   4.286   3.279
 3781TIP3    H111300   0.355   4.225   3.209
 3781TIP3    H211301   0.259   4.240   3.326
 3782TIP3   OH211302   4.671   2.573   3.502
 3782TIP3    H111303   4.660   2.484   3.534
 3782TIP3    H211304   4.675   2.627   3.581
 3783TIP3   OH211305   1.147   5.242   0.594
 3783TIP3    H111306   1.176   5.151   0.591
 3783TIP3    H211307   1.079   5.248   0.527
 3784TIP3   OH211308   6.385   0.102   3.477
 3784TIP3    H111309   6.292   0.101   3.456
 3784TIP3    H211310   6.425   0.156   3.408
 3785TIP3   OH211311   2.990   0.204   6.498
 3785TIP3    H111312   3.041   0.123   6.495
 3785TIP3    H211313   2.972   0.225   6.407
 3786TIP3   OH211314   7.556   3.390   6.690
 3786TIP3    H111315   7.505   3.348   6.759
 3786TIP3    H211316   7.498   3.460   6.658
 3787TIP3   OH211317   4.722   3.089   5.178
 3787TIP3    H111318   4.627   3.097   5.192
 3787TIP3    H211319   4.746   3.008   5.222
 3788TIP3   OH211320   6.813   4.547   6.544
 3788TIP3    H111321   6.838   4.632   6.508
 3788TIP3    H211322   6.801   4.563   6.637
 3789TIP3   OH211323   7.999   4.100   4.669
 3789TIP3    H111324   7.921   4.157   4.666
 3789TIP3    H211325   8.072   4.159   4.650
 3790TIP3   OH211326   5.992   6.236   5.324
 3790TIP3    H111327   6.029   6.193   5.401
 3790TIP3    H211328   5.945   6.312   5.360
 3791TIP3   OH211329   3.913   7.184   2.950
 3791TIP3    H111330   3.962   7.251   2.999
 3791TIP3    H211331   3.827   7.223   2.936
 3792TIP3   OH211332   6.474   6.825   4.585
 3792TIP3    H111333   6.440   6.854   4.670
 3792TIP3    H211334   6.569   6.822   4.597
 3793TIP3   OH211335   2.993   3.211   5.362
 3793TIP3    H111336   3.040   3.132   5.391
 3793TIP3    H211337   2.982   3.198   5.268
 3794TIP3   OH211338   3.456   3.930   1.735
 3794TIP3    H111339   3.373   3.891   1.706
 3794TIP3    H211340   3.523   3.881   1.688
 3795TIP3   OH211341   5.651   1.609   2.509
 3795TIP3    H111342   5.688   1.696   2.497
 3795TIP3    H211343   5.557   1.622   2.512
 3796TIP3   OH211344   0.321   6.651   1.051
 3796TIP3    H111345   0.361   6.565   1.045
 3796TIP3    H211346   0.346   6.684   1.138
 3797TIP3   OH211347   8.224   4.929   1.781
 3797TIP3    H111348   8.166   4.885   1.843
 3797TIP3    H211349   8.246   5.012   1.823
 3798TIP3   OH211350   4.908   6.337   2.194
 3798TIP3    H111351   4.953   6.350   2.111
 3798TIP3    H211352   4.834   6.398   2.191
 3799TIP3   OH211353   0.421   5.950   5.095
 3799TIP3    H111354   0.355   5.890   5.130
 3799TIP3    H211355   0.483   5.893   5.050
 3800TIP3   OH211356   5.028   6.726   4.135
 3800TIP3    H111357   5.018   6.698   4.044
 3800TIP3    H211358   4.940   6.751   4.163
 3801TIP3   OH211359   1.376   5.079   0.305
 3801TIP3    H111360   1.401   5.146   0.241
 3801TIP3    H211361   1.299   5.038   0.268
 3802TIP3   OH211362   2.653   4.330   1.961
 3802TIP3    H111363   2.684   4.342   2.051
 3802TIP3    H211364   2.689   4.404   1.913
 3803TIP3   OH211365   7.113   3.909   5.905
 3803TIP3    H111366   7.139   3.998   5.882
 3803TIP3    H211367   7.153   3.893   5.991
 3804TIP3   OH211368   4.956   4.162   3.435
 3804TIP3    H111369   4.895   4.089   3.424
 3804TIP3    H211370   4.949   4.186   3.527
 3805TIP3   OH211371   5.032   4.132   1.282
 3805TIP3    H111372   4.973   4.207   1.281
 3805TIP3    H211373   5.069   4.128   1.194
 3806TIP3   OH211374   4.754   3.554   6.140
 3806TIP3    H111375   4.663   3.528   6.155
 3806TIP3    H211376   4.750   3.614   6.066
 3807TIP3   OH211377   0.478   3.163   4.496
 3807TIP3    H111378   0.523   3.155   4.580
 3807TIP3    H211379   0.432   3.079   4.486
 3808TIP3   OH211380   4.003   5.166   1.383
 3808TIP3    H111381   3.973   5.076   1.371
 3808TIP3    H211382   4.020   5.198   1.294
 3809TIP3   OH211383   0.023   7.494   4.873
 3809TIP3    H111384  -0.023   7.539   4.943
 3809TIP3    H211385   0.019   7.401   4.898
 3810TIP3   OH211386   1.683   0.913   2.320
 3810TIP3    H111387   1.751   0.961   2.272
 3810TIP3    H211388   1.625   0.879   2.251
 3811TIP3   OH211389   5.817   5.111   6.280
 3811TIP3    H111390   5.800   5.201   6.309
 3811TIP3    H211391   5.912   5.102   6.285
 3812TIP3   OH211392   8.170   6.118   2.979
 3812TIP3    H111393   8.244   6.104   2.920
 3812TIP3    H211394   8.094   6.088   2.929
 3813TIP3   OH211395   2.509   5.866   4.457
 3813TIP3    H111396   2.526   5.800   4.391
 3813TIP3    H211397   2.595   5.887   4.493
 3814TIP3   OH211398   5.761   4.718   2.646
 3814TIP3    H111399   5.702   4.738   2.719
 3814TIP3    H211400   5.718   4.757   2.569
 3815TIP3   OH211401   4.257   2.159   3.446
 3815TIP3    H111402   4.218   2.164   3.533
 3815TIP3    H211403   4.336   2.106   3.458
 3816TIP3   OH211404   1.966   3.633   2.378
 3816TIP3    H111405   1.952   3.692   2.305
 3816TIP3    H211406   1.929   3.549   2.349
 3817TIP3   OH211407   0.203   6.907   1.574
 3817TIP3    H111408   0.220   6.915   1.480
 3817TIP3    H211409   0.261   6.972   1.614
 3818TIP3   OH211410   6.993   2.333   4.696
 3818TIP3    H111411   7.033   2.264   4.643
 3818TIP3    H211412   6.931   2.287   4.752
 3819TIP3   OH211413   1.493   3.717   3.069
 3819TIP3    H111414   1.576   3.755   3.096
 3819TIP3    H211415   1.494   3.722   2.973
 3820TIP3   OH211416   0.816   3.850   3.405
 3820TIP3    H111417   0.799   3.880   3.494
 3820TIP3    H211418   0.912   3.840   3.401
 3821TIP3   OH211419   3.089   7.442   0.049
 3821TIP3    H111420   3.170   7.453   0.098
 3821TIP3    H211421   3.105   7.487  -0.034
 3822TIP3   OH211422   7.131   1.696   1.664
 3822TIP3    H111423   7.095   1.711   1.752
 3822TIP3    H211424   7.061   1.651   1.617
 3823TIP3   OH211425   2.545   3.712   2.240
 3823TIP3    H111426   2.468   3.664   2.208
 3823TIP3    H211427   2.520   3.804   2.233
 3824TIP3   OH211428   0.173   2.016   3.326
 3824TIP3    H111429   0.233   2.008   3.252
 3824TIP3    H211430   0.144   1.927   3.344
 3825TIP3   OH211431   0.517   4.867   0.760
 3825TIP3    H111432   0.596   4.822   0.730
 3825TIP3    H211433   0.454   4.856   0.689
 3826TIP3   OH211434   4.268   6.375   4.658
 3826TIP3    H111435   4.329   6.396   4.586
 3826TIP3    H211436   4.195   6.330   4.616
 3827TIP3   OH211437   4.617   0.151   5.439
 3827TIP3    H111438   4.576   0.196   5.513
 3827TIP3    H211439   4.687   0.211   5.411
 3828TIP3   OH211440   2.649   0.797   1.066
 3828TIP3    H111441   2.641   0.708   1.100
 3828TIP3    H211442   2.685   0.786   0.978
 3829TIP3   OH211443   4.113   5.953   5.795
 3829TIP3    H111444   4.063   5.955   5.877
 3829TIP3    H211445   4.151   5.866   5.791
 3830TIP3   OH211446   6.299   0.613   4.887
 3830TIP3    H111447   6.209   0.635   4.862
 3830TIP3    H211448   6.314   0.527   4.848
 3831TIP3   OH211449   5.379   7.856   2.063
 3831TIP3    H111450   5.367   7.762   2.076
 3831TIP3    H211451   5.294   7.895   2.086
 3832TIP3   OH211452   0.444   2.809   5.513
 3832TIP3    H111453   0.365   2.755   5.508
 3832TIP3    H211454   0.516   2.747   5.522
 3833TIP3   OH211455   3.389   3.929   0.666
 3833TIP3    H111456   3.398   3.957   0.757
 3833TIP3    H211457   3.474   3.945   0.627
 3834TIP3   OH211458   1.014   4.654   2.835
 3834TIP3    H111459   1.006   4.728   2.774
 3834TIP3    H211460   0.923   4.632   2.856
 3835TIP3   OH211461   2.998   2.413   6.066
 3835TIP3    H111462   3.027   2.444   5.980
 3835TIP3    H211463   3.059   2.452   6.128
 3836TIP3   OH211464   8.050   5.414   3.491
 3836TIP3    H111465   8.076   5.506   3.488
 3836TIP3    H211466   8.129   5.365   3.472
 3837TIP3   OH211467   6.780   6.989   3.864
 3837TIP3    H111468   6.861   6.944   3.841
 3837TIP3    H211469   6.805   7.054   3.929
 3838TIP3   OH211470   7.771   6.228   2.967
 3838TIP3    H111471   7.753   6.134   2.975
 3838TIP3    H211472   7.847   6.233   2.908
 3839TIP3   OH211473   4.497   0.857   0.007
 3839TIP3    H111474   4.433   0.927  -0.009
 3839TIP3    H211475   4.449   0.776  -0.011
 3840TIP3   OH211476   0.326   5.341   4.012
 3840TIP3    H111477   0.363   5.418   4.055
 3840TIP3    H211478   0.231   5.352   4.021
 3841TIP3   OH211479   7.766   5.871   3.409
 3841TIP3    H111480   7.735   5.916   3.487
 3841TIP3    H211481   7.859   5.893   3.404
 3842TIP3   OH211482   0.555   3.642   5.168
 3842TIP3    H111483   0.511   3.616   5.249
 3842TIP3    H211484   0.557   3.562   5.115
 3843TIP3   OH211485   7.340   2.027   2.596
 3843TIP3    H111486   7.430   2.059   2.604
 3843TIP3    H211487   7.301   2.082   2.528
 3844TIP3   OH211488   4.921   3.890   5.626
 3844TIP3    H111489   4.842   3.847   5.659
 3844TIP3    H211490   4.916   3.879   5.531
 3845TIP3   OH211491   1.206   2.166   5.106
 3845TIP3    H111492   1.197   2.248   5.058
 3845TIP3    H211493   1.195   2.192   5.198
 3846TIP3   OH211494   6.369   2.899   5.889
 3846TIP3    H111495   6.372   2.857   5.803
 3846TIP3    H211496   6.460   2.902   5.918
 3847TIP3   OH211497   6.631   5.716   4.190
 3847TIP3    H111498   6.721   5.709   4.160
 3847TIP3    H211499   6.625   5.804   4.228
 3848TIP3   OH211500   2.732   0.568   3.060
 3848TIP3    H111501   2.779   0.647   3.036
 3848TIP3    H211502   2.756   0.551   3.151
 3849TIP3   OH211503   5.741   5.693   0.039
 3849TIP3    H111504   5.733   5.767   0.099
 3849TIP3    H211505   5.707   5.619   0.089
 3850TIP3   OH211506   5.961   1.793   4.343
 3850TIP3    H111507   5.951   1.710   4.296
 3850TIP3    H211508   5.880   1.804   4.392
 3851TIP3   OH211509   3.074   2.035   0.337
 3851TIP3    H111510   3.137   1.966   0.356
 3851TIP3    H211511   3.093   2.104   0.401
 3852TIP3   OH211512   6.249   3.586   2.712
 3852TIP3    H111513   6.176   3.582   2.650
 3852TIP3    H211514   6.247   3.501   2.756
 3853TIP3   OH211515   0.715   6.594   6.338
 3853TIP3    H111516   0.769   6.616   6.262
 3853TIP3    H211517   0.625   6.616   6.311
 3854TIP3   OH211518   2.886   2.669   4.186
 3854TIP3    H111519   2.910   2.577   4.198
 3854TIP3    H211520   2.795   2.673   4.216
 3855TIP3   OH211521   3.677   4.897   4.973
 3855TIP3    H111522   3.603   4.947   4.941
 3855TIP3    H211523   3.728   4.959   5.024
 3856TIP3   OH211524   5.385   2.707   1.303
 3856TIP3    H111525   5.407   2.744   1.217
 3856TIP3    H211526   5.349   2.620   1.283
 3857TIP3   OH211527   1.869   1.213   6.574
 3857TIP3    H111528   1.920   1.265   6.512
 3857TIP3    H211529   1.832   1.277   6.635
 3858TIP3   OH211530   4.803   5.161   1.026
 3858TIP3    H111531   4.897   5.153   1.039
 3858TIP3    H211532   4.784   5.253   1.048
 3859TIP3   OH211533   3.335   3.478   0.367
 3859TIP3    H111534   3.402   3.419   0.401
 3859TIP3    H211535   3.307   3.437   0.284
 3860TIP3   OH211536  -0.011   1.459   1.081
 3860TIP3    H111537  -0.050   1.541   1.050
 3860TIP3    H211538   0.083   1.476   1.082
 3861TIP3   OH211539   0.741   6.964   0.336
 3861TIP3    H111540   0.818   6.918   0.370
 3861TIP3    H211541   0.756   7.056   0.360
 3862TIP3   OH211542   5.316   6.498   3.868
 3862TIP3    H111543   5.267   6.425   3.905
 3862TIP3    H211544   5.286   6.575   3.917
 3863TIP3   OH211545   7.401   5.799   0.924
 3863TIP3    H111546   7.426   5.751   1.003
 3863TIP3    H211547   7.350   5.873   0.956
 3864TIP3   OH211548   6.281   6.888   0.281
 3864TIP3    H111549   6.294   6.845   0.366
 3864TIP3    H211550   6.188   6.879   0.264
 3865TIP3   OH211551   4.240   2.355   0.709
 3865TIP3    H111552   4.242   2.424   0.642
 3865TIP3    H211553   4.169   2.380   0.767
 3866TIP3   OH211554   2.780   6.202   2.533
 3866TIP3    H111555   2.769   6.147   2.610
 3866TIP3    H211556   2.865   6.244   2.546
 3867TIP3   OH211557   2.413   7.503   2.481
 3867TIP3    H111558   2.490   7.489   2.535
 3867TIP3    H211559   2.373   7.583   2.516
 3868TIP3   OH211560   1.133   1.406   4.537
 3868TIP3    H111561   1.208   1.356   4.503
 3868TIP3    H211562   1.081   1.426   4.460
 3869TIP3   OH211563   5.812   3.041   1.315
 3869TIP3    H111564   5.868   3.000   1.381
 3869TIP3    H211565   5.851   3.127   1.300
 3870TIP3   OH211566   8.172   4.708   4.458
 3870TIP3    H111567   8.156   4.647   4.531
 3870TIP3    H211568   8.214   4.654   4.391
 3871TIP3   OH211569   2.682   1.789   5.409
 3871TIP3    H111570   2.766   1.756   5.441
 3871TIP3    H211571   2.688   1.884   5.421
 3872TIP3   OH211572   0.406   6.396   3.955
 3872TIP3    H111573   0.491   6.377   3.915
 3872TIP3    H211574   0.426   6.448   4.033
 3873TIP3   OH211575   0.873   1.104   5.345
 3873TIP3    H111576   0.870   1.008   5.340
 3873TIP3    H211577   0.952   1.124   5.395
 3874TIP3   OH211578   1.745   5.982   1.511
 3874TIP3    H111579   1.742   6.054   1.573
 3874TIP3    H211580   1.834   5.984   1.475
 3875TIP3   OH211581   0.586   2.488   6.234
 3875TIP3    H111582   0.534   2.476   6.155
 3875TIP3    H211583   0.522   2.508   6.302
 3876TIP3   OH211584   6.068   0.956   6.065
 3876TIP3    H111585   6.094   0.998   5.983
 3876TIP3    H211586   5.985   0.912   6.045
 3877TIP3   OH211587   4.824   5.887   0.996
 3877TIP3    H111588   4.906   5.840   1.009
 3877TIP3    H211589   4.830   5.962   1.056
 3878TIP3   OH211590   5.986   1.294   4.107
 3878TIP3    H111591   6.015   1.290   4.016
 3878TIP3    H211592   6.066   1.315   4.156
 3879TIP3   OH211593   0.295   4.100   1.658
 3879TIP3    H111594   0.358   4.053   1.603
 3879TIP3    H211595   0.256   4.165   1.599
 3880TIP3   OH211596   6.599   2.830   4.368
 3880TIP3    H111597   6.624   2.890   4.438
 3880TIP3    H211598   6.595   2.885   4.290
 3881TIP3   OH211599   0.551   1.850   6.029
 3881TIP3    H111600   0.586   1.771   6.069
 3881TIP3    H211601   0.602   1.922   6.068
 3882TIP3   OH211602   1.876   1.478   5.218
 3882TIP3    H111603   1.902   1.466   5.309
 3882TIP3    H211604   1.901   1.568   5.197
 3883TIP3   OH211605   0.410   1.283   1.984
 3883TIP3    H111606   0.479   1.248   2.041
 3883TIP3    H211607   0.450   1.285   1.897
 3884TIP3   OH211608   0.767   7.463   5.160
 3884TIP3    H111609   0.822   7.542   5.157
 3884TIP3    H211610   0.682   7.494   5.191
 3885TIP3   OH211611   4.237   2.740   4.043
 3885TIP3    H111612   4.204   2.651   4.037
 3885TIP3    H211613   4.159   2.795   4.042
 3886TIP3   OH211614   4.828   0.578   6.702
 3886TIP3    H111615   4.744   0.548   6.736
 3886TIP3    H211616   4.838   0.666   6.738
 3887TIP3   OH211617   4.128   7.388   6.485
 3887TIP3    H111618   4.182   7.309   6.485
 3887TIP3    H211619   4.191   7.460   6.473
 3888TIP3   OH211620   7.834   3.243   5.634
 3888TIP3    H111621   7.779   3.317   5.605
 3888TIP3    H211622   7.913   3.250   5.581
 3889TIP3   OH211623   5.997   3.390   6.187
 3889TIP3    H111624   6.092   3.381   6.194
 3889TIP3    H211625   5.976   3.357   6.100
 3890TIP3   OH211626   8.209   7.656   3.364
 3890TIP3    H111627   8.126   7.663   3.318
 3890TIP3    H211628   8.238   7.747   3.375
 3891TIP3   OH211629   3.348   0.226   3.883
 3891TIP3    H111630   3.357   0.295   3.817
 3891TIP3    H211631   3.254   0.217   3.896
 3892TIP3   OH211632   4.780   3.760   2.844
 3892TIP3    H111633   4.765   3.683   2.899
 3892TIP3    H211634   4.706   3.761   2.783
 3893TIP3   OH211635   4.002   7.511   0.808
 3893TIP3    H111636   4.034   7.476   0.892
 3893TIP3    H211637   4.057   7.588   0.793
 3894TIP3   OH211638   0.085   5.512   3.265
 3894TIP3    H111639   0.065   5.431   3.220
 3894TIP3    H211640   0.171   5.497   3.305
 3895TIP3   OH211641   1.846   5.545   2.799
 3895TIP3    H111642   1.769   5.519   2.749
 3895TIP3    H211643   1.883   5.618   2.749
 3896TIP3   OH211644   8.133   4.907   3.239
 3896TIP3    H111645   8.077   4.853   3.183
 3896TIP3    H211646   8.220   4.870   3.231
 3897TIP3   OH211647   3.347   2.921   3.837
 3897TIP3    H111648   3.332   2.834   3.873
 3897TIP3    H211649   3.272   2.973   3.867
 3898TIP3   OH211650   5.986   6.648   0.706
 3898TIP3    H111651   6.080   6.663   0.718
 3898TIP3    H211652   5.959   6.596   0.782
 3899TIP3   OH211653   6.228   7.137   4.957
 3899TIP3    H111654   6.140   7.149   4.922
 3899TIP3    H211655   6.280   7.207   4.916
 3900TIP3   OH211656   4.389   3.069   4.092
 3900TIP3    H111657   4.462   3.051   4.151
 3900TIP3    H211658   4.394   3.163   4.076
 3901TIP3   OH211659   3.137   4.965   0.641
 3901TIP3    H111660   3.230   4.946   0.640
 3901TIP3    H211661   3.095   4.883   0.614
 3902TIP3   OH211662   7.510   1.904   2.341
 3902TIP3    H111663   7.559   1.893   2.423
 3902TIP3    H211664   7.488   1.997   2.338
 3903TIP3   OH211665   6.926   3.243   1.834
 3903TIP3    H111666   6.881   3.274   1.913
 3903TIP3    H211667   6.976   3.319   1.804
 3904TIP3   OH211668   1.008   1.639   0.545
 3904TIP3    H111669   1.096   1.603   0.532
 3904TIP3    H211670   1.012   1.727   0.509
 3905TIP3   OH211671   0.501   1.306   5.098
 3905TIP3    H111672   0.589   1.277   5.073
 3905TIP3    H211673   0.447   1.286   5.022
 3906TIP3   OH211674   7.120   4.483   5.342
 3906TIP3    H111675   7.116   4.559   5.399
 3906TIP3    H211676   7.175   4.511   5.268
 3907TIP3   OH211677   5.023   7.180   0.304
 3907TIP3    H111678   5.073   7.262   0.306
 3907TIP3    H211679   4.940   7.202   0.348
 3908TIP3   OH211680   4.121   3.728   0.288
 3908TIP3    H111681   4.146   3.695   0.202
 3908TIP3    H211682   4.030   3.698   0.299
 3909TIP3   OH211683   2.983   4.294   4.013
 3909TIP3    H111684   2.935   4.218   3.979
 3909TIP3    H211685   2.952   4.303   4.103
 3910TIP3   OH211686   2.901   1.474   5.066
 3910TIP3    H111687   2.842   1.399   5.077
 3910TIP3    H211688   2.980   1.449   5.112
 3911TIP3   OH211689   3.618   4.566   4.812
 3911TIP3    H111690   3.609   4.507   4.887
 3911TIP3    H211691   3.555   4.636   4.829
 3912TIP3   OH211692   8.088   2.822   6.445
 3912TIP3    H111693   8.044   2.906   6.464
 3912TIP3    H211694   8.091   2.818   6.349
 3913TIP3   OH211695   5.666   7.288   3.332
 3913TIP3    H111696   5.654   7.383   3.330
 3913TIP3    H211697   5.637   7.258   3.246
 3914TIP3   OH211698   1.132   2.555   4.170
 3914TIP3    H111699   1.167   2.467   4.156
 3914TIP3    H211700   1.124   2.564   4.265
 3915TIP3   OH211701   7.240   2.176   2.392
 3915TIP3    H111702   7.160   2.135   2.427
 3915TIP3    H211703   7.239   2.265   2.429
 3916TIP3   OH211704   0.082   4.904   4.609
 3916TIP3    H111705   0.159   4.917   4.554
 3916TIP3    H211706   0.031   4.836   4.565
 3917TIP3   OH211707   3.820   6.209   5.780
 3917TIP3    H111708   3.901   6.258   5.789
 3917TIP3    H211709   3.761   6.249   5.844
 3918TIP3   OH211710   5.816   5.867   1.581
 3918TIP3    H111711   5.904   5.897   1.560
 3918TIP3    H211712   5.761   5.945   1.574
 3919TIP3   OH211713   1.172   1.598   3.153
 3919TIP3    H111714   1.144   1.617   3.064
 3919TIP3    H211715   1.267   1.591   3.148
 3920TIP3   OH211716   7.973   4.747   1.448
 3920TIP3    H111717   7.983   4.666   1.399
 3920TIP3    H211718   8.021   4.733   1.530
 3921TIP3   OH211719   4.142   3.742   5.638
 3921TIP3    H111720   4.173   3.825   5.676
 3921TIP3    H211721   4.071   3.715   5.696
 3922TIP3   OH211722   2.502   7.230   3.313
 3922TIP3    H111723   2.422   7.277   3.337
 3922TIP3    H211724   2.566   7.256   3.379
 3923TIP3   OH211725   4.839   3.963   0.868
 3923TIP3    H111726   4.749   3.933   0.881
 3923TIP3    H211727   4.831   4.036   0.807
 3924TIP3   OH211728   4.537   5.087   0.891
 3924TIP3    H111729   4.612   5.120   0.842
 3924TIP3    H211730   4.498   5.165   0.930
 3925TIP3   OH211731   2.473   6.880   1.048
 3925TIP3    H111732   2.411   6.952   1.055
 3925TIP3    H211733   2.434   6.810   1.101
 3926TIP3   OH211734   3.202   0.557   4.586
 3926TIP3    H111735   3.140   0.598   4.646
 3926TIP3    H211736   3.270   0.623   4.573
 3927TIP3   OH211737   2.064   1.963   3.209
 3927TIP3    H111738   2.032   1.987   3.122
 3927TIP3    H211739   2.129   1.895   3.193
 3928TIP3   OH211740   5.210   2.607   5.829
 3928TIP3    H111741   5.195   2.701   5.826
 3928TIP3    H211742   5.272   2.594   5.900
 3929TIP3   OH211743   5.271   6.196   6.427
 3929TIP3    H111744   5.303   6.185   6.517
 3929TIP3    H211745   5.189   6.146   6.425
 3930TIP3   OH211746   4.961   3.473   4.422
 3930TIP3    H111747   4.904   3.502   4.493
 3930TIP3    H211748   4.901   3.449   4.351
 3931TIP3   OH211749   4.851   5.477   2.249
 3931TIP3    H111750   4.913   5.536   2.294
 3931TIP3    H211751   4.869   5.490   2.156
 3932TIP3   OH211752   2.523   6.166   1.550
 3932TIP3    H111753   2.541   6.078   1.582
 3932TIP3    H211754   2.554   6.224   1.621
 3933TIP3   OH211755   2.863   3.637   4.254
 3933TIP3    H111756   2.897   3.588   4.329
 3933TIP3    H211757   2.824   3.571   4.197
 3934TIP3   OH211758   5.671   5.851   5.588
 3934TIP3    H111759   5.575   5.847   5.584
 3934TIP3    H211760   5.699   5.832   5.498
 3935TIP3   OH211761   7.905   4.281   4.100
 3935TIP3    H111762   7.968   4.281   4.028
 3935TIP3    H211763   7.820   4.278   4.057
 3936TIP3   OH211764   1.938   6.576   5.364
 3936TIP3    H111765   2.022   6.618   5.345
 3936TIP3    H211766   1.945   6.490   5.323
 3937TIP3   OH211767   7.379   1.098   5.654
 3937TIP3    H111768   7.457   1.133   5.697
 3937TIP3    H211769   7.394   1.113   5.561
 3938TIP3   OH211770   2.520   3.261   3.228
 3938TIP3    H111771   2.474   3.292   3.150
 3938TIP3    H211772   2.576   3.335   3.253
 3939TIP3   OH211773   5.236   5.797   2.567
 3939TIP3    H111774   5.276   5.859   2.506
 3939TIP3    H211775   5.164   5.758   2.518
 3940TIP3   OH211776   3.214   4.425   0.572
 3940TIP3    H111777   3.191   4.470   0.491
 3940TIP3    H211778   3.279   4.359   0.545
 3941TIP3   OH211779   8.159   0.448   0.525
 3941TIP3    H111780   8.107   0.379   0.483
 3941TIP3    H211781   8.244   0.444   0.480
 3942TIP3   OH211782   4.509   3.046   2.168
 3942TIP3    H111783   4.569   2.973   2.152
 3942TIP3    H211784   4.445   3.012   2.230
 3943TIP3   OH211785   6.410   2.460   1.043
 3943TIP3    H111786   6.390   2.452   1.137
 3943TIP3    H211787   6.477   2.394   1.028
 3944TIP3   OH211788   4.196   4.818   5.840
 3944TIP3    H111789   4.109   4.795   5.872
 3944TIP3    H211790   4.233   4.737   5.806
 3945TIP3   OH211791   3.587   2.532   4.690
 3945TIP3    H111792   3.646   2.603   4.715
 3945TIP3    H211793   3.506   2.549   4.738
 3946TIP3   OH211794   5.044   4.496   2.567
 3946TIP3    H111795   5.120   4.438   2.560
 3946TIP3    H211796   5.066   4.570   2.509
 3947TIP3   OH211797   3.653   7.655   1.059
 3947TIP3    H111798   3.655   7.561   1.073
 3947TIP3    H211799   3.652   7.665   0.964
 3948TIP3   OH211800   3.815   2.994   1.176
 3948TIP3    H111801   3.899   3.012   1.219
 3948TIP3    H211802   3.753   3.052   1.219
 3949TIP3   OH211803   4.396   4.029   2.628
 3949TIP3    H111804   4.420   4.099   2.689
 3949TIP3    H211805   4.363   4.074   2.551
 3950TIP3   OH211806   5.699   1.437   5.382
 3950TIP3    H111807   5.614   1.393   5.373
 3950TIP3    H211808   5.676   1.529   5.396
 3951TIP3   OH211809   1.798   6.471   4.942
 3951TIP3    H111810   1.799   6.402   4.876
 3951TIP3    H211811   1.867   6.446   5.004
 3952TIP3   OH211812   7.721   6.352   1.017
 3952TIP3    H111813   7.717   6.280   0.954
 3952TIP3    H211814   7.635   6.393   1.013
 3953TIP3   OH211815   0.110   1.252   5.246
 3953TIP3    H111816   0.146   1.207   5.169
 3953TIP3    H211817   0.094   1.341   5.217
 3954TIP3   OH211818   4.218   4.776   3.737
 3954TIP3    H111819   4.286   4.833   3.701
 3954TIP3    H211820   4.218   4.700   3.679
 3955TIP3   OH211821   5.951   2.619   0.644
 3955TIP3    H111822   6.021   2.659   0.695
 3955TIP3    H211823   5.963   2.525   0.655
 3956TIP3   OH211824   2.261   1.982   6.567
 3956TIP3    H111825   2.173   2.004   6.597
 3956TIP3    H211826   2.263   1.886   6.566
 3957TIP3   OH211827   8.109   2.043   1.561
 3957TIP3    H111828   8.129   2.121   1.613
 3957TIP3    H211829   8.182   1.984   1.578
 3958TIP3   OH211830   6.862   0.952   4.818
 3958TIP3    H111831   6.832   1.042   4.821
 3958TIP3    H211832   6.931   0.951   4.753
 3959TIP3   OH211833   2.244   7.184   0.812
 3959TIP3    H111834   2.320   7.138   0.777
 3959TIP3    H211835   2.251   7.273   0.777
 3960TIP3   OH211836   4.865   5.681   3.605
 3960TIP3    H111837   4.878   5.590   3.577
 3960TIP3    H211838   4.773   5.684   3.634
 3961TIP3   OH211839   1.639   4.326   5.005
 3961TIP3    H111840   1.695   4.356   5.076
 3961TIP3    H211841   1.653   4.390   4.935
 3962TIP3   OH211842   7.366   0.317   2.654
 3962TIP3    H111843   7.283   0.343   2.694
 3962TIP3    H211844   7.341   0.253   2.587
 3963TIP3   OH211845   1.732   6.672   0.439
 3963TIP3    H111846   1.820   6.693   0.408
 3963TIP3    H211847   1.739   6.583   0.473
 3964TIP3   OH211848   1.697   2.349   6.623
 3964TIP3    H111849   1.778   2.298   6.617
 3964TIP3    H211850   1.725   2.433   6.661
 3965TIP3   OH211851   0.506   0.190   6.499
 3965TIP3    H111852   0.494   0.126   6.429
 3965TIP3    H211853   0.459   0.152   6.574
 3966TIP3   OH211854   7.625   5.397   3.717
 3966TIP3    H111855   7.710   5.440   3.710
 3966TIP3    H211856   7.579   5.445   3.786
 3967TIP3   OH211857   3.133   4.653   5.884
 3967TIP3    H111858   3.053   4.703   5.869
 3967TIP3    H211859   3.201   4.703   5.840
 3968TIP3   OH211860   4.425   3.373   4.649
 3968TIP3    H111861   4.429   3.367   4.554
 3968TIP3    H211862   4.447   3.464   4.668
 3969TIP3   OH211863   7.265   6.594   4.505
 3969TIP3    H111864   7.359   6.589   4.518
 3969TIP3    H211865   7.251   6.676   4.458
 3970TIP3   OH211866   3.545   4.829   5.948
 3970TIP3    H111867   3.557   4.900   6.011
 3970TIP3    H211868   3.565   4.749   5.998
 3971TIP3   OH211869   1.918   3.850   1.826
 3971TIP3    H111870   1.920   3.943   1.849
 3971TIP3    H211871   1.829   3.833   1.797
 3972TIP3   OH211872   7.541   7.279   6.381
 3972TIP3    H111873   7.615   7.322   6.423
 3972TIP3    H211874   7.466   7.336   6.400
 3973TIP3   OH211875   2.948   1.955   3.139
 3973TIP3    H111876   2.965   1.903   3.217
 3973TIP3    H211877   2.901   2.032   3.170
 3974TIP3   OH211878   3.570   1.712   5.431
 3974TIP3    H111879   3.562   1.774   5.358
 3974TIP3    H211880   3.548   1.627   5.393
 3975TIP3   OH211881   5.158   6.804   4.675
 3975TIP3    H111882   5.232   6.807   4.735
 3975TIP3    H211883   5.188   6.849   4.597
 3976TIP3   OH211884   3.305   5.497   3.486
 3976TIP3    H111885   3.394   5.462   3.482
 3976TIP3    H211886   3.315   5.583   3.527
 3977TIP3   OH211887   4.413   1.638   6.083
 3977TIP3    H111888   4.477   1.617   6.015
 3977TIP3    H211889   4.374   1.553   6.106
 3978TIP3   OH211890   1.862   3.816   1.517
 3978TIP3    H111891   1.888   3.897   1.561
 3978TIP3    H211892   1.832   3.759   1.587
 3979TIP3   OH211893   0.771   3.551   5.819
 3979TIP3    H111894   0.715   3.479   5.848
 3979TIP3    H211895   0.788   3.602   5.899
 3980TIP3   OH211896   3.912   1.814   0.168
 3980TIP3    H111897   3.842   1.826   0.103
 3980TIP3    H211898   3.866   1.786   0.247
 3981TIP3   OH211899   0.075   3.282   2.588
 3981TIP3    H111900   0.131   3.228   2.644
 3981TIP3    H211901  -0.013   3.272   2.624
 3982TIP3   OH211902   0.299   7.532   3.260
 3982TIP3    H111903   0.208   7.503   3.266
 3982TIP3    H211904   0.303   7.607   3.321
 3983TIP3   OH211905   4.319   3.327   1.083
 3983TIP3    H111906   4.414   3.318   1.084
 3983TIP3    H211907   4.303   3.416   1.116
 3984TIP3   OH211908   5.149   3.793   2.961
 3984TIP3    H111909   5.229   3.845   2.947
 3984TIP3    H211910   5.078   3.856   2.949
 3985TIP3   OH211911   0.256   1.461   1.005
 3985TIP3    H111912   0.351   1.453   1.011
 3985TIP3    H211913   0.225   1.372   0.988
 3986TIP3   OH211914   2.196   2.979   6.494
 3986TIP3    H111915   2.220   2.886   6.490
 3986TIP3    H211916   2.190   3.006   6.403
 3987TIP3   OH211917   4.872   2.200   6.498
 3987TIP3    H111918   4.897   2.113   6.529
 3987TIP3    H211919   4.843   2.246   6.576
 3988TIP3   OH211920   6.582   3.947   2.208
 3988TIP3    H111921   6.575   4.041   2.221
 3988TIP3    H211922   6.619   3.914   2.290
 3989TIP3   OH211923   6.314   5.534   0.826
 3989TIP3    H111924   6.282   5.455   0.783
 3989TIP3    H211925   6.310   5.513   0.920
 3990TIP3   OH211926   3.550   6.890   1.292
 3990TIP3    H111927   3.553   6.983   1.311
 3990TIP3    H211928   3.483   6.881   1.223
 3991TIP3   OH211929   0.145   5.392   4.258
 3991TIP3    H111930   0.160   5.318   4.318
 3991TIP3    H211931   0.207   5.459   4.286
 3992TIP3   OH211932   6.563   4.307   4.879
 3992TIP3    H111933   6.504   4.253   4.931
 3992TIP3    H211934   6.554   4.275   4.790
 3993TIP3   OH211935   8.229   6.071   1.898
 3993TIP3    H111936   8.255   6.163   1.903
 3993TIP3    H211937   8.258   6.033   1.982
 3994TIP3   OH211938   2.755   4.262   6.417
 3994TIP3    H111939   2.820   4.278   6.348
 3994TIP3    H211940   2.805   4.219   6.487
 3995TIP3   OH211941   1.691   7.198   4.140
 3995TIP3    H111942   1.756   7.167   4.077
 3995TIP3    H211943   1.616   7.223   4.087
 3996TIP3   OH211944   1.138   1.221   2.893
 3996TIP3    H111945   1.060   1.275   2.904
 3996TIP3    H211946   1.188   1.235   2.974
 3997TIP3   OH211947   3.702   6.164   4.880
 3997TIP3    H111948   3.630   6.226   4.891
 3997TIP3    H211949   3.682   6.093   4.941
 3998TIP3   OH211950   7.201   6.598   1.386
 3998TIP3    H111951   7.152   6.637   1.314
 3998TIP3    H211952   7.229   6.672   1.439
 3999TIP3   OH211953   2.058   3.729   2.972
 3999TIP3    H111954   2.064   3.636   2.994
 3999TIP3    H211955   2.129   3.743   2.909
 4000TIP3   OH211956   0.282   7.274   1.019
 4000TIP3    H111957   0.194   7.311   1.011
 4000TIP3    H211958   0.312   7.265   0.928
 4001TIP3   OH211959   4.638   7.018   6.122
 4001TIP3    H111960   4.625   6.924   6.137
 4001TIP3    H211961   4.729   7.034   6.148
 4002TIP3   OH211962   6.746   3.635   4.310
 4002TIP3    H111963   6.687   3.693   4.261
 4002TIP3    H211964   6.727   3.548   4.276
 4003TIP3   OH211965   8.027   1.988   0.057
 4003TIP3    H111966   8.044   1.988  -0.037
 4003TIP3    H211967   7.968   1.913   0.070
 4004TIP3   OH211968   5.417   2.714   3.962
 4004TIP3    H111969   5.423   2.664   4.043
 4004TIP3    H211970   5.451   2.801   3.985
 4005TIP3   OH211971   4.475   1.848   0.830
 4005TIP3    H111972   4.545   1.797   0.789
 4005TIP3    H211973   4.450   1.798   0.907
 4006TIP3   OH211974   2.064   2.264   2.993
 4006TIP3    H111975   2.139   2.322   2.984
 4006TIP3    H211976   2.026   2.287   3.078
 4007TIP3   OH211977   0.196   0.309   0.880
 4007TIP3    H111978   0.261   0.312   0.809
 4007TIP3    H211979   0.172   0.401   0.893
 4008TIP3   OH211980   2.966   0.655   4.463
 4008TIP3    H111981   3.006   0.575   4.427
 4008TIP3    H211982   3.012   0.726   4.419
 4009TIP3   OH211983   2.297   6.413   3.795
 4009TIP3    H111984   2.259   6.354   3.860
 4009TIP3    H211985   2.247   6.396   3.715
 4010TIP3   OH211986   3.686   2.390   1.052
 4010TIP3    H111987   3.764   2.440   1.077
 4010TIP3    H211988   3.717   2.329   0.985
 4011TIP3   OH211989   1.706   5.033   0.393
 4011TIP3    H111990   1.622   5.074   0.415
 4011TIP3    H211991   1.707   5.030   0.298
 4012TIP3   OH211992   4.282   2.324   4.400
 4012TIP3    H111993   4.341   2.397   4.420
 4012TIP3    H211994   4.281   2.272   4.481
 4013TIP3   OH211995   2.502   0.766   0.648
 4013TIP3    H111996   2.594   0.781   0.670
 4013TIP3    H211997   2.487   0.820   0.570
 4014TIP3   OH211998   3.154   5.425   5.865
 4014TIP3    H111999   3.149   5.410   5.770
 4014TIP3    H212000   3.196   5.511   5.873
 4015TIP3   OH212001   7.031   2.018   2.203
 4015TIP3    H112002   7.034   1.930   2.241
 4015TIP3    H212003   6.996   2.005   2.115
 4016TIP3   OH212004   7.532   2.967   0.796
 4016TIP3    H112005   7.497   3.023   0.726
 4016TIP3    H212006   7.625   2.988   0.799
 4017TIP3   OH212007   7.172   4.798   6.267
 4017TIP3    H112008   7.213   4.754   6.341
 4017TIP3    H212009   7.167   4.890   6.294
 4018TIP3   OH212010   6.270   6.714   6.076
 4018TIP3    H112011   6.295   6.639   6.022
 4018TIP3    H212012   6.177   6.701   6.094
 4019TIP3   OH212013   6.221   7.462   2.612
 4019TIP3    H112014   6.206   7.554   2.633
 4019TIP3    H212015   6.310   7.444   2.643
 4020TIP3   OH212016   1.976   7.481   4.020
 4020TIP3    H112017   1.959   7.559   4.073
 4020TIP3    H212018   1.977   7.409   4.082
 4021TIP3   OH212019   3.713   6.817   0.837
 4021TIP3    H112020   3.706   6.735   0.885
 4021TIP3    H212021   3.740   6.791   0.748
 4022TIP3   OH212022   3.322   7.608   4.497
 4022TIP3    H112023   3.250   7.544   4.494
 4022TIP3    H212024   3.397   7.561   4.460
 4023TIP3   OH212025   3.231   0.089   2.212
 4023TIP3    H112026   3.150   0.140   2.203
 4023TIP3    H212027   3.260   0.073   2.122
 4024TIP3   OH212028   8.213   3.306   3.165
 4024TIP3    H112029   8.160   3.227   3.155
 4024TIP3    H212030   8.300   3.273   3.190
 4025TIP3   OH212031   2.709   7.068   2.740
 4025TIP3    H112032   2.718   7.094   2.649
 4025TIP3    H212033   2.623   7.100   2.767
 4026TIP3   OH212034   7.953   5.561   5.344
 4026TIP3    H112035   7.908   5.606   5.273
 4026TIP3    H212036   8.000   5.630   5.391
 4027TIP3   OH212037   2.253   1.608   3.944
 4027TIP3    H112038   2.346   1.594   3.964
 4027TIP3    H212039   2.217   1.520   3.932
 4028TIP3   OH212040   5.936   0.425   1.959
 4028TIP3    H112041   5.891   0.362   1.903
 4028TIP3    H212042   5.939   0.505   1.907
 4029TIP3   OH212043   7.685   3.014   4.065
 4029TIP3    H112044   7.674   3.036   3.972
 4029TIP3    H212045   7.597   2.990   4.094
 4030TIP3   OH212046   1.169   0.902   3.850
 4030TIP3    H112047   1.239   0.919   3.913
 4030TIP3    H212048   1.114   0.980   3.854
 4031TIP3   OH212049   7.261   5.325   6.661
 4031TIP3    H112050   7.202   5.369   6.601
 4031TIP3    H212051   7.342   5.376   6.658
 4032TIP3   OH212052   0.726   2.386   6.547
 4032TIP3    H112053   0.780   2.348   6.478
 4032TIP3    H212054   0.700   2.472   6.512
 4033TIP3   OH212055   1.862   4.689   2.906
 4033TIP3    H112056   1.862   4.609   2.853
 4033TIP3    H212057   1.788   4.739   2.873
 4034TIP3   OH212058   5.496   4.139   2.400
 4034TIP3    H112059   5.589   4.123   2.384
 4034TIP3    H212060   5.477   4.091   2.480
 4035TIP3   OH212061   3.998   4.673   0.354
 4035TIP3    H112062   4.008   4.648   0.445
 4035TIP3    H212063   4.074   4.634   0.310
 4036TIP3   OH212064   3.636   7.076   0.913
 4036TIP3    H112065   3.663   6.985   0.927
 4036TIP3    H212066   3.704   7.128   0.958
 4037TIP3   OH212067   2.734   6.423   3.586
 4037TIP3    H112068   2.691   6.503   3.555
 4037TIP3    H212069   2.688   6.402   3.667
 4038TIP3   OH212070   7.477   5.754   1.608
 4038TIP3    H112071   7.459   5.755   1.702
 4038TIP3    H212072   7.422   5.823   1.572
 4039TIP3   OH212073   4.936   4.346   5.408
 4039TIP3    H112074   4.900   4.435   5.408
 4039TIP3    H212075   4.971   4.334   5.496
 4040TIP3   OH212076   6.536   4.591   4.932
 4040TIP3    H112077   6.553   4.514   4.878
 4040TIP3    H212078   6.511   4.555   5.017
 4041TIP3   OH212079   0.471   0.869   1.119
 4041TIP3    H112080   0.523   0.836   1.193
 4041TIP3    H212081   0.521   0.943   1.085
 4042TIP3   OH212082   1.908   6.054   5.126
 4042TIP3    H112083   1.941   6.116   5.192
 4042TIP3    H212084   1.976   6.052   5.059
 4043TIP3   OH212085   5.937   0.118   5.830
 4043TIP3    H112086   5.989   0.115   5.911
 4043TIP3    H212087   5.987   0.174   5.771
 4044TIP3   OH212088   8.202   4.659   2.234
 4044TIP3    H112089   8.144   4.583   2.236
 4044TIP3    H212090   8.290   4.623   2.248
 4045TIP3   OH212091   1.125   4.601   0.549
 4045TIP3    H112092   1.138   4.662   0.476
 4045TIP3    H212093   1.180   4.526   0.527
 4046TIP3   OH212094   8.162   7.282   5.049
 4046TIP3    H112095   8.129   7.235   4.972
 4046TIP3    H212096   8.104   7.358   5.057
 4047TIP3   OH212097   7.041   1.665   5.569
 4047TIP3    H112098   6.988   1.744   5.567
 4047TIP3    H212099   7.119   1.689   5.620
 4048TIP3   OH212100   7.457   2.715   6.724
 4048TIP3    H112101   7.411   2.756   6.798
 4048TIP3    H212102   7.390   2.662   6.680
 4049TIP3   OH212103   4.620   0.787   4.780
 4049TIP3    H112104   4.676   0.711   4.792
 4049TIP3    H212105   4.590   0.781   4.689
 4050TIP3   OH212106   1.472   5.656   3.470
 4050TIP3    H112107   1.532   5.581   3.472
 4050TIP3    H212108   1.526   5.731   3.496
 4051TIP3   OH212109   0.966   0.657   2.425
 4051TIP3    H112110   0.872   0.668   2.438
 4051TIP3    H212111   1.002   0.746   2.425
 4052TIP3   OH212112   5.458   4.366   1.528
 4052TIP3    H112113   5.508   4.287   1.505
 4052TIP3    H212114   5.427   4.349   1.617
 4053TIP3   OH212115   7.735   2.040   0.334
 4053TIP3    H112116   7.723   2.010   0.244
 4053TIP3    H212117   7.794   1.977   0.374
 4054TIP3   OH212118   7.691   5.970   2.985
 4054TIP3    H112119   7.758   5.908   2.956
 4054TIP3    H212120   7.657   5.933   3.067
 4055TIP3   OH212121   7.860   5.480   2.024
 4055TIP3    H112122   7.889   5.468   1.934
 4055TIP3    H212123   7.939   5.468   2.076
 4056TIP3   OH212124   3.748   3.698   2.824
 4056TIP3    H112125   3.720   3.642   2.752
 4056TIP3    H212126   3.668   3.720   2.870
 4057TIP3   OH212127   5.445   2.978   2.396
 4057TIP3    H112128   5.496   3.051   2.430
 4057TIP3    H212129   5.360   2.985   2.439
 4058TIP3   OH212130   1.520   3.134   5.762
 4058TIP3    H112131   1.600   3.082   5.757
 4058TIP3    H212132   1.549   3.221   5.790
 4059TIP3   OH212133   7.150   1.133   0.530
 4059TIP3    H112134   7.147   1.197   0.602
 4059TIP3    H212135   7.107   1.055   0.566
 4060TIP3   OH212136   1.327   7.003   3.037
 4060TIP3    H112137   1.288   7.087   3.061
 4060TIP3    H212138   1.397   7.027   2.976
 4061TIP3   OH212139   6.950   4.651   5.774
 4061TIP3    H112140   6.918   4.617   5.690
 4061TIP3    H212141   7.036   4.610   5.784
 4062TIP3   OH212142   5.470   3.864   6.374
 4062TIP3    H112143   5.520   3.936   6.412
 4062TIP3    H212144   5.385   3.868   6.416
 4063TIP3   OH212145   5.719   2.694   1.723
 4063TIP3    H112146   5.719   2.602   1.748
 4063TIP3    H212147   5.808   2.725   1.743
 4064TIP3   OH212148   3.024   7.472   5.049
 4064TIP3    H112149   3.101   7.525   5.030
 4064TIP3    H212150   3.030   7.452   5.142
 4065TIP3   OH212151   0.692   2.496   3.577
 4065TIP3    H112152   0.695   2.529   3.488
 4065TIP3    H212153   0.704   2.573   3.632
 4066TIP3   OH212154   2.470   4.258   2.955
 4066TIP3    H112155   2.520   4.177   2.942
 4066TIP3    H212156   2.388   4.243   2.909
 4067TIP3   OH212157   4.649   4.951   1.455
 4067TIP3    H112158   4.593   4.932   1.380
 4067TIP3    H212159   4.607   5.025   1.499
 4068TIP3   OH212160   2.107   3.248   5.798
 4068TIP3    H112161   2.020   3.268   5.764
 4068TIP3    H212162   2.093   3.237   5.892
 4069TIP3   OH212163   1.898   3.871   2.548
 4069TIP3    H112164   1.815   3.900   2.511
 4069TIP3    H212165   1.898   3.905   2.637
 4070TIP3   OH212166   3.432   6.450   2.614
 4070TIP3    H112167   3.380   6.427   2.537
 4070TIP3    H212168   3.418   6.544   2.626
 4071TIP3   OH212169   5.789   3.310   2.963
 4071TIP3    H112170   5.786   3.240   3.029
 4071TIP3    H212171   5.778   3.264   2.880
 4072TIP3   OH212172   5.565   0.055   2.860
 4072TIP3    H112173   5.476   0.020   2.863
 4072TIP3    H212174   5.617  -0.016   2.822
 4073TIP3   OH212175   1.177   2.546   1.775
 4073TIP3    H112176   1.204   2.638   1.773
 4073TIP3    H212177   1.247   2.499   1.730
 4074TIP3   OH212178   7.376   1.150   3.844
 4074TIP3    H112179   7.287   1.123   3.821
 4074TIP3    H212180   7.417   1.070   3.878
 4075TIP3   OH212181   5.953   5.850   2.127
 4075TIP3    H112182   5.860   5.845   2.104
 4075TIP3    H212183   5.993   5.896   2.053
 4076TIP3   OH212184   3.937   0.893   4.359
 4076TIP3    H112185   3.999   0.833   4.402
 4076TIP3    H212186   3.946   0.873   4.266
 4077TIP3   OH212187   8.225   5.479   1.755
 4077TIP3    H112188   8.225   5.488   1.851
 4077TIP3    H212189   8.152   5.533   1.726
 4078TIP3   OH212190   3.308   1.668   0.018
 4078TIP3    H112191   3.343   1.611   0.086
 4078TIP3    H212192   3.340   1.756   0.041
 4079TIP3   OH212193   7.456   2.537   2.715
 4079TIP3    H112194   7.425   2.466   2.658
 4079TIP3    H212195   7.551   2.532   2.710
 4080TIP3   OH212196   5.962   3.768   2.977
 4080TIP3    H112197   6.033   3.820   3.014
 4080TIP3    H212198   5.901   3.832   2.940
 4081TIP3   OH212199   6.586   6.659   5.459
 4081TIP3    H112200   6.585   6.585   5.520
 4081TIP3    H212201   6.588   6.618   5.372
 4082TIP3   OH212202   5.821   4.326   1.740
 4082TIP3    H112203   5.821   4.263   1.812
 4082TIP3    H212204   5.912   4.355   1.732
 4083TIP3   OH212205   2.591   0.253   0.663
 4083TIP3    H112206   2.579   0.258   0.758
 4083TIP3    H212207   2.685   0.260   0.651
 4084TIP3   OH212208   2.711   1.594   1.684
 4084TIP3    H112209   2.715   1.510   1.638
 4084TIP3    H212210   2.702   1.570   1.776
 4085TIP3   OH212211   1.335   0.901   2.696
 4085TIP3    H112212   1.283   0.975   2.664
 4085TIP3    H212213   1.271   0.841   2.733
 4086TIP3   OH212214   7.782   0.521   5.512
 4086TIP3    H112215   7.862   0.542   5.463
 4086TIP3    H212216   7.775   0.425   5.505
 4087TIP3   OH212217   4.399   0.982   4.503
 4087TIP3    H112218   4.436   0.899   4.530
 4087TIP3    H212219   4.473   1.032   4.468
 4088TIP3   OH212220   0.814   1.000   3.287
 4088TIP3    H112221   0.730   0.992   3.241
 4088TIP3    H212222   0.878   0.964   3.226
 4089TIP3   OH212223   3.020   5.304   2.704
 4089TIP3    H112224   3.097   5.247   2.703
 4089TIP3    H212225   3.049   5.385   2.661
 4090TIP3   OH212226   7.172   7.374   4.305
 4090TIP3    H112227   7.170   7.278   4.300
 4090TIP3    H212228   7.107   7.402   4.241
 4091TIP3   OH212229   5.147   5.845   0.750
 4091TIP3    H112230   5.107   5.769   0.793
 4091TIP3    H212231   5.241   5.831   0.762
 4092TIP3   OH212232   6.159   2.201   5.239
 4092TIP3    H112233   6.158   2.265   5.311
 4092TIP3    H212234   6.116   2.124   5.276
 4093TIP3   OH212235   2.737   2.647   5.596
 4093TIP3    H112236   2.695   2.732   5.607
 4093TIP3    H212237   2.830   2.664   5.607
 4094TIP3   OH212238   2.372   4.587   1.260
 4094TIP3    H112239   2.428   4.651   1.215
 4094TIP3    H212240   2.427   4.509   1.269
 4095TIP3   OH212241   0.135   3.979   1.843
 4095TIP3    H112242   0.213   4.028   1.816
 4095TIP3    H212243   0.097   3.947   1.761
 4096TIP3   OH212244   6.231   1.349   4.221
 4096TIP3    H112245   6.233   1.378   4.312
 4096TIP3    H212246   6.313   1.302   4.209
 4097TIP3   OH212247   7.357   3.301   1.138
 4097TIP3    H112248   7.315   3.283   1.222
 4097TIP3    H212249   7.346   3.395   1.125
 4098TIP3   OH212250   1.882   4.456   1.094
 4098TIP3    H112251   1.812   4.519   1.076
 4098TIP3    H212252   1.901   4.468   1.187
 4099TIP3   OH212253   1.789   5.269   4.622
 4099TIP3    H112254   1.708   5.256   4.672
 4099TIP3    H212255   1.759   5.282   4.532
 4100TIP3   OH212256   0.757   3.068   6.018
 4100TIP3    H112257   0.775   3.146   5.964
 4100TIP3    H212258   0.663   3.075   6.039
 4101TIP3   OH212259   6.606   6.903   2.895
 4101TIP3    H112260   6.537   6.919   2.832
 4101TIP3    H212261   6.657   6.831   2.858
 4102TIP3   OH212262   3.587   6.204   2.149
 4102TIP3    H112263   3.667   6.243   2.114
 4102TIP3    H212264   3.528   6.200   2.073
 4103TIP3   OH212265   8.193   0.578   3.188
 4103TIP3    H112266   8.131   0.521   3.234
 4103TIP3    H212267   8.148   0.602   3.107
 4104TIP3   OH212268   3.180   5.388   1.837
 4104TIP3    H112269   3.087   5.411   1.845
 4104TIP3    H212270   3.216   5.454   1.778
 4105TIP3   OH212271   4.387   5.211   0.594
 4105TIP3    H112272   4.318   5.167   0.543
 4105TIP3    H212273   4.339   5.258   0.662
 4106TIP3   OH212274   1.404   4.819   0.205
 4106TIP3    H112275   1.495   4.799   0.181
 4106TIP3    H212276   1.378   4.888   0.145
 4107TIP3   OH212277   5.955   4.217   4.766
 4107TIP3    H112278   5.957   4.309   4.790
 4107TIP3    H212279   5.909   4.174   4.838
 4108TIP3   OH212280   1.035   0.151   5.404
 4108TIP3    H112281   1.027   0.061   5.373
 4108TIP3    H212282   1.083   0.144   5.487
 4109TIP3   OH212283   5.626   3.229   0.608
 4109TIP3    H112284   5.702   3.270   0.649
 4109TIP3    H212285   5.650   3.222   0.515
 4110TIP3   OH212286   0.828   6.641   0.209
 4110TIP3    H112287   0.747   6.691   0.224
 4110TIP3    H212288   0.897   6.706   0.210
 4111TIP3   OH212289   0.406   0.583   4.196
 4111TIP3    H112290   0.335   0.592   4.260
 4111TIP3    H212291   0.448   0.500   4.218
 4112TIP3   OH212292   6.164   6.374   0.565
 4112TIP3    H112293   6.087   6.329   0.530
 4112TIP3    H212294   6.131   6.421   0.641
 4113TIP3   OH212295   4.504   2.755   1.583
 4113TIP3    H112296   4.421   2.716   1.557
 4113TIP3    H212297   4.495   2.772   1.676
 4114TIP3   OH212298   2.493   7.708   2.002
 4114TIP3    H112299   2.498   7.630   2.058
 4114TIP3    H212300   2.581   7.744   2.005
 4115TIP3   OH212301   7.216   6.913   2.191
 4115TIP3    H112302   7.189   7.001   2.218
 4115TIP3    H212303   7.142   6.857   2.217
 4116TIP3   OH212304   7.946   5.410   1.023
 4116TIP3    H112305   8.037   5.404   1.051
 4116TIP3    H212306   7.922   5.501   1.039
 4117TIP3   OH212307   2.958   6.759   5.894
 4117TIP3    H112308   3.048   6.792   5.896
 4117TIP3    H212309   2.950   6.717   5.808
 4118TIP3   OH212310   0.234   6.233   0.738
 4118TIP3    H112311   0.261   6.288   0.812
 4118TIP3    H212312   0.248   6.143   0.768
 4119TIP3   OH212313   0.538   5.325   1.360
 4119TIP3    H112314   0.466   5.387   1.359
 4119TIP3    H212315   0.609   5.369   1.313
 4120TIP3   OH212316   4.887   1.274   1.727
 4120TIP3    H112317   4.978   1.245   1.726
 4120TIP3    H212318   4.882   1.336   1.654
 4121TIP3   OH212319   0.349   2.082   6.692
 4121TIP3    H112320   0.301   2.014   6.643
 4121TIP3    H212321   0.350   2.157   6.633
 4122TIP3   OH212322   7.564   5.687   3.006
 4122TIP3    H112323   7.590   5.612   3.058
 4122TIP3    H212324   7.572   5.762   3.065
 4123TIP3   OH212325   2.763   1.222   5.035
 4123TIP3    H112326   2.776   1.183   5.121
 4123TIP3    H212327   2.671   1.249   5.034
 4124TIP3   OH212328   3.685   0.153   2.341
 4124TIP3    H112329   3.646   0.183   2.258
 4124TIP3    H212330   3.719   0.066   2.322
 4125TIP3   OH212331   6.120   2.270   4.586
 4125TIP3    H112332   6.191   2.269   4.522
 4125TIP3    H212333   6.098   2.363   4.596
 4126TIP3   OH212334   1.582   1.681   0.549
 4126TIP3    H112335   1.645   1.608   0.550
 4126TIP3    H212336   1.631   1.755   0.584
 4127TIP3   OH212337   5.266   4.608   6.112
 4127TIP3    H112338   5.347   4.589   6.159
 4127TIP3    H212339   5.206   4.540   6.141
 4128TIP3   OH212340   3.665   5.565   1.479
 4128TIP3    H112341   3.661   5.495   1.543
 4128TIP3    H212342   3.607   5.537   1.408
 4129TIP3   OH212343   1.056   2.463   1.474
 4129TIP3    H112344   1.119   2.507   1.417
 4129TIP3    H212345   1.027   2.532   1.534
 4130TIP3   OH212346   4.755   0.774   2.346
 4130TIP3    H112347   4.808   0.731   2.279
 4130TIP3    H212348   4.793   0.862   2.354
 4131TIP3   OH212349   6.438   6.824   5.625
 4131TIP3    H112350   6.480   6.762   5.566
 4131TIP3    H212351   6.418   6.774   5.703
 4132TIP3   OH212352   4.776   2.104   2.610
 4132TIP3    H112353   4.849   2.151   2.569
 4132TIP3    H212354   4.740   2.167   2.673
 4133TIP3   OH212355   6.594   4.748   2.770
 4133TIP3    H112356   6.605   4.832   2.815
 4133TIP3    H212357   6.624   4.683   2.833
 4134TIP3   OH212358   1.963   1.017   2.710
 4134TIP3    H112359   2.044   1.051   2.672
 4134TIP3    H212360   1.894   1.044   2.649
 4135TIP3   OH212361   6.116   3.519   0.721
 4135TIP3    H112362   6.095   3.469   0.800
 4135TIP3    H212363   6.108   3.610   0.747
 4136TIP3   OH212364   6.487   7.701   6.084
 4136TIP3    H112365   6.553   7.637   6.055
 4136TIP3    H212366   6.455   7.665   6.167
 4137TIP3   OH212367   1.393   1.529   0.090
 4137TIP3    H112368   1.465   1.497   0.035
 4137TIP3    H212369   1.366   1.611   0.049
 4138TIP3   OH212370   5.855   5.747   1.128
 4138TIP3    H112371   5.760   5.740   1.135
 4138TIP3    H212372   5.871   5.829   1.081
 4139TIP3   OH212373   5.392   3.479   2.093
 4139TIP3    H112374   5.332   3.455   2.023
 4139TIP3    H212375   5.335   3.508   2.164
 4140TIP3   OH212376   5.540   6.331   2.126
 4140TIP3    H112377   5.559   6.243   2.159
 4140TIP3    H212378   5.447   6.329   2.103
 4141TIP3   OH212379   0.667   1.923   3.830
 4141TIP3    H112380   0.654   1.828   3.828
 4141TIP3    H212381   0.593   1.957   3.779
 4142TIP3   OH212382   6.794   3.363   0.746
 4142TIP3    H112383   6.821   3.365   0.838
 4142TIP3    H212384   6.805   3.453   0.716
 4143TIP3   OH212385   4.638   0.387   2.659
 4143TIP3    H112386   4.613   0.374   2.568
 4143TIP3    H212387   4.731   0.365   2.662
 4144TIP3   OH212388   7.112   2.917   1.531
 4144TIP3    H112389   7.066   2.840   1.566
 4144TIP3    H212390   7.059   2.945   1.457
 4145TIP3   OH212391   4.812   4.789   1.623
 4145TIP3    H112392   4.867   4.864   1.650
 4145TIP3    H212393   4.760   4.822   1.550
 4146TIP3   OH212394   1.578   2.915   0.568
 4146TIP3    H112395   1.597   2.845   0.505
 4146TIP3    H212396   1.658   2.966   0.571
 4147TIP3   OH212397   7.702   1.172   4.506
 4147TIP3    H112398   7.616   1.169   4.463
 4147TIP3    H212399   7.753   1.104   4.463
 4148TIP3   OH212400   3.430   6.277   6.616
 4148TIP3    H112401   3.450   6.356   6.666
 4148TIP3    H212402   3.338   6.287   6.590
 4149TIP3   OH212403   1.541   3.153   1.496
 4149TIP3    H112404   1.542   3.125   1.588
 4149TIP3    H212405   1.456   3.124   1.464
 4150TIP3   OH212406   6.918   5.178   6.580
 4150TIP3    H112407   6.935   5.265   6.616
 4150TIP3    H212408   6.986   5.167   6.513
 4151TIP3   OH212409   6.969   0.441   0.227
 4151TIP3    H112410   6.988   0.458   0.135
 4151TIP3    H212411   7.056   0.437   0.269
 4152TIP3   OH212412   3.062   0.193   3.977
 4152TIP3    H112413   3.018   0.112   3.950
 4152TIP3    H212414   3.028   0.211   4.065
 4153TIP3   OH212415   1.410   0.069   1.074
 4153TIP3    H112416   1.382  -0.006   1.020
 4153TIP3    H212417   1.329   0.104   1.110
 4154TIP3   OH212418   0.204   0.863   4.031
 4154TIP3    H112419   0.227   0.770   4.032
 4154TIP3    H212420   0.117   0.866   3.993
 4155TIP3   OH212421   3.735   2.924   0.751
 4155TIP3    H112422   3.805   2.954   0.809
 4155TIP3    H212423   3.780   2.880   0.679
 4156TIP3   OH212424   4.488   1.429   3.088
 4156TIP3    H112425   4.484   1.380   3.006
 4156TIP3    H212426   4.535   1.510   3.065
 4157TIP3   OH212427   3.365   7.004   0.888
 4157TIP3    H112428   3.384   6.960   0.805
 4157TIP3    H212429   3.446   7.050   0.910
 4158TIP3   OH212430   8.143   0.388   1.804
 4158TIP3    H112431   8.071   0.410   1.745
 4158TIP3    H212432   8.148   0.292   1.801
 4159TIP3   OH212433   5.328   0.066   3.712
 4159TIP3    H112434   5.244   0.107   3.693
 4159TIP3    H212435   5.350   0.019   3.631
 4160TIP3   OH212436   6.708   0.987   5.730
 4160TIP3    H112437   6.615   1.005   5.743
 4160TIP3    H212438   6.746   0.986   5.818
 4161TIP3   OH212439   1.053   2.601   2.039
 4161TIP3    H112440   1.148   2.588   2.035
 4161TIP3    H212441   1.029   2.626   1.950
 4162TIP3   OH212442   4.266   5.076   4.930
 4162TIP3    H112443   4.312   4.994   4.913
 4162TIP3    H212444   4.316   5.117   5.001
 4163TIP3   OH212445   2.874   5.940   2.058
 4163TIP3    H112446   2.911   5.852   2.069
 4163TIP3    H212447   2.898   5.986   2.139
 4164TIP3   OH212448   3.343   6.759   0.053
 4164TIP3    H112449   3.310   6.749   0.142
 4164TIP3    H212450   3.324   6.850   0.031
 4165TIP3   OH212451   6.005   2.832   3.605
 4165TIP3    H112452   6.017   2.909   3.661
 4165TIP3    H212453   6.012   2.758   3.665
 4166TIP3   OH212454   0.356   4.987   2.217
 4166TIP3    H112455   0.272   4.948   2.244
 4166TIP3    H212456   0.419   4.917   2.230
 4167TIP3   OH212457   8.057   3.168   2.773
 4167TIP3    H112458   7.972   3.150   2.812
 4167TIP3    H212459   8.073   3.094   2.714
 4168TIP3   OH212460   1.022   6.899   6.226
 4168TIP3    H112461   0.971   6.973   6.260
 4168TIP3    H212462   1.113   6.925   6.240
 4169TIP3   OH212463   4.023   5.267   1.065
 4169TIP3    H112464   3.953   5.332   1.072
 4169TIP3    H212465   4.101   5.318   1.043
 4170TIP3   OH212466   6.191   0.049   6.557
 4170TIP3    H112467   6.197   0.067   6.650
 4170TIP3    H212468   6.116  -0.010   6.548
 4171TIP3   OH212469   3.899   0.068   1.583
 4171TIP3    H112470   3.966   0.000   1.578
 4171TIP3    H212471   3.835   0.036   1.645
 4172TIP3   OH212472   2.918   5.693   3.800
 4172TIP3    H112473   2.971   5.769   3.775
 4172TIP3    H212474   2.981   5.624   3.819
 4173TIP3   OH212475   4.713   6.407   2.019
 4173TIP3    H112476   4.731   6.475   1.955
 4173TIP3    H212477   4.726   6.325   1.971
 4174TIP3   OH212478   3.112   5.635   6.226
 4174TIP3    H112479   3.113   5.539   6.222
 4174TIP3    H212480   3.195   5.661   6.186
 4175TIP3   OH212481   0.564   2.366   4.254
 4175TIP3    H112482   0.507   2.420   4.309
 4175TIP3    H212483   0.631   2.333   4.314
 4176TIP3   OH212484   0.883   1.857   5.291
 4176TIP3    H112485   0.811   1.920   5.286
 4176TIP3    H212486   0.920   1.870   5.379
 4177TIP3   OH212487   4.732   0.126   0.972
 4177TIP3    H112488   4.697   0.073   0.900
 4177TIP3    H212489   4.660   0.135   1.033
 4178TIP3   OH212490   8.090   2.938   1.122
 4178TIP3    H112491   8.179   2.966   1.145
 4178TIP3    H212492   8.083   2.958   1.028
 4179TIP3   OH212493   2.114   5.600   3.973
 4179TIP3    H112494   2.084   5.513   3.998
 4179TIP3    H212495   2.177   5.584   3.902
 4180TIP3   OH212496   1.766   0.635   0.461
 4180TIP3    H112497   1.794   0.633   0.370
 4180TIP3    H212498   1.722   0.551   0.475
 4181TIP3   OH212499   1.820   1.065   2.096
 4181TIP3    H112500   1.896   1.038   2.045
 4181TIP3    H212501   1.856   1.117   2.168
 4182TIP3   OH212502   7.711   5.007   1.941
 4182TIP3    H112503   7.747   4.929   1.898
 4182TIP3    H212504   7.616   4.991   1.944
 4183TIP3   OH212505   4.014   7.348   4.838
 4183TIP3    H112506   4.073   7.336   4.764
 4183TIP3    H212507   4.020   7.266   4.887
 4184TIP3   OH212508   5.972   2.230   3.820
 4184TIP3    H112509   6.036   2.256   3.887
 4184TIP3    H212510   6.002   2.145   3.789
 4185TIP3   OH212511   0.844   5.815   1.561
 4185TIP3    H112512   0.906   5.748   1.592
 4185TIP3    H212513   0.853   5.887   1.622
 4186TIP3   OH212514   4.040   0.195   1.804
 4186TIP3    H112515   4.076   0.259   1.742
 4186TIP3    H212516   3.973   0.149   1.754
 4187TIP3   OH212517   7.678   6.948   6.160
 4187TIP3    H112518   7.753   6.985   6.206
 4187TIP3    H212519   7.630   6.901   6.228
 4188TIP3   OH212520   7.062   7.332  -0.008
 4188TIP3    H112521   6.985   7.312   0.045
 4188TIP3    H212522   7.098   7.412   0.031
 4189TIP3   OH212523   0.170   7.640   6.006
 4189TIP3    H112524   0.218   7.569   5.963
 4189TIP3    H212525   0.089   7.649   5.955
 4190TIP3   OH212526   5.091   4.353   0.300
 4190TIP3    H112527   5.118   4.371   0.210
 4190TIP3    H212528   5.021   4.289   0.291
 4191TIP3   OH212529   4.881   7.140   0.050
 4191TIP3    H112530   4.927   7.146   0.135
 4191TIP3    H212531   4.869   7.231   0.023
 4192TIP3   OH212532   3.268   4.887   0.981
 4192TIP3    H112533   3.356   4.895   1.018
 4192TIP3    H212534   3.258   4.964   0.925
 4193TIP3   OH212535   7.073   0.827   3.458
 4193TIP3    H112536   7.131   0.752   3.467
 4193TIP3    H212537   7.038   0.841   3.546
 4194TIP3   OH212538   3.881   4.213   1.314
 4194TIP3    H112539   3.819   4.220   1.387
 4194TIP3    H212540   3.883   4.119   1.294
 4195TIP3   OH212541   6.676   3.610   5.401
 4195TIP3    H112542   6.705   3.524   5.371
 4195TIP3    H212543   6.756   3.654   5.429
 4196TIP3   OH212544   3.223   1.420   1.773
 4196TIP3    H112545   3.195   1.488   1.834
 4196TIP3    H212546   3.142   1.382   1.740
 4197TIP3   OH212547   2.741   1.721   3.124
 4197TIP3    H112548   2.817   1.666   3.141
 4197TIP3    H212549   2.711   1.748   3.211
 4198TIP3   OH212550   1.376   4.752   6.268
 4198TIP3    H112551   1.294   4.789   6.235
 4198TIP3    H212552   1.383   4.666   6.225
 4199TIP3   OH212553   7.146   5.737   5.188
 4199TIP3    H112554   7.091   5.659   5.181
 4199TIP3    H212555   7.153   5.752   5.282
 4200TIP3   OH212556   3.043   5.634   0.476
 4200TIP3    H112557   3.041   5.589   0.392
 4200TIP3    H212558   3.008   5.570   0.538
 4201TIP3   OH212559   4.077   2.449   4.964
 4201TIP3    H112560   4.149   2.460   5.026
 4201TIP3    H212561   4.109   2.485   4.882
 4202TIP3   OH212562   4.608   6.400   5.781
 4202TIP3    H112563   4.700   6.424   5.789
 4202TIP3    H212564   4.588   6.412   5.688
 4203TIP3   OH212565   3.168   3.773   0.595
 4203TIP3    H112566   3.097   3.836   0.610
 4203TIP3    H212567   3.247   3.820   0.621
 4204TIP3   OH212568   0.607   3.107   4.747
 4204TIP3    H112569   0.526   3.132   4.792
 4204TIP3    H212570   0.650   3.047   4.808
 4205TIP3   OH212571   1.631   2.358   2.423
 4205TIP3    H112572   1.627   2.263   2.413
 4205TIP3    H212573   1.539   2.386   2.417
 4206TIP3   OH212574   5.246   3.296   5.858
 4206TIP3    H112575   5.326   3.266   5.815
 4206TIP3    H212576   5.221   3.375   5.810
 4207TIP3   OH212577   2.676   0.347   6.147
 4207TIP3    H112578   2.760   0.384   6.173
 4207TIP3    H212579   2.626   0.340   6.228
 4208TIP3   OH212580   6.806   5.407   1.432
 4208TIP3    H112581   6.826   5.328   1.482
 4208TIP3    H212582   6.721   5.390   1.392
 4209TIP3   OH212583   5.073   5.136   1.049
 4209TIP3    H112584   5.144   5.119   0.987
 4209TIP3    H212585   5.100   5.214   1.097
 4210TIP3   OH212586   6.245   3.417   3.089
 4210TIP3    H112587   6.205   3.504   3.090
 4210TIP3    H212588   6.240   3.390   2.997
 4211TIP3   OH212589   3.399   1.547   0.541
 4211TIP3    H112590   3.313   1.567   0.577
 4211TIP3    H212591   3.382   1.516   0.452
 4212TIP3   OH212592   4.355   1.729   1.040
 4212TIP3    H112593   4.370   1.635   1.030
 4212TIP3    H212594   4.282   1.735   1.101
 4213TIP3   OH212595   6.953   6.068   4.650
 4213TIP3    H112596   6.882   6.124   4.620
 4213TIP3    H212597   6.983   6.109   4.732
 4214TIP3   OH212598   4.067   5.320   4.607
 4214TIP3    H112599   4.022   5.305   4.524
 4214TIP3    H212600   4.146   5.267   4.601
 4215TIP3   OH212601   7.052   3.821   5.325
 4215TIP3    H112602   7.072   3.914   5.323
 4215TIP3    H212603   7.014   3.803   5.239
 4216TIP3   OH212604   1.689   4.460   0.231
 4216TIP3    H112605   1.764   4.406   0.254
 4216TIP3    H212606   1.630   4.454   0.306
 4217TIP3   OH212607   6.952   2.721   1.643
 4217TIP3    H112608   6.934   2.633   1.610
 4217TIP3    H212609   6.871   2.748   1.686
 4218TIP3   OH212610   8.304   2.895   5.707
 4218TIP3    H112611   8.238   2.827   5.710
 4218TIP3    H212612   8.367   2.871   5.775
 4219TIP3   OH212613   3.848   4.154   3.797
 4219TIP3    H112614   3.786   4.163   3.725
 4219TIP3    H212615   3.860   4.243   3.830
 4220TIP3   OH212616   5.152   0.792   0.571
 4220TIP3    H112617   5.194   0.725   0.518
 4220TIP3    H212618   5.154   0.871   0.516
 4221TIP3   OH212619   8.266   0.154   0.872
 4221TIP3    H112620   8.334   0.214   0.903
 4221TIP3    H212621   8.199   0.211   0.836
 4222TIP3   OH212622   7.631   5.220   2.117
 4222TIP3    H112623   7.648   5.147   2.058
 4222TIP3    H212624   7.621   5.179   2.203
 4223TIP3   OH212625   2.132   7.113   3.879
 4223TIP3    H112626   2.048   7.099   3.923
 4223TIP3    H212627   2.112   7.101   3.786
 4224TIP3   OH212628   6.524   6.481   5.266
 4224TIP3    H112629   6.521   6.531   5.184
 4224TIP3    H212630   6.435   6.490   5.302
 4225TIP3   OH212631   1.117   7.228   0.934
 4225TIP3    H112632   1.101   7.154   0.992
 4225TIP3    H212633   1.155   7.190   0.855
 4226TIP3   OH212634   6.147   0.571   3.940
 4226TIP3    H112635   6.128   0.487   3.898
 4226TIP3    H212636   6.161   0.550   4.032
 4227TIP3   OH212637   7.552   7.119   5.072
 4227TIP3    H112638   7.597   7.069   5.004
 4227TIP3    H212639   7.562   7.066   5.151
 4228TIP3   OH212640   3.089   2.734   0.574
 4228TIP3    H112641   3.018   2.790   0.542
 4228TIP3    H212642   3.169   2.785   0.559
 4229TIP3   OH212643   5.575   1.419   1.765
 4229TIP3    H112644   5.619   1.438   1.682
 4229TIP3    H212645   5.610   1.484   1.826
 4230TIP3   OH212646   7.221   1.955   1.811
 4230TIP3    H112647   7.243   1.887   1.875
 4230TIP3    H212648   7.267   2.033   1.842
 4231TIP3   OH212649   1.411   0.643   3.830
 4231TIP3    H112650   1.392   0.598   3.912
 4231TIP3    H212651   1.461   0.720   3.856
 4232TIP3   OH212652   5.750   7.284   5.438
 4232TIP3    H112653   5.818   7.347   5.413
 4232TIP3    H212654   5.777   7.253   5.524
 4233TIP3   OH212655   4.527   7.592   6.316
 4233TIP3    H112656   4.432   7.580   6.315
 4233TIP3    H212657   4.562   7.512   6.276
 4234TIP3   OH212658   5.970   7.440   5.429
 4234TIP3    H112659   6.030   7.514   5.421
 4234TIP3    H212660   6.022   7.371   5.470
 4235TIP3   OH212661   0.673   4.475   2.474
 4235TIP3    H112662   0.702   4.566   2.479
 4235TIP3    H212663   0.729   4.435   2.408
 4236TIP3   OH212664   0.166   3.391   0.487
 4236TIP3    H112665   0.173   3.339   0.567
 4236TIP3    H212666   0.216   3.341   0.422
 4237TIP3   OH212667   6.164   4.170   0.295
 4237TIP3    H112668   6.156   4.251   0.345
 4237TIP3    H212669   6.168   4.198   0.204
 4238TIP3   OH212670   2.275   4.871   0.593
 4238TIP3    H112671   2.321   4.800   0.548
 4238TIP3    H212672   2.256   4.935   0.524
 4239TIP3   OH212673   8.105   0.761   2.425
 4239TIP3    H112674   8.142   0.848   2.411
 4239TIP3    H212675   8.180   0.702   2.419
 4240TIP3   OH212676   6.913   6.429   3.950
 4240TIP3    H112677   6.942   6.514   3.984
 4240TIP3    H212678   6.941   6.429   3.859
 4241TIP3   OH212679   6.019   7.519   6.060
 4241TIP3    H112680   6.069   7.438   6.072
 4241TIP3    H212681   5.929   7.495   6.083
 4242TIP3   OH212682   0.946   3.360   0.248
 4242TIP3    H112683   0.978   3.407   0.171
 4242TIP3    H212684   1.026   3.331   0.293
 4243TIP3   OH212685   4.806   1.423   3.849
 4243TIP3    H112686   4.744   1.429   3.776
 4243TIP3    H212687   4.778   1.491   3.910
 4244TIP3   OH212688   2.180   0.794   0.351
 4244TIP3    H112689   2.114   0.768   0.416
 4244TIP3    H212690   2.222   0.870   0.390
 4245TIP3   OH212691   8.212   0.205   2.891
 4245TIP3    H112692   8.250   0.252   2.966
 4245TIP3    H212693   8.200   0.272   2.824
 4246TIP3   OH212694   3.199   4.813   3.082
 4246TIP3    H112695   3.188   4.871   3.158
 4246TIP3    H212696   3.275   4.848   3.037
 4247TIP3   OH212697   7.978   0.969   1.343
 4247TIP3    H112698   7.988   1.063   1.329
 4247TIP3    H212699   8.061   0.932   1.313
 4248TIP3   OH212700   7.834   2.772   2.662
 4248TIP3    H112701   7.901   2.796   2.726
 4248TIP3    H212702   7.844   2.677   2.651
 4249TIP3   OH212703   1.623   6.801   5.860
 4249TIP3    H112704   1.659   6.715   5.841
 4249TIP3    H212705   1.532   6.797   5.829
 4250TIP3   OH212706   2.773   5.626   0.124
 4250TIP3    H112707   2.863   5.595   0.131
 4250TIP3    H212708   2.721   5.547   0.108
 4251TIP3   OH212709   8.144   7.775   5.679
 4251TIP3    H112710   8.208   7.842   5.656
 4251TIP3    H212711   8.131   7.785   5.773
 4252TIP3   OH212712   3.510   5.270   0.015
 4252TIP3    H112713   3.510   5.258   0.110
 4252TIP3    H212714   3.548   5.189  -0.019
 4253TIP3   OH212715   7.111   1.013   2.225
 4253TIP3    H112716   7.163   1.062   2.288
 4253TIP3    H212717   7.149   1.035   2.140
 4254TIP3   OH212718   5.633   0.919   4.816
 4254TIP3    H112719   5.626   0.824   4.812
 4254TIP3    H212720   5.596   0.949   4.733
 4255TIP3   OH212721   3.513   6.102   5.671
 4255TIP3    H112722   3.571   6.161   5.622
 4255TIP3    H212723   3.431   6.103   5.621
 4256TIP3   OH212724   5.990   1.660   5.570
 4256TIP3    H112725   5.943   1.738   5.601
 4256TIP3    H212726   6.003   1.676   5.476
 4257TIP3   OH212727   6.708   5.364   5.358
 4257TIP3    H112728   6.654   5.362   5.437
 4257TIP3    H212729   6.655   5.319   5.292
 4258TIP3   OH212730   3.348   4.401   2.614
 4258TIP3    H112731   3.263   4.387   2.573
 4258TIP3    H212732   3.406   4.425   2.541
 4259TIP3   OH212733   3.386   6.259   1.944
 4259TIP3    H112734   3.317   6.308   1.900
 4259TIP3    H212735   3.451   6.242   1.875
 4260TIP3   OH212736   0.237   6.122   1.127
 4260TIP3    H112737   0.251   6.216   1.115
 4260TIP3    H212738   0.297   6.080   1.065
 4261TIP3   OH212739   0.917   5.768   6.447
 4261TIP3    H112740   0.847   5.774   6.383
 4261TIP3    H212741   0.872   5.756   6.531
 4262TIP3   OH212742   0.188   3.775   4.208
 4262TIP3    H112743   0.277   3.785   4.242
 4262TIP3    H212744   0.200   3.738   4.120
 4263TIP3   OH212745   7.688   2.284   4.802
 4263TIP3    H112746   7.656   2.230   4.874
 4263TIP3    H212747   7.618   2.280   4.737
 4264TIP3   OH212748   1.765   7.806   4.576
 4264TIP3    H112749   1.762   7.767   4.664
 4264TIP3    H212750   1.674   7.831   4.558
 4265TIP3   OH212751   1.361   1.483   3.963
 4265TIP3    H112752   1.278   1.487   3.914
 4265TIP3    H212753   1.347   1.540   4.038
 4266TIP3   OH212754   4.314   4.092   0.802
 4266TIP3    H112755   4.248   4.059   0.863
 4266TIP3    H212756   4.342   4.015   0.753
 4267TIP3   OH212757   7.119   5.346   6.413
 4267TIP3    H112758   7.151   5.375   6.328
 4267TIP3    H212759   7.071   5.421   6.447
 4268TIP3   OH212760   8.266   3.716   3.506
 4268TIP3    H112761   8.338   3.675   3.555
 4268TIP3    H212762   8.197   3.650   3.505
 4269TIP3   OH212763   6.804   1.250   0.464
 4269TIP3    H112764   6.818   1.340   0.494
 4269TIP3    H212765   6.873   1.236   0.399
 4270TIP3   OH212766   7.202   2.956   5.303
 4270TIP3    H112767   7.283   2.974   5.255
 4270TIP3    H212768   7.231   2.920   5.387
 4271TIP3   OH212769   3.400   5.429   0.256
 4271TIP3    H112770   3.380   5.517   0.224
 4271TIP3    H212771   3.320   5.379   0.242
 4272TIP3   OH212772   2.068   5.784   3.489
 4272TIP3    H112773   2.039   5.834   3.565
 4272TIP3    H212774   2.117   5.847   3.435
 4273TIP3   OH212775   6.630   1.756   1.848
 4273TIP3    H112776   6.635   1.851   1.840
 4273TIP3    H212777   6.652   1.723   1.760
 4274TIP3   OH212778   4.486   0.320   5.647
 4274TIP3    H112779   4.394   0.317   5.673
 4274TIP3    H212780   4.535   0.311   5.728
 4275TIP3   OH212781   6.485   4.123   6.445
 4275TIP3    H112782   6.522   4.129   6.533
 4275TIP3    H212783   6.528   4.193   6.395
 4276TIP3   OH212784   0.902   0.822   5.389
 4276TIP3    H112785   0.815   0.810   5.427
 4276TIP3    H212786   0.903   0.763   5.314
 4277TIP3   OH212787   5.175   1.191   0.108
 4277TIP3    H112788   5.237   1.239   0.052
 4277TIP3    H212789   5.116   1.148   0.047
 4278TIP3   OH212790   2.970   0.635   3.565
 4278TIP3    H112791   2.890   0.671   3.604
 4278TIP3    H212792   2.987   0.556   3.616
 4279TIP3   OH212793   6.362   4.261   4.260
 4279TIP3    H112794   6.415   4.337   4.285
 4279TIP3    H212795   6.413   4.185   4.288
 4280TIP3   OH212796   7.636   4.746   0.087
 4280TIP3    H112797   7.565   4.784   0.139
 4280TIP3    H212798   7.662   4.815   0.027
 4281TIP3   OH212799   5.897   1.520   2.497
 4281TIP3    H112800   5.918   1.427   2.485
 4281TIP3    H212801   5.805   1.520   2.522
 4282TIP3   OH212802   6.931   6.429   0.613
 4282TIP3    H112803   7.011   6.459   0.570
 4282TIP3    H212804   6.861   6.479   0.571
 4283TIP3   OH212805   7.552   0.508   1.553
 4283TIP3    H112806   7.505   0.549   1.625
 4283TIP3    H212807   7.625   0.567   1.534
 4284TIP3   OH212808   5.329   1.963   4.887
 4284TIP3    H112809   5.353   1.945   4.978
 4284TIP3    H212810   5.377   2.043   4.866
 4285TIP3   OH212811   0.577   3.928   5.233
 4285TIP3    H112812   0.573   3.841   5.195
 4285TIP3    H212813   0.624   3.917   5.316
 4286TIP3   OH212814   3.075   2.469   1.714
 4286TIP3    H112815   3.084   2.440   1.804
 4286TIP3    H212816   2.993   2.431   1.683
 4287TIP3   OH212817   0.921   2.444   0.162
 4287TIP3    H112818   0.988   2.418   0.225
 4287TIP3    H212819   0.881   2.522   0.199
 4288TIP3   OH212820   3.976   6.109   3.333
 4288TIP3    H112821   4.008   6.191   3.295
 4288TIP3    H212822   3.881   6.121   3.339
 4289TIP3   OH212823   7.267   2.322   5.882
 4289TIP3    H112824   7.200   2.330   5.814
 4289TIP3    H212825   7.229   2.367   5.958
 4290TIP3   OH212826   0.607   0.964   0.634
 4290TIP3    H112827   0.620   0.869   0.631
 4290TIP3    H212828   0.645   0.995   0.551
 4291TIP3   OH212829   6.640   4.919   2.428
 4291TIP3    H112830   6.556   4.948   2.391
 4291TIP3    H212831   6.678   4.997   2.467
 4292TIP3   OH212832   6.168   0.321   2.310
 4292TIP3    H112833   6.160   0.255   2.379
 4292TIP3    H212834   6.121   0.284   2.235
 4293TIP3   OH212835   0.498   5.612   4.736
 4293TIP3    H112836   0.420   5.575   4.693
 4293TIP3    H212837   0.558   5.630   4.664
 4294TIP3   OH212838   7.065   5.913   4.177
 4294TIP3    H112839   7.089   5.854   4.248
 4294TIP3    H212840   7.006   5.977   4.218
 4295TIP3   OH212841   7.421   4.351   0.095
 4295TIP3    H112842   7.477   4.404   0.152
 4295TIP3    H212843   7.332   4.364   0.129
 4296TIP3   OH212844   5.559   6.633   3.335
 4296TIP3    H112845   5.542   6.667   3.423
 4296TIP3    H212846   5.515   6.548   3.334
 4297TIP3   OH212847   2.249   4.827   0.978
 4297TIP3    H112848   2.292   4.912   0.987
 4297TIP3    H212849   2.318   4.770   0.943
 4298TIP3   OH212850   2.415   4.046   6.734
 4298TIP3    H112851   2.355   4.092   6.794
 4298TIP3    H212852   2.402   4.090   6.650
 4299TIP3   OH212853   5.805   6.931   5.457
 4299TIP3    H112854   5.736   6.994   5.476
 4299TIP3    H212855   5.780   6.852   5.504
 4300TIP3   OH212856   5.457   4.952   1.384
 4300TIP3    H112857   5.450   4.996   1.469
 4300TIP3    H212858   5.510   4.874   1.402
 4301TIP3   OH212859   0.754   6.447   5.262
 4301TIP3    H112860   0.779   6.359   5.288
 4301TIP3    H212861   0.727   6.438   5.170
 4302TIP3   OH212862   0.376   0.888   6.522
 4302TIP3    H112863   0.399   0.826   6.591
 4302TIP3    H212864   0.417   0.853   6.443
 4303TIP3   OH212865   1.389   0.774   0.511
 4303TIP3    H112866   1.320   0.727   0.558
 4303TIP3    H212867   1.345   0.849   0.472
 4304TIP3   OH212868   5.043   2.205   4.447
 4304TIP3    H112869   5.128   2.238   4.476
 4304TIP3    H212870   5.063   2.124   4.400
 4305TIP3   OH212871   3.073   0.512   2.204
 4305TIP3    H112872   3.146   0.469   2.248
 4305TIP3    H212873   3.112   0.584   2.155
 4306TIP3   OH212874   6.480   1.889   2.726
 4306TIP3    H112875   6.484   1.850   2.639
 4306TIP3    H212876   6.399   1.940   2.726
 4307TIP3   OH212877   4.392   3.983   6.523
 4307TIP3    H112878   4.462   4.024   6.473
 4307TIP3    H212879   4.391   4.030   6.607
 4308TIP3   OH212880   1.297   5.940   0.299
 4308TIP3    H112881   1.327   6.005   0.363
 4308TIP3    H212882   1.318   5.855   0.339
 4309TIP3   OH212883   3.291   5.464   6.641
 4309TIP3    H112884   3.219   5.512   6.601
 4309TIP3    H212885   3.255   5.433   6.725
 4310TIP3   OH212886   3.549   5.591   5.930
 4310TIP3    H112887   3.544   5.639   5.848
 4310TIP3    H212888   3.597   5.511   5.908
 4311TIP3   OH212889   5.478   0.783   4.369
 4311TIP3    H112890   5.444   0.745   4.289
 4311TIP3    H212891   5.401   0.804   4.422
 4312TIP3   OH212892   1.568   3.624   4.807
 4312TIP3    H112893   1.627   3.562   4.763
 4312TIP3    H212894   1.531   3.575   4.880
 4313TIP3   OH212895   8.042   1.308   6.658
 4313TIP3    H112896   8.084   1.308   6.572
 4313TIP3    H212897   8.044   1.216   6.685
 4314TIP3   OH212898   3.870   7.672   5.165
 4314TIP3    H112899   3.950   7.707   5.204
 4314TIP3    H212900   3.873   7.699   5.073
 4315TIP3   OH212901   4.715   2.552   4.389
 4315TIP3    H112902   4.631   2.585   4.420
 4315TIP3    H212903   4.693   2.490   4.319
 4316TIP3   OH212904   6.531   2.209   3.101
 4316TIP3    H112905   6.566   2.221   3.013
 4316TIP3    H212906   6.572   2.129   3.133
 4317TIP3   OH212907   0.398   3.196   3.354
 4317TIP3    H112908   0.377   3.266   3.293
 4317TIP3    H212909   0.328   3.198   3.418
 4318TIP3   OH212910   3.565   3.287   1.728
 4318TIP3    H112911   3.471   3.297   1.716
 4318TIP3    H212912   3.590   3.216   1.669
 4319TIP3   OH212913   7.133   2.283   3.290
 4319TIP3    H112914   7.146   2.284   3.196
 4319TIP3    H212915   7.220   2.300   3.327
 4320TIP3   OH212916   3.567   6.628   5.517
 4320TIP3    H112917   3.575   6.705   5.460
 4320TIP3    H212918   3.651   6.582   5.508
 4321TIP3   OH212919   5.364   6.981   1.024
 4321TIP3    H112920   5.333   6.987   0.934
 4321TIP3    H212921   5.290   6.944   1.073
 4322TIP3   OH212922   0.725   4.046   0.033
 4322TIP3    H112923   0.783   3.971   0.023
 4322TIP3    H212924   0.783   4.122   0.024
 4323TIP3   OH212925   7.753   2.633   1.647
 4323TIP3    H112926   7.780   2.670   1.563
 4323TIP3    H212927   7.673   2.682   1.670
 4324TIP3   OH212928   1.272   5.272   1.006
 4324TIP3    H112929   1.281   5.318   0.923
 4324TIP3    H212930   1.313   5.330   1.070
 4325TIP3   OH212931   6.863   1.486   5.493
 4325TIP3    H112932   6.905   1.408   5.457
 4325TIP3    H212933   6.935   1.542   5.520
 4326TIP3   OH212934   3.966   3.577   1.481
 4326TIP3    H112935   3.899   3.638   1.452
 4326TIP3    H212936   3.917   3.501   1.512
 4327TIP3   OH212937   7.282   1.961   5.913
 4327TIP3    H112938   7.337   2.010   5.852
 4327TIP3    H212939   7.196   1.960   5.872
 4328TIP3   OH212940   4.355   2.426   3.431
 4328TIP3    H112941   4.315   2.340   3.440
 4328TIP3    H212942   4.444   2.408   3.400
 4329TIP3   OH212943   6.147   5.509   6.224
 4329TIP3    H112944   6.218   5.572   6.210
 4329TIP3    H212945   6.095   5.546   6.295
 4330TIP3   OH212946   5.136   2.722   1.463
 4330TIP3    H112947   5.207   2.714   1.399
 4330TIP3    H212948   5.064   2.671   1.426
 4331TIP3   OH212949   2.534   4.076   0.282
 4331TIP3    H112950   2.548   3.993   0.329
 4331TIP3    H212951   2.449   4.065   0.239
 4332TIP3   OH212952   7.552   0.350   6.568
 4332TIP3    H112953   7.502   0.394   6.499
 4332TIP3    H212954   7.614   0.295   6.521
 4333TIP3   OH212955   3.432   6.453   5.864
 4333TIP3    H112956   3.369   6.486   5.928
 4333TIP3    H212957   3.387   6.459   5.780
 4334TIP3   OH212958   2.178   0.372   2.552
 4334TIP3    H112959   2.083   0.380   2.549
 4334TIP3    H212960   2.195   0.279   2.568
 4335TIP3   OH212961   4.982   5.476   2.940
 4335TIP3    H112962   4.944   5.393   2.911
 4335TIP3    H212963   5.067   5.452   2.977
 4336TIP3   OH212964   6.803   0.260   0.875
 4336TIP3    H112965   6.720   0.238   0.833
 4336TIP3    H212966   6.828   0.344   0.837
 4337TIP3   OH212967   3.389   4.195   6.014
 4337TIP3    H112968   3.353   4.112   6.045
 4337TIP3    H212969   3.318   4.258   6.026
 4338TIP3   OH212970   4.375   5.779   0.474
 4338TIP3    H112971   4.468   5.795   0.455
 4338TIP3    H212972   4.328   5.831   0.408
 4339TIP3   OH212973   2.801   7.735   1.285
 4339TIP3    H112974   2.792   7.794   1.360
 4339TIP3    H212975   2.734   7.669   1.299
 4340TIP3   OH212976   3.095   4.521   2.123
 4340TIP3    H112977   3.047   4.572   2.188
 4340TIP3    H212978   3.104   4.434   2.162
 4341TIP3   OH212979   2.174   2.983   5.717
 4341TIP3    H112980   2.158   3.075   5.736
 4341TIP3    H212981   2.269   2.974   5.724
 4342TIP3   OH212982   3.191   7.190   6.089
 4342TIP3    H112983   3.179   7.209   5.997
 4342TIP3    H212984   3.112   7.143   6.116
 4343TIP3   OH212985   4.558   2.907   4.342
 4343TIP3    H112986   4.636   2.961   4.351
 4343TIP3    H212987   4.502   2.934   4.416
 4344TIP3   OH212988   0.588   5.958   5.623
 4344TIP3    H112989   0.574   5.896   5.551
 4344TIP3    H212990   0.614   5.904   5.697
 4345TIP3   OH212991   6.305   7.108   4.616
 4345TIP3    H112992   6.365   7.063   4.675
 4345TIP3    H212993   6.228   7.051   4.612
 4346TIP3   OH212994   2.757   2.926   2.025
 4346TIP3    H112995   2.754   2.861   1.955
 4346TIP3    H212996   2.692   2.895   2.089
 4347TIP3   OH212997   4.282   6.040   5.581
 4347TIP3    H112998   4.283   6.129   5.546
 4347TIP3    H212999   4.219   6.043   5.653
 4348TIP3   OH213000   4.604   6.320   3.057
 4348TIP3    H113001   4.671   6.259   3.026
 4348TIP3    H213002   4.610   6.316   3.152
 4349TIP3   OH213003   7.599   2.839   0.314
 4349TIP3    H113004   7.522   2.894   0.302
 4349TIP3    H213005   7.654   2.887   0.375
 4350TIP3   OH213006   2.131   4.763   5.323
 4350TIP3    H113007   2.165   4.827   5.260
 4350TIP3    H213008   2.139   4.678   5.278
 4351TIP3   OH213009   6.191   1.466   6.758
 4351TIP3    H113010   6.152   1.528   6.697
 4351TIP3    H213011   6.121   1.447   6.820
 4352TIP3   OH213012   4.598   0.011   5.988
 4352TIP3    H113013   4.641   0.041   6.068
 4352TIP3    H213014   4.536  -0.055   6.016
 4353TIP3   OH213015   0.028   5.269   0.045
 4353TIP3    H113016   0.091   5.293   0.113
 4353TIP3    H213017   0.063   5.189   0.006
 4354TIP3   OH213018   0.648   5.338   2.728
 4354TIP3    H113019   0.688   5.405   2.784
 4354TIP3    H213020   0.660   5.256   2.776
 4355TIP3   OH213021   7.043   4.923   5.203
 4355TIP3    H113022   7.055   4.967   5.287
 4355TIP3    H213023   6.949   4.929   5.186
 4356TIP3   OH213024   5.598   2.931   4.896
 4356TIP3    H113025   5.627   3.001   4.837
 4356TIP3    H213026   5.678   2.906   4.944
 4357TIP3   OH213027   2.869   7.540   0.223
 4357TIP3    H113028   2.947   7.497   0.189
 4357TIP3    H213029   2.808   7.468   0.241
 4358TIP3   OH213030   6.900   4.236   3.577
 4358TIP3    H113031   6.809   4.247   3.549
 4358TIP3    H213032   6.941   4.185   3.507
 4359TIP3   OH213033   2.759   5.838   5.090
 4359TIP3    H113034   2.770   5.878   5.177
 4359TIP3    H213035   2.666   5.817   5.085
 4360TIP3   OH213036   1.272   2.975   5.785
 4360TIP3    H113037   1.286   2.903   5.845
 4360TIP3    H213038   1.359   3.016   5.775
 4361TIP3   OH213039   2.725   5.983   4.163
 4361TIP3    H113040   2.635   6.018   4.170
 4361TIP3    H213041   2.725   5.933   4.082
 4362TIP3   OH213042   4.806   7.227   1.392
 4362TIP3    H113043   4.805   7.241   1.487
 4362TIP3    H213044   4.884   7.273   1.362
 4363TIP3   OH213045   1.855   7.766   5.137
 4363TIP3    H113046   1.926   7.819   5.173
 4363TIP3    H213047   1.848   7.692   5.197
 4364TIP3   OH213048   4.263   5.276   0.185
 4364TIP3    H113049   4.334   5.315   0.236
 4364TIP3    H213050   4.183   5.309   0.226
 4365TIP3   OH213051   2.372   3.614   1.032
 4365TIP3    H113052   2.363   3.653   1.119
 4365TIP3    H213053   2.298   3.554   1.025
 4366TIP3   OH213054   2.151   0.200   6.058
 4366TIP3    H113055   2.092   0.228   6.128
 4366TIP3    H213056   2.238   0.229   6.087
 4367TIP3   OH213057   1.990   5.468   4.608
 4367TIP3    H113058   1.934   5.391   4.620
 4367TIP3    H213059   2.018   5.463   4.517
 4368TIP3   OH213060   0.394   4.727   4.073
 4368TIP3    H113061   0.416   4.775   3.993
 4368TIP3    H213062   0.440   4.774   4.142
 4369TIP3   OH213063   2.540   4.098   5.309
 4369TIP3    H113064   2.631   4.120   5.290
 4369TIP3    H213065   2.541   4.072   5.402
 4370TIP3   OH213066   1.275   7.099   3.863
 4370TIP3    H113067   1.361   7.074   3.896
 4370TIP3    H213068   1.224   7.117   3.942
 4371TIP3   OH213069   0.696   1.383   1.520
 4371TIP3    H113070   0.667   1.298   1.487
 4371TIP3    H213071   0.758   1.415   1.454
 4372TIP3   OH213072   6.873   4.910   3.217
 4372TIP3    H113073   6.920   4.831   3.244
 4372TIP3    H213074   6.924   4.944   3.143
 4373TIP3   OH213075   6.947   1.634   5.203
 4373TIP3    H113076   6.934   1.694   5.130
 4373TIP3    H213077   6.867   1.643   5.255
 4374TIP3   OH213078   7.868   2.946   0.023
 4374TIP3    H113079   7.803   2.882  -0.005
 4374TIP3    H213080   7.917   2.902   0.092
 4375TIP3   OH213081   3.782   0.021   3.361
 4375TIP3    H113082   3.780   0.081   3.286
 4375TIP3    H213083   3.867  -0.021   3.357
 4376TIP3   OH213084   6.771   2.220   0.044
 4376TIP3    H113085   6.809   2.253  -0.038
 4376TIP3    H213086   6.680   2.199   0.021
 4377TIP3   OH213087   5.793   4.139   6.361
 4377TIP3    H113088   5.738   4.066   6.390
 4377TIP3    H213089   5.731   4.207   6.336
 4378TIP3   OH213090   6.499   5.738   0.905
 4378TIP3    H113091   6.522   5.713   0.815
 4378TIP3    H213092   6.403   5.728   0.908
 4379TIP3   OH213093   4.209   0.278   2.828
 4379TIP3    H113094   4.148   0.205   2.820
 4379TIP3    H213095   4.239   0.294   2.739
 4380TIP3   OH213096   5.906   3.540   6.420
 4380TIP3    H113097   5.909   3.486   6.341
 4380TIP3    H213098   5.813   3.548   6.440
 4381TIP3   OH213099   6.479   1.873   6.774
 4381TIP3    H113100   6.531   1.800   6.807
 4381TIP3    H213101   6.532   1.912   6.705
 4382TIP3   OH213102   6.421   4.840   3.059
 4382TIP3    H113103   6.340   4.874   3.097
 4382TIP3    H213104   6.480   4.915   3.056
 4383TIP3   OH213105   7.566   1.077   1.892
 4383TIP3    H113106   7.516   1.031   1.960
 4383TIP3    H213107   7.574   1.013   1.821
 4384TIP3   OH213108   2.681   2.063   3.203
 4384TIP3    H113109   2.665   2.000   3.133
 4384TIP3    H213110   2.637   2.143   3.174
 4385TIP3   OH213111   6.535   3.489   5.739
 4385TIP3    H113112   6.615   3.539   5.754
 4385TIP3    H213113   6.550   3.443   5.656
 4386TIP3   OH213114   4.030   4.234   4.111
 4386TIP3    H113115   3.936   4.220   4.104
 4386TIP3    H213116   4.040   4.329   4.120
 4387TIP3   OH213117   2.246   2.332   3.619
 4387TIP3    H113118   2.283   2.348   3.532
 4387TIP3    H213119   2.306   2.268   3.659
 4388TIP3   OH213120   4.058   7.598   2.744
 4388TIP3    H113121   4.110   7.566   2.818
 4388TIP3    H213122   4.094   7.553   2.668
 4389TIP3   OH213123   3.690   3.564   4.504
 4389TIP3    H113124   3.696   3.514   4.422
 4389TIP3    H213125   3.601   3.599   4.503
 4390TIP3   OH213126   5.314   2.588   4.623
 4390TIP3    H113127   5.277   2.672   4.593
 4390TIP3    H213128   5.400   2.611   4.657
 4391TIP3   OH213129   2.519   3.838   2.633
 4391TIP3    H113130   2.608   3.844   2.596
 4391TIP3    H213131   2.472   3.911   2.593
 4392TIP3   OH213132   2.822   2.417   1.960
 4392TIP3    H113133   2.754   2.369   2.006
 4392TIP3    H213134   2.783   2.441   1.876
 4393TIP3   OH213135   1.261   3.145   1.349
 4393TIP3    H113136   1.226   3.227   1.384
 4393TIP3    H213137   1.273   3.163   1.255
 4394TIP3   OH213138   3.915   5.942   2.475
 4394TIP3    H113139   3.962   5.925   2.393
 4394TIP3    H213140   3.856   6.014   2.453
 4395TIP3   OH213141   3.112   6.219   3.009
 4395TIP3    H113142   3.093   6.237   3.101
 4395TIP3    H213143   3.174   6.146   3.011
 4396TIP3   OH213144   4.541   3.470   5.693
 4396TIP3    H113145   4.562   3.527   5.767
 4396TIP3    H213146   4.457   3.504   5.661
 4397TIP3   OH213147   2.116   5.823   0.186
 4397TIP3    H113148   2.099   5.842   0.094
 4397TIP3    H213149   2.029   5.814   0.225
 4398TIP3   OH213150   1.721   6.414   0.525
 4398TIP3    H113151   1.781   6.368   0.584
 4398TIP3    H213152   1.638   6.367   0.535
 4399TIP3   OH213153   6.477   3.716   3.215
 4399TIP3    H113154   6.472   3.762   3.131
 4399TIP3    H213155   6.386   3.691   3.233
 4400TIP3   OH213156   0.329   3.216   4.778
 4400TIP3    H113157   0.308   3.187   4.867
 4400TIP3    H213158   0.246   3.212   4.731
 4401TIP3   OH213159   1.144   5.337   1.546
 4401TIP3    H113160   1.237   5.316   1.534
 4401TIP3    H213161   1.104   5.254   1.572
 4402TIP3   OH213162   4.816   7.241   4.113
 4402TIP3    H113163   4.888   7.202   4.162
 4402TIP3    H213164   4.738   7.220   4.164
 4403TIP3   OH213165   2.504   7.546   4.342
 4403TIP3    H113166   2.413   7.537   4.314
 4403TIP3    H213167   2.499   7.583   4.430
 4404TIP3   OH213168   6.073   2.291   0.471
 4404TIP3    H113169   6.054   2.303   0.564
 4404TIP3    H213170   6.128   2.366   0.448
 4405TIP3   OH213171   1.969   6.781   1.884
 4405TIP3    H113172   1.955   6.758   1.793
 4405TIP3    H213173   1.887   6.823   1.911
 4406TIP3   OH213174   2.906   1.091   1.698
 4406TIP3    H113175   2.815   1.115   1.715
 4406TIP3    H213176   2.955   1.171   1.717
 4407TIP3   OH213177   3.465   0.515   3.427
 4407TIP3    H113178   3.390   0.474   3.383
 4407TIP3    H213179   3.465   0.478   3.515
 4408TIP3   OH213180   2.639   7.288   4.255
 4408TIP3    H113181   2.694   7.287   4.334
 4408TIP3    H213182   2.582   7.364   4.268
 4409TIP3   OH213183   8.018   5.104   3.370
 4409TIP3    H113184   8.059   5.030   3.325
 4409TIP3    H213185   8.087   5.171   3.373
 4410TIP3   OH213186   1.397   3.932   2.321
 4410TIP3    H113187   1.321   3.887   2.284
 4410TIP3    H213188   1.370   4.024   2.325
 4411TIP3   OH213189   0.869   3.645   5.039
 4411TIP3    H113190   0.907   3.726   5.074
 4411TIP3    H213191   0.854   3.590   5.115
 4412TIP3   OH213192   0.469   3.687   5.930
 4412TIP3    H113193   0.564   3.672   5.935
 4412TIP3    H213194   0.450   3.743   6.005
 4413TIP3   OH213195   3.159   2.119   6.673
 4413TIP3    H113196   3.226   2.059   6.705
 4413TIP3    H213197   3.197   2.157   6.593
 4414TIP3   OH213198   1.786   5.668   5.868
 4414TIP3    H113199   1.733   5.594   5.840
 4414TIP3    H213200   1.762   5.681   5.960
 4415TIP3   OH213201   2.551   5.918   5.337
 4415TIP3    H113202   2.462   5.884   5.339
 4415TIP3    H213203   2.605   5.846   5.370
 4416TIP3   OH213204   4.443   6.138   2.806
 4416TIP3    H113205   4.391   6.208   2.846
 4416TIP3    H213206   4.448   6.070   2.873
 4417TIP3   OH213207   6.018   5.684   4.098
 4417TIP3    H113208   5.976   5.736   4.029
 4417TIP3    H213209   5.961   5.694   4.174
 4418TIP3   OH213210   0.536   4.321   2.271
 4418TIP3    H113211   0.544   4.306   2.365
 4418TIP3    H213212   0.609   4.379   2.249
 4419TIP3   OH213213   5.998   3.868   6.516
 4419TIP3    H113214   6.024   3.817   6.439
 4419TIP3    H213215   5.944   3.808   6.567
 4420TIP3   OH213216   7.560   4.038   1.151
 4420TIP3    H113217   7.637   4.020   1.098
 4420TIP3    H213218   7.539   4.130   1.133
 4421TIP3   OH213219   5.416   4.788   3.622
 4421TIP3    H113220   5.450   4.877   3.610
 4421TIP3    H213221   5.493   4.732   3.617
 4422TIP3   OH213222   1.775   7.801   4.875
 4422TIP3    H113223   1.738   7.886   4.899
 4422TIP3    H213224   1.819   7.771   4.955
 4423TIP3   OH213225   2.593   4.720   5.864
 4423TIP3    H113226   2.511   4.765   5.843
 4423TIP3    H213227   2.634   4.775   5.931
 4424TIP3   OH213228   5.844   2.564   1.421
 4424TIP3    H113229   5.826   2.478   1.382
 4424TIP3    H213230   5.758   2.599   1.442
 4425TIP3   OH213231   5.680   0.767   5.893
 4425TIP3    H113232   5.618   0.702   5.926
 4425TIP3    H213233   5.750   0.768   5.958
 4426TIP3   OH213234   4.549   1.940   4.824
 4426TIP3    H113235   4.639   1.964   4.844
 4426TIP3    H213236   4.499   1.968   4.901
 4427TIP3   OH213237   4.145   6.365   0.620
 4427TIP3    H113238   4.113   6.419   0.692
 4427TIP3    H213239   4.228   6.329   0.652
 4428TIP3   OH213240   3.486   1.321   2.891
 4428TIP3    H113241   3.567   1.274   2.872
 4428TIP3    H213242   3.449   1.341   2.805
 4429TIP3   OH213243   6.863   7.757   3.456
 4429TIP3    H113244   6.827   7.669   3.464
 4429TIP3    H213245   6.790   7.810   3.423
 4430TIP3   OH213246   6.516   4.383   6.304
 4430TIP3    H113247   6.526   4.457   6.245
 4430TIP3    H213248   6.436   4.339   6.274
 4431TIP3   OH213249   8.132   0.750   3.825
 4431TIP3    H113250   8.061   0.812   3.841
 4431TIP3    H213251   8.165   0.775   3.738
 4432TIP3   OH213252   5.853   4.025   4.981
 4432TIP3    H113253   5.851   4.080   5.059
 4432TIP3    H213254   5.761   4.008   4.962
 4433TIP3   OH213255   0.276   7.659   5.085
 4433TIP3    H113256   0.262   7.569   5.056
 4433TIP3    H213257   0.225   7.713   5.024
 4434TIP3   OH213258   2.780   2.648   5.143
 4434TIP3    H113259   2.719   2.633   5.070
 4434TIP3    H213260   2.757   2.581   5.207
 4435TIP3   OH213261   6.422   6.893   4.304
 4435TIP3    H113262   6.435   6.874   4.397
 4435TIP3    H213263   6.488   6.840   4.260
 4436TIP3   OH213264   6.390   0.215   1.291
 4436TIP3    H113265   6.363   0.146   1.231
 4436TIP3    H213266   6.481   0.234   1.267
 4437TIP3   OH213267   5.429   7.630   4.038
 4437TIP3    H113268   5.368   7.685   4.088
 4437TIP3    H213269   5.473   7.576   4.105
 4438TIP3   OH213270   2.974   7.466   2.623
 4438TIP3    H113271   2.909   7.467   2.553
 4438TIP3    H213272   2.995   7.374   2.635
 4439TIP3   OH213273   0.141   4.519   1.728
 4439TIP3    H113274   0.196   4.557   1.659
 4439TIP3    H213275   0.203   4.471   1.784
 4440TIP3   OH213276   2.220   5.875   4.898
 4440TIP3    H113277   2.164   5.941   4.855
 4440TIP3    H213278   2.300   5.875   4.847
 4441TIP3   OH213279   6.181   3.692   3.246
 4441TIP3    H113280   6.117   3.688   3.317
 4441TIP3    H213281   6.152   3.765   3.192
 4442TIP3   OH213282   4.558   0.723   1.107
 4442TIP3    H113283   4.624   0.789   1.086
 4442TIP3    H213284   4.482   0.773   1.137
 4443TIP3   OH213285   8.162   5.494   1.161
 4443TIP3    H113286   8.184   5.586   1.175
 4443TIP3    H213287   8.238   5.458   1.114
 4444TIP3   OH213288   5.986   3.546   4.031
 4444TIP3    H113289   6.033   3.475   4.072
 4444TIP3    H213290   5.893   3.524   4.042
 4445TIP3   OH213291   0.176   4.426   6.616
 4445TIP3    H113292   0.181   4.330   6.611
 4445TIP3    H213293   0.238   4.449   6.685
 4446TIP3   OH213294   4.007   7.555   3.389
 4446TIP3    H113295   3.934   7.583   3.333
 4446TIP3    H213296   4.066   7.631   3.390
 4447TIP3   OH213297   1.175   4.825   3.792
 4447TIP3    H113298   1.208   4.836   3.882
 4447TIP3    H213299   1.155   4.914   3.763
 4448TIP3   OH213300   3.911   4.862   2.662
 4448TIP3    H113301   3.879   4.937   2.712
 4448TIP3    H213302   3.876   4.786   2.709
 4449TIP3   OH213303   5.268   4.129   1.453
 4449TIP3    H113304   5.193   4.115   1.395
 4449TIP3    H213305   5.341   4.149   1.394
 4450TIP3   OH213306   7.069   3.522   4.564
 4450TIP3    H113307   6.980   3.496   4.541
 4450TIP3    H213308   7.064   3.545   4.657
 4451TIP3   OH213309   1.631   5.124   2.641
 4451TIP3    H113310   1.591   5.141   2.555
 4451TIP3    H213311   1.567   5.155   2.704
 4452TIP3   OH213312   5.605   4.046   6.108
 4452TIP3    H113313   5.671   4.104   6.069
 4452TIP3    H213314   5.568   4.098   6.179
 4453TIP3   OH213315   2.673   6.743   5.876
 4453TIP3    H113316   2.769   6.746   5.883
 4453TIP3    H213317   2.651   6.819   5.822
 4454TIP3   OH213318   8.185   5.496   4.978
 4454TIP3    H113319   8.176   5.433   4.907
 4454TIP3    H213320   8.252   5.460   5.035
 4455TIP3   OH213321   5.707   3.111   3.642
 4455TIP3    H113322   5.739   3.045   3.704
 4455TIP3    H213323   5.614   3.117   3.661
 4456TIP3   OH213324   3.298   3.265   1.596
 4456TIP3    H113325   3.250   3.186   1.621
 4456TIP3    H213326   3.308   3.258   1.501
 4457TIP3   OH213327   6.002   3.448   1.661
 4457TIP3    H113328   6.028   3.540   1.649
 4457TIP3    H213329   6.035   3.404   1.583
 4458TIP3   OH213330   7.413   4.694   2.088
 4458TIP3    H113331   7.443   4.635   2.019
 4458TIP3    H213332   7.324   4.665   2.108
 4459TIP3   OH213333   6.953   7.555   1.989
 4459TIP3    H113334   7.042   7.543   2.020
 4459TIP3    H213335   6.903   7.580   2.066
 4460TIP3   OH213336   4.273   5.073   5.836
 4460TIP3    H113337   4.272   4.977   5.836
 4460TIP3    H213338   4.181   5.097   5.824
 4461TIP3   OH213339   6.097   0.472   5.193
 4461TIP3    H113340   6.149   0.393   5.208
 4461TIP3    H213341   6.161   0.543   5.193
 4462TIP3   OH213342   3.360   5.977   1.416
 4462TIP3    H113343   3.287   5.997   1.357
 4462TIP3    H213344   3.327   5.996   1.503
 4463TIP3   OH213345   7.026   1.114   3.967
 4463TIP3    H113346   7.011   1.020   3.974
 4463TIP3    H213347   6.949   1.147   3.921
 4464TIP3   OH213348   2.833   4.358   6.000
 4464TIP3    H113349   2.822   4.447   6.033
 4464TIP3    H213350   2.744   4.325   5.989
 4465TIP3   OH213351   3.302   4.563   3.628
 4465TIP3    H113352   3.384   4.536   3.587
 4465TIP3    H213353   3.312   4.541   3.720
 4466TIP3   OH213354   5.728   2.248   5.010
 4466TIP3    H113355   5.691   2.196   5.082
 4466TIP3    H213356   5.656   2.255   4.947
 4467TIP3   OH213357   4.110   2.144   2.889
 4467TIP3    H113358   4.091   2.129   2.982
 4467TIP3    H213359   4.064   2.073   2.844
 4468TIP3   OH213360   2.638   2.653   0.108
 4468TIP3    H113361   2.624   2.568   0.148
 4468TIP3    H213362   2.723   2.645   0.064
 4469TIP3   OH213363   0.389   5.118   2.764
 4469TIP3    H113364   0.431   5.035   2.788
 4469TIP3    H213365   0.330   5.137   2.837
 4470TIP3   OH213366   7.840   4.062   5.316
 4470TIP3    H113367   7.807   4.044   5.228
 4470TIP3    H213368   7.787   4.136   5.347
 4471TIP3   OH213369   5.563   4.781   3.169
 4471TIP3    H113370   5.603   4.700   3.137
 4471TIP3    H213371   5.613   4.803   3.248
 4472TIP3   OH213372   1.240   1.606   1.579
 4472TIP3    H113373   1.174   1.672   1.558
 4472TIP3    H213374   1.315   1.656   1.610
 4473TIP3   OH213375   1.886   4.674   5.790
 4473TIP3    H113376   1.912   4.585   5.813
 4473TIP3    H213377   1.939   4.696   5.714
 4474TIP3   OH213378   8.172   6.078   3.736
 4474TIP3    H113379   8.104   6.027   3.779
 4474TIP3    H213380   8.253   6.032   3.755
 4475TIP3   OH213381   0.020   2.892   1.281
 4475TIP3    H113382   0.016   2.877   1.375
 4475TIP3    H213383   0.016   2.805   1.242
 4476TIP3   OH213384   3.000   4.962   1.379
 4476TIP3    H113385   3.035   5.028   1.320
 4476TIP3    H213386   2.958   4.898   1.322
 4477TIP3   OH213387   1.681   4.117   1.419
 4477TIP3    H113388   1.607   4.090   1.364
 4477TIP3    H213389   1.758   4.105   1.363
 4478TIP3   OH213390   0.763   6.914   2.865
 4478TIP3    H113391   0.835   6.877   2.916
 4478TIP3    H213392   0.782   6.888   2.775
 4479TIP3   OH213393   6.575   0.680   4.293
 4479TIP3    H113394   6.524   0.603   4.315
 4479TIP3    H213395   6.666   0.656   4.313
 4480TIP3   OH213396   6.676   6.558   3.450
 4480TIP3    H113397   6.722   6.597   3.376
 4480TIP3    H213398   6.584   6.560   3.425
 4481TIP3   OH213399   5.146   2.684   6.254
 4481TIP3    H113400   5.123   2.764   6.207
 4481TIP3    H213401   5.242   2.683   6.255
 4482TIP3   OH213402   7.442   4.755   2.507
 4482TIP3    H113403   7.425   4.668   2.541
 4482TIP3    H213404   7.400   4.814   2.569
 4483TIP3   OH213405   3.547   6.495   0.517
 4483TIP3    H113406   3.513   6.431   0.580
 4483TIP3    H213407   3.514   6.579   0.548
 4484TIP3   OH213408   3.874   5.778   4.772
 4484TIP3    H113409   3.906   5.694   4.740
 4484TIP3    H213410   3.912   5.786   4.859
 4485TIP3   OH213411   5.613   1.854   4.884
 4485TIP3    H113412   5.545   1.791   4.908
 4485TIP3    H213413   5.648   1.884   4.968
 4486TIP3   OH213414   0.675   1.168   3.913
 4486TIP3    H113415   0.602   1.112   3.942
 4486TIP3    H213416   0.739   1.106   3.878
 4487TIP3   OH213417   1.910   1.102   4.104
 4487TIP3    H113418   1.952   1.020   4.130
 4487TIP3    H213419   1.817   1.079   4.096
 4488TIP3   OH213420   4.087   4.056   5.454
 4488TIP3    H113421   4.169   4.081   5.412
 4488TIP3    H213422   4.045   3.996   5.392
 4489TIP3   OH213423   2.508   5.716   2.975
 4489TIP3    H113424   2.472   5.654   3.039
 4489TIP3    H213425   2.574   5.765   3.023
 4490TIP3   OH213426   5.781   0.680   4.961
 4490TIP3    H113427   5.844   0.727   5.015
 4490TIP3    H213428   5.807   0.700   4.871
 4491TIP3   OH213429   7.091   3.609   2.060
 4491TIP3    H113430   7.170   3.659   2.038
 4491TIP3    H213431   7.118   3.518   2.057
 4492TIP3   OH213432   4.000   0.771   1.388
 4492TIP3    H113433   4.087   0.734   1.400
 4492TIP3    H213434   4.014   0.866   1.386
 4493TIP3   OH213435   5.873   1.887   5.690
 4493TIP3    H113436   5.832   1.822   5.747
 4493TIP3    H213437   5.894   1.960   5.748
 4494TIP3   OH213438   4.943   3.948   2.964
 4494TIP3    H113439   4.880   3.903   2.908
 4494TIP3    H213440   4.889   4.002   3.022
 4495TIP3   OH213441   1.590   2.403   3.222
 4495TIP3    H113442   1.522   2.336   3.235
 4495TIP3    H213443   1.661   2.376   3.280
 4496TIP3   OH213444   0.912   0.249   2.718
 4496TIP3    H113445   0.991   0.303   2.712
 4496TIP3    H213446   0.844   0.300   2.673
 4497TIP3   OH213447   1.229   5.638   5.210
 4497TIP3    H113448   1.188   5.552   5.212
 4497TIP3    H213449   1.286   5.636   5.133
 4498TIP3   OH213450   0.614   5.943   1.278
 4498TIP3    H113451   0.683   5.988   1.326
 4498TIP3    H213452   0.553   5.913   1.345
 4499TIP3   OH213453   7.111   2.626   3.661
 4499TIP3    H113454   7.050   2.569   3.616
 4499TIP3    H213455   7.096   2.712   3.623
 4500TIP3   OH213456   4.318   6.350   5.708
 4500TIP3    H113457   4.321   6.342   5.612
 4500TIP3    H213458   4.391   6.297   5.739
 4501TIP3   OH213459   1.735   1.882   1.938
 4501TIP3    H113460   1.757   1.945   1.869
 4501TIP3    H213461   1.814   1.877   1.992
 4502TIP3   OH213462   0.178   3.919   1.183
 4502TIP3    H113463   0.111   3.908   1.251
 4502TIP3    H213464   0.260   3.929   1.233
 4503TIP3   OH213465   0.641   3.753   4.912
 4503TIP3    H113466   0.578   3.708   4.968
 4503TIP3    H213467   0.726   3.726   4.945
 4504TIP3   OH213468   7.057   0.783   6.227
 4504TIP3    H113469   6.969   0.819   6.217
 4504TIP3    H213470   7.099   0.800   6.143
 4505TIP3   OH213471   2.588   4.453   1.145
 4505TIP3    H113472   2.661   4.467   1.206
 4505TIP3    H213473   2.616   4.496   1.065
 4506TIP3   OH213474   4.549   7.201   3.542
 4506TIP3    H113475   4.584   7.122   3.583
 4506TIP3    H213476   4.614   7.269   3.561
 4507TIP3   OH213477   7.082   4.930   1.334
 4507TIP3    H113478   7.087   4.879   1.253
 4507TIP3    H213479   7.148   4.998   1.324
 4508TIP3   OH213480   0.038   0.589   2.856
 4508TIP3    H113481  -0.019   0.657   2.890
 4508TIP3    H213482   0.072   0.626   2.774
 4509TIP3   OH213483   4.090   0.996   1.128
 4509TIP3    H113484   4.000   1.029   1.129
 4509TIP3    H213485   4.119   1.003   1.218
 4510TIP3   OH213486   0.777   3.531   5.517
 4510TIP3    H113487   0.754   3.440   5.500
 4510TIP3    H213488   0.786   3.537   5.612
 4511TIP3   OH213489   3.584   1.654   3.910
 4511TIP3    H113490   3.610   1.730   3.859
 4511TIP3    H213491   3.502   1.680   3.952
 4512TIP3   OH213492   2.727   7.496   3.045
 4512TIP3    H113493   2.764   7.538   3.122
 4512TIP3    H213494   2.642   7.538   3.033
 4513TIP3   OH213495   5.056   0.431   1.199
 4513TIP3    H113496   4.997   0.361   1.226
 4513TIP3    H213497   5.118   0.440   1.270
 4514TIP3   OH213498   0.472   3.193   2.951
 4514TIP3    H113499   0.473   3.111   3.000
 4514TIP3    H213500   0.476   3.261   3.019
 4515TIP3   OH213501   4.198   3.303   0.286
 4515TIP3    H113502   4.285   3.343   0.279
 4515TIP3    H213503   4.159   3.316   0.200
 4516TIP3   OH213504   3.110   0.881   1.577
 4516TIP3    H113505   3.075   0.825   1.647
 4516TIP3    H213506   3.049   0.954   1.571
 4517TIP3   OH213507   6.773   6.723   3.942
 4517TIP3    H113508   6.730   6.800   3.905
 4517TIP3    H213509   6.763   6.655   3.874
 4518TIP3   OH213510   5.247   0.622   2.878
 4518TIP3    H113511   5.178   0.611   2.813
 4518TIP3    H213512   5.204   0.666   2.951
 4519TIP3   OH213513   2.739   0.372   4.696
 4519TIP3    H113514   2.793   0.410   4.765
 4519TIP3    H213515   2.662   0.337   4.742
 4520TIP3   OH213516   5.412   7.102   5.242
 4520TIP3    H113517   5.373   7.118   5.328
 4520TIP3    H213518   5.368   7.024   5.209
 4521TIP3   OH213519   2.071   4.561   0.901
 4521TIP3    H113520   2.089   4.525   0.814
 4521TIP3    H213521   2.027   4.489   0.947
 4522TIP3   OH213522   5.388   4.155   5.070
 4522TIP3    H113523   5.431   4.224   5.020
 4522TIP3    H213524   5.294   4.167   5.053
 4523TIP3   OH213525   2.326   0.734   0.868
 4523TIP3    H113526   2.386   0.672   0.911
 4523TIP3    H213527   2.373   0.762   0.789
 4524TIP3   OH213528   0.436   5.065   5.286
 4524TIP3    H113529   0.415   5.040   5.197
 4524TIP3    H213530   0.390   5.149   5.299
 4525TIP3   OH213531   7.637   7.304   5.501
 4525TIP3    H113532   7.634   7.370   5.570
 4525TIP3    H213533   7.587   7.341   5.429
 4526TIP3   OH213534   4.931   3.276   5.121
 4526TIP3    H113535   4.893   3.212   5.181
 4526TIP3    H213536   4.869   3.349   5.121
 4527TIP3   OH213537   6.325   7.740   5.200
 4527TIP3    H113538   6.327   7.821   5.148
 4527TIP3    H213539   6.318   7.670   5.136
 4528TIP3   OH213540   1.505   7.456   5.203
 4528TIP3    H113541   1.498   7.546   5.235
 4528TIP3    H213542   1.589   7.424   5.236
 4529TIP3   OH213543   1.333   1.818   4.671
 4529TIP3    H113544   1.422   1.786   4.687
 4529TIP3    H213545   1.338   1.912   4.686
 4530TIP3   OH213546   6.001   0.127   4.838
 4530TIP3    H113547   5.970   0.203   4.789
 4530TIP3    H213548   5.975   0.052   4.785
 4531TIP3   OH213549   4.242   6.805   6.458
 4531TIP3    H113550   4.248   6.722   6.411
 4531TIP3    H213551   4.263   6.871   6.393
 4532TIP3   OH213552   6.726   5.958   3.979
 4532TIP3    H113553   6.811   5.983   4.015
 4532TIP3    H213554   6.733   5.972   3.885
 4533TIP3   OH213555   0.107   6.151   0.113
 4533TIP3    H113556   0.045   6.162   0.041
 4533TIP3    H213557   0.063   6.089   0.172
 4534TIP3   OH213558   5.223   3.059   4.944
 4534TIP3    H113559   5.195   3.151   4.935
 4534TIP3    H213560   5.260   3.037   4.859
 4535TIP3   OH213561   7.534   6.432   6.615
 4535TIP3    H113562   7.464   6.367   6.621
 4535TIP3    H213563   7.595   6.397   6.551
 4536TIP3   OH213564   1.237   1.276   4.792
 4536TIP3    H113565   1.194   1.331   4.727
 4536TIP3    H213566   1.287   1.338   4.845
 4537TIP3   OH213567   6.779   3.995   2.766
 4537TIP3    H113568   6.739   4.011   2.852
 4537TIP3    H213569   6.842   4.067   2.756
 4538TIP3   OH213570   0.590   7.805   6.641
 4538TIP3    H113571   0.626   7.872   6.699
 4538TIP3    H213572   0.653   7.801   6.569
 4539TIP3   OH213573   6.135   0.533   2.486
 4539TIP3    H113574   6.126   0.489   2.401
 4539TIP3    H213575   6.045   0.547   2.515
 4540TIP3   OH213576   0.663   0.688   0.976
 4540TIP3    H113577   0.602   0.640   0.919
 4540TIP3    H213578   0.615   0.697   1.059
 4541TIP3   OH213579  -0.017   1.901   6.115
 4541TIP3    H113580   0.044   1.967   6.081
 4541TIP3    H213581   0.038   1.825   6.133
 4542TIP3   OH213582   6.355   5.623   4.442
 4542TIP3    H113583   6.397   5.663   4.518
 4542TIP3    H213584   6.354   5.693   4.376
 4543TIP3   OH213585   1.918   4.367   1.741
 4543TIP3    H113586   1.997   4.329   1.779
 4543TIP3    H213587   1.919   4.339   1.650
 4544TIP3   OH213588   6.206   0.353   3.794
 4544TIP3    H113589   6.235   0.344   3.703
 4544TIP3    H213590   6.280   0.319   3.845
 4545TIP3   OH213591   6.215   2.040   6.399
 4545TIP3    H113592   6.305   2.038   6.432
 4545TIP3    H213593   6.161   2.035   6.478
 4546TIP3   OH213594   5.304   3.414   3.557
 4546TIP3    H113595   5.347   3.484   3.507
 4546TIP3    H213596   5.306   3.338   3.499
 4547TIP3   OH213597   1.881   6.343   4.256
 4547TIP3    H113598   1.848   6.258   4.283
 4547TIP3    H213599   1.957   6.359   4.312
 4548TIP3   OH213600   6.288   6.563   2.692
 4548TIP3    H113601   6.221   6.590   2.629
 4548TIP3    H213602   6.294   6.468   2.681
 4549TIP3   OH213603   4.482   3.210   1.941
 4549TIP3    H113604   4.485   3.161   2.024
 4549TIP3    H213605   4.553   3.274   1.950
 4550TIP3   OH213606   0.600   6.981   4.321
 4550TIP3    H113607   0.545   7.051   4.356
 4550TIP3    H213608   0.627   7.012   4.234
 4551TIP3   OH213609   2.393   1.840   0.441
 4551TIP3    H113610   2.480   1.801   0.431
 4551TIP3    H213611   2.380   1.843   0.536
 4552TIP3   OH213612   7.275   0.807   1.608
 4552TIP3    H113613   7.220   0.841   1.679
 4552TIP3    H213614   7.302   0.884   1.559
 4553TIP3   OH213615   5.012   6.078   6.464
 4553TIP3    H113616   4.988   5.994   6.425
 4553TIP3    H213617   4.935   6.134   6.451
 4554TIP3   OH213618   4.667   4.694   4.086
 4554TIP3    H113619   4.674   4.734   3.999
 4554TIP3    H213620   4.700   4.762   4.145
 4555TIP3   OH213621   0.744   6.361   4.367
 4555TIP3    H113622   0.726   6.410   4.447
 4555TIP3    H213623   0.722   6.271   4.388
 4556TIP3   OH213624   0.053   1.734   1.289
 4556TIP3    H113625   0.024   1.685   1.366
 4556TIP3    H213626  -0.027   1.751   1.240
 4557TIP3   OH213627   1.106   4.549   4.049
 4557TIP3    H113628   1.111   4.550   3.953
 4557TIP3    H213629   1.058   4.629   4.071
 4558TIP3   OH213630   1.244   0.441   2.278
 4558TIP3    H113631   1.171   0.399   2.324
 4558TIP3    H213632   1.305   0.465   2.347
 4559TIP3   OH213633   0.239   1.661   3.141
 4559TIP3    H113634   0.212   1.599   3.074
 4559TIP3    H213635   0.325   1.630   3.171
 4560TIP3   OH213636   4.966   2.228   2.367
 4560TIP3    H113637   5.043   2.282   2.355
 4560TIP3    H213638   4.893   2.290   2.369
 4561TIP3   OH213639   0.299   1.864   0.639
 4561TIP3    H113640   0.281   1.957   0.653
 4561TIP3    H213641   0.391   1.861   0.612
 4562TIP3   OH213642   1.493   6.193   0.021
 4562TIP3    H113643   1.462   6.128  -0.042
 4562TIP3    H213644   1.588   6.195   0.010
 4563TIP3   OH213645   2.716   7.283   0.251
 4563TIP3    H113646   2.641   7.229   0.226
 4563TIP3    H213647   2.792   7.233   0.221
 4564TIP3   OH213648   7.650   1.412   0.829
 4564TIP3    H113649   7.699   1.334   0.855
 4564TIP3    H213650   7.712   1.484   0.841
 4565TIP3   OH213651   2.816   3.040   6.711
 4565TIP3    H113652   2.889   3.084   6.755
 4565TIP3    H213653   2.737   3.082   6.747
 4566TIP3   OH213654   6.304   4.843   3.435
 4566TIP3    H113655   6.286   4.937   3.430
 4566TIP3    H213656   6.399   4.835   3.423
 4567TIP3   OH213657   0.702   1.847   6.493
 4567TIP3    H113658   0.628   1.907   6.501
 4567TIP3    H213659   0.779   1.903   6.494
 4568TIP3   OH213660   0.176   7.711   1.349
 4568TIP3    H113661   0.216   7.657   1.280
 4568TIP3    H213662   0.096   7.664   1.372
 4569TIP3   OH213663   1.065   6.904   1.560
 4569TIP3    H113664   1.033   6.814   1.568
 4569TIP3    H213665   1.006   6.945   1.496
 4570TIP3   OH213666   7.314   3.639   5.100
 4570TIP3    H113667   7.314   3.555   5.054
 4570TIP3    H213668   7.238   3.685   5.066
 4571TIP3   OH213669   2.270   3.336   1.628
 4571TIP3    H113670   2.250   3.409   1.570
 4571TIP3    H213671   2.336   3.285   1.580
 4572TIP3   OH213672   4.734   5.932   5.680
 4572TIP3    H113673   4.644   5.900   5.687
 4572TIP3    H213674   4.743   5.994   5.753
 4573TIP3   OH213675   4.736   3.664   1.308
 4573TIP3    H113676   4.803   3.715   1.355
 4573TIP3    H213677   4.714   3.718   1.232
 4574TIP3   OH213678   2.206   7.194   2.704
 4574TIP3    H113679   2.149   7.269   2.688
 4574TIP3    H213680   2.172   7.125   2.647
 4575TIP3   OH213681   1.644   3.866   5.598
 4575TIP3    H113682   1.608   3.778   5.586
 4575TIP3    H213683   1.577   3.912   5.649
 4576TIP3   OH213684   7.155   3.149   2.232
 4576TIP3    H113685   7.062   3.147   2.210
 4576TIP3    H213686   7.158   3.189   2.319
 4577TIP3   OH213687   3.501   1.219   2.049
 4577TIP3    H113688   3.443   1.143   2.057
 4577TIP3    H213689   3.537   1.213   1.961
 4578TIP3   OH213690   4.729   1.620   6.684
 4578TIP3    H113691   4.697   1.673   6.758
 4578TIP3    H213692   4.747   1.684   6.615
 4579TIP3   OH213693   5.935   3.015   4.098
 4579TIP3    H113694   5.995   3.000   4.171
 4579TIP3    H213695   5.961   2.950   4.033
 4580TIP3   OH213696   1.944   6.287   0.952
 4580TIP3    H113697   2.038   6.298   0.967
 4580TIP3    H213698   1.926   6.198   0.982
 4581TIP3   OH213699   7.649   1.136   3.209
 4581TIP3    H113700   7.614   1.209   3.159
 4581TIP3    H213701   7.736   1.165   3.237
 4582TIP3   OH213702   0.004   1.650   5.863
 4582TIP3    H113703   0.002   1.665   5.769
 4582TIP3    H213704   0.073   1.707   5.896
 4583TIP3   OH213705   1.387   4.573   5.141
 4583TIP3    H113706   1.403   4.667   5.149
 4583TIP3    H213707   1.292   4.564   5.137
 4584TIP3   OH213708   1.676   4.742   0.167
 4584TIP3    H113709   1.762   4.759   0.206
 4584TIP3    H213710   1.656   4.652   0.193
 4585TIP3   OH213711   8.124   2.692   6.710
 4585TIP3    H113712   8.090   2.757   6.648
 4585TIP3    H213713   8.173   2.743   6.774
 4586TIP3   OH213714   8.010   4.125   4.953
 4586TIP3    H113715   8.020   4.100   4.861
 4586TIP3    H213716   8.006   4.041   5.000
 4587TIP3   OH213717   3.463   0.405   5.828
 4587TIP3    H113718   3.556   0.406   5.853
 4587TIP3    H213719   3.461   0.449   5.743
 4588TIP3   OH213720   6.733   5.030   0.423
 4588TIP3    H113721   6.717   5.029   0.329
 4588TIP3    H213722   6.714   5.120   0.450
 4589TIP3   OH213723   4.743   5.246   2.315
 4589TIP3    H113724   4.662   5.254   2.365
 4589TIP3    H213725   4.781   5.334   2.316
 4590TIP3   OH213726   5.738   6.838   5.187
 4590TIP3    H113727   5.652   6.799   5.172
 4590TIP3    H213728   5.751   6.829   5.282
 4591TIP3   OH213729   4.859   5.307   2.723
 4591TIP3    H113730   4.939   5.257   2.711
 4591TIP3    H213731   4.790   5.251   2.687
 4592TIP3   OH213732   6.084   3.862   5.670
 4592TIP3    H113733   6.106   3.836   5.581
 4592TIP3    H213734   6.016   3.800   5.698
 4593TIP3   OH213735   7.806   6.155   6.503
 4593TIP3    H113736   7.773   6.069   6.530
 4593TIP3    H213737   7.825   6.200   6.585
 4594TIP3   OH213738   5.172   6.551   2.500
 4594TIP3    H113739   5.259   6.581   2.526
 4594TIP3    H213740   5.166   6.572   2.407
 4595TIP3   OH213741   7.273   6.158   4.655
 4595TIP3    H113742   7.324   6.236   4.676
 4595TIP3    H213743   7.187   6.191   4.633
 4596TIP3   OH213744   5.115   5.965   1.127
 4596TIP3    H113745   5.141   6.008   1.209
 4596TIP3    H213746   5.194   5.970   1.073
 4597TIP3   OH213747   1.240   5.418   2.649
 4597TIP3    H113748   1.238   5.470   2.730
 4597TIP3    H213749   1.296   5.343   2.669
 4598TIP3   OH213750   2.073   2.689   3.048
 4598TIP3    H113751   1.996   2.635   3.031
 4598TIP3    H213752   2.123   2.640   3.113
 4599TIP3   OH213753   2.620   6.662   6.376
 4599TIP3    H113754   2.564   6.735   6.350
 4599TIP3    H213755   2.631   6.610   6.296
 4600TIP3   OH213756   5.120   1.552   4.282
 4600TIP3    H113757   5.073   1.564   4.200
 4600TIP3    H213758   5.065   1.595   4.348
 4601TIP3   OH213759   1.393   3.312   4.106
 4601TIP3    H113760   1.357   3.394   4.140
 4601TIP3    H213761   1.323   3.275   4.053
 4602TIP3   OH213762   7.123   6.632   3.847
 4602TIP3    H113763   7.203   6.633   3.899
 4602TIP3    H213764   7.135   6.560   3.786
 4603TIP3   OH213765   4.498   2.709   2.742
 4603TIP3    H113766   4.544   2.793   2.747
 4603TIP3    H213767   4.405   2.732   2.741
 4604TIP3   OH213768   4.694   7.353   2.843
 4604TIP3    H113769   4.751   7.428   2.828
 4604TIP3    H213770   4.705   7.299   2.765
 4605TIP3   OH213771   6.374   6.070   5.294
 4605TIP3    H113772   6.356   6.000   5.357
 4605TIP3    H213773   6.441   6.124   5.336
 4606TIP3   OH213774   5.595   6.095   2.479
 4606TIP3    H113775   5.610   6.003   2.458
 4606TIP3    H213776   5.635   6.106   2.566
 4607TIP3   OH213777   6.087   3.961   1.067
 4607TIP3    H113778   6.131   3.894   1.119
 4607TIP3    H213779   6.149   4.034   1.064
 4608TIP3   OH213780   5.667   2.391   2.390
 4608TIP3    H113781   5.636   2.478   2.413
 4608TIP3    H213782   5.673   2.392   2.295
 4609TIP3   OH213783   5.232   3.854   4.399
 4609TIP3    H113784   5.327   3.850   4.405
 4609TIP3    H213785   5.209   3.940   4.432
 4610TIP3   OH213786   3.860   4.649   5.037
 4610TIP3    H113787   3.774   4.609   5.047
 4610TIP3    H213788   3.841   4.743   5.027
 4611TIP3   OH213789   1.351   5.661   5.927
 4611TIP3    H113790   1.399   5.728   5.974
 4611TIP3    H213791   1.364   5.682   5.834
 4612TIP3   OH213792   0.017   6.117   6.216
 4612TIP3    H113793   0.005   6.045   6.279
 4612TIP3    H213794   0.085   6.171   6.256
 4613TIP3   OH213795   3.466   0.355   6.618
 4613TIP3    H113796   3.452   0.372   6.711
 4613TIP3    H213797   3.436   0.435   6.574
 4614TIP3   OH213798   8.250   0.579   4.493
 4614TIP3    H113799   8.190   0.561   4.421
 4614TIP3    H213800   8.282   0.493   4.520
 4615TIP3   OH213801   6.410   5.775   3.170
 4615TIP3    H113802   6.445   5.864   3.175
 4615TIP3    H213803   6.329   5.778   3.222
 4616TIP3   OH213804   1.824   6.753   0.779
 4616TIP3    H113805   1.889   6.820   0.760
 4616TIP3    H213806   1.745   6.802   0.804
 4617TIP3   OH213807   6.828   3.514   5.821
 4617TIP3    H113808   6.829   3.462   5.901
 4617TIP3    H213809   6.874   3.594   5.843
 4618TIP3   OH213810   1.136   5.697   1.430
 4618TIP3    H113811   1.101   5.642   1.500
 4618TIP3    H213812   1.160   5.779   1.474
 4619TIP3   OH213813   3.889   6.466   4.246
 4619TIP3    H113814   3.929   6.387   4.211
 4619TIP3    H213815   3.878   6.449   4.339
 4620TIP3   OH213816   0.265   4.382   4.859
 4620TIP3    H113817   0.268   4.439   4.782
 4620TIP3    H213818   0.184   4.406   4.904
 4621TIP3   OH213819   1.356   6.401   2.104
 4621TIP3    H113820   1.280   6.445   2.140
 4621TIP3    H213821   1.429   6.460   2.121
 4622TIP3   OH213822   3.544   0.569   4.938
 4622TIP3    H113823   3.586   0.484   4.926
 4622TIP3    H213824   3.458   0.549   4.975
 4623TIP3   OH213825   4.060   0.926   5.782
 4623TIP3    H113826   4.043   0.883   5.698
 4623TIP3    H213827   4.130   0.875   5.822
 4624TIP3   OH213828   7.861   0.683   4.641
 4624TIP3    H113829   7.873   0.673   4.547
 4624TIP3    H213830   7.824   0.771   4.652
 4625TIP3   OH213831   1.723   6.535   2.624
 4625TIP3    H113832   1.681   6.604   2.676
 4625TIP3    H213833   1.652   6.502   2.568
 4626TIP3   OH213834   2.025   0.836   1.173
 4626TIP3    H113835   2.063   0.781   1.241
 4626TIP3    H213836   2.034   0.925   1.207
 4627TIP3   OH213837   5.241   6.890   6.283
 4627TIP3    H113838   5.285   6.859   6.363
 4627TIP3    H213839   5.165   6.938   6.315
 4628TIP3   OH213840   6.009   0.506   3.482
 4628TIP3    H113841   6.092   0.466   3.456
 4628TIP3    H213842   5.957   0.433   3.516
 4629TIP3   OH213843   8.133   6.933   2.511
 4629TIP3    H113844   8.082   6.883   2.574
 4629TIP3    H213845   8.185   6.992   2.564
 4630TIP3   OH213846   4.466   0.476   0.186
 4630TIP3    H113847   4.455   0.566   0.216
 4630TIP3    H213848   4.406   0.425   0.240
 4631TIP3   OH213849   6.848   5.661   2.493
 4631TIP3    H113850   6.895   5.629   2.416
 4631TIP3    H213851   6.767   5.699   2.459
 4632TIP3   OH213852   0.401   5.376   3.187
 4632TIP3    H113853   0.380   5.418   3.271
 4632TIP3    H213854   0.491   5.345   3.198
 4633TIP3   OH213855   0.822   4.772   1.639
 4633TIP3    H113856   0.821   4.857   1.684
 4633TIP3    H213857   0.909   4.767   1.599
 4634TIP3   OH213858   3.154   2.591   3.395
 4634TIP3    H113859   3.090   2.597   3.466
 4634TIP3    H213860   3.118   2.525   3.336
 4635TIP3   OH213861   4.697   0.571   3.377
 4635TIP3    H113862   4.743   0.630   3.437
 4635TIP3    H213863   4.695   0.487   3.423
 4636TIP3   OH213864   6.714   5.015   2.821
 4636TIP3    H113865   6.734   5.090   2.765
 4636TIP3    H213866   6.653   5.049   2.886
 4637TIP3   OH213867   6.913   0.804   4.401
 4637TIP3    H113868   6.937   0.863   4.329
 4637TIP3    H213869   6.843   0.850   4.447
 4638TIP3   OH213870   5.484   5.171   0.242
 4638TIP3    H113871   5.547   5.109   0.277
 4638TIP3    H213872   5.426   5.191   0.316
 4639TIP3   OH213873   3.623   3.201   4.375
 4639TIP3    H113874   3.694   3.162   4.425
 4639TIP3    H213875   3.559   3.130   4.365
 4640TIP3   OH213876   2.256   3.085   3.300
 4640TIP3    H113877   2.212   3.041   3.227
 4640TIP3    H213878   2.219   3.174   3.300
 4641TIP3   OH213879   0.444   7.180   3.805
 4641TIP3    H113880   0.355   7.203   3.779
 4641TIP3    H213881   0.497   7.254   3.775
 4642TIP3   OH213882   4.131   0.748   4.471
 4642TIP3    H113883   4.100   0.681   4.409
 4642TIP3    H213884   4.212   0.712   4.507
 4643TIP3   OH213885   3.277   1.160   0.655
 4643TIP3    H113886   3.328   1.094   0.608
 4643TIP3    H213887   3.314   1.244   0.629
 4644TIP3   OH213888   7.910   3.326   1.143
 4644TIP3    H113889   7.850   3.279   1.200
 4644TIP3    H213890   7.857   3.396   1.104
 4645TIP3   OH213891   4.061   1.354   5.301
 4645TIP3    H113892   4.151   1.362   5.269
 4645TIP3    H213893   4.007   1.397   5.234
 4646TIP3   OH213894   2.967   0.120   3.344
 4646TIP3    H113895   3.039   0.183   3.347
 4646TIP3    H213896   2.921   0.132   3.428
 4647TIP3   OH213897   0.780   3.482   0.843
 4647TIP3    H113898   0.809   3.459   0.754
 4647TIP3    H213899   0.692   3.517   0.831
 4648TIP3   OH213900   8.159   6.637   0.121
 4648TIP3    H113901   8.072   6.607   0.145
 4648TIP3    H213902   8.152   6.732   0.118
 4649TIP3   OH213903   6.272   2.425   5.627
 4649TIP3    H113904   6.233   2.339   5.614
 4649TIP3    H213905   6.207   2.474   5.677
 4650TIP3   OH213906   5.950   4.208   6.044
 4650TIP3    H113907   5.883   4.268   6.078
 4650TIP3    H213908   5.980   4.160   6.121
 4651TIP3   OH213909   7.564   5.345   2.496
 4651TIP3    H113910   7.569   5.436   2.466
 4651TIP3    H213911   7.560   5.294   2.415
 4652TIP3   OH213912   2.043   5.707   1.493
 4652TIP3    H113913   1.955   5.682   1.464
 4652TIP3    H213914   2.098   5.633   1.467
 4653TIP3   OH213915   4.655   1.112   3.066
 4653TIP3    H113916   4.577   1.103   3.120
 4653TIP3    H213917   4.661   1.030   3.018
 4654TIP3   OH213918   8.066   1.292   4.089
 4654TIP3    H113919   8.102   1.227   4.149
 4654TIP3    H213920   8.051   1.370   4.144
 4655TIP3   OH213921   0.722   7.302   6.211
 4655TIP3    H113922   0.665   7.283   6.136
 4655TIP3    H213923   0.735   7.396   6.208
 4656TIP3   OH213924   5.391   4.809   0.245
 4656TIP3    H113925   5.434   4.784   0.163
 4656TIP3    H213926   5.347   4.891   0.225
 4657TIP3   OH213927   4.501   2.906   1.001
 4657TIP3    H113928   4.441   2.932   0.931
 4657TIP3    H213929   4.457   2.936   1.081
 4658TIP3   OH213930   6.900   0.102   4.487
 4658TIP3    H113931   6.878   0.144   4.570
 4658TIP3    H213932   6.904   0.174   4.424
 4659TIP3   OH213933   6.461   6.585   0.306
 4659TIP3    H113934   6.449   6.505   0.357
 4659TIP3    H213935   6.437   6.656   0.366
 4660TIP3   OH213936   1.391   1.333   6.066
 4660TIP3    H113937   1.448   1.283   6.007
 4660TIP3    H213938   1.318   1.361   6.012
 4661TIP3   OH213939   3.124   6.389   4.868
 4661TIP3    H113940   3.166   6.423   4.788
 4661TIP3    H213941   3.195   6.344   4.914
 4662TIP3   OH213942   8.186   6.712   0.425
 4662TIP3    H113943   8.131   6.665   0.362
 4662TIP3    H213944   8.146   6.799   0.432
 4663TIP3   OH213945   7.199   7.733   6.304
 4663TIP3    H113946   7.213   7.805   6.366
 4663TIP3    H213947   7.105   7.734   6.287
 4664TIP3   OH213948   5.361   5.174   2.700
 4664TIP3    H113949   5.445   5.143   2.735
 4664TIP3    H213950   5.384   5.252   2.649
 4665TIP3   OH213951   8.181   0.587   5.955
 4665TIP3    H113952   8.207   0.652   6.020
 4665TIP3    H213953   8.188   0.633   5.871
 4666TIP3   OH213954   5.393   4.227   2.155
 4666TIP3    H113955   5.478   4.259   2.124
 4666TIP3    H213956   5.413   4.172   2.230
 4667TIP3   OH213957   0.918   3.127   1.531
 4667TIP3    H113958   0.879   3.103   1.615
 4667TIP3    H213959   0.857   3.189   1.492
 4668TIP3   OH213960   7.751   5.810   0.236
 4668TIP3    H113961   7.725   5.821   0.144
 4668TIP3    H213962   7.670   5.821   0.285
 4669TIP3   OH213963   3.290   7.262   2.637
 4669TIP3    H113964   3.195   7.250   2.638
 4669TIP3    H213965   3.310   7.310   2.718
 4670TIP3   OH213966   4.079   3.149   5.878
 4670TIP3    H113967   4.097   3.182   5.790
 4670TIP3    H213968   4.119   3.062   5.880
 4671TIP3   OH213969   0.653   0.057   0.497
 4671TIP3    H113970   0.602   0.130   0.532
 4671TIP3    H213971   0.744   0.081   0.517
 4672TIP3   OH213972   0.088   4.592   5.820
 4672TIP3    H113973   0.068   4.590   5.726
 4672TIP3    H213974   0.167   4.538   5.829
 4673TIP3   OH213975   4.533   7.024   6.555
 4673TIP3    H113976   4.591   6.955   6.524
 4673TIP3    H213977   4.451   6.980   6.576
 4674TIP3   OH213978   3.240   3.531   2.989
 4674TIP3    H113979   3.188   3.508   2.913
 4674TIP3    H213980   3.325   3.488   2.974
 4675TIP3   OH213981   3.934   5.735   1.092
 4675TIP3    H113982   3.999   5.723   1.023
 4675TIP3    H213983   3.922   5.830   1.098
 4676TIP3   OH213984   6.271   6.473   5.367
 4676TIP3    H113985   6.229   6.559   5.362
 4676TIP3    H213986   6.258   6.445   5.458
 4677TIP3   OH213987   6.414   6.219   4.436
 4677TIP3    H113988   6.435   6.221   4.530
 4677TIP3    H213989   6.442   6.132   4.407
 4678TIP3   OH213990   5.803   7.377   0.885
 4678TIP3    H113991   5.853   7.304   0.848
 4678TIP3    H213992   5.726   7.336   0.924
 4679TIP3   OH213993   7.157   1.294   1.624
 4679TIP3    H113994   7.094   1.248   1.680
 4679TIP3    H213995   7.228   1.318   1.684
 4680TIP3   OH213996   7.356   1.137   0.346
 4680TIP3    H113997   7.336   1.101   0.259
 4680TIP3    H213998   7.272   1.136   0.392
 4681TIP3   OH213999   2.429   5.331   5.710
 4681TIP3    H114000   2.338   5.334   5.738
 4681TIP3    H214001   2.471   5.270   5.771
 4682TIP3   OH214002   0.682   0.498   0.482
 4682TIP3    H114003   0.642   0.568   0.534
 4682TIP3    H214004   0.625   0.491   0.405
 4683TIP3   OH214005   3.003   1.595   3.897
 4683TIP3    H114006   3.077   1.594   3.837
 4683TIP3    H214007   3.014   1.516   3.950
 4684TIP3   OH214008   8.066   4.012   2.098
 4684TIP3    H114009   8.100   3.933   2.140
 4684TIP3    H214010   8.068   4.078   2.167
 4685TIP3   OH214011   5.839   0.096   6.520
 4685TIP3    H114012   5.824   0.049   6.602
 4685TIP3    H214013   5.816   0.034   6.451
 4686TIP3   OH214014   7.837   3.209   4.653
 4686TIP3    H114015   7.760   3.166   4.614
 4686TIP3    H214016   7.831   3.187   4.746
 4687TIP3   OH214017   6.580   5.904   2.103
 4687TIP3    H114018   6.646   5.911   2.034
 4687TIP3    H214019   6.539   5.990   2.106
 4688TIP3   OH214020   2.623   2.492   3.404
 4688TIP3    H114021   2.546   2.439   3.422
 4688TIP3    H214022   2.597   2.581   3.429
 4689TIP3   OH214023   6.071   6.408   4.746
 4689TIP3    H114024   6.093   6.476   4.810
 4689TIP3    H214025   6.127   6.334   4.771
 4690TIP3   OH214026   5.438   2.586   2.836
 4690TIP3    H114027   5.522   2.545   2.857
 4690TIP3    H214028   5.377   2.513   2.829
 4691TIP3   OH214029   1.239   6.581   3.241
 4691TIP3    H114030   1.159   6.609   3.287
 4691TIP3    H214031   1.307   6.639   3.276
 4692TIP3   OH214032   3.420   5.660   1.068
 4692TIP3    H114033   3.364   5.594   1.028
 4692TIP3    H214034   3.452   5.620   1.148
 4693TIP3   OH214035   4.944   0.676   5.174
 4693TIP3    H114036   4.892   0.602   5.205
 4693TIP3    H214037   5.024   0.637   5.139
 4694TIP3   OH214038   4.386   0.889   2.218
 4694TIP3    H114039   4.357   0.873   2.128
 4694TIP3    H214040   4.360   0.980   2.236
 4695TIP3   OH214041   3.590   1.858   5.188
 4695TIP3    H114042   3.594   1.812   5.105
 4695TIP3    H214043   3.540   1.938   5.169
 4696TIP3   OH214044   5.270   7.394   2.937
 4696TIP3    H114045   5.210   7.331   2.899
 4696TIP3    H214046   5.319   7.430   2.863
 4697TIP3   OH214047   6.609   7.700   6.499
 4697TIP3    H114048   6.685   7.687   6.556
 4697TIP3    H214049   6.598   7.795   6.495
 4698TIP3   OH214050   3.404   6.080   2.304
 4698TIP3    H114051   3.317   6.110   2.278
 4698TIP3    H214052   3.456   6.088   2.224
 4699TIP3   OH214053   6.100   2.781   0.322
 4699TIP3    H114054   6.116   2.718   0.392
 4699TIP3    H214055   6.056   2.854   0.365
 4700TIP3   OH214056   2.675   4.498   4.497
 4700TIP3    H114057   2.650   4.483   4.588
 4700TIP3    H214058   2.602   4.547   4.459
 4701TIP3   OH214059   1.693   1.403   6.717
 4701TIP3    H114060   1.629   1.333   6.700
 4701TIP3    H214061   1.674   1.431   6.807
 4702TIP3   OH214062   4.371   7.731   2.114
 4702TIP3    H114063   4.294   7.680   2.139
 4702TIP3    H214064   4.337   7.818   2.094
 4703TIP3   OH214065   5.402   3.034   5.189
 4703TIP3    H114066   5.486   3.004   5.152
 4703TIP3    H214067   5.349   3.055   5.113
 4704TIP3   OH214068   2.300   0.465   3.244
 4704TIP3    H114069   2.374   0.516   3.210
 4704TIP3    H214070   2.256   0.433   3.165
 4705TIP3   OH214071   2.165   2.460   1.574
 4705TIP3    H114072   2.104   2.524   1.609
 4705TIP3    H214073   2.199   2.415   1.652
 4706TIP3   OH214074   6.407   1.590   3.050
 4706TIP3    H114075   6.435   1.501   3.029
 4706TIP3    H214076   6.400   1.591   3.146
 4707TIP3   OH214077   3.158   3.886   1.054
 4707TIP3    H114078   3.186   3.813   1.109
 4707TIP3    H214079   3.093   3.847   0.995
 4708TIP3   OH214080   4.613   0.325   2.037
 4708TIP3    H114081   4.636   0.245   2.084
 4708TIP3    H214082   4.696   0.369   2.021
 4709TIP3   OH214083   6.146   6.013   2.323
 4709TIP3    H114084   6.102   5.939   2.366
 4709TIP3    H214085   6.230   5.978   2.294
 4710TIP3   OH214086   3.959   1.300   0.739
 4710TIP3    H114087   3.999   1.216   0.762
 4710TIP3    H214088   3.946   1.295   0.645
 4711TIP3   OH214089   1.940   0.687   5.071
 4711TIP3    H114090   1.888   0.611   5.098
 4711TIP3    H214091   1.949   0.676   4.976
 4712TIP3   OH214092   8.075   6.645   5.615
 4712TIP3    H114093   8.060   6.724   5.563
 4712TIP3    H214094   7.994   6.595   5.605
 4713TIP3   OH214095   1.939   7.696   5.763
 4713TIP3    H114096   1.872   7.628   5.760
 4713TIP3    H214097   1.905   7.759   5.827
 4714TIP3   OH214098   1.318   3.501   3.473
 4714TIP3    H114099   1.242   3.465   3.519
 4714TIP3    H214100   1.383   3.514   3.541
 4715TIP3   OH214101   3.376   3.140   2.994
 4715TIP3    H114102   3.400   3.227   2.961
 4715TIP3    H214103   3.450   3.084   2.971
 4716TIP3   OH214104   6.605   3.455   3.725
 4716TIP3    H114105   6.566   3.453   3.812
 4716TIP3    H214106   6.536   3.424   3.667
 4717TIP3   OH214107   0.047   3.067   0.071
 4717TIP3    H114108   0.087   3.145   0.108
 4717TIP3    H214109   0.057   3.077  -0.024
 4718TIP3   OH214110   5.287   6.766   0.391
 4718TIP3    H114111   5.212   6.793   0.337
 4718TIP3    H214112   5.346   6.842   0.389
 4719TIP3   OH214113   2.752   3.642   6.421
 4719TIP3    H114114   2.821   3.586   6.454
 4719TIP3    H214115   2.751   3.626   6.326
 4720TIP3   OH214116   0.716   7.199   2.889
 4720TIP3    H114117   0.741   7.109   2.911
 4720TIP3    H214118   0.799   7.242   2.867
 4721TIP3   OH214119   7.388   0.897   4.101
 4721TIP3    H114120   7.394   0.811   4.142
 4721TIP3    H214121   7.303   0.898   4.058
 4722TIP3   OH214122   7.954   3.216   3.723
 4722TIP3    H114123   7.958   3.195   3.629
 4722TIP3    H214124   7.870   3.260   3.734
 4723TIP3   OH214125   7.832   5.391   4.838
 4723TIP3    H114126   7.817   5.486   4.835
 4723TIP3    H214127   7.927   5.382   4.843
 4724TIP3   OH214128   6.197   2.577   2.662
 4724TIP3    H114129   6.184   2.609   2.751
 4724TIP3    H214130   6.236   2.652   2.616
 4725TIP3   OH214131   0.505   0.277   1.027
 4725TIP3    H114132   0.583   0.222   1.016
 4725TIP3    H214133   0.439   0.237   0.970
 4726TIP3   OH214134   1.788   4.968   3.887
 4726TIP3    H114135   1.816   4.952   3.797
 4726TIP3    H214136   1.747   5.054   3.885
 4727TIP3   OH214137   3.856   2.260   0.155
 4727TIP3    H114138   3.814   2.330   0.206
 4727TIP3    H214139   3.811   2.181   0.183
 4728TIP3   OH214140   1.240   5.703   3.910
 4728TIP3    H114141   1.221   5.722   4.001
 4728TIP3    H214142   1.228   5.608   3.902
 4729TIP3   OH214143   6.490   4.980   3.840
 4729TIP3    H114144   6.524   4.951   3.924
 4729TIP3    H214145   6.395   4.981   3.851
 4730TIP3   OH214146   7.746   1.146   1.512
 4730TIP3    H114147   7.725   1.071   1.458
 4730TIP3    H214148   7.774   1.108   1.596
 4731TIP3   OH214149   1.892   7.270   5.706
 4731TIP3    H114150   1.865   7.178   5.706
 4731TIP3    H214151   1.924   7.285   5.795
 4732TIP3   OH214152   0.429   0.267   5.853
 4732TIP3    H114153   0.476   0.236   5.775
 4732TIP3    H214154   0.483   0.338   5.887
 4733TIP3   OH214155   7.220   5.670   0.721
 4733TIP3    H114156   7.214   5.710   0.808
 4733TIP3    H214157   7.232   5.743   0.661
 4734TIP3   OH214158   7.257   3.449   3.561
 4734TIP3    H114159   7.212   3.532   3.580
 4734TIP3    H214160   7.329   3.446   3.625
 4735TIP3   OH214161   4.873   4.689   2.794
 4735TIP3    H114162   4.854   4.755   2.726
 4735TIP3    H214163   4.954   4.647   2.765
 4736TIP3   OH214164   0.063   2.389   5.977
 4736TIP3    H114165   0.125   2.461   5.987
 4736TIP3    H214166   0.117   2.310   5.986
 4737TIP3   OH214167   2.408   4.925   2.965
 4737TIP3    H114168   2.421   4.936   3.059
 4737TIP3    H214169   2.319   4.893   2.957
 4738TIP3   OH214170  -0.024   4.506   0.804
 4738TIP3    H114171  -0.065   4.584   0.840
 4738TIP3    H214172   0.063   4.503   0.844
 4739TIP3   OH214173   3.857   2.683   2.936
 4739TIP3    H114174   3.775   2.723   2.908
 4739TIP3    H214175   3.873   2.614   2.873
 4740TIP3   OH214176   7.246   4.916   4.357
 4740TIP3    H114177   7.278   4.826   4.361
 4740TIP3    H214178   7.324   4.970   4.364
 4741TIP3   OH214179   6.173   5.971   1.457
 4741TIP3    H114180   6.140   5.892   1.500
 4741TIP3    H214181   6.134   5.969   1.369
 4742TIP3   OH214182   0.586   2.241   3.232
 4742TIP3    H114183   0.661   2.216   3.178
 4742TIP3    H214184   0.572   2.334   3.212
 4743TIP3   OH214185   8.142   6.417   6.569
 4743TIP3    H114186   8.067   6.464   6.534
 4743TIP3    H214187   8.111   6.328   6.582
 4744TIP3   OH214188   5.422   4.074   2.677
 4744TIP3    H114189   5.488   4.005   2.685
 4744TIP3    H214190   5.374   4.072   2.760
 4745TIP3   OH214191   8.177   6.805   4.684
 4745TIP3    H114192   8.165   6.714   4.711
 4745TIP3    H214193   8.221   6.846   4.758
 4746TIP3   OH214194   6.444   3.941   3.843
 4746TIP3    H114195   6.483   3.857   3.867
 4746TIP3    H214196   6.505   3.979   3.780
 4747TIP3   OH214197   3.356   7.354   6.234
 4747TIP3    H114198   3.447   7.327   6.230
 4747TIP3    H214199   3.308   7.290   6.182
 4748TIP3   OH214200   4.026   0.246   6.070
 4748TIP3    H114201   4.097   0.182   6.076
 4748TIP3    H214202   4.004   0.266   6.161
 4749TIP3   OH214203   0.493   6.538   4.542
 4749TIP3    H114204   0.512   6.446   4.560
 4749TIP3    H214205   0.398   6.541   4.528
 4750TIP3   OH214206   2.495   3.163   5.942
 4750TIP3    H114207   2.499   3.114   6.025
 4750TIP3    H214208   2.566   3.226   5.948
 4751TIP3   OH214209   7.628   2.781   4.259
 4751TIP3    H114210   7.677   2.823   4.188
 4751TIP3    H214211   7.553   2.838   4.273
 4752TIP3   OH214212   5.571   6.910   2.550
 4752TIP3    H114213   5.662   6.908   2.520
 4752TIP3    H214214   5.566   6.989   2.603
 4753TIP3   OH214215   6.196   2.157   1.226
 4753TIP3    H114216   6.265   2.218   1.256
 4753TIP3    H214217   6.134   2.212   1.180
 4754TIP3   OH214218   6.021   2.244   2.462
 4754TIP3    H114219   6.051   2.298   2.389
 4754TIP3    H214220   5.988   2.164   2.420
 4755TIP3   OH214221   2.095   1.079   1.261
 4755TIP3    H114222   2.079   1.104   1.352
 4755TIP3    H214223   2.157   1.145   1.229
 4756TIP3   OH214224   2.906   2.393   6.749
 4756TIP3    H114225   2.994   2.425   6.767
 4756TIP3    H214226   2.875   2.447   6.676
 4757TIP3   OH214227   6.558   2.505   6.247
 4757TIP3    H114228   6.552   2.593   6.283
 4757TIP3    H214229   6.646   2.501   6.209
 4758TIP3   OH214230   7.803   0.095   0.670
 4758TIP3    H114231   7.755   0.018   0.700
 4758TIP3    H214232   7.844   0.130   0.749
 4759TIP3   OH214233   8.230   3.555   6.390
 4759TIP3    H114234   8.289   3.611   6.440
 4759TIP3    H214235   8.266   3.555   6.301
 4760TIP3   OH214236   6.185   5.044   2.509
 4760TIP3    H114237   6.254   5.110   2.497
 4760TIP3    H214238   6.227   4.974   2.559
 4761TIP3   OH214239   6.460   4.180   5.925
 4761TIP3    H114240   6.505   4.205   5.844
 4761TIP3    H214241   6.377   4.142   5.896
 4762TIP3   OH214242   5.661   7.677   5.013
 4762TIP3    H114243   5.626   7.677   5.102
 4762TIP3    H214244   5.643   7.765   4.980
 4763TIP3   OH214245   6.443   1.482   0.211
 4763TIP3    H114246   6.460   1.392   0.185
 4763TIP3    H214247   6.444   1.480   0.307
 4764TIP3   OH214248   2.089   3.357   5.294
 4764TIP3    H114249   2.004   3.376   5.332
 4764TIP3    H214250   2.146   3.427   5.325
 4765TIP3   OH214251   0.368   2.029   3.124
 4765TIP3    H114252   0.382   2.116   3.086
 4765TIP3    H214253   0.355   1.972   3.048
 4766TIP3   OH214254   0.377   3.795   2.653
 4766TIP3    H114255   0.396   3.887   2.675
 4766TIP3    H214256   0.453   3.767   2.602
 4767TIP3   OH214257   1.135   7.185   5.570
 4767TIP3    H114258   1.094   7.264   5.535
 4767TIP3    H214259   1.105   7.181   5.661
 4768TIP3   OH214260   4.443   4.385   5.028
 4768TIP3    H114261   4.362   4.377   4.978
 4768TIP3    H214262   4.505   4.329   4.982
 4769TIP3   OH214263   0.411   4.574   3.073
 4769TIP3    H114264   0.450   4.519   3.005
 4769TIP3    H214265   0.343   4.520   3.112
 4770TIP3   OH214266   1.467   0.171   2.113
 4770TIP3    H114267   1.391   0.140   2.063
 4770TIP3    H214268   1.453   0.136   2.201
 4771TIP3   OH214269   2.167   5.017   1.253
 4771TIP3    H114270   2.239   5.054   1.305
 4771TIP3    H214271   2.088   5.041   1.302
 4772TIP3   OH214272   4.355   0.176   4.062
 4772TIP3    H114273   4.352   0.270   4.078
 4772TIP3    H214274   4.320   0.137   4.142
 4773TIP3   OH214275   0.787   5.181   1.205
 4773TIP3    H114276   0.873   5.201   1.169
 4773TIP3    H214277   0.745   5.266   1.219
 4774TIP3   OH214278   2.389   5.447   2.488
 4774TIP3    H114279   2.455   5.396   2.442
 4774TIP3    H214280   2.436   5.487   2.561
 4775TIP3   OH214281   7.958   1.637   0.324
 4775TIP3    H114282   7.999   1.713   0.363
 4775TIP3    H214283   8.030   1.578   0.303
 4776TIP3   OH214284   3.485   4.784   5.543
 4776TIP3    H114285   3.438   4.752   5.466
 4776TIP3    H214286   3.529   4.864   5.514
 4777TIP3   OH214287   6.085   0.185   3.534
 4777TIP3    H114288   6.094   0.127   3.609
 4777TIP3    H214289   5.990   0.200   3.526
 4778TIP3   OH214290   0.625   7.565   2.586
 4778TIP3    H114291   0.585   7.610   2.512
 4778TIP3    H214292   0.595   7.475   2.579
 4779TIP3   OH214293   5.267   5.583   0.206
 4779TIP3    H114294   5.330   5.579   0.278
 4779TIP3    H214295   5.251   5.492   0.183
 4780TIP3   OH214296   2.972   2.438   6.405
 4780TIP3    H114297   3.040   2.482   6.354
 4780TIP3    H214298   3.018   2.369   6.452
 4781TIP3   OH214299   3.857   5.649   2.117
 4781TIP3    H114300   3.943   5.629   2.154
 4781TIP3    H214301   3.813   5.700   2.186
 4782TIP3   OH214302   2.458   3.352   6.429
 4782TIP3    H114303   2.543   3.367   6.388
 4782TIP3    H214304   2.434   3.263   6.402
 4783TIP3   OH214305   7.687   6.865   4.677
 4783TIP3    H114306   7.720   6.952   4.651
 4783TIP3    H214307   7.765   6.810   4.681
 4784TIP3   OH214308   2.717   7.440   6.549
 4784TIP3    H114309   2.791   7.394   6.587
 4784TIP3    H214310   2.756   7.516   6.505
 4785TIP3   OH214311   6.940   7.491   1.316
 4785TIP3    H114312   6.995   7.465   1.243
 4785TIP3    H214313   6.852   7.497   1.279
 4786TIP3   OH214314   4.754   2.690   3.281
 4786TIP3    H114315   4.837   2.643   3.274
 4786TIP3    H214316   4.705   2.643   3.349
 4787TIP3   OH214317   5.229   0.517   4.123
 4787TIP3    H114318   5.260   0.432   4.092
 4787TIP3    H214319   5.291   0.580   4.086
 4788TIP3   OH214320   6.323   5.859   2.208
 4788TIP3    H114321   6.394   5.850   2.145
 4788TIP3    H214322   6.270   5.780   2.195
 4789TIP3   OH214323   3.439   4.507   5.762
 4789TIP3    H114324   3.487   4.478   5.840
 4789TIP3    H214325   3.382   4.577   5.793
 4790TIP3   OH214326   2.591   5.165   0.526
 4790TIP3    H114327   2.555   5.244   0.566
 4790TIP3    H214328   2.665   5.196   0.473
 4791TIP3   OH214329   6.813   6.651   1.279
 4791TIP3    H114330   6.897   6.663   1.234
 4791TIP3    H214331   6.802   6.730   1.331
 4792TIP3   OH214332   6.195   3.989   6.023
 4792TIP3    H114333   6.136   3.968   5.951
 4792TIP3    H214334   6.139   4.032   6.088
 4793TIP3   OH214335   6.284   3.220   2.198
 4793TIP3    H114336   6.373   3.196   2.173
 4793TIP3    H214337   6.295   3.292   2.261
 4794TIP3   OH214338   6.704   4.422   0.233
 4794TIP3    H114339   6.675   4.354   0.293
 4794TIP3    H214340   6.758   4.376   0.169
 4795TIP3   OH214341   2.619   3.806   1.640
 4795TIP3    H114342   2.569   3.884   1.662
 4795TIP3    H214343   2.556   3.734   1.646
 4796TIP3   OH214344   2.300   4.967   4.201
 4796TIP3    H114345   2.308   4.998   4.291
 4796TIP3    H214346   2.206   4.956   4.188
 4797TIP3   OH214347   5.999   3.940   2.265
 4797TIP3    H114348   6.009   3.846   2.280
 4797TIP3    H214349   6.046   3.981   2.338
 4798TIP3   OH214350   4.641   0.060   0.481
 4798TIP3    H114351   4.683   0.099   0.557
 4798TIP3    H214352   4.688   0.096   0.405
 4799TIP3   OH214353   7.281   7.387   0.597
 4799TIP3    H114354   7.253   7.445   0.526
 4799TIP3    H214355   7.308   7.306   0.552
 4800TIP3   OH214356   0.612   1.040   1.752
 4800TIP3    H114357   0.528   1.014   1.790
 4800TIP3    H214358   0.599   1.131   1.725
 4801TIP3   OH214359   4.040   5.859   0.363
 4801TIP3    H114360   4.018   5.785   0.419
 4801TIP3    H214361   3.966   5.867   0.302
 4802TIP3   OH214362   4.783   3.693   1.933
 4802TIP3    H114363   4.817   3.621   1.880
 4802TIP3    H214364   4.790   3.770   1.877
 4803TIP3   OH214365   5.872   6.412   2.703
 4803TIP3    H114366   5.798   6.465   2.673
 4803TIP3    H214367   5.917   6.467   2.767
 4804TIP3   OH214368   4.697   3.139   1.030
 4804TIP3    H114369   4.655   3.219   0.998
 4804TIP3    H214370   4.627   3.073   1.029
 4805TIP3   OH214371   6.662   5.179   6.447
 4805TIP3    H114372   6.678   5.153   6.357
 4805TIP3    H214373   6.749   5.189   6.485
 4806TIP3   OH214374   1.632   4.134   4.570
 4806TIP3    H114375   1.691   4.170   4.635
 4806TIP3    H214376   1.544   4.149   4.605
 4807TIP3   OH214377   1.700   1.814   6.650
 4807TIP3    H114378   1.677   1.827   6.558
 4807TIP3    H214379   1.756   1.736   6.650
 4808TIP3   OH214380   4.977   5.612   4.695
 4808TIP3    H114381   4.992   5.525   4.660
 4808TIP3    H214382   4.944   5.663   4.621
 4809TIP3   OH214383   4.004   4.911   4.873
 4809TIP3    H114384   3.939   4.977   4.895
 4809TIP3    H214385   4.036   4.879   4.958
 4810TIP3   OH214386   1.097   3.661   4.868
 4810TIP3    H114387   1.116   3.593   4.804
 4810TIP3    H214388   1.054   3.615   4.940
 4811TIP3   OH214389   2.381   2.363   3.375
 4811TIP3    H114390   2.331   2.416   3.313
 4811TIP3    H214391   2.346   2.274   3.363
 4812TIP3   OH214392   3.603   3.593   1.781
 4812TIP3    H114393   3.694   3.568   1.766
 4812TIP3    H214394   3.585   3.567   1.871
 4813TIP3   OH214395   2.157   1.218   4.182
 4813TIP3    H114396   2.174   1.261   4.098
 4813TIP3    H214397   2.063   1.228   4.196
 4814TIP3   OH214398   0.616   3.878   6.344
 4814TIP3    H114399   0.693   3.913   6.389
 4814TIP3    H214400   0.641   3.791   6.315
 4815TIP3   OH214401   7.095   2.555   0.738
 4815TIP3    H114402   7.128   2.476   0.780
 4815TIP3    H214403   7.013   2.528   0.696
 4816TIP3   OH214404   2.548   6.363   2.565
 4816TIP3    H114405   2.486   6.359   2.491
 4816TIP3    H214406   2.628   6.324   2.531
 4817TIP3   OH214407   2.204   4.437   0.426
 4817TIP3    H114408   2.192   4.408   0.336
 4817TIP3    H214409   2.298   4.454   0.433
 4818TIP3   OH214410   0.295   1.537   1.874
 4818TIP3    H114411   0.320   1.454   1.914
 4818TIP3    H214412   0.376   1.571   1.835
 4819TIP3   OH214413   3.186   5.479   4.638
 4819TIP3    H114414   3.273   5.514   4.618
 4819TIP3    H214415   3.153   5.535   4.708
 4820TIP3   OH214416   5.277   7.096   1.443
 4820TIP3    H114417   5.225   7.053   1.375
 4820TIP3    H214418   5.274   7.189   1.419
 4821TIP3   OH214419   0.881   6.001   3.572
 4821TIP3    H114420   0.944   5.943   3.529
 4821TIP3    H214421   0.917   6.088   3.561
 4822TIP3   OH214422   1.055   5.798   3.478
 4822TIP3    H114423   1.088   5.799   3.387
 4822TIP3    H214424   1.134   5.805   3.531
 4823TIP3   OH214425   7.709   5.272   6.196
 4823TIP3    H114426   7.716   5.283   6.101
 4823TIP3    H214427   7.639   5.207   6.208
 4824TIP3   OH214428   7.521   0.933   3.365
 4824TIP3    H114429   7.520   0.959   3.458
 4824TIP3    H214430   7.567   1.003   3.321
 4825TIP3   OH214431   4.822   4.545   0.915
 4825TIP3    H114432   4.888   4.605   0.880
 4825TIP3    H214433   4.744   4.599   0.929
 4826TIP3   OH214434   2.605   0.781   5.276
 4826TIP3    H114435   2.585   0.763   5.184
 4826TIP3    H214436   2.553   0.717   5.325
 4827TIP3   OH214437   6.948   1.402   6.338
 4827TIP3    H114438   7.034   1.439   6.355
 4827TIP3    H214439   6.892   1.478   6.320
 4828TIP3   OH214440   3.242   0.821   0.802
 4828TIP3    H114441   3.244   0.760   0.875
 4828TIP3    H214442   3.329   0.860   0.800
 4829TIP3   OH214443   1.622   5.586   4.761
 4829TIP3    H114444   1.634   5.561   4.669
 4829TIP3    H214445   1.698   5.548   4.806
 4830TIP3   OH214446   0.912   1.347   4.730
 4830TIP3    H114447   0.917   1.252   4.724
 4830TIP3    H214448   0.977   1.379   4.667
 4831TIP3   OH214449   7.007   2.234   4.244
 4831TIP3    H114450   7.051   2.206   4.163
 4831TIP3    H214451   7.045   2.319   4.263
 4832TIP3   OH214452   7.473   7.705   0.316
 4832TIP3    H114453   7.472   7.730   0.224
 4832TIP3    H214454   7.566   7.691   0.335
 4833TIP3   OH214455   0.274   7.553   0.843
 4833TIP3    H114456   0.289   7.463   0.815
 4833TIP3    H214457   0.353   7.600   0.817
 4834TIP3   OH214458   3.750   7.431   1.669
 4834TIP3    H114459   3.688   7.372   1.711
 4834TIP3    H214460   3.767   7.498   1.735
 4835TIP3   OH214461   1.112   7.597   3.180
 4835TIP3    H114462   1.168   7.665   3.218
 4835TIP3    H214463   1.103   7.622   3.088
 4836TIP3   OH214464   5.529   5.505   4.260
 4836TIP3    H114465   5.572   5.459   4.187
 4836TIP3    H214466   5.451   5.543   4.221
 4837TIP3   OH214467   0.788   7.661   3.096
 4837TIP3    H114468   0.771   7.668   3.190
 4837TIP3    H214469   0.732   7.588   3.067
 4838TIP3   OH214470   0.130   6.229   1.649
 4838TIP3    H114471   0.192   6.288   1.606
 4838TIP3    H214472   0.186   6.162   1.690
 4839TIP3   OH214473   2.991   2.121   6.123
 4839TIP3    H114474   2.972   2.214   6.131
 4839TIP3    H214475   2.908   2.082   6.094
 4840TIP3   OH214476   5.787   2.249   3.049
 4840TIP3    H114477   5.748   2.239   3.136
 4840TIP3    H214478   5.828   2.165   3.031
 4841TIP3   OH214479   4.914   4.841   0.978
 4841TIP3    H114480   4.848   4.839   0.908
 4841TIP3    H214481   4.898   4.924   1.023
 4842TIP3   OH214482   4.960   7.460   0.351
 4842TIP3    H114483   4.892   7.521   0.320
 4842TIP3    H214484   4.937   7.443   0.442
 4843TIP3   OH214485   0.053   1.414   0.364
 4843TIP3    H114486   0.081   1.356   0.434
 4843TIP3    H214487   0.075   1.502   0.396
 4844TIP3   OH214488   6.122   2.931   1.068
 4844TIP3    H114489   6.069   2.894   1.139
 4844TIP3    H214490   6.185   2.987   1.112
 4845TIP3   OH214491   4.977   6.448   3.724
 4845TIP3    H114492   5.008   6.462   3.635
 4845TIP3    H214493   4.982   6.354   3.737
 4846TIP3   OH214494   3.280   2.245   3.503
 4846TIP3    H114495   3.295   2.174   3.564
 4846TIP3    H214496   3.187   2.239   3.480
 4847TIP3   OH214497   5.157   7.514   3.715
 4847TIP3    H114498   5.189   7.464   3.789
 4847TIP3    H214499   5.129   7.448   3.652
 4848TIP3   OH214500   3.743   5.436   2.006
 4848TIP3    H114501   3.681   5.509   2.000
 4848TIP3    H214502   3.814   5.470   2.061
 4849TIP3   OH214503   3.167   0.241   1.606
 4849TIP3    H114504   3.115   0.199   1.538
 4849TIP3    H214505   3.107   0.253   1.679
 4850TIP3   OH214506   6.227   1.406   4.486
 4850TIP3    H114507   6.301   1.456   4.521
 4850TIP3    H214508   6.181   1.374   4.563
 4851TIP3   OH214509   6.402   2.837   0.960
 4851TIP3    H114510   6.311   2.861   0.979
 4851TIP3    H214511   6.409   2.844   0.865
 4852TIP3   OH214512   6.692   1.152   5.976
 4852TIP3    H114513   6.643   1.234   5.976
 4852TIP3    H214514   6.747   1.158   6.054
 4853TIP3   OH214515   6.782   3.633   3.417
 4853TIP3    H114516   6.764   3.688   3.494
 4853TIP3    H214517   6.781   3.543   3.451
 4854TIP3   OH214518   7.073   5.186   1.971
 4854TIP3    H114519   7.033   5.104   1.941
 4854TIP3    H214520   7.054   5.249   1.901
 4855TIP3   OH214521   6.716   7.833   5.606
 4855TIP3    H114522   6.779   7.836   5.678
 4855TIP3    H214523   6.694   7.741   5.596
 4856TIP3   OH214524   4.076   1.634   2.561
 4856TIP3    H114525   4.136   1.700   2.528
 4856TIP3    H214526   3.993   1.681   2.574
 4857TIP3   OH214527   0.339   4.324   0.417
 4857TIP3    H114528   0.319   4.320   0.510
 4857TIP3    H214529   0.418   4.270   0.407
 4858TIP3   OH214530   1.968   6.083   3.140
 4858TIP3    H114531   2.035   6.151   3.127
 4858TIP3    H214532   2.015   6.000   3.124
 4859TIP3   OH214533   1.790   3.487   1.936
 4859TIP3    H114534   1.866   3.515   1.986
 4859TIP3    H214535   1.791   3.391   1.942
 4860TIP3   OH214536   6.375   7.157   4.340
 4860TIP3    H114537   6.322   7.152   4.419
 4860TIP3    H214538   6.391   7.066   4.316
 4861TIP3   OH214539   7.358   2.692   4.632
 4861TIP3    H114540   7.313   2.629   4.688
 4861TIP3    H214541   7.448   2.659   4.626
 4862TIP3   OH214542   0.304   4.411   2.155
 4862TIP3    H114543   0.388   4.385   2.192
 4862TIP3    H214544   0.326   4.475   2.087
 4863TIP3   OH214545   0.372   0.417   3.473
 4863TIP3    H114546   0.414   0.498   3.443
 4863TIP3    H214547   0.425   0.387   3.546
 4864TIP3   OH214548   3.421   0.085   5.617
 4864TIP3    H114549   3.363   0.008   5.620
 4864TIP3    H214550   3.461   0.087   5.704
 4865TIP3   OH214551   7.186   6.015   6.287
 4865TIP3    H114552   7.114   6.039   6.344
 4865TIP3    H214553   7.258   6.073   6.312
 4866TIP3   OH214554   6.064   3.768   0.849
 4866TIP3    H114555   6.059   3.794   0.941
 4866TIP3    H214556   6.050   3.849   0.801
 4867TIP3   OH214557   4.205   0.192   5.814
 4867TIP3    H114558   4.168   0.119   5.764
 4867TIP3    H214559   4.239   0.151   5.894
 4868TIP3   OH214560   5.835   0.411   1.672
 4868TIP3    H114561   5.820   0.326   1.713
 4868TIP3    H214562   5.751   0.456   1.679
 4869TIP3   OH214563   6.834   4.100   0.604
 4869TIP3    H114564   6.928   4.081   0.598
 4869TIP3    H214565   6.793   4.014   0.611
 4870TIP3   OH214566   5.880   4.774   4.630
 4870TIP3    H114567   5.909   4.860   4.660
 4870TIP3    H214568   5.848   4.790   4.541
 4871TIP3   OH214569   5.388   4.252   1.776
 4871TIP3    H114570   5.391   4.162   1.807
 4871TIP3    H214571   5.438   4.302   1.840
 4872TIP3   OH214572   5.212   4.208   3.682
 4872TIP3    H114573   5.118   4.196   3.693
 4872TIP3    H214574   5.220   4.261   3.602
 4873TIP3   OH214575   3.675   3.479   6.455
 4873TIP3    H114576   3.651   3.387   6.466
 4873TIP3    H214577   3.617   3.512   6.386
 4874TIP3   OH214578   3.961   7.307   1.851
 4874TIP3    H114579   3.939   7.249   1.777
 4874TIP3    H214580   4.006   7.381   1.810
 4875TIP3   OH214581   1.099   4.082   4.619
 4875TIP3    H114582   1.049   4.162   4.603
 4875TIP3    H214583   1.037   4.022   4.659
 4876TIP3   OH214584   7.623   6.360   3.149
 4876TIP3    H114585   7.622   6.312   3.232
 4876TIP3    H214586   7.687   6.313   3.096
 4877TIP3   OH214587   4.556   1.484   3.760
 4877TIP3    H114588   4.487   1.451   3.703
 4877TIP3    H214589   4.532   1.576   3.776
 4878TIP3   OH214590   5.841   2.807   0.156
 4878TIP3    H114591   5.799   2.891   0.172
 4878TIP3    H214592   5.823   2.755   0.235
 4879TIP3   OH214593   0.610   2.136   1.985
 4879TIP3    H114594   0.564   2.205   2.032
 4879TIP3    H214595   0.698   2.172   1.971
 4880TIP3   OH214596   1.215   4.882   5.829
 4880TIP3    H114597   1.254   4.959   5.871
 4880TIP3    H214598   1.143   4.857   5.888
 4881TIP3   OH214599   1.549   3.272   5.456
 4881TIP3    H114600   1.537   3.222   5.537
 4881TIP3    H214601   1.461   3.297   5.430
 4882TIP3   OH214602   3.431   1.924   6.214
 4882TIP3    H114603   3.383   2.000   6.181
 4882TIP3    H214604   3.486   1.897   6.141
 4883TIP3   OH214605   3.683   6.807   4.737
 4883TIP3    H114606   3.588   6.794   4.739
 4883TIP3    H214607   3.694   6.902   4.730
 4884TIP3   OH214608   7.499   5.219   2.741
 4884TIP3    H114609   7.468   5.286   2.801
 4884TIP3    H214610   7.502   5.262   2.656
 4885TIP3   OH214611   4.465   6.363   6.004
 4885TIP3    H114612   4.497   6.413   5.929
 4885TIP3    H214613   4.422   6.287   5.966
 4886TIP3   OH214614   2.916   6.461   1.957
 4886TIP3    H114615   2.941   6.368   1.955
 4886TIP3    H214616   2.856   6.468   2.031
 4887TIP3   OH214617   3.816   3.371   3.333
 4887TIP3    H114618   3.729   3.406   3.351
 4887TIP3    H214619   3.807   3.277   3.349
 4888TIP3   OH214620   7.231   1.529   4.002
 4888TIP3    H114621   7.234   1.609   4.055
 4888TIP3    H214622   7.174   1.551   3.929
 4889TIP3   OH214623   6.931   2.827   4.285
 4889TIP3    H114624   6.862   2.883   4.322
 4889TIP3    H214625   6.917   2.831   4.191
 4890TIP3   OH214626   1.843   7.358   4.581
 4890TIP3    H114627   1.797   7.279   4.609
 4890TIP3    H214628   1.794   7.388   4.504
 4891TIP3   OH214629   7.048   0.720   5.471
 4891TIP3    H114630   6.957   0.747   5.483
 4891TIP3    H214631   7.096   0.803   5.460
 4892TIP3   OH214632   5.219   6.008   2.353
 4892TIP3    H114633   5.230   6.097   2.386
 4892TIP3    H214634   5.127   5.988   2.371
 4893TIP3   OH214635   2.663   4.951   5.599
 4893TIP3    H114636   2.756   4.931   5.596
 4893TIP3    H214637   2.659   5.035   5.646
 4894TIP3   OH214638   4.816   5.366   0.141
 4894TIP3    H114639   4.772   5.282   0.144
 4894TIP3    H214640   4.794   5.408   0.224
 4895TIP3   OH214641   0.638   0.689   5.388
 4895TIP3    H114642   0.654   0.620   5.453
 4895TIP3    H214643   0.543   0.699   5.387
 4896TIP3   OH214644   7.254   5.183   6.095
 4896TIP3    H114645   7.330   5.240   6.079
 4896TIP3    H214646   7.244   5.184   6.190
 4897TIP3   OH214647   7.458   5.419   0.639
 4897TIP3    H114648   7.457   5.483   0.710
 4897TIP3    H214649   7.388   5.358   0.661
 4898TIP3   OH214650   0.853   7.609   3.360
 4898TIP3    H114651   0.928   7.668   3.359
 4898TIP3    H214652   0.886   7.527   3.323
 4899TIP3   OH214653   0.019   5.376   2.991
 4899TIP3    H114654   0.086   5.402   2.929
 4899TIP3    H214655   0.008   5.282   2.977
 4900TIP3   OH214656   1.407   2.790   1.343
 4900TIP3    H114657   1.454   2.862   1.302
 4900TIP3    H214658   1.471   2.749   1.402
 4901TIP3   OH214659   3.364   0.572   6.014
 4901TIP3    H114660   3.343   0.535   6.099
 4901TIP3    H214661   3.376   0.496   5.957
 4902TIP3   OH214662   7.688   7.836   0.673
 4902TIP3    H114663   7.676   7.835   0.578
 4902TIP3    H214664   7.701   7.744   0.697
 4903TIP3   OH214665   3.719   2.599   2.454
 4903TIP3    H114666   3.666   2.631   2.526
 4903TIP3    H214667   3.698   2.505   2.448
 4904TIP3   OH214668   6.202   1.515   0.932
 4904TIP3    H114669   6.152   1.466   0.998
 4904TIP3    H214670   6.209   1.455   0.858
 4905TIP3   OH214671   5.879   5.669   2.330
 4905TIP3    H114672   5.902   5.686   2.239
 4905TIP3    H214673   5.815   5.736   2.352
 4906TIP3   OH214674   3.223   1.881   4.733
 4906TIP3    H114675   3.140   1.856   4.773
 4906TIP3    H214676   3.279   1.905   4.807
 4907TIP3   OH214677   0.605   0.478   6.609
 4907TIP3    H114678   0.565   0.396   6.583
 4907TIP3    H214679   0.665   0.499   6.537
 4908TIP3   OH214680   4.750   2.143   6.222
 4908TIP3    H114681   4.759   2.053   6.193
 4908TIP3    H214682   4.808   2.150   6.298
 4909TIP3   OH214683   2.348   5.512   0.158
 4909TIP3    H114684   2.342   5.607   0.148
 4909TIP3    H214685   2.403   5.499   0.236
 4910TIP3   OH214686   3.191   4.279   3.828
 4910TIP3    H114687   3.259   4.344   3.843
 4910TIP3    H214688   3.120   4.304   3.887
 4911TIP3   OH214689   3.584   3.206   2.432
 4911TIP3    H114690   3.501   3.241   2.399
 4911TIP3    H214691   3.564   3.171   2.518
 4912TIP3   OH214692   2.754   6.520   2.955
 4912TIP3    H114693   2.744   6.426   2.943
 4912TIP3    H214694   2.683   6.559   2.904
 4913TIP3   OH214695   1.784   3.041   6.134
 4913TIP3    H114696   1.788   3.026   6.229
 4913TIP3    H214697   1.719   3.109   6.123
 4914TIP3   OH214698   7.584   0.080   5.002
 4914TIP3    H114699   7.630   0.121   5.076
 4914TIP3    H214700   7.530   0.150   4.967
 4915TIP3   OH214701   5.195   0.053   3.050
 4915TIP3    H114702   5.271  -0.001   3.069
 4915TIP3    H214703   5.222   0.107   2.976
 4916TIP3   OH214704   4.072   6.507   3.082
 4916TIP3    H114705   4.008   6.571   3.113
 4916TIP3    H214706   4.061   6.506   2.987
 4917TIP3   OH214707   0.024   0.915   6.490
 4917TIP3    H114708  -0.016   0.988   6.443
 4917TIP3    H214709  -0.044   0.848   6.492
 4918TIP3   OH214710   1.916   0.468   5.262
 4918TIP3    H114711   1.979   0.422   5.205
 4918TIP3    H214712   1.830   0.448   5.223
 4919TIP3   OH214713   3.076   5.485   2.426
 4919TIP3    H114714   3.129   5.516   2.499
 4919TIP3    H214715   3.139   5.472   2.354
 4920TIP3   OH214716   3.110   7.260   5.517
 4920TIP3    H114717   3.173   7.331   5.505
 4920TIP3    H214718   3.050   7.292   5.585
 4921TIP3   OH214719   8.281   6.114   0.971
 4921TIP3    H114720   8.225   6.192   0.969
 4921TIP3    H214721   8.342   6.131   1.043
 4922TIP3   OH214722   5.767   4.108   2.371
 4922TIP3    H114723   5.787   4.080   2.282
 4922TIP3    H214724   5.847   4.089   2.420
 4923TIP3   OH214725   5.292   1.376   6.251
 4923TIP3    H114726   5.199   1.374   6.228
 4923TIP3    H214727   5.326   1.292   6.219
 4924TIP3   OH214728   0.205   5.444   2.802
 4924TIP3    H114729   0.196   5.452   2.707
 4924TIP3    H214730   0.290   5.483   2.821
 4925TIP3   OH214731   6.383   6.661   3.099
 4925TIP3    H114732   6.426   6.685   3.016
 4925TIP3    H214733   6.442   6.596   3.138
 4926TIP3   OH214734   2.770   5.374   0.801
 4926TIP3    H114735   2.682   5.341   0.783
 4926TIP3    H214736   2.809   5.309   0.859
 4927TIP3   OH214737   7.184   5.563   4.657
 4927TIP3    H114738   7.226   5.544   4.740
 4927TIP3    H214739   7.252   5.548   4.591
 4928TIP3   OH214740   3.557   6.633   6.141
 4928TIP3    H114741   3.578   6.539   6.141
 4928TIP3    H214742   3.601   6.668   6.218
 4929TIP3   OH214743   7.423   1.925   0.364
 4929TIP3    H114744   7.424   2.007   0.412
 4929TIP3    H214745   7.337   1.888   0.382
 4930TIP3   OH214746   2.221   5.238   3.796
 4930TIP3    H114747   2.291   5.271   3.853
 4930TIP3    H214748   2.252   5.256   3.707
 4931TIP3   OH214749   6.802   0.252   3.369
 4931TIP3    H114750   6.863   0.251   3.295
 4931TIP3    H214751   6.715   0.241   3.329
 4932TIP3   OH214752   4.869   6.073   2.258
 4932TIP3    H114753   4.890   6.167   2.259
 4932TIP3    H214754   4.937   6.034   2.203
 4933TIP3   OH214755   4.528   5.693   2.889
 4933TIP3    H114756   4.500   5.726   2.804
 4933TIP3    H214757   4.611   5.737   2.905
 4934TIP3   OH214758   3.815   0.280   5.021
 4934TIP3    H114759   3.885   0.218   5.045
 4934TIP3    H214760   3.818   0.282   4.925
 4935TIP3   OH214761   1.450   2.818   5.181
 4935TIP3    H114762   1.502   2.898   5.183
 4935TIP3    H214763   1.514   2.747   5.179
 4936TIP3   OH214764   8.162   2.305   4.062
 4936TIP3    H114765   8.144   2.248   4.137
 4936TIP3    H214766   8.197   2.246   3.995
 4937TIP3   OH214767   7.953   4.214   0.783
 4937TIP3    H114768   7.984   4.297   0.817
 4937TIP3    H214769   7.905   4.237   0.703
 4938TIP3   OH214770   7.961   0.377   4.798
 4938TIP3    H114771   7.878   0.419   4.774
 4938TIP3    H214772   7.934   0.298   4.845
 4939TIP3   OH214773   3.409   3.524   1.581
 4939TIP3    H114774   3.460   3.547   1.658
 4939TIP3    H214775   3.367   3.441   1.603
 4940TIP3   OH214776   6.581   7.139   0.809
 4940TIP3    H114777   6.506   7.192   0.838
 4940TIP3    H214778   6.557   7.110   0.721
 4941TIP3   OH214779   0.303   4.525   5.664
 4941TIP3    H114780   0.304   4.459   5.734
 4941TIP3    H214781   0.393   4.557   5.660
 4942TIP3   OH214782   0.079   7.188   4.369
 4942TIP3    H114783   0.032   7.271   4.373
 4942TIP3    H214784   0.035   7.132   4.434
 4943TIP3   OH214785   4.617   2.614   2.965
 4943TIP3    H114786   4.582   2.683   3.022
 4943TIP3    H214787   4.619   2.653   2.878
 4944TIP3   OH214788   1.129   1.900   6.001
 4944TIP3    H114789   1.129   1.866   6.090
 4944TIP3    H214790   1.216   1.938   5.989
 4945TIP3   OH214791   0.328   6.364   5.372
 4945TIP3    H114792   0.266   6.316   5.318
 4945TIP3    H214793   0.378   6.297   5.418
 4946TIP3   OH214794   6.933   7.238   1.536
 4946TIP3    H114795   6.945   7.294   1.614
 4946TIP3    H214796   6.933   7.300   1.463
 4947TIP3   OH214797   5.481   6.575   0.263
 4947TIP3    H114798   5.511   6.625   0.186
 4947TIP3    H214799   5.391   6.605   0.278
 4948TIP3   OH214800   6.793   0.291   0.379
 4948TIP3    H114801   6.839   0.355   0.324
 4948TIP3    H214802   6.766   0.222   0.318
 4949TIP3   OH214803   0.526   7.600   6.012
 4949TIP3    H114804   0.573   7.556   5.941
 4949TIP3    H214805   0.472   7.666   5.968
 4950TIP3   OH214806   4.662   4.325   4.443
 4950TIP3    H114807   4.632   4.350   4.356
 4950TIP3    H214808   4.753   4.297   4.430
 4951TIP3   OH214809   6.359   3.961   1.823
 4951TIP3    H114810   6.446   3.924   1.809
 4951TIP3    H214811   6.306   3.888   1.855
 4952TIP3   OH214812   1.743   7.383   4.328
 4952TIP3    H114813   1.705   7.335   4.255
 4952TIP3    H214814   1.694   7.465   4.333
 4953TIP3   OH214815   2.260   4.180   4.054
 4953TIP3    H114816   2.222   4.209   4.136
 4953TIP3    H214817   2.310   4.102   4.077
 4954TIP3   OH214818   5.820   0.769   3.177
 4954TIP3    H114819   5.800   0.840   3.117
 4954TIP3    H214820   5.869   0.810   3.248
 4955TIP3   OH214821   4.640   0.717   1.587
 4955TIP3    H114822   4.642   0.716   1.491
 4955TIP3    H214823   4.675   0.632   1.613
 4956TIP3   OH214824   6.524   1.687   4.672
 4956TIP3    H114825   6.544   1.768   4.625
 4956TIP3    H214826   6.551   1.704   4.762
 4957TIP3   OH214827   3.088   3.363   4.217
 4957TIP3    H114828   3.154   3.335   4.280
 4957TIP3    H214829   3.136   3.415   4.153
 4958TIP3   OH214830   5.551   4.388   0.506
 4958TIP3    H114831   5.525   4.422   0.420
 4958TIP3    H214832   5.569   4.466   0.558
 4959TIP3   OH214833   1.729   2.059   0.961
 4959TIP3    H114834   1.806   2.107   0.928
 4959TIP3    H214835   1.704   2.105   1.040
 4960TIP3   OH214836   0.793   2.521   5.735
 4960TIP3    H114837   0.854   2.506   5.663
 4960TIP3    H214838   0.749   2.437   5.748
 4961TIP3   OH214839   6.822   7.025   5.675
 4961TIP3    H114840   6.765   7.021   5.598
 4961TIP3    H214841   6.907   7.050   5.641
 4962TIP3   OH214842   2.190   4.280   6.493
 4962TIP3    H114843   2.163   4.248   6.579
 4962TIP3    H214844   2.261   4.222   6.466
 4963TIP3   OH214845   6.013   4.603   0.947
 4963TIP3    H114846   6.098   4.642   0.930
 4963TIP3    H214847   6.028   4.508   0.944
 4964TIP3   OH214848   5.921   6.210   0.752
 4964TIP3    H114849   5.943   6.156   0.828
 4964TIP3    H214850   5.883   6.149   0.689
 4965TIP3   OH214851   7.588   7.248   1.996
 4965TIP3    H114852   7.594   7.333   1.953
 4965TIP3    H214853   7.678   7.215   1.997
 4966TIP3   OH214854   3.885   7.788   4.923
 4966TIP3    H114855   3.959   7.729   4.910
 4966TIP3    H214856   3.924   7.875   4.933
 4967TIP3   OH214857   0.491   2.529   4.054
 4967TIP3    H114858   0.575   2.560   4.020
 4967TIP3    H214859   0.514   2.464   4.120
 4968TIP3   OH214860   1.436   6.155   1.358
 4968TIP3    H114861   1.376   6.100   1.307
 4968TIP3    H214862   1.456   6.228   1.300
 4969TIP3   OH214863   2.861   4.738   4.007
 4969TIP3    H114864   2.786   4.684   4.030
 4969TIP3    H214865   2.935   4.696   4.051
 4970TIP3   OH214866   1.714   0.524   5.044
 4970TIP3    H114867   1.720   0.524   4.949
 4970TIP3    H214868   1.630   0.482   5.063
 4971TIP3   OH214869   2.547   5.346   5.246
 4971TIP3    H114870   2.471   5.304   5.207
 4971TIP3    H214871   2.618   5.330   5.184
 4972TIP3   OH214872   0.379   5.453   2.141
 4972TIP3    H114873   0.391   5.361   2.167
 4972TIP3    H214874   0.455   5.498   2.177
 4973TIP3   OH214875   0.185   1.913   5.407
 4973TIP3    H114876   0.105   1.965   5.413
 4973TIP3    H214877   0.186   1.882   5.316
 4974TIP3   OH214878   1.398   2.264   2.786
 4974TIP3    H114879   1.472   2.229   2.837
 4974TIP3    H214880   1.343   2.308   2.850
 4975TIP3   OH214881   6.663   3.071   3.093
 4975TIP3    H114882   6.642   3.130   3.021
 4975TIP3    H214883   6.670   2.985   3.052
 4976TIP3   OH214884   6.002   7.615   2.884
 4976TIP3    H114885   6.043   7.689   2.840
 4976TIP3    H214886   6.074   7.572   2.931
 4977TIP3   OH214887   4.212   6.922   2.330
 4977TIP3    H114888   4.236   6.898   2.240
 4977TIP3    H214889   4.271   6.995   2.351
 4978TIP3   OH214890   1.034   3.802   6.178
 4978TIP3    H114891   1.063   3.786   6.088
 4978TIP3    H214892   1.023   3.714   6.215
 4979TIP3   OH214893   1.011   4.870   2.690
 4979TIP3    H114894   1.018   4.860   2.595
 4979TIP3    H214895   1.088   4.921   2.715
 4980TIP3   OH214896   5.829   5.015   5.242
 4980TIP3    H114897   5.749   5.007   5.190
 4980TIP3    H214898   5.838   4.931   5.285
 4981TIP3   OH214899   0.852   3.776   0.018
 4981TIP3    H114900   0.853   3.761  -0.077
 4981TIP3    H214901   0.932   3.734   0.049
 4982TIP3   OH214902   5.344   3.904   0.854
 4982TIP3    H114903   5.378   3.911   0.943
 4982TIP3    H214904   5.281   3.832   0.859
 4983TIP3   OH214905   2.641   6.178   5.270
 4983TIP3    H114906   2.569   6.115   5.269
 4983TIP3    H214907   2.717   6.127   5.296
 4984TIP3   OH214908   7.532   2.859   6.438
 4984TIP3    H114909   7.545   2.888   6.348
 4984TIP3    H214910   7.509   2.766   6.429
 4985TIP3   OH214911   6.399   0.528   5.395
 4985TIP3    H114912   6.482   0.484   5.377
 4985TIP3    H214913   6.382   0.581   5.316
 4986TIP3   OH214914   0.385   3.343   2.399
 4986TIP3    H114915   0.334   3.423   2.416
 4986TIP3    H214916   0.394   3.302   2.485
 4987TIP3   OH214917   1.753   5.653   1.236
 4987TIP3    H114918   1.760   5.625   1.327
 4987TIP3    H214919   1.756   5.748   1.240
 4988TIP3   OH214920   7.775   2.094   2.346
 4988TIP3    H114921   7.867   2.077   2.369
 4988TIP3    H214922   7.780   2.173   2.292
 4989TIP3   OH214923   3.234   7.669   4.959
 4989TIP3    H114924   3.293   7.657   4.885
 4989TIP3    H214925   3.233   7.764   4.975
 4990TIP3   OH214926   0.207   2.903   1.600
 4990TIP3    H114927   0.183   2.818   1.565
 4990TIP3    H214928   0.125   2.940   1.632
 4991TIP3   OH214929   6.648   5.399   6.756
 4991TIP3    H114930   6.642   5.472   6.695
 4991TIP3    H214931   6.681   5.326   6.704
 4992TIP3   OH214932   7.586   7.546   6.103
 4992TIP3    H114933   7.613   7.531   6.013
 4992TIP3    H214934   7.491   7.545   6.101
 4993TIP3   OH214935   6.205   0.259   6.386
 4993TIP3    H114936   6.283   0.232   6.337
 4993TIP3    H214937   6.190   0.189   6.449
 4994TIP3   OH214938   2.765   3.953   5.853
 4994TIP3    H114939   2.676   3.984   5.865
 4994TIP3    H214940   2.769   3.923   5.763
 4995TIP3   OH214941   2.836   3.415   4.720
 4995TIP3    H114942   2.888   3.481   4.766
 4995TIP3    H214943   2.826   3.343   4.783
 4996TIP3   OH214944   4.404   2.508   6.084
 4996TIP3    H114945   4.423   2.415   6.067
 4996TIP3    H214946   4.468   2.533   6.151
 4997TIP3   OH214947   1.452   0.632   0.980
 4997TIP3    H114948   1.523   0.645   0.917
 4997TIP3    H214949   1.383   0.693   0.952
 4998TIP3   OH214950   2.502   3.432   4.186
 4998TIP3    H114951   2.550   3.459   4.265
 4998TIP3    H214952   2.482   3.514   4.141
 4999TIP3   OH214953   4.431   4.524   1.177
 4999TIP3    H114954   4.388   4.605   1.207
 4999TIP3    H214955   4.504   4.512   1.238
 5000TIP3   OH214956   4.422   6.813   5.522
 5000TIP3    H114957   4.514   6.817   5.496
 5000TIP3    H214958   4.408   6.893   5.572
 5001TIP3   OH214959   4.956   7.673   4.934
 5001TIP3    H114960   4.898   7.743   4.963
 5001TIP3    H214961   4.912   7.634   4.859
 5002TIP3   OH214962   2.572   2.895   6.446
 5002TIP3    H114963   2.503   2.871   6.508
 5002TIP3    H214964   2.625   2.815   6.438
 5003TIP3   OH214965   2.918   1.492   2.607
 5003TIP3    H114966   2.826   1.475   2.629
 5003TIP3    H214967   2.924   1.587   2.600
 5004TIP3   OH214968   2.283   6.922   3.034
 5004TIP3    H114969   2.214   6.856   3.023
 5004TIP3    H214970   2.347   6.901   2.967
 5005TIP3   OH214971   7.711   2.111   6.706
 5005TIP3    H114972   7.645   2.154   6.652
 5005TIP3    H214973   7.789   2.108   6.650
 5006TIP3   OH214974   0.523   5.399   0.738
 5006TIP3    H114975   0.496   5.487   0.766
 5006TIP3    H214976   0.611   5.412   0.704
 5007TIP3   OH214977   3.512   1.295   3.152
 5007TIP3    H114978   3.466   1.211   3.157
 5007TIP3    H214979   3.522   1.312   3.058
 5008TIP3   OH214980   1.304   6.524   3.579
 5008TIP3    H114981   1.359   6.596   3.547
 5008TIP3    H214982   1.215   6.558   3.575
 5009TIP3   OH214983   4.491   3.088   3.388
 5009TIP3    H114984   4.500   3.159   3.451
 5009TIP3    H214985   4.554   3.021   3.419
 5010TIP3   OH214986   0.655   0.543   4.389
 5010TIP3    H114987   0.642   0.499   4.473
 5010TIP3    H214988   0.585   0.608   4.385
 5011TIP3   OH214989   4.590   4.922   3.382
 5011TIP3    H114990   4.679   4.956   3.372
 5011TIP3    H214991   4.595   4.863   3.457
 5012TIP3   OH214992   6.780   7.127   2.671
 5012TIP3    H114993   6.691   7.100   2.647
 5012TIP3    H214994   6.834   7.100   2.598
 5013TIP3   OH214995   1.613   1.137   3.541
 5013TIP3    H114996   1.550   1.128   3.613
 5013TIP3    H214997   1.682   1.075   3.561
 5014TIP3   OH214998   8.230   0.513   5.561
 5014TIP3    H114999   8.320   0.480   5.556
 5014TIP3    H215000   8.180   0.440   5.598
 5015TIP3   OH215001   1.311   2.083   4.130
 5015TIP3    H115002   1.237   2.023   4.130
 5015TIP3    H215003   1.367   2.051   4.059
 5016TIP3   OH215004   0.069   6.959   4.123
 5016TIP3    H115005   0.081   6.981   4.216
 5016TIP3    H215006  -0.026   6.958   4.111
 5017TIP3   OH215007   1.228   6.611   0.435
 5017TIP3    H115008   1.150   6.605   0.491
 5017TIP3    H215009   1.248   6.520   0.412
 5018TIP3   OH215010   0.203   1.689   4.967
 5018TIP3    H115011   0.139   1.619   4.955
 5018TIP3    H215012   0.287   1.643   4.972
 5019TIP3   OH215013   1.571   3.416   6.603
 5019TIP3    H115014   1.585   3.471   6.680
 5019TIP3    H215015   1.651   3.365   6.595
 5020TIP3   OH215016   5.823   3.001   3.419
 5020TIP3    H115017   5.761   3.049   3.475
 5020TIP3    H215018   5.889   2.967   3.480
 5021TIP3   OH215019   5.427   5.336   6.263
 5021TIP3    H115020   5.381   5.262   6.224
 5021TIP3    H215021   5.394   5.412   6.215
 5022TIP3   OH215022   5.219   2.835   0.615
 5022TIP3    H115023   5.128   2.853   0.591
 5022TIP3    H215024   5.226   2.864   0.706
 5023TIP3   OH215025   4.695   2.914   3.473
 5023TIP3    H115026   4.787   2.938   3.482
 5023TIP3    H215027   4.695   2.844   3.408
 5024TIP3   OH215028   2.491   1.374   4.439
 5024TIP3    H115029   2.549   1.440   4.476
 5024TIP3    H215030   2.511   1.294   4.488
 5025TIP3   OH215031   2.759   4.815   1.270
 5025TIP3    H115032   2.811   4.752   1.320
 5025TIP3    H215033   2.689   4.764   1.231
 5026TIP3   OH215034   6.294   4.101   2.055
 5026TIP3    H115035   6.372   4.125   2.106
 5026TIP3    H215036   6.326   4.046   1.985
 5027TIP3   OH215037   1.592   5.681   3.158
 5027TIP3    H115038   1.569   5.771   3.134
 5027TIP3    H215039   1.599   5.683   3.253
 5028TIP3   OH215040   4.084   4.704   4.664
 5028TIP3    H115041   4.034   4.764   4.720
 5028TIP3    H215042   4.061   4.729   4.575
 5029TIP3   OH215043   7.943   5.072   5.016
 5029TIP3    H115044   7.993   5.092   5.095
 5029TIP3    H215045   7.851   5.079   5.043
 5030TIP3   OH215046   2.857   0.830   4.921
 5030TIP3    H115047   2.849   0.824   5.016
 5030TIP3    H215048   2.921   0.763   4.898
 5031TIP3   OH215049   3.215   1.068   4.573
 5031TIP3    H115050   3.236   1.054   4.666
 5031TIP3    H215051   3.156   1.144   4.574
 5032TIP3   OH215052   2.168   2.513   3.208
 5032TIP3    H115053   2.096   2.457   3.238
 5032TIP3    H215054   2.218   2.457   3.148
 5033TIP3   OH215055   5.252   0.483   6.630
 5033TIP3    H115056   5.285   0.409   6.579
 5033TIP3    H215057   5.168   0.454   6.664
 5034TIP3   OH215058   5.894   2.655   2.370
 5034TIP3    H115059   5.861   2.640   2.458
 5034TIP3    H215060   5.971   2.710   2.382
 5035TIP3   OH215061   8.018   2.530   6.358
 5035TIP3    H115062   8.059   2.602   6.405
 5035TIP3    H215063   8.091   2.477   6.326
 5036TIP3   OH215064   7.575   4.262   6.390
 5036TIP3    H115065   7.568   4.338   6.332
 5036TIP3    H215066   7.488   4.251   6.427
 5037TIP3   OH215067   7.873   2.704   6.204
 5037TIP3    H115068   7.911   2.649   6.273
 5037TIP3    H215069   7.886   2.653   6.124
 5038TIP3   OH215070   2.827   1.951   3.614
 5038TIP3    H115071   2.773   1.920   3.687
 5038TIP3    H215072   2.775   1.931   3.536
 5039TIP3   OH215073   3.465   6.644   4.909
 5039TIP3    H115074   3.426   6.660   4.995
 5039TIP3    H215075   3.417   6.701   4.850
 5040TIP3   OH215076   3.079   7.248   4.601
 5040TIP3    H115077   3.165   7.278   4.628
 5040TIP3    H215078   3.074   7.157   4.631
 5041TIP3   OH215079   8.126   2.028   2.686
 5041TIP3    H115080   8.052   1.969   2.674
 5041TIP3    H215081   8.201   1.971   2.704
 5042TIP3   OH215082   2.865   7.443   3.922
 5042TIP3    H115083   2.924   7.403   3.986
 5042TIP3    H215084   2.790   7.383   3.918
 5043TIP3   OH215085   2.719   6.558   1.245
 5043TIP3    H115086   2.711   6.478   1.296
 5043TIP3    H215087   2.628   6.584   1.227
 5044TIP3   OH215088   7.890   5.361   1.374
 5044TIP3    H115089   7.897   5.381   1.467
 5044TIP3    H215090   7.877   5.446   1.332
 5045TIP3   OH215091   5.024   6.891   1.957
 5045TIP3    H115092   5.119   6.884   1.953
 5045TIP3    H215093   4.992   6.814   1.910
 5046TIP3   OH215094   6.708   7.354   6.748
 5046TIP3    H115095   6.762   7.279   6.768
 5046TIP3    H215096   6.631   7.318   6.703
 5047TIP3   OH215097   6.603   4.728   2.009
 5047TIP3    H115098   6.646   4.735   1.924
 5047TIP3    H215099   6.631   4.807   2.056
 5048TIP3   OH215100   1.833   0.410   1.627
 5048TIP3    H115101   1.823   0.391   1.533
 5048TIP3    H215102   1.877   0.495   1.629
 5049TIP3   OH215103   1.846   3.794   2.192
 5049TIP3    H115104   1.752   3.792   2.206
 5049TIP3    H215105   1.862   3.879   2.150
 5050TIP3   OH215106   7.429   4.519   4.687
 5050TIP3    H115107   7.456   4.440   4.641
 5050TIP3    H215108   7.445   4.500   4.780
 5051TIP3   OH215109   3.218   4.777   2.442
 5051TIP3    H115110   3.140   4.832   2.433
 5051TIP3    H215111   3.289   4.830   2.406
 5052TIP3   OH215112   0.251   2.682   1.395
 5052TIP3    H115113   0.265   2.588   1.404
 5052TIP3    H215114   0.205   2.692   1.312
 5053TIP3   OH215115   3.519   0.790   2.070
 5053TIP3    H115116   3.532   0.719   2.133
 5053TIP3    H215117   3.461   0.852   2.115
 5054TIP3   OH215118   1.727   0.805   3.172
 5054TIP3    H115119   1.743   0.766   3.086
 5054TIP3    H215120   1.812   0.840   3.199
 5055TIP3   OH215121   4.317   1.147   0.629
 5055TIP3    H115122   4.332   1.235   0.595
 5055TIP3    H215123   4.254   1.108   0.568
 5056TIP3   OH215124   0.579   2.750   1.674
 5056TIP3    H115125   0.612   2.793   1.595
 5056TIP3    H215126   0.500   2.703   1.645
 5057TIP3   OH215127   0.361   6.865   0.884
 5057TIP3    H115128   0.326   6.814   0.957
 5057TIP3    H215129   0.449   6.831   0.871
 5058TIP3   OH215130   5.286   4.473   4.238
 5058TIP3    H115131   5.316   4.415   4.308
 5058TIP3    H215132   5.231   4.417   4.183
 5059TIP3   OH215133   5.162   3.135   6.449
 5059TIP3    H115134   5.222   3.192   6.400
 5059TIP3    H215135   5.077   3.148   6.407
 5060TIP3   OH215136   0.784   4.543   3.401
 5060TIP3    H115137   0.752   4.597   3.473
 5060TIP3    H215138   0.737   4.460   3.409
 5061TIP3   OH215139   2.018   1.482   4.315
 5061TIP3    H115140   2.034   1.402   4.366
 5061TIP3    H215141   2.099   1.532   4.323
 5062TIP3   OH215142   2.286   2.645   2.578
 5062TIP3    H115143   2.295   2.551   2.563
 5062TIP3    H215144   2.287   2.654   2.673
 5063TIP3   OH215145   4.579   1.283   2.845
 5063TIP3    H115146   4.521   1.227   2.793
 5063TIP3    H215147   4.611   1.227   2.915
 5064TIP3   OH215148   8.025   5.909   1.289
 5064TIP3    H115149   8.044   5.985   1.343
 5064TIP3    H215150   7.982   5.944   1.211
 5065TIP3   OH215151   5.662   5.253   0.943
 5065TIP3    H115152   5.609   5.296   0.875
 5065TIP3    H215153   5.605   5.251   1.020
 5066TIP3   OH215154   0.429   5.861   3.117
 5066TIP3    H115155   0.360   5.797   3.097
 5066TIP3    H215156   0.508   5.808   3.130
 5067TIP3   OH215157   2.288   2.554   6.089
 5067TIP3    H115158   2.294   2.580   5.998
 5067TIP3    H215159   2.352   2.483   6.098
 5068TIP3   OH215160   2.826   0.645   3.809
 5068TIP3    H115161   2.779   0.717   3.851
 5068TIP3    H215162   2.758   0.582   3.786
 5069TIP3   OH215163   2.492   5.259   3.158
 5069TIP3    H115164   2.451   5.184   3.202
 5069TIP3    H215165   2.568   5.222   3.114
 5070TIP3   OH215166   4.523   7.431   5.607
 5070TIP3    H115167   4.455   7.403   5.546
 5070TIP3    H215168   4.563   7.350   5.638
 5071TIP3   OH215169   0.952   6.002   4.955
 5071TIP3    H115170   0.962   5.911   4.927
 5071TIP3    H215171   0.863   6.025   4.929
 5072TIP3   OH215172   4.056   4.908   0.899
 5072TIP3    H115173   4.087   4.927   0.987
 5072TIP3    H215174   4.041   4.813   0.898
 5073TIP3   OH215175   5.873   5.452   5.851
 5073TIP3    H115176   5.854   5.396   5.776
 5073TIP3    H215177   5.811   5.525   5.843
 5074TIP3   OH215178   3.719   6.059   0.926
 5074TIP3    H115179   3.665   5.993   0.968
 5074TIP3    H215180   3.732   6.126   0.993
 5075TIP3   OH215181   3.497   4.886   1.139
 5075TIP3    H115182   3.488   4.821   1.208
 5075TIP3    H215183   3.589   4.882   1.114
 5076TIP3   OH215184   2.124   5.610   6.018
 5076TIP3    H115185   2.069   5.597   6.095
 5076TIP3    H215186   2.076   5.569   5.947
 5077TIP3   OH215187   0.688   1.376   4.569
 5077TIP3    H115188   0.757   1.372   4.636
 5077TIP3    H215189   0.731   1.347   4.489
 5078TIP3   OH215190   5.321   0.145   2.794
 5078TIP3    H115191   5.281   0.182   2.715
 5078TIP3    H215192   5.406   0.188   2.799
 5079TIP3   OH215193   2.489   4.014   5.840
 5079TIP3    H115194   2.438   3.994   5.918
 5079TIP3    H215195   2.503   4.109   5.843
 5080TIP3   OH215196   7.455   0.721   6.051
 5080TIP3    H115197   7.514   0.648   6.071
 5080TIP3    H215198   7.401   0.689   5.978
 5081TIP3   OH215199   7.440   5.073   4.234
 5081TIP3    H115200   7.365   5.129   4.210
 5081TIP3    H215201   7.454   5.019   4.156
 5082TIP3   OH215202   6.006   1.615   4.032
 5082TIP3    H115203   5.950   1.572   3.968
 5082TIP3    H215204   5.977   1.582   4.117
 5083TIP3   OH215205   1.077   5.148   0.124
 5083TIP3    H115206   0.999   5.173   0.074
 5083TIP3    H215207   1.150   5.185   0.075
 5084TIP3   OH215208   5.949   2.862   2.818
 5084TIP3    H115209   5.997   2.945   2.826
 5084TIP3    H215210   5.982   2.809   2.891
 5085TIP3   OH215211   0.155   5.229   1.187
 5085TIP3    H115212   0.192   5.291   1.249
 5085TIP3    H215213   0.071   5.204   1.225
 5086TIP3   OH215214   1.707   4.849   2.717
 5086TIP3    H115215   1.666   4.930   2.685
 5086TIP3    H215216   1.641   4.809   2.773
 5087TIP3   OH215217   6.718   6.024   6.722
 5087TIP3    H115218   6.663   6.069   6.786
 5087TIP3    H215219   6.751   6.093   6.665
 5088TIP3   OH215220   3.997   1.183   1.732
 5088TIP3    H115221   3.959   1.102   1.698
 5088TIP3    H215222   4.069   1.203   1.672
 5089TIP3   OH215223   7.844   6.533   3.902
 5089TIP3    H115224   7.781   6.473   3.863
 5089TIP3    H215225   7.907   6.551   3.832
 5090TIP3   OH215226   8.054   6.888   6.766
 5090TIP3    H115227   7.985   6.821   6.769
 5090TIP3    H215228   8.015   6.964   6.810
 5091TIP3   OH215229   7.717   2.494   4.110
 5091TIP3    H115230   7.671   2.527   4.188
 5091TIP3    H215231   7.764   2.417   4.141
 5092TIP3   OH215232   4.035   2.638   6.200
 5092TIP3    H115233   4.059   2.731   6.197
 5092TIP3    H215234   3.951   2.637   6.246
 5093TIP3   OH215235   5.853   5.622   0.685
 5093TIP3    H115236   5.815   5.707   0.705
 5093TIP3    H215237   5.851   5.574   0.768
 5094TIP3   OH215238   1.816   4.221   5.980
 5094TIP3    H115239   1.785   4.176   6.058
 5094TIP3    H215240   1.792   4.164   5.907
 5095TIP3   OH215241   1.514   2.154   4.300
 5095TIP3    H115242   1.538   2.066   4.330
 5095TIP3    H215243   1.431   2.142   4.255
 5096TIP3   OH215244   2.803   6.749   6.566
 5096TIP3    H115245   2.733   6.737   6.502
 5096TIP3    H215246   2.791   6.839   6.597
 5097TIP3   OH215247   7.494   4.298   0.527
 5097TIP3    H115248   7.472   4.212   0.563
 5097TIP3    H215249   7.516   4.280   0.435
 5098TIP3   OH215250   5.168   0.026   4.804
 5098TIP3    H115251   5.121   0.014   4.886
 5098TIP3    H215252   5.241   0.083   4.826
 5099TIP3   OH215253   7.804   6.725   6.753
 5099TIP3    H115254   7.755   6.713   6.672
 5099TIP3    H215255   7.834   6.637   6.777
 5100TIP3   OH215256   1.950   6.971   1.413
 5100TIP3    H115257   1.997   7.025   1.349
 5100TIP3    H215258   2.013   6.906   1.441
 5101TIP3   OH215259   3.429   7.411   1.189
 5101TIP3    H115260   3.405   7.489   1.239
 5101TIP3    H215261   3.346   7.373   1.161
 5102TIP3   OH215262   7.280   6.856   4.375
 5102TIP3    H115263   7.258   6.946   4.349
 5102TIP3    H215264   7.318   6.817   4.297
 5103TIP3   OH215265   5.117   1.463   5.997
 5103TIP3    H115266   5.024   1.470   5.975
 5103TIP3    H215267   5.148   1.553   6.000
 5104TIP3   OH215268   5.896   3.311   0.681
 5104TIP3    H115269   5.909   3.317   0.776
 5104TIP3    H215270   5.946   3.384   0.645
 5105TIP3   OH215271   1.976   1.943   5.809
 5105TIP3    H115272   2.057   1.946   5.860
 5105TIP3    H215273   1.918   1.884   5.857
 5106TIP3   OH215274   4.080   3.337   4.725
 5106TIP3    H115275   4.011   3.335   4.659
 5106TIP3    H215276   4.128   3.418   4.707
 5107TIP3   OH215277   7.240   1.511   6.660
 5107TIP3    H115278   7.282   1.539   6.579
 5107TIP3    H215279   7.241   1.415   6.655
 5108TIP3   OH215280   4.076   6.707   2.814
 5108TIP3    H115281   4.099   6.770   2.745
 5108TIP3    H215282   4.052   6.627   2.768
 5109TIP3   OH215283   4.706   7.567   0.204
 5109TIP3    H115284   4.664   7.495   0.249
 5109TIP3    H215285   4.640   7.636   0.201
 5110TIP3   OH215286   6.354   0.407   1.488
 5110TIP3    H115287   6.288   0.350   1.527
 5110TIP3    H215288   6.394   0.354   1.420
 5111TIP3   OH215289   3.784   5.930   0.253
 5111TIP3    H115290   3.808   6.006   0.201
 5111TIP3    H215291   3.732   5.965   0.326
 5112TIP3   OH215292   0.646   7.170   3.314
 5112TIP3    H115293   0.583   7.119   3.263
 5112TIP3    H215294   0.596   7.246   3.344
 5113TIP3   OH215295   5.466   4.018   0.023
 5113TIP3    H115296   5.454   4.080   0.095
 5113TIP3    H215297   5.528   3.954   0.057
 5114TIP3   OH215298   7.005   6.396   3.685
 5114TIP3    H115299   7.062   6.434   3.618
 5114TIP3    H215300   7.014   6.302   3.673
 5115TIP3   OH215301   1.324   7.420   6.639
 5115TIP3    H115302   1.295   7.332   6.616
 5115TIP3    H215303   1.328   7.420   6.735
 5116TIP3   OH215304   8.097   7.370   2.455
 5116TIP3    H115305   8.044   7.313   2.399
 5116TIP3    H215306   8.035   7.414   2.512
 5117TIP3   OH215307   6.360   7.307   0.376
 5117TIP3    H115308   6.379   7.293   0.284
 5117TIP3    H215309   6.331   7.398   0.381
 5118TIP3   OH215310   4.712   5.179   0.706
 5118TIP3    H115311   4.703   5.274   0.701
 5118TIP3    H215312   4.803   5.162   0.684
 5119TIP3   OH215313   0.318   3.400   1.216
 5119TIP3    H115314   0.273   3.315   1.219
 5119TIP3    H215315   0.262   3.458   1.267
 5120TIP3   OH215316   0.742   6.267   3.384
 5120TIP3    H115317   0.736   6.172   3.387
 5120TIP3    H215318   0.836   6.285   3.383
 5121TIP3   OH215319   3.428   0.218   4.808
 5121TIP3    H115320   3.355   0.156   4.812
 5121TIP3    H215321   3.465   0.205   4.721
 5122TIP3   OH215322   6.380   7.606   3.717
 5122TIP3    H115323   6.310   7.550   3.684
 5122TIP3    H215324   6.375   7.598   3.812
 5123TIP3   OH215325   2.669   4.591   4.114
 5123TIP3    H115326   2.636   4.668   4.162
 5123TIP3    H215327   2.600   4.526   4.124
 5124TIP3   OH215328   7.885   0.591   3.961
 5124TIP3    H115329   7.872   0.515   4.018
 5124TIP3    H215330   7.975   0.618   3.977
 5125TIP3   OH215331   5.604   3.472   6.469
 5125TIP3    H115332   5.529   3.515   6.428
 5125TIP3    H215333   5.569   3.431   6.548
 5126TIP3   OH215334   0.481   2.199   4.027
 5126TIP3    H115335   0.476   2.109   4.060
 5126TIP3    H215336   0.482   2.254   4.105
 5127TIP3   OH215337   6.558   3.353   1.276
 5127TIP3    H115338   6.495   3.354   1.349
 5127TIP3    H215339   6.507   3.322   1.201
 5128TIP3   OH215340   4.018   3.527   5.137
 5128TIP3    H115341   3.991   3.566   5.054
 5128TIP3    H215342   3.937   3.523   5.189
 5129TIP3   OH215343   2.935   5.732   5.902
 5129TIP3    H115344   2.892   5.687   5.974
 5129TIP3    H215345   2.886   5.814   5.892
 5130TIP3   OH215346   1.790   4.229   3.646
 5130TIP3    H115347   1.760   4.146   3.611
 5130TIP3    H215348   1.720   4.257   3.705
 5131TIP3   OH215349   0.580   1.861   1.450
 5131TIP3    H115350   0.598   1.929   1.514
 5131TIP3    H215351   0.541   1.907   1.376
 5132TIP3   OH215352   6.477   6.023   0.744
 5132TIP3    H115353   6.485   5.980   0.829
 5132TIP3    H215354   6.400   6.079   0.753
 5133TIP3   OH215355   7.313   4.422   1.678
 5133TIP3    H115356   7.391   4.412   1.624
 5133TIP3    H215357   7.242   4.433   1.616
 5134TIP3   OH215358   7.989   6.423   0.496
 5134TIP3    H115359   7.914   6.483   0.490
 5134TIP3    H215360   8.019   6.432   0.586
 5135TIP3   OH215361   2.551   5.463   5.503
 5135TIP3    H115362   2.505   5.409   5.566
 5135TIP3    H215363   2.525   5.429   5.417
 5136TIP3   OH215364   3.034   0.404   0.401
 5136TIP3    H115365   3.060   0.490   0.434
 5136TIP3    H215366   2.939   0.401   0.416
 5137TIP3   OH215367   1.181   4.588   2.554
 5137TIP3    H115368   1.168   4.527   2.481
 5137TIP3    H215369   1.138   4.668   2.526
 5138TIP3   OH215370   2.265   1.167   5.935
 5138TIP3    H115371   2.340   1.114   5.961
 5138TIP3    H215372   2.198   1.146   6.001
 5139TIP3   OH215373   6.714   6.283   3.495
 5139TIP3    H115374   6.804   6.266   3.469
 5139TIP3    H215375   6.700   6.375   3.472
 5140TIP3   OH215376   0.034   0.847   5.528
 5140TIP3    H115377   0.076   0.933   5.533
 5140TIP3    H215378  -0.002   0.843   5.440
 5141TIP3   OH215379   4.773   5.594   4.209
 5141TIP3    H115380   4.776   5.556   4.121
 5141TIP3    H215381   4.728   5.529   4.263
 5142TIP3   OH215382   4.259   1.092   4.189
 5142TIP3    H115383   4.309   1.035   4.131
 5142TIP3    H215384   4.295   1.077   4.276
 5143TIP3   OH215385   5.149   3.490   6.390
 5143TIP3    H115386   5.199   3.456   6.464
 5143TIP3    H215387   5.153   3.421   6.324
 5144TIP3   OH215388   4.837   6.996   2.372
 5144TIP3    H115389   4.783   6.997   2.451
 5144TIP3    H215390   4.887   6.915   2.379
 5145TIP3   OH215391   5.620   3.272   5.035
 5145TIP3    H115392   5.655   3.325   4.964
 5145TIP3    H215393   5.547   3.322   5.069
 5146TIP3   OH215394   6.180   5.148   5.878
 5146TIP3    H115395   6.184   5.244   5.882
 5146TIP3    H215396   6.251   5.119   5.936
 5147TIP3   OH215397   2.135   3.981   6.381
 5147TIP3    H115398   2.078   4.049   6.346
 5147TIP3    H215399   2.224   4.013   6.367
 5148TIP3   OH215400   5.296   6.974   5.811
 5148TIP3    H115401   5.313   7.012   5.897
 5148TIP3    H215402   5.309   7.047   5.750
 5149TIP3   OH215403   5.482   5.728   3.229
 5149TIP3    H115404   5.541   5.653   3.220
 5149TIP3    H215405   5.491   5.755   3.320
 5150TIP3   OH215406   5.863   6.451   0.856
 5150TIP3    H115407   5.893   6.364   0.828
 5150TIP3    H215408   5.904   6.464   0.941
 5151TIP3   OH215409   5.608   6.351   4.365
 5151TIP3    H115410   5.542   6.295   4.324
 5151TIP3    H215411   5.690   6.302   4.354
 5152TIP3   OH215412   3.194   0.551   6.621
 5152TIP3    H115413   3.133   0.532   6.550
 5152TIP3    H215414   3.141   0.595   6.687
 5153TIP3   OH215415   2.841   4.862   4.478
 5153TIP3    H115416   2.849   4.803   4.403
 5153TIP3    H215417   2.749   4.860   4.501
 5154TIP3   OH215418   2.437   0.607   1.453
 5154TIP3    H115419   2.449   0.552   1.376
 5154TIP3    H215420   2.510   0.584   1.511
 5155TIP3   OH215421   4.301   3.591   5.933
 5155TIP3    H115422   4.296   3.674   5.885
 5155TIP3    H215423   4.232   3.537   5.895
 5156TIP3   OH215424   4.086   1.066   0.849
 5156TIP3    H115425   4.103   1.045   0.941
 5156TIP3    H215426   4.170   1.051   0.805
 5157TIP3   OH215427   6.451   2.676   3.446
 5157TIP3    H115428   6.545   2.673   3.466
 5157TIP3    H215429   6.418   2.591   3.473
 5158TIP3   OH215430   0.033   2.717   4.164
 5158TIP3    H115431   0.077   2.632   4.175
 5158TIP3    H215432  -0.052   2.695   4.127
 5159TIP3   OH215433   5.148   1.994   4.315
 5159TIP3    H115434   5.177   2.058   4.249
 5159TIP3    H215435   5.226   1.979   4.369
 5160TIP3   OH215436   8.221   1.303   1.390
 5160TIP3    H115437   8.139   1.300   1.341
 5160TIP3    H215438   8.260   1.387   1.366
 5161TIP3   OH215439   1.044   0.142   6.446
 5161TIP3    H115440   0.960   0.183   6.425
 5161TIP3    H215441   1.081   0.196   6.516
 5162TIP3   OH215442   0.700   4.034   0.661
 5162TIP3    H115443   0.663   4.054   0.575
 5162TIP3    H215444   0.734   4.117   0.693
 5163TIP3   OH215445   0.985   5.549   1.612
 5163TIP3    H115446   1.059   5.489   1.607
 5163TIP3    H215447   0.929   5.512   1.681
 5164TIP3   OH215448   4.931   0.828   2.840
 5164TIP3    H115449   4.924   0.843   2.935
 5164TIP3    H215450   4.909   0.913   2.802
 5165TIP3   OH215451   4.271   5.367   1.027
 5165TIP3    H115452   4.266   5.459   1.053
 5165TIP3    H215453   4.310   5.369   0.940
 5166TIP3   OH215454   2.424   6.932   3.619
 5166TIP3    H115455   2.464   6.934   3.532
 5166TIP3    H215456   2.406   6.839   3.634
 5167TIP3   OH215457   2.332   6.780   4.345
 5167TIP3    H115458   2.350   6.720   4.418
 5167TIP3    H215459   2.267   6.841   4.378
 5168TIP3   OH215460   2.696   5.084   4.269
 5168TIP3    H115461   2.639   5.100   4.194
 5168TIP3    H215462   2.762   5.023   4.237
 5169TIP3   OH215463   2.990   0.423   6.218
 5169TIP3    H115464   2.975   0.392   6.129
 5169TIP3    H215465   3.081   0.401   6.237
 5170TIP3   OH215466   3.063   1.361   5.751
 5170TIP3    H115467   2.992   1.302   5.723
 5170TIP3    H215468   3.020   1.424   5.809
 5171TIP3   OH215469   7.184   0.951   5.462
 5171TIP3    H115470   7.247   0.995   5.520
 5171TIP3    H215471   7.105   1.005   5.468
 5172TIP3   OH215472   4.709   1.145   4.088
 5172TIP3    H115473   4.620   1.176   4.074
 5172TIP3    H215474   4.717   1.068   4.032
 5173TIP3   OH215475   1.060   4.074   6.632
 5173TIP3    H115476   1.150   4.088   6.660
 5173TIP3    H215477   1.024   4.162   6.623
 5174TIP3   OH215478   5.291   5.577   6.413
 5174TIP3    H115479   5.299   5.489   6.450
 5174TIP3    H215480   5.241   5.564   6.332
 5175TIP3   OH215481   7.998   6.895   5.484
 5175TIP3    H115482   7.930   6.959   5.499
 5175TIP3    H215483   8.006   6.891   5.388
 5176TIP3   OH215484   7.746   2.494   5.406
 5176TIP3    H115485   7.721   2.439   5.332
 5176TIP3    H215486   7.841   2.487   5.411
 5177TIP3   OH215487   0.903   2.705   5.927
 5177TIP3    H115488   0.845   2.659   5.867
 5177TIP3    H215489   0.862   2.791   5.939
 5178TIP3   OH215490   5.422   1.899   5.217
 5178TIP3    H115491   5.341   1.935   5.254
 5178TIP3    H215492   5.470   1.864   5.292
 5179TIP3   OH215493   4.492   4.519   2.182
 5179TIP3    H115494   4.426   4.582   2.210
 5179TIP3    H215495   4.514   4.471   2.262
 5180TIP3   OH215496   1.064   2.831   3.296
 5180TIP3    H115497   1.102   2.873   3.219
 5180TIP3    H215498   1.040   2.903   3.354
 5181TIP3   OH215499   5.652   4.637   3.641
 5181TIP3    H115500   5.691   4.719   3.670
 5181TIP3    H215501   5.719   4.596   3.587
 5182TIP3   OH215502   7.390   5.022   0.475
 5182TIP3    H115503   7.389   5.023   0.571
 5182TIP3    H215504   7.478   5.051   0.451
 5183TIP3   OH215505   2.181   6.486   0.162
 5183TIP3    H115506   2.184   6.548   0.089
 5183TIP3    H215507   2.217   6.405   0.126
 5184TIP3   OH215508   7.290   1.281   4.137
 5184TIP3    H115509   7.264   1.366   4.100
 5184TIP3    H215510   7.303   1.225   4.061
 5185TIP3   OH215511   3.931   0.309   0.454
 5185TIP3    H115512   3.953   0.400   0.432
 5185TIP3    H215513   3.912   0.311   0.548
 5186TIP3   OH215514   5.217   2.954   2.553
 5186TIP3    H115515   5.130   2.977   2.584
 5186TIP3    H215516   5.249   2.889   2.616
 5187TIP3   OH215517   2.760   6.372   6.029
 5187TIP3    H115518   2.850   6.388   6.003
 5187TIP3    H215519   2.732   6.298   5.974
 5188TIP3   OH215520   6.763   1.913   0.635
 5188TIP3    H115521   6.781   1.894   0.543
 5188TIP3    H215522   6.695   1.851   0.660
 5189TIP3   OH215523   8.252   2.045   3.067
 5189TIP3    H115524   8.255   2.119   3.005
 5189TIP3    H215525   8.316   1.983   3.032
 5190TIP3   OH215526   1.347   5.788   5.409
 5190TIP3    H115527   1.285   5.853   5.441
 5190TIP3    H215528   1.297   5.736   5.346
 5191TIP3   OH215529   1.804   0.765   4.595
 5191TIP3    H115530   1.807   0.843   4.539
 5191TIP3    H215531   1.711   0.744   4.602
 5192TIP3   OH215532   6.913   6.844   3.484
 5192TIP3    H115533   6.965   6.890   3.549
 5192TIP3    H215534   6.854   6.788   3.535
 5193TIP3   OH215535   0.045   6.362   1.894
 5193TIP3    H115536   0.008   6.446   1.866
 5193TIP3    H215537   0.066   6.317   1.812
 5194TIP3   OH215538   7.492   2.539   4.314
 5194TIP3    H115539   7.519   2.628   4.291
 5194TIP3    H215540   7.457   2.503   4.232
 5195TIP3   OH215541   6.126   2.135   0.214
 5195TIP3    H115542   6.134   2.128   0.309
 5195TIP3    H215543   6.054   2.195   0.200
 5196TIP3   OH215544   2.866   6.009   5.335
 5196TIP3    H115545   2.950   6.045   5.307
 5196TIP3    H215546   2.886   5.918   5.360
 5197TIP3   OH215547   6.034   4.852   0.255
 5197TIP3    H115548   5.942   4.832   0.240
 5197TIP3    H215549   6.075   4.848   0.169
 5198TIP3   OH215550   7.929   5.706   2.293
 5198TIP3    H115551   7.874   5.691   2.370
 5198TIP3    H215552   7.998   5.640   2.299
 5199TIP3   OH215553   4.166   1.138   1.940
 5199TIP3    H115554   4.102   1.166   1.874
 5199TIP3    H215555   4.242   1.194   1.925
 5200TIP3   OH215556   1.832   2.437   6.246
 5200TIP3    H115557   1.779   2.382   6.188
 5200TIP3    H215558   1.897   2.478   6.189
 5201TIP3   OH215559   4.892   6.935   1.482
 5201TIP3    H115560   4.964   6.912   1.540
 5201TIP3    H215561   4.933   6.977   1.406
 5202TIP3   OH215562   5.614   2.967   6.523
 5202TIP3    H115563   5.693   2.913   6.530
 5202TIP3    H215564   5.616   3.000   6.433
 5203TIP3   OH215565   7.078   5.361   0.064
 5203TIP3    H115566   7.126   5.444   0.060
 5203TIP3    H215567   7.127   5.309   0.128
 5204TIP3   OH215568   4.326   1.427   3.604
 5204TIP3    H115569   4.244   1.474   3.593
 5204TIP3    H215570   4.328   1.364   3.532
 5205TIP3   OH215571   1.787   0.217   3.210
 5205TIP3    H115572   1.713   0.175   3.167
 5205TIP3    H215573   1.808   0.158   3.283
 5206TIP3   OH215574   7.592   4.379   3.443
 5206TIP3    H115575   7.562   4.289   3.459
 5206TIP3    H215576   7.658   4.370   3.374
 5207TIP3   OH215577   8.042   0.493   2.550
 5207TIP3    H115578   8.090   0.575   2.533
 5207TIP3    H215579   7.980   0.487   2.477
 5208TIP3   OH215580   6.682   6.645   0.187
 5208TIP3    H115581   6.640   6.653   0.101
 5208TIP3    H215582   6.614   6.609   0.244
 5209TIP3   OH215583   4.272   6.198   6.708
 5209TIP3    H115584   4.226   6.213   6.626
 5209TIP3    H215585   4.210   6.148   6.762
 5210TIP3   OH215586   7.789   4.346   1.183
 5210TIP3    H115587   7.726   4.299   1.238
 5210TIP3    H215588   7.765   4.324   1.094
 5211TIP3   OH215589   4.084   7.433   1.071
 5211TIP3    H115590   4.027   7.492   1.118
 5211TIP3    H215591   4.095   7.358   1.129
 5212TIP3   OH215592   4.087   4.173   1.920
 5212TIP3    H115593   4.106   4.266   1.913
 5212TIP3    H215594   4.082   4.156   2.014
 5213TIP3   OH215595   0.613   7.516   4.043
 5213TIP3    H115596   0.645   7.496   3.955
 5213TIP3    H215597   0.521   7.541   4.031
 5214TIP3   OH215598   4.830   1.403   0.440
 5214TIP3    H115599   4.766   1.360   0.497
 5214TIP3    H215600   4.795   1.390   0.352
 5215TIP3   OH215601   2.055   4.158   5.574
 5215TIP3    H115602   2.102   4.110   5.506
 5215TIP3    H215603   1.965   4.127   5.568
 5216TIP3   OH215604   7.283   2.698   3.397
 5216TIP3    H115605   7.250   2.704   3.486
 5216TIP3    H215606   7.289   2.789   3.367
 5217TIP3   OH215607   8.003   7.779   0.077
 5217TIP3    H115608   8.016   7.705   0.017
 5217TIP3    H215609   7.972   7.739   0.158
 5218TIP3   OH215610   7.291   7.151   4.691
 5218TIP3    H115611   7.313   7.062   4.663
 5218TIP3    H215612   7.372   7.185   4.727
 5219TIP3   OH215613   1.822   2.915   2.160
 5219TIP3    H115614   1.745   2.866   2.190
 5219TIP3    H215615   1.866   2.943   2.240
 5220TIP3   OH215616   2.079   7.671   3.853
 5220TIP3    H115617   2.091   7.739   3.920
 5220TIP3    H215618   2.066   7.591   3.903
 5221TIP3   OH215619   4.945   0.852   4.936
 5221TIP3    H115620   4.984   0.801   4.865
 5221TIP3    H215621   4.898   0.788   4.990
 5222TIP3   OH215622   5.279   1.257   2.126
 5222TIP3    H115623   5.226   1.178   2.121
 5222TIP3    H215624   5.369   1.225   2.120
 5223TIP3   OH215625   6.894   2.805   2.746
 5223TIP3    H115626   6.905   2.721   2.702
 5223TIP3    H215627   6.942   2.796   2.828
 5224TIP3   OH215628   7.387   3.626   0.476
 5224TIP3    H115629   7.293   3.624   0.459
 5224TIP3    H215630   7.426   3.639   0.389
 5225TIP3   OH215631   4.456   2.964   2.488
 5225TIP3    H115632   4.452   2.870   2.508
 5225TIP3    H215633   4.380   2.979   2.431
 5226TIP3   OH215634   7.217   6.069   2.494
 5226TIP3    H115635   7.279   6.040   2.427
 5226TIP3    H215636   7.167   5.991   2.516
 5227TIP3   OH215637   7.929   2.753   4.729
 5227TIP3    H115638   7.929   2.664   4.763
 5227TIP3    H215639   7.872   2.749   4.652
 5228TIP3   OH215640   7.674   3.237   2.163
 5228TIP3    H115641   7.753   3.269   2.207
 5228TIP3    H215642   7.685   3.143   2.157
 5229TIP3   OH215643   1.779   3.563   3.627
 5229TIP3    H115644   1.816   3.475   3.641
 5229TIP3    H215645   1.828   3.619   3.686
 5230TIP3   OH215646   1.563   7.165   3.247
 5230TIP3    H115647   1.642   7.217   3.232
 5230TIP3    H215648   1.491   7.225   3.228
 5231TIP3   OH215649   4.398   7.417   4.044
 5231TIP3    H115650   4.490   7.399   4.065
 5231TIP3    H215651   4.401   7.492   3.985
 5232TIP3   OH215652   0.456   2.982   3.146
 5232TIP3    H115653   0.529   2.984   3.208
 5232TIP3    H215654   0.385   3.029   3.191
 5233TIP3   OH215655   1.570   6.563   2.247
 5233TIP3    H115656   1.636   6.575   2.180
 5233TIP3    H215657   1.574   6.644   2.299
 5234TIP3   OH215658   4.487   1.160   1.591
 5234TIP3    H115659   4.554   1.181   1.526
 5234TIP3    H215660   4.512   1.074   1.625
 5235TIP3   OH215661   6.274   6.817   5.167
 5235TIP3    H115662   6.182   6.794   5.175
 5235TIP3    H215663   6.278   6.909   5.195
 5236TIP3   OH215664   3.588   5.762   2.983
 5236TIP3    H115665   3.538   5.828   2.936
 5236TIP3    H215666   3.620   5.808   3.061
 5237TIP3   OH215667   5.345   7.254   0.792
 5237TIP3    H115668   5.312   7.317   0.856
 5237TIP3    H215669   5.272   7.194   0.777
 5238TIP3   OH215670   4.942   7.371   3.247
 5238TIP3    H115671   4.866   7.423   3.221
 5238TIP3    H215672   4.996   7.367   3.168
 5239TIP3   OH215673   3.297   3.074   0.362
 5239TIP3    H115674   3.314   3.168   0.373
 5239TIP3    H215675   3.366   3.045   0.302
 5240TIP3   OH215676   0.098   5.519   6.529
 5240TIP3    H115677   0.032   5.470   6.480
 5240TIP3    H215678   0.178   5.467   6.520
 5241TIP3   OH215679   5.090   1.014   0.437
 5241TIP3    H115680   5.025   0.990   0.371
 5241TIP3    H215681   5.123   1.099   0.408
 5242TIP3   OH215682   4.898   4.778   2.086
 5242TIP3    H115683   4.898   4.871   2.106
 5242TIP3    H215684   4.827   4.766   2.024
 5243TIP3   OH215685   3.812   4.480   0.918
 5243TIP3    H115686   3.764   4.477   1.001
 5243TIP3    H215687   3.753   4.527   0.859
 5244TIP3   OH215688   3.725   7.092   4.695
 5244TIP3    H115689   3.784   7.091   4.771
 5244TIP3    H215690   3.726   7.183   4.666
 5245TIP3   OH215691   0.761   4.672   3.145
 5245TIP3    H115692   0.850   4.694   3.119
 5245TIP3    H215693   0.771   4.625   3.228
 5246TIP3   OH215694   0.334   3.890   3.498
 5246TIP3    H115695   0.273   3.825   3.532
 5246TIP3    H215696   0.420   3.848   3.502
 5247TIP3   OH215697   3.184   5.817   4.551
 5247TIP3    H115698   3.178   5.899   4.502
 5247TIP3    H215699   3.197   5.750   4.484
 5248TIP3   OH215700   1.819   2.164   4.696
 5248TIP3    H115701   1.823   2.076   4.732
 5248TIP3    H215702   1.726   2.180   4.680
 5249TIP3   OH215703   3.680   3.803   1.612
 5249TIP3    H115704   3.632   3.729   1.649
 5249TIP3    H215705   3.757   3.811   1.667
 5250TIP3   OH215706   2.132   3.487   4.710
 5250TIP3    H115707   2.068   3.436   4.760
 5250TIP3    H215708   2.102   3.483   4.619
 5251TIP3   OH215709   1.540   2.021   3.472
 5251TIP3    H115710   1.497   2.034   3.557
 5251TIP3    H215711   1.587   1.938   3.481
 5252TIP3   OH215712   6.240   3.934   4.439
 5252TIP3    H115713   6.191   3.967   4.515
 5252TIP3    H215714   6.203   3.980   4.364
 5253TIP3   OH215715   7.982   7.631   0.376
 5253TIP3    H115716   8.029   7.710   0.400
 5253TIP3    H215717   7.891   7.649   0.398
 5254TIP3   OH215718   5.501   5.220   5.198
 5254TIP3    H115719   5.465   5.290   5.144
 5254TIP3    H215720   5.577   5.189   5.149
 5255TIP3   OH215721   6.559   2.062   2.385
 5255TIP3    H115722   6.587   2.130   2.325
 5255TIP3    H215723   6.554   2.106   2.470
 5256TIP3   OH215724   3.006   5.267   1.251
 5256TIP3    H115725   3.098   5.280   1.228
 5256TIP3    H215726   3.004   5.273   1.346
 5257TIP3   OH215727   3.345   7.702   2.958
 5257TIP3    H115728   3.425   7.746   2.928
 5257TIP3    H215729   3.278   7.770   2.956
 5258TIP3   OH215730   2.613   0.880   4.764
 5258TIP3    H115731   2.640   0.807   4.708
 5258TIP3    H215732   2.691   0.898   4.818
 5259TIP3   OH215733   3.744   0.935   6.757
 5259TIP3    H115734   3.805   0.878   6.804
 5259TIP3    H215735   3.747   0.904   6.666
 5260TIP3   OH215736   3.353   6.167   3.839
 5260TIP3    H115737   3.404   6.246   3.856
 5260TIP3    H215738   3.396   6.099   3.892
 5261TIP3   OH215739   3.754   5.890   3.495
 5261TIP3    H115740   3.806   5.827   3.445
 5261TIP3    H215741   3.667   5.886   3.455
 5262TIP3   OH215742   0.757   1.185   1.053
 5262TIP3    H115743   0.735   1.111   0.998
 5262TIP3    H215744   0.678   1.238   1.056
 5263TIP3   OH215745   2.199   3.578   5.424
 5263TIP3    H115746   2.146   3.607   5.499
 5263TIP3    H215747   2.181   3.642   5.356
 5264TIP3   OH215748   4.612   1.246   6.265
 5264TIP3    H115749   4.694   1.276   6.226
 5264TIP3    H215750   4.593   1.310   6.334
 5265TIP3   OH215751   2.851   1.776   4.520
 5265TIP3    H115752   2.918   1.841   4.501
 5265TIP3    H215753   2.812   1.756   4.435
 5266TIP3   OH215754   5.014   5.839   2.150
 5266TIP3    H115755   4.992   5.766   2.207
 5266TIP3    H215756   5.096   5.813   2.107
 5267TIP3   OH215757   3.799   3.053   3.034
 5267TIP3    H115758   3.774   2.977   3.086
 5267TIP3    H215759   3.806   3.019   2.945
 5268TIP3   OH215760   6.935   2.863   5.632
 5268TIP3    H115761   6.967   2.879   5.543
 5268TIP3    H215762   6.894   2.945   5.659
 5269TIP3   OH215763   4.835   5.543   3.927
 5269TIP3    H115764   4.794   5.456   3.923
 5269TIP3    H215765   4.924   5.525   3.958
 5270TIP3   OH215766   8.066   5.601   5.716
 5270TIP3    H115767   8.076   5.626   5.807
 5270TIP3    H215768   8.074   5.683   5.667
 5271TIP3   OH215769   6.692   5.459   2.170
 5271TIP3    H115770   6.731   5.375   2.194
 5271TIP3    H215771   6.610   5.462   2.218
 5272TIP3   OH215772   8.304   6.069   5.616
 5272TIP3    H115773   8.211   6.088   5.604
 5272TIP3    H215774   8.307   6.009   5.691
 5273TIP3   OH215775   2.874   7.467   5.984
 5273TIP3    H115776   2.852   7.501   6.071
 5273TIP3    H215777   2.923   7.538   5.943
 5274TIP3   OH215778   6.252   2.392   6.535
 5274TIP3    H115779   6.171   2.342   6.546
 5274TIP3    H215780   6.225   2.483   6.534
 5275TIP3   OH215781   5.576   6.146   3.069
 5275TIP3    H115782   5.630   6.067   3.064
 5275TIP3    H215783   5.496   6.123   3.021
 5276TIP3   OH215784   1.011   1.848   3.896
 5276TIP3    H115785   0.982   1.935   3.926
 5276TIP3    H215786   1.051   1.864   3.811
 5277TIP3   OH215787   6.212   0.332   3.362
 5277TIP3    H115788   6.156   0.281   3.421
 5277TIP3    H215789   6.171   0.322   3.276
 5278TIP3   OH215790   1.467   3.338   2.096
 5278TIP3    H115791   1.372   3.349   2.093
 5278TIP3    H215792   1.502   3.422   2.067
 5279TIP3   OH215793   5.109   0.293   3.476
 5279TIP3    H115794   5.197   0.303   3.439
 5279TIP3    H215795   5.076   0.383   3.483
 5280TIP3   OH215796   5.184   3.963   2.587
 5280TIP3    H115797   5.211   3.900   2.521
 5280TIP3    H215798   5.258   4.023   2.596
 5281TIP3   OH215799   4.994   2.855   6.079
 5281TIP3    H115800   4.911   2.871   6.123
 5281TIP3    H215801   5.016   2.939   6.039
 5282TIP3   OH215802   3.288   0.989   4.833
 5282TIP3    H115803   3.338   1.071   4.831
 5282TIP3    H215804   3.298   0.957   4.923
 5283TIP3   OH215805   7.147   7.295   3.211
 5283TIP3    H115806   7.186   7.254   3.134
 5283TIP3    H215807   7.108   7.376   3.177
 5284TIP3   OH215808   8.113   0.515   1.522
 5284TIP3    H115809   8.046   0.496   1.456
 5284TIP3    H215810   8.179   0.566   1.476
 5285TIP3   OH215811   5.563   1.813   2.844
 5285TIP3    H115812   5.506   1.869   2.897
 5285TIP3    H215813   5.624   1.873   2.802
 5286TIP3   OH215814   5.554   1.206   2.072
 5286TIP3    H115815   5.594   1.151   2.004
 5286TIP3    H215816   5.629   1.242   2.119
 5287TIP3   OH215817   2.061   4.162   3.637
 5287TIP3    H115818   2.065   4.079   3.589
 5287TIP3    H215819   1.970   4.191   3.628
 5288TIP3   OH215820   3.942   3.931   5.267
 5288TIP3    H115821   3.854   3.893   5.260
 5288TIP3    H215822   3.971   3.940   5.176
 5289TIP3   OH215823   8.178   0.941   5.955
 5289TIP3    H115824   8.221   1.019   5.920
 5289TIP3    H215825   8.194   0.873   5.889
 5290TIP3   OH215826   5.593   5.283   2.341
 5290TIP3    H115827   5.668   5.297   2.282
 5290TIP3    H215828   5.533   5.229   2.290
 5291TIP3   OH215829   3.798   3.218   0.199
 5291TIP3    H115830   3.841   3.251   0.278
 5291TIP3    H215831   3.785   3.125   0.216
 5292TIP3   OH215832   4.590   7.357   6.194
 5292TIP3    H115833   4.567   7.294   6.126
 5292TIP3    H215834   4.608   7.303   6.271
 5293TIP3   OH215835   0.515   1.667   5.132
 5293TIP3    H115836   0.598   1.639   5.093
 5293TIP3    H215837   0.513   1.762   5.118
 5294TIP3   OH215838   2.975   3.163   4.361
 5294TIP3    H115839   3.012   3.244   4.327
 5294TIP3    H215840   2.982   3.101   4.289
 5295TIP3   OH215841   7.926   2.257   6.303
 5295TIP3    H115842   7.874   2.330   6.337
 5295TIP3    H215843   8.009   2.297   6.277
 5296TIP3   OH215844   4.717   5.275   4.197
 5296TIP3    H115845   4.624   5.290   4.213
 5296TIP3    H215846   4.722   5.257   4.103
 5297TIP3   OH215847   5.185   2.609   1.708
 5297TIP3    H115848   5.236   2.681   1.745
 5297TIP3    H215849   5.177   2.630   1.615
 5298TIP3   OH215850   3.452   4.087   0.015
 5298TIP3    H115851   3.428   4.176   0.042
 5298TIP3    H215852   3.400   4.030   0.072
 5299TIP3   OH215853   7.905   6.679   4.830
 5299TIP3    H115854   7.964   6.647   4.762
 5299TIP3    H215855   7.896   6.606   4.891
 5300TIP3   OH215856   7.119   4.540   6.761
 5300TIP3    H115857   7.171   4.467   6.796
 5300TIP3    H215858   7.078   4.505   6.682
 5301TIP3   OH215859   3.829   5.762   5.897
 5301TIP3    H115860   3.863   5.674   5.880
 5301TIP3    H215861   3.734   5.752   5.899
 5302TIP3   OH215862   1.229   2.422   2.956
 5302TIP3    H115863   1.273   2.507   2.948
 5302TIP3    H215864   1.181   2.428   3.039
 5303TIP3   OH215865   3.975   4.070   6.702
 5303TIP3    H115866   4.048   4.130   6.685
 5303TIP3    H215867   4.015   3.993   6.742
 5304TIP3   OH215868   4.993   5.164   0.638
 5304TIP3    H115869   5.045   5.192   0.714
 5304TIP3    H215870   5.053   5.109   0.588
 5305TIP3   OH215871   7.313   6.955   6.345
 5305TIP3    H115872   7.345   7.022   6.283
 5305TIP3    H215873   7.296   7.003   6.425
 5306TIP3   OH215874   0.528   1.881   5.397
 5306TIP3    H115875   0.458   1.886   5.333
 5306TIP3    H215876   0.591   1.947   5.370
 5307TIP3   OH215877   2.933   3.715   2.335
 5307TIP3    H115878   2.928   3.635   2.281
 5307TIP3    H215879   2.907   3.785   2.275
 5308TIP3   OH215880   6.724   6.895   5.387
 5308TIP3    H115881   6.670   6.953   5.441
 5308TIP3    H215882   6.711   6.808   5.426
 5309TIP3   OH215883   5.368   6.802   6.524
 5309TIP3    H115884   5.450   6.762   6.551
 5309TIP3    H215885   5.358   6.878   6.581
 5310TIP3   OH215886   0.996   6.357   6.294
 5310TIP3    H115887   1.024   6.449   6.290
 5310TIP3    H215888   1.005   6.334   6.387
 5311TIP3   OH215889   7.641   7.714   3.396
 5311TIP3    H115890   7.552   7.684   3.381
 5311TIP3    H215891   7.693   7.670   3.328
 5312TIP3   OH215892   1.778   4.381   2.474
 5312TIP3    H115893   1.836   4.306   2.488
 5312TIP3    H215894   1.715   4.351   2.409
 5313TIP3   OH215895   8.203   2.958   2.658
 5313TIP3    H115896   8.285   2.913   2.678
 5313TIP3    H215897   8.205   2.971   2.563
 5314TIP3   OH215898   1.471   2.400   4.175
 5314TIP3    H115899   1.455   2.463   4.245
 5314TIP3    H215900   1.482   2.316   4.220
 5315TIP3   OH215901   7.342   1.371   6.015
 5315TIP3    H115902   7.254   1.396   5.988
 5315TIP3    H215903   7.345   1.276   6.003
 5316TIP3   OH215904   8.070   2.917   2.168
 5316TIP3    H115905   8.035   2.833   2.140
 5316TIP3    H215906   8.148   2.930   2.113
 5317TIP3   OH215907   5.572   2.579   4.641
 5317TIP3    H115908   5.600   2.603   4.730
 5317TIP3    H215909   5.637   2.516   4.611
 5318TIP3   OH215910   2.712   4.469   0.919
 5318TIP3    H115911   2.681   4.467   0.828
 5318TIP3    H215912   2.761   4.551   0.925
 5319TIP3   OH215913   7.937   3.936   3.069
 5319TIP3    H115914   7.992   3.869   3.028
 5319TIP3    H215915   7.957   3.930   3.162
 5320TIP3   OH215916   0.906   2.931   1.231
 5320TIP3    H115917   0.891   2.839   1.255
 5320TIP3    H215918   0.821   2.973   1.240
 5321TIP3   OH215919   1.535   3.225   0.858
 5321TIP3    H115920   1.528   3.231   0.762
 5321TIP3    H215921   1.496   3.307   0.889
 5322TIP3   OH215922   6.871   1.554   1.555
 5322TIP3    H115923   6.836   1.495   1.488
 5322TIP3    H215924   6.835   1.640   1.533
 5323TIP3   OH215925   7.093   3.945   0.440
 5323TIP3    H115926   7.099   3.853   0.466
 5323TIP3    H215927   7.182   3.979   0.452
 5324TIP3   OH215928   3.225   1.290   3.967
 5324TIP3    H115929   3.197   1.199   3.977
 5324TIP3    H215930   3.311   1.284   3.927
 5325TIP3   OH215931   1.118   3.179  -0.001
 5325TIP3    H115932   1.212   3.184  -0.014
 5325TIP3    H215933   1.108   3.158   0.092
 5326TIP3   OH215934   4.145   0.836   5.394
 5326TIP3    H115935   4.206   0.813   5.324
 5326TIP3    H215936   4.178   0.918   5.429
 5327TIP3   OH215937   1.317   2.126   0.092
 5327TIP3    H115938   1.236   2.154   0.049
 5327TIP3    H215939   1.291   2.051   0.145
 5328TIP3   OH215940   2.270   5.065   6.657
 5328TIP3    H115941   2.264   5.029   6.745
 5328TIP3    H215942   2.206   5.015   6.606
 5329TIP3   OH215943   7.281   0.319   2.000
 5329TIP3    H115944   7.252   0.237   1.960
 5329TIP3    H215945   7.203   0.373   2.003
 5330TIP3   OH215946   2.189   7.763   4.429
 5330TIP3    H115947   2.156   7.820   4.499
 5330TIP3    H215948   2.280   7.746   4.454
 5331TIP3   OH215949   3.666   2.150   6.151
 5331TIP3    H115950   3.672   2.181   6.242
 5331TIP3    H215951   3.755   2.161   6.117
 5332TIP3   OH215952   2.290   5.549   5.300
 5332TIP3    H115953   2.342   5.493   5.242
 5332TIP3    H215954   2.200   5.524   5.282
 5333TIP3   OH215955   2.121   7.338   5.015
 5333TIP3    H115956   2.167   7.394   4.953
 5333TIP3    H215957   2.136   7.379   5.100
 5334TIP3   OH215958   2.185   7.404   6.614
 5334TIP3    H115959   2.138   7.476   6.655
 5334TIP3    H215960   2.273   7.408   6.651
 5335TIP3   OH215961   7.404   1.535   6.453
 5335TIP3    H115962   7.443   1.451   6.477
 5335TIP3    H215963   7.479   1.591   6.433
 5336TIP3   OH215964   8.049   5.949   2.322
 5336TIP3    H115965   8.002   5.868   2.307
 5336TIP3    H215966   8.018   5.980   2.407
 5337TIP3   OH215967   0.502   4.189   5.278
 5337TIP3    H115968   0.501   4.096   5.252
 5337TIP3    H215969   0.428   4.227   5.230
 5338TIP3   OH215970   3.007   7.776   2.626
 5338TIP3    H115971   2.947   7.721   2.576
 5338TIP3    H215972   3.089   7.727   2.626
 5339TIP3   OH215973   5.706   3.438   3.461
 5339TIP3    H115974   5.660   3.360   3.489
 5339TIP3    H215975   5.799   3.419   3.478
 5340TIP3   OH215976   4.774   6.209   6.414
 5340TIP3    H115977   4.711   6.258   6.466
 5340TIP3    H215978   4.762   6.242   6.325
 5341TIP3   OH215979   3.700   0.251   4.073
 5341TIP3    H115980   3.775   0.273   4.018
 5341TIP3    H215981   3.727   0.277   4.161
 5342TIP3   OH215982   5.146   3.745   5.766
 5342TIP3    H115983   5.059   3.768   5.733
 5342TIP3    H215984   5.161   3.804   5.840
 5343TIP3   OH215985   5.520   4.719   1.116
 5343TIP3    H115986   5.587   4.765   1.167
 5343TIP3    H215987   5.486   4.653   1.176
 5344TIP3   OH215988   2.057   6.305   2.579
 5344TIP3    H115989   2.119   6.364   2.623
 5344TIP3    H215990   2.096   6.218   2.589
 5345TIP3   OH215991   2.368   4.482   6.312
 5345TIP3    H115992   2.290   4.537   6.315
 5345TIP3    H215993   2.341   4.405   6.261
 5346TIP3   OH215994   3.065   2.750   0.032
 5346TIP3    H115995   3.064   2.699   0.113
 5346TIP3    H215996   3.128   2.820   0.048
 5347TIP3   OH215997   5.930   7.485   3.235
 5347TIP3    H115998   5.882   7.552   3.186
 5347TIP3    H215999   6.007   7.530   3.268
 5348TIP3   OH216000   3.293   6.431   2.153
 5348TIP3    H116001   3.367   6.382   2.117
 5348TIP3    H216002   3.331   6.486   2.221
 5349TIP3   OH216003   4.819   5.257   5.790
 5349TIP3    H116004   4.812   5.178   5.737
 5349TIP3    H216005   4.741   5.257   5.846
 5350TIP3   OH216006   0.866   0.968   5.824
 5350TIP3    H116007   0.898   0.880   5.801
 5350TIP3    H216008   0.927   0.999   5.890
 5351TIP3   OH216009   4.403   5.949   0.763
 5351TIP3    H116010   4.388   5.857   0.740
 5351TIP3    H216011   4.390   5.997   0.681
 5352TIP3   OH216012   5.402   5.235   4.811
 5352TIP3    H116013   5.392   5.294   4.736
 5352TIP3    H216014   5.343   5.162   4.791
 5353TIP3   OH216015   7.954   1.199   1.840
 5353TIP3    H116016   7.920   1.114   1.812
 5353TIP3    H216017   8.029   1.214   1.783
 5354TIP3   OH216018   4.608   7.014   5.072
 5354TIP3    H116019   4.527   7.057   5.098
 5354TIP3    H216020   4.656   7.081   5.023
 5355TIP3   OH216021   5.476   3.270   4.566
 5355TIP3    H116022   5.461   3.357   4.530
 5355TIP3    H216023   5.398   3.251   4.618
 5356TIP3   OH216024   7.088   4.098   5.299
 5356TIP3    H116025   7.178   4.127   5.310
 5356TIP3    H216026   7.061   4.135   5.215
 5357TIP3   OH216027   1.082   4.668   1.064
 5357TIP3    H116028   1.116   4.585   1.099
 5357TIP3    H216029   1.131   4.682   0.983
 5358TIP3   OH216030   7.016   3.805   0.188
 5358TIP3    H116031   7.099   3.805   0.140
 5358TIP3    H216032   7.032   3.862   0.263
 5359TIP3   OH216033   2.971   2.396   3.706
 5359TIP3    H116034   3.004   2.486   3.706
 5359TIP3    H216035   3.040   2.345   3.747
 5360TIP3   OH216036   2.576   0.414   3.584
 5360TIP3    H116037   2.486   0.397   3.554
 5360TIP3    H216038   2.592   0.505   3.559
 5361TIP3   OH216039   4.593   6.133   1.051
 5361TIP3    H116040   4.676   6.109   1.093
 5361TIP3    H216041   4.607   6.223   1.022
 5362TIP3   OH216042   4.588   6.792   1.000
 5362TIP3    H116043   4.604   6.794   0.906
 5362TIP3    H216044   4.557   6.879   1.022
 5363TIP3   OH216045   5.220   0.145   6.029
 5363TIP3    H116046   5.132   0.137   5.992
 5363TIP3    H216047   5.273   0.179   5.956
 5364TIP3   OH216048   5.883   3.360   0.295
 5364TIP3    H116049   5.808   3.301   0.306
 5364TIP3    H216050   5.959   3.301   0.290
 5365TIP3   OH216051   0.043   5.987   5.014
 5365TIP3    H116052   0.106   6.047   4.975
 5365TIP3    H216053   0.095   5.932   5.073
 5366TIP3   OH216054   8.296   3.142   0.353
 5366TIP3    H116055   8.270   3.231   0.378
 5366TIP3    H216056   8.247   3.125   0.273
 5367TIP3   OH216057   3.823   0.061   4.553
 5367TIP3    H116058   3.815   0.002   4.629
 5367TIP3    H216059   3.915   0.055   4.527
 5368TIP3   OH216060   6.831   6.363   1.345
 5368TIP3    H116061   6.747   6.408   1.358
 5368TIP3    H216062   6.896   6.424   1.382
 5369TIP3   OH216063   3.478   1.575   3.284
 5369TIP3    H116064   3.385   1.581   3.262
 5369TIP3    H216065   3.505   1.488   3.254
 5370TIP3   OH216066   4.307   6.329   3.596
 5370TIP3    H116067   4.345   6.417   3.600
 5370TIP3    H216068   4.376   6.275   3.555
 5371TIP3   OH216069   8.229   5.649   6.211
 5371TIP3    H116070   8.304   5.701   6.184
 5371TIP3    H216071   8.265   5.565   6.238
 5372TIP3   OH216072   1.880   1.399   0.962
 5372TIP3    H116073   1.898   1.394   0.868
 5372TIP3    H216074   1.793   1.440   0.967
 5373TIP3   OH216075   1.572   6.129   2.703
 5373TIP3    H116076   1.496   6.099   2.653
 5373TIP3    H216077   1.595   6.213   2.664
 5374TIP3   OH216078   6.930   4.595   0.793
 5374TIP3    H116079   7.006   4.620   0.846
 5374TIP3    H216080   6.960   4.608   0.703
 5375TIP3   OH216081   5.084   4.374   4.922
 5375TIP3    H116082   5.147   4.438   4.954
 5375TIP3    H216083   4.999   4.416   4.934
 5376TIP3   OH216084   6.558   7.058   5.517
 5376TIP3    H116085   6.506   7.086   5.442
 5376TIP3    H216086   6.505   6.989   5.558
 5377TIP3   OH216087   3.220   2.875   3.582
 5377TIP3    H116088   3.165   2.800   3.605
 5377TIP3    H216089   3.285   2.879   3.651
 5378TIP3   OH216090   7.699   0.317   1.099
 5378TIP3    H116091   7.763   0.388   1.092
 5378TIP3    H216092   7.752   0.237   1.090
 5379TIP3   OH216093   5.454   3.165   1.883
 5379TIP3    H116094   5.465   3.118   1.801
 5379TIP3    H216095   5.527   3.135   1.938
 5380TIP3   OH216096   6.292   4.678   6.234
 5380TIP3    H116097   6.257   4.600   6.277
 5380TIP3    H216098   6.333   4.728   6.304
 5381TIP3   OH216099   1.216   2.382   5.733
 5381TIP3    H116100   1.238   2.467   5.695
 5381TIP3    H216101   1.297   2.331   5.727
 5382TIP3   OH216102   4.161   6.534   3.900
 5382TIP3    H116103   4.103   6.577   3.963
 5382TIP3    H216104   4.221   6.603   3.871
 5383TIP3   OH216105   6.729   3.523   1.116
 5383TIP3    H116106   6.663   3.460   1.146
 5383TIP3    H216107   6.687   3.608   1.126
 5384TIP3   OH216108   2.279   0.180   5.697
 5384TIP3    H116109   2.349   0.233   5.658
 5384TIP3    H216110   2.204   0.195   5.640
 5385TIP3   OH216111   3.511   2.269   5.955
 5385TIP3    H116112   3.533   2.361   5.965
 5385TIP3    H216113   3.549   2.226   6.032
 5386TIP3   OH216114   3.636   4.140   4.844
 5386TIP3    H116115   3.658   4.157   4.936
 5386TIP3    H216116   3.543   4.162   4.838
 5387TIP3   OH216117   7.171   1.302   2.049
 5387TIP3    H116118   7.259   1.335   2.034
 5387TIP3    H216119   7.152   1.323   2.140
 5388TIP3   OH216120   1.048   3.576   1.901
 5388TIP3    H116121   1.129   3.529   1.884
 5388TIP3    H216122   1.047   3.590   1.995
 5389TIP3   OH216123   1.128   2.542   6.505
 5389TIP3    H116124   1.156   2.472   6.447
 5389TIP3    H216125   1.077   2.601   6.449
 5390TIP3   OH216126   2.223   5.452   6.409
 5390TIP3    H116127   2.291   5.401   6.453
 5390TIP3    H216128   2.157   5.388   6.383
 5391TIP3   OH216129   2.734   1.132   2.660
 5391TIP3    H116130   2.807   1.115   2.719
 5391TIP3    H216131   2.733   1.227   2.649
 5392TIP3   OH216132   0.294   2.887   2.414
 5392TIP3    H116133   0.290   2.912   2.322
 5392TIP3    H216134   0.203   2.879   2.441
 5393TIP3   OH216135   5.707   6.874   0.459
 5393TIP3    H116136   5.713   6.796   0.404
 5393TIP3    H216137   5.730   6.843   0.546
 5394TIP3   OH216138   1.916   1.686   5.691
 5394TIP3    H116139   1.938   1.626   5.762
 5394TIP3    H216140   1.962   1.767   5.713
 5395TIP3   OH216141   5.817   0.388   6.536
 5395TIP3    H116142   5.805   0.377   6.442
 5395TIP3    H216143   5.849   0.302   6.566
 5396TIP3   OH216144   0.815   7.214   3.653
 5396TIP3    H116145   0.818   7.126   3.691
 5396TIP3    H216146   0.723   7.239   3.656
 5397TIP3   OH216147   2.236   3.173   1.012
 5397TIP3    H116148   2.259   3.197   0.923
 5397TIP3    H216149   2.190   3.089   1.003
 5398TIP3   OH216150   0.841   5.229   0.857
 5398TIP3    H116151   0.878   5.247   0.944
 5398TIP3    H216152   0.790   5.148   0.869
 5399TIP3   OH216153   5.441   3.096   5.679
 5399TIP3    H116154   5.480   3.139   5.603
 5399TIP3    H216155   5.410   3.012   5.646
 5400TIP3   OH216156   7.901   3.193   0.178
 5400TIP3    H116157   7.943   3.122   0.226
 5400TIP3    H216158   7.906   3.166   0.086
 5401TIP3   OH216159   2.076   5.149   4.321
 5401TIP3    H116160   2.103   5.129   4.232
 5401TIP3    H216161   2.145   5.113   4.376
 5402TIP3   OH216162   5.502   1.699   0.326
 5402TIP3    H116163   5.561   1.740   0.389
 5402TIP3    H216164   5.559   1.667   0.256
 5403TIP3   OH216165   1.189   4.494   4.324
 5403TIP3    H116166   1.271   4.452   4.300
 5403TIP3    H216167   1.157   4.533   4.243
 5404TIP3   OH216168   0.572   0.188   2.474
 5404TIP3    H116169   0.480   0.160   2.468
 5404TIP3    H216170   0.567   0.284   2.473
 5405TIP3   OH216171   4.406   5.862   6.615
 5405TIP3    H116172   4.429   5.905   6.698
 5405TIP3    H216173   4.425   5.928   6.548
 5406TIP3   OH216174   0.734   2.171   5.992
 5406TIP3    H116175   0.778   2.206   5.914
 5406TIP3    H216176   0.642   2.193   5.979
 5407TIP3   OH216177   1.032   7.753   4.078
 5407TIP3    H116178   1.100   7.815   4.106
 5407TIP3    H216179   0.955   7.776   4.130
 5408TIP3   OH216180   0.850   3.948   2.234
 5408TIP3    H116181   0.806   4.033   2.231
 5408TIP3    H216182   0.820   3.903   2.154
 5409TIP3   OH216183   4.873   0.881   1.347
 5409TIP3    H116184   4.918   0.850   1.268
 5409TIP3    H216185   4.923   0.958   1.375
 5410TIP3   OH216186   1.337   2.416   6.292
 5410TIP3    H116187   1.285   2.336   6.282
 5410TIP3    H216188   1.389   2.422   6.212
 5411TIP3   OH216189   5.182   0.741   6.768
 5411TIP3    H116190   5.099   0.776   6.736
 5411TIP3    H216191   5.194   0.659   6.720
 5412TIP3   OH216192   4.167   2.767   5.078
 5412TIP3    H116193   4.175   2.754   4.983
 5412TIP3    H216194   4.074   2.755   5.096
 5413TIP3   OH216195   8.264   5.633   4.189
 5413TIP3    H116196   8.357   5.616   4.178
 5413TIP3    H216197   8.237   5.577   4.261
 5414TIP3   OH216198   2.797   4.588   6.451
 5414TIP3    H116199   2.805   4.560   6.360
 5414TIP3    H216200   2.719   4.542   6.483
 5415TIP3   OH216201   7.053   4.721   1.793
 5415TIP3    H116202   7.035   4.641   1.842
 5415TIP3    H216203   7.142   4.711   1.761
 5416TIP3   OH216204   2.972   4.204   3.360
 5416TIP3    H116205   2.888   4.180   3.397
 5416TIP3    H216206   3.017   4.251   3.430
 5417TIP3   OH216207   3.617   0.208   3.471
 5417TIP3    H116208   3.579   0.231   3.386
 5417TIP3    H216209   3.667   0.128   3.454
 5418TIP3   OH216210   5.239   3.639   4.244
 5418TIP3    H116211   5.212   3.729   4.264
 5418TIP3    H216212   5.196   3.619   4.161
 5419TIP3   OH216213   3.533   1.779   3.668
 5419TIP3    H116214   3.551   1.688   3.646
 5419TIP3    H216215   3.594   1.829   3.613
 5420TIP3   OH216216   6.238   6.758   3.475
 5420TIP3    H116217   6.252   6.677   3.523
 5420TIP3    H216218   6.219   6.823   3.543
 5421TIP3   OH216219   7.486   6.938   2.094
 5421TIP3    H116220   7.392   6.938   2.113
 5421TIP3    H216221   7.493   6.989   2.013
 5422TIP3   OH216222   5.928   6.275   0.431
 5422TIP3    H116223   5.875   6.206   0.472
 5422TIP3    H216224   5.941   6.246   0.341
 5423TIP3   OH216225   1.826   1.368   3.924
 5423TIP3    H116226   1.879   1.305   3.973
 5423TIP3    H216227   1.870   1.373   3.839
 5424TIP3   OH216228   6.632   2.244   2.204
 5424TIP3    H116229   6.587   2.218   2.124
 5424TIP3    H216230   6.716   2.279   2.174
 5425TIP3   OH216231   6.983   5.100   6.033
 5425TIP3    H116232   6.972   5.042   5.958
 5425TIP3    H216233   7.078   5.112   6.040
 5426TIP3   OH216234   4.357   7.117   0.651
 5426TIP3    H116235   4.381   7.025   0.666
 5426TIP3    H216236   4.347   7.153   0.739
 5427TIP3   OH216237   5.534   1.915   2.034
 5427TIP3    H116238   5.492   1.929   1.949
 5427TIP3    H216239   5.520   1.998   2.081
 5428TIP3   OH216240   3.663   1.307   0.504
 5428TIP3    H116241   3.634   1.250   0.574
 5428TIP3    H216242   3.617   1.275   0.426
 5429TIP3   OH216243   5.706   3.552   0.994
 5429TIP3    H116244   5.641   3.598   0.940
 5429TIP3    H216245   5.655   3.517   1.068
 5430TIP3   OH216246   1.320   7.726   3.625
 5430TIP3    H116247   1.253   7.682   3.675
 5430TIP3    H216248   1.366   7.781   3.689
 5431TIP3   OH216249   2.835   6.543   3.905
 5431TIP3    H116250   2.776   6.551   3.980
 5431TIP3    H216251   2.791   6.589   3.834
 5432TIP3   OH216252   0.198   4.444   4.341
 5432TIP3    H116253   0.289   4.422   4.357
 5432TIP3    H216254   0.195   4.539   4.345
 5433TIP3   OH216255   6.152   5.776   0.965
 5433TIP3    H116256   6.132   5.693   0.921
 5433TIP3    H216257   6.079   5.833   0.941
 5434TIP3   OH216258   2.702   5.507   6.704
 5434TIP3    H116259   2.608   5.513   6.691
 5434TIP3    H216260   2.736   5.474   6.621
 5435TIP3   OH216261   3.477   3.762   5.751
 5435TIP3    H116262   3.385   3.787   5.743
 5435TIP3    H216263   3.476   3.666   5.751
 5436TIP3   OH216264   4.561   4.073   1.338
 5436TIP3    H116265   4.572   4.014   1.263
 5436TIP3    H216266   4.575   4.161   1.302
 5437TIP3   OH216267   6.908   0.984   6.462
 5437TIP3    H116268   6.862   1.050   6.513
 5437TIP3    H216269   6.854   0.971   6.384
 5438TIP3   OH216270   7.246   6.846   4.804
 5438TIP3    H116271   7.327   6.856   4.755
 5438TIP3    H216272   7.253   6.762   4.848
 5439TIP3   OH216273   1.444   4.779   6.521
 5439TIP3    H116274   1.428   4.872   6.537
 5439TIP3    H216275   1.390   4.758   6.445
 5440TIP3   OH216276   2.953   5.114   2.120
 5440TIP3    H116277   2.874   5.074   2.157
 5440TIP3    H216278   3.021   5.096   2.185
 5441TIP3   OH216279   1.812   3.993   6.565
 5441TIP3    H116280   1.786   4.080   6.533
 5441TIP3    H216281   1.729   3.951   6.589
 5442TIP3   OH216282   3.392   7.761   1.981
 5442TIP3    H116283   3.476   7.795   2.014
 5442TIP3    H216284   3.375   7.684   2.034
 5443TIP3   OH216285   6.842   6.087   6.116
 5443TIP3    H116286   6.765   6.099   6.171
 5443TIP3    H216287   6.910   6.140   6.158
 5444TIP3   OH216288   0.746   5.469   6.401
 5444TIP3    H116289   0.783   5.517   6.327
 5444TIP3    H216290   0.748   5.377   6.375
 5445TIP3   OH216291   1.517   4.438   2.858
 5445TIP3    H116292   1.493   4.381   2.931
 5445TIP3    H216293   1.443   4.497   2.847
 5446TIP3   OH216294   3.343   0.762   1.209
 5446TIP3    H116295   3.382   0.837   1.163
 5446TIP3    H216296   3.357   0.782   1.302
 5447TIP3   OH216297   3.455   5.570   4.507
 5447TIP3    H116298   3.420   5.495   4.458
 5447TIP3    H216299   3.505   5.619   4.442
 5448TIP3   OH216300   3.360   3.392   4.838
 5448TIP3    H116301   3.418   3.355   4.905
 5448TIP3    H216302   3.273   3.390   4.878
 5449TIP3   OH216303   7.951   4.849   6.420
 5449TIP3    H116304   8.003   4.900   6.358
 5449TIP3    H216305   8.012   4.786   6.458
 5450TIP3   OH216306   4.797   2.586   0.100
 5450TIP3    H116307   4.892   2.576   0.109
 5450TIP3    H216308   4.777   2.545   0.016
 5451TIP3   OH216309   5.547   4.670   6.534
 5451TIP3    H116310   5.491   4.593   6.537
 5451TIP3    H216311   5.569   4.688   6.626
 5452TIP3   OH216312   3.918   6.200   0.698
 5452TIP3    H116313   3.881   6.268   0.642
 5452TIP3    H216314   4.011   6.222   0.704
 5453TIP3   OH216315   7.154   6.901   1.238
 5453TIP3    H116316   7.125   6.934   1.323
 5453TIP3    H216317   7.139   6.973   1.177
 5454TIP3   OH216318   4.217   6.153   3.798
 5454TIP3    H116319   4.246   6.211   3.869
 5454TIP3    H216320   4.230   6.205   3.719
 5455TIP3   OH216321   0.541   2.826   2.678
 5455TIP3    H116322   0.546   2.833   2.774
 5455TIP3    H216323   0.547   2.916   2.647
 5456TIP3   OH216324   8.170   4.077   5.558
 5456TIP3    H116325   8.208   4.145   5.503
 5456TIP3    H216326   8.084   4.111   5.582
 5457TIP3   OH216327   6.290   7.068   5.660
 5457TIP3    H116328   6.257   7.033   5.743
 5457TIP3    H216329   6.329   6.993   5.616
 5458TIP3   OH216330   2.841   5.558   5.688
 5458TIP3    H116331   2.881   5.592   5.768
 5458TIP3    H216332   2.748   5.575   5.698
 5459TIP3   OH216333   4.387   1.442   0.956
 5459TIP3    H116334   4.402   1.356   0.996
 5459TIP3    H216335   4.296   1.440   0.929
 5460TIP3   OH216336   6.254   2.499   0.123
 5460TIP3    H116337   6.223   2.573   0.070
 5460TIP3    H216338   6.213   2.422   0.084
 5461TIP3   OH216339   1.552   3.598   1.986
 5461TIP3    H116340   1.639   3.567   1.961
 5461TIP3    H216341   1.564   3.635   2.074
 5462TIP3   OH216342   5.459   3.111   3.737
 5462TIP3    H116343   5.457   3.070   3.823
 5462TIP3    H216344   5.380   3.079   3.693
 5463TIP3   OH216345   4.551   4.714   2.803
 5463TIP3    H116346   4.538   4.755   2.888
 5463TIP3    H216347   4.639   4.677   2.807
 5464TIP3   OH216348   1.461   1.397   1.959
 5464TIP3    H116349   1.530   1.446   1.915
 5464TIP3    H216350   1.383   1.452   1.950
 5465TIP3   OH216351   6.232   1.271   5.547
 5465TIP3    H116352   6.165   1.312   5.494
 5465TIP3    H216353   6.299   1.338   5.558
 5466TIP3   OH216354   0.781   6.723   2.283
 5466TIP3    H116355   0.745   6.686   2.202
 5466TIP3    H216356   0.785   6.649   2.344
 5467TIP3   OH216357   5.773   6.538   0.496
 5467TIP3    H116358   5.851   6.582   0.529
 5467TIP3    H216359   5.799   6.447   0.484
 5468TIP3   OH216360   6.819   6.995   1.618
 5468TIP3    H116361   6.836   7.076   1.570
 5468TIP3    H216362   6.901   6.977   1.664
 5469TIP3   OH216363   3.722   1.347   5.409
 5469TIP3    H116364   3.658   1.417   5.395
 5469TIP3    H216365   3.772   1.344   5.327
 5470TIP3   OH216366   0.568   2.142   0.194
 5470TIP3    H116367   0.548   2.211   0.131
 5470TIP3    H216368   0.604   2.187   0.270
 5471TIP3   OH216369   6.943   7.596   6.495
 5471TIP3    H116370   6.962   7.664   6.431
 5471TIP3    H216371   7.023   7.590   6.548
 5472TIP3   OH216372   2.719   0.514   5.371
 5472TIP3    H116373   2.675   0.561   5.443
 5472TIP3    H216374   2.782   0.457   5.415
 5473TIP3   OH216375   7.103   6.927   5.730
 5473TIP3    H116376   7.178   6.872   5.706
 5473TIP3    H216377   7.131   6.971   5.811
 5474TIP3   OH216378   5.992   1.547   3.302
 5474TIP3    H116379   5.940   1.612   3.348
 5474TIP3    H216380   5.946   1.532   3.220
 5475TIP3   OH216381   2.278   6.413   1.923
 5475TIP3    H116382   2.235   6.498   1.916
 5475TIP3    H216383   2.366   6.428   1.887
 5476TIP3   OH216384   5.139   1.441   3.839
 5476TIP3    H116385   5.056   1.457   3.795
 5476TIP3    H216386   5.176   1.527   3.854
 5477TIP3   OH216387   1.707   4.231   0.580
 5477TIP3    H116388   1.719   4.221   0.674
 5477TIP3    H216389   1.650   4.158   0.555
 5478TIP3   OH216390   5.579   6.192   3.537
 5478TIP3    H116391   5.486   6.198   3.559
 5478TIP3    H216392   5.584   6.220   3.445
 5479TIP3   OH216393   4.487   4.227   3.304
 5479TIP3    H116394   4.431   4.195   3.235
 5479TIP3    H216395   4.536   4.300   3.264
 5480TIP3   OH216396   3.164   4.230   1.800
 5480TIP3    H116397   3.181   4.319   1.831
 5480TIP3    H216398   3.103   4.241   1.727
 5481TIP3   OH216399   7.764   1.209   0.534
 5481TIP3    H116400   7.764   1.300   0.563
 5481TIP3    H216401   7.854   1.179   0.549
 5482TIP3   OH216402   5.424   2.548   4.232
 5482TIP3    H116403   5.397   2.469   4.280
 5482TIP3    H216404   5.349   2.607   4.240
 5483TIP3   OH216405   2.354   6.703   0.643
 5483TIP3    H116406   2.269   6.721   0.683
 5483TIP3    H216407   2.336   6.702   0.549
 5484TIP3   OH216408   1.384   3.433   0.239
 5484TIP3    H116409   1.413   3.407   0.151
 5484TIP3    H216410   1.464   3.432   0.291
 5485TIP3   OH216411   2.229   5.983   3.876
 5485TIP3    H116412   2.257   5.920   3.943
 5485TIP3    H216413   2.175   5.931   3.816
 5486TIP3   OH216414   4.048   3.845   6.393
 5486TIP3    H116415   4.141   3.821   6.395
 5486TIP3    H216416   4.013   3.809   6.475
 5487TIP3   OH216417   1.143   1.421   5.273
 5487TIP3    H116418   1.235   1.405   5.291
 5487TIP3    H216419   1.126   1.375   5.191
 5488TIP3   OH216420   0.638   6.317   3.829
 5488TIP3    H116421   0.644   6.376   3.754
 5488TIP3    H216422   0.724   6.275   3.834
 5489TIP3   OH216423   0.417   7.272   2.448
 5489TIP3    H116424   0.463   7.259   2.531
 5489TIP3    H216425   0.486   7.267   2.381
 5490TIP3   OH216426   0.064   2.014   4.510
 5490TIP3    H116427   0.018   1.931   4.525
 5490TIP3    H216428   0.140   1.990   4.457
 5491TIP3   OH216429   2.609   6.126   2.023
 5491TIP3    H116430   2.567   6.156   2.103
 5491TIP3    H216431   2.681   6.071   2.053
 5492TIP3   OH216432   4.422   6.094   0.519
 5492TIP3    H116433   4.431   6.189   0.514
 5492TIP3    H216434   4.385   6.069   0.434
 5493TIP3   OH216435   7.518   1.450   3.688
 5493TIP3    H116436   7.537   1.387   3.619
 5493TIP3    H216437   7.579   1.522   3.673
 5494TIP3   OH216438   4.486   4.859   5.969
 5494TIP3    H116439   4.539   4.831   5.894
 5494TIP3    H216440   4.436   4.934   5.937
 5495TIP3   OH216441   4.184   0.647   0.829
 5495TIP3    H116442   4.200   0.554   0.843
 5495TIP3    H216443   4.098   0.651   0.787
 5496TIP3   OH216444   3.106   4.196   5.759
 5496TIP3    H116445   3.115   4.111   5.714
 5496TIP3    H216446   3.043   4.178   5.830
 5497TIP3   OH216447   7.582   3.883   1.367
 5497TIP3    H116448   7.573   3.954   1.431
 5497TIP3    H216449   7.574   3.927   1.282
 5498TIP3   OH216450   2.726   6.489   5.531
 5498TIP3    H116451   2.802   6.441   5.565
 5498TIP3    H216452   2.717   6.459   5.440
 5499TIP3   OH216453   1.052   2.611   3.890
 5499TIP3    H116454   1.045   2.517   3.871
 5499TIP3    H216455   1.080   2.615   3.982
 5500TIP3   OH216456   1.700   5.767   5.590
 5500TIP3    H116457   1.783   5.809   5.568
 5500TIP3    H216458   1.710   5.740   5.681
 5501TIP3   OH216459   3.969   7.484   5.625
 5501TIP3    H116460   4.023   7.535   5.685
 5501TIP3    H216461   3.967   7.396   5.663
 5502TIP3   OH216462   1.266   0.511   0.358
 5502TIP3    H116463   1.223   0.561   0.426
 5502TIP3    H216464   1.353   0.490   0.393
 5503TIP3   OH216465   3.792   2.290   5.808
 5503TIP3    H116466   3.818   2.269   5.897
 5503TIP3    H216467   3.710   2.338   5.817
 5504TIP3   OH216468   4.290   6.125   3.131
 5504TIP3    H116469   4.271   6.087   3.217
 5504TIP3    H216470   4.233   6.077   3.070
 5505TIP3   OH216471   6.634   4.165   6.685
 5505TIP3    H116472   6.723   4.153   6.650
 5505TIP3    H216473   6.645   4.156   6.780
 5506TIP3   OH216474   6.335   2.436   3.486
 5506TIP3    H116475   6.303   2.367   3.428
 5506TIP3    H216476   6.402   2.392   3.539
 5507TIP3   OH216477   7.501   1.115   3.570
 5507TIP3    H116478   7.469   1.084   3.654
 5507TIP3    H216479   7.448   1.193   3.551
 5508TIP3   OH216480   5.648   5.625   4.993
 5508TIP3    H116481   5.571   5.676   5.020
 5508TIP3    H216482   5.627   5.596   4.904
 5509TIP3   OH216483   1.816   7.342   2.210
 5509TIP3    H116484   1.732   7.303   2.185
 5509TIP3    H216485   1.849   7.383   2.130
 5510TIP3   OH216486   7.426   4.036   0.580
 5510TIP3    H116487   7.461   3.951   0.605
 5510TIP3    H216488   7.393   4.023   0.491
 5511TIP3   OH216489   7.548   2.227   5.508
 5511TIP3    H116490   7.486   2.199   5.575
 5511TIP3    H216491   7.604   2.291   5.552
 5512TIP3   OH216492   4.668   0.793   5.211
 5512TIP3    H116493   4.756   0.795   5.174
 5512TIP3    H216494   4.681   0.778   5.304
 5513TIP3   OH216495   2.291   5.065   4.461
 5513TIP3    H116496   2.338   5.146   4.477
 5513TIP3    H216497   2.309   5.011   4.538
 5514TIP3   OH216498   3.083   3.497   3.852
 5514TIP3    H116499   3.113   3.552   3.780
 5514TIP3    H216500   3.114   3.543   3.931
 5515TIP3   OH216501   4.780   2.725   1.190
 5515TIP3    H116502   4.730   2.645   1.170
 5515TIP3    H216503   4.856   2.721   1.132
 5516TIP3   OH216504   6.519   2.408   0.129
 5516TIP3    H116505   6.468   2.332   0.102
 5516TIP3    H216506   6.453   2.477   0.142
 5517TIP3   OH216507   5.239   2.762   4.961
 5517TIP3    H116508   5.223   2.838   5.017
 5517TIP3    H216509   5.223   2.687   5.018
 5518TIP3   OH216510   3.489   5.221   1.173
 5518TIP3    H116511   3.531   5.171   1.243
 5518TIP3    H216512   3.489   5.161   1.098
 5519TIP3   OH216513   0.239   6.630   0.174
 5519TIP3    H116514   0.281   6.715   0.182
 5519TIP3    H216515   0.167   6.633   0.238
 5520TIP3   OH216516   2.440   0.439   0.222
 5520TIP3    H116517   2.387   0.360   0.237
 5520TIP3    H216518   2.433   0.487   0.304
 5521TIP3   OH216519   1.416   2.646   0.135
 5521TIP3    H116520   1.449   2.624   0.048
 5521TIP3    H216521   1.492   2.678   0.182
 5522TIP3   OH216522   2.436   5.511   6.692
 5522TIP3    H116523   2.437   5.427   6.646
 5522TIP3    H216524   2.356   5.509   6.745
 5523TIP3   OH216525   1.494   4.787   5.897
 5523TIP3    H116526   1.422   4.798   5.958
 5523TIP3    H216527   1.493   4.867   5.844
 5524TIP3   OH216528   1.080   1.808   6.293
 5524TIP3    H116529   1.094   1.862   6.371
 5524TIP3    H216530   0.993   1.770   6.305
 5525TIP3   OH216531   4.948   7.642   6.526
 5525TIP3    H116532   4.937   7.717   6.584
 5525TIP3    H216533   5.032   7.604   6.552
 5526TIP3   OH216534   7.169   7.696   3.166
 5526TIP3    H116535   7.255   7.681   3.128
 5526TIP3    H216536   7.138   7.777   3.125
 5527TIP3   OH216537   6.600   0.824   0.769
 5527TIP3    H116538   6.505   0.835   0.779
 5527TIP3    H216539   6.625   0.886   0.701
 5528TIP3   OH216540   3.216   5.209   2.266
 5528TIP3    H116541   3.200   5.291   2.219
 5528TIP3    H216542   3.305   5.219   2.301
 5529TIP3   OH216543   2.969   2.679   6.611
 5529TIP3    H116544   2.901   2.670   6.545
 5529TIP3    H216545   3.032   2.610   6.590
 5530TIP3   OH216546   1.667   2.894   4.765
 5530TIP3    H116547   1.731   2.837   4.808
 5530TIP3    H216548   1.687   2.981   4.797
 5531TIP3   OH216549   0.280   4.983   1.423
 5531TIP3    H116550   0.314   5.022   1.342
 5531TIP3    H216551   0.191   4.958   1.402
 5532TIP3   OH216552   6.101   3.955   3.921
 5532TIP3    H116553   6.068   3.948   4.010
 5532TIP3    H216554   6.047   3.894   3.870
 5533TIP3   OH216555   3.625   4.896   3.883
 5533TIP3    H116556   3.545   4.918   3.931
 5533TIP3    H216557   3.597   4.834   3.815
 5534TIP3   OH216558   5.680   0.618   6.601
 5534TIP3    H116559   5.748   0.551   6.592
 5534TIP3    H216560   5.699   0.661   6.684
 5535TIP3   OH216561   6.391   0.052   1.523
 5535TIP3    H116562   6.466  -0.008   1.515
 5535TIP3    H216563   6.395   0.107   1.445
 5536TIP3   OH216564   8.213   6.619   1.506
 5536TIP3    H116565   8.264   6.667   1.441
 5536TIP3    H216566   8.122   6.628   1.475
 5537TIP3   OH216567   0.502   7.607   5.244
 5537TIP3    H116568   0.481   7.535   5.303
 5537TIP3    H216569   0.423   7.618   5.191
 5538TIP3   OH216570   6.047   3.725   6.278
 5538TIP3    H116571   6.118   3.663   6.294
 5538TIP3    H216572   5.971   3.669   6.258
 5539TIP3   OH216573   1.658   5.865   0.738
 5539TIP3    H116574   1.729   5.834   0.794
 5539TIP3    H216575   1.617   5.935   0.788
 5540TIP3   OH216576   3.889   0.938   1.664
 5540TIP3    H116577   3.898   0.895   1.749
 5540TIP3    H216578   3.794   0.940   1.648
 5541TIP3   OH216579   7.469   2.366   6.097
 5541TIP3    H116580   7.542   2.345   6.156
 5541TIP3    H216581   7.501   2.441   6.046
 5542TIP3   OH216582   3.995   4.970   0.633
 5542TIP3    H116583   4.045   4.897   0.595
 5542TIP3    H216584   3.998   4.954   0.728
 5543TIP3   OH216585   7.090   3.517   0.062
 5543TIP3    H116586   7.163   3.522   0.001
 5543TIP3    H216587   7.082   3.606   0.097
 5544TIP3   OH216588   5.742   3.837   6.196
 5544TIP3    H116589   5.679   3.906   6.172
 5544TIP3    H216590   5.705   3.797   6.275
 5545TIP3   OH216591   3.183   2.767   0.851
 5545TIP3    H116592   3.270   2.763   0.812
 5545TIP3    H216593   3.123   2.767   0.777
 5546TIP3   OH216594   1.055   6.404   2.332
 5546TIP3    H116595   1.133   6.410   2.388
 5546TIP3    H216596   0.981   6.405   2.394
 5547TIP3   OH216597   7.085   6.235   0.828
 5547TIP3    H116598   7.050   6.179   0.759
 5547TIP3    H216599   7.078   6.183   0.908
 5548TIP3   OH216600   0.622   6.480   0.071
 5548TIP3    H116601   0.590   6.419   0.138
 5548TIP3    H216602   0.681   6.538   0.118
 5549TIP3   OH216603   0.783   6.921   4.523
 5549TIP3    H116604   0.736   6.936   4.441
 5549TIP3    H216605   0.746   6.838   4.557
 5550TIP3   OH216606   7.283   3.298   4.534
 5550TIP3    H116607   7.361   3.317   4.587
 5550TIP3    H216608   7.241   3.383   4.523
 5551TIP3   OH216609   5.895   7.270   2.285
 5551TIP3    H116610   5.927   7.190   2.328
 5551TIP3    H216611   5.962   7.290   2.220
 5552TIP3   OH216612   4.679   4.497   5.296
 5552TIP3    H116613   4.697   4.570   5.236
 5552TIP3    H216614   4.609   4.448   5.253
 5553TIP3   OH216615   3.422   0.006   0.623
 5553TIP3    H116616   3.505  -0.037   0.644
 5553TIP3    H216617   3.410   0.069   0.695
 5554TIP3   OH216618   6.692   7.319   5.540
 5554TIP3    H116619   6.615   7.330   5.596
 5554TIP3    H216620   6.685   7.229   5.508
 5555TIP3   OH216621   3.644   1.872   4.603
 5555TIP3    H116622   3.567   1.912   4.563
 5555TIP3    H216623   3.710   1.870   4.533
 5556TIP3   OH216624   3.397   1.405   1.057
 5556TIP3    H116625   3.315   1.381   1.013
 5556TIP3    H216626   3.432   1.477   1.005
 5557TIP3   OH216627   4.981   7.737   5.811
 5557TIP3    H116628   5.061   7.747   5.760
 5557TIP3    H216629   4.997   7.661   5.867
 5558TIP3   OH216630   7.782   4.056   4.293
 5558TIP3    H116631   7.845   4.109   4.243
 5558TIP3    H216632   7.700   4.106   4.288
 5559TIP3   OH216633   3.325   6.133   5.486
 5559TIP3    H116634   3.358   6.142   5.396
 5559TIP3    H216635   3.252   6.072   5.479
 5560TIP3   OH216636   7.402   3.762   3.593
 5560TIP3    H116637   7.315   3.778   3.629
 5560TIP3    H216638   7.392   3.779   3.499
 5561TIP3   OH216639   0.299   3.276   6.077
 5561TIP3    H116640   0.268   3.306   5.991
 5561TIP3    H216641   0.352   3.349   6.109
 5562TIP3   OH216642   8.228   1.212   4.822
 5562TIP3    H116643   8.134   1.207   4.836
 5562TIP3    H216644   8.242   1.174   4.735
 5563TIP3   OH216645   5.942   0.997   4.941
 5563TIP3    H116646   5.908   1.075   4.985
 5563TIP3    H216647   5.917   0.924   4.997
 5564TIP3   OH216648   0.317   1.937   6.221
 5564TIP3    H116649   0.375   1.907   6.151
 5564TIP3    H216650   0.246   1.873   6.221
 5565TIP3   OH216651   1.517   4.640   3.285
 5565TIP3    H116652   1.572   4.701   3.236
 5565TIP3    H216653   1.463   4.696   3.341
 5566TIP3   OH216654   1.077   5.038   5.539
 5566TIP3    H116655   1.152   5.062   5.595
 5566TIP3    H216656   1.023   4.982   5.594
 5567TIP3   OH216657   5.756   6.198   3.870
 5567TIP3    H116658   5.686   6.262   3.876
 5567TIP3    H216659   5.758   6.156   3.956
 5568TIP3   OH216660   0.354   2.565   1.704
 5568TIP3    H116661   0.403   2.487   1.732
 5568TIP3    H216662   0.266   2.532   1.684
 5569TIP3   OH216663   2.274   2.000   5.546
 5569TIP3    H116664   2.325   2.033   5.472
 5569TIP3    H216665   2.220   1.931   5.509
 5570TIP3   OH216666   4.255   4.588   0.308
 5570TIP3    H116667   4.317   4.660   0.320
 5570TIP3    H216668   4.306   4.510   0.330
 5571TIP3   OH216669   0.305   5.892   5.451
 5571TIP3    H116670   0.288   5.832   5.524
 5571TIP3    H216671   0.348   5.838   5.385
 5572TIP3   OH216672   0.452   5.591   5.840
 5572TIP3    H116673   0.501   5.593   5.758
 5572TIP3    H216674   0.367   5.629   5.818
 5573TIP3   OH216675   6.959   5.406   6.736
 5573TIP3    H116676   7.017   5.480   6.716
 5573TIP3    H216677   6.933   5.420   6.827
 5574TIP3   OH216678   4.800   2.011   4.023
 5574TIP3    H116679   4.876   2.069   4.035
 5574TIP3    H216680   4.812   1.943   4.089
 5575TIP3   OH216681   2.924   5.068   5.962
 5575TIP3    H116682   2.857   5.107   5.906
 5575TIP3    H216683   3.007   5.095   5.923
 5576TIP3   OH216684   0.737   0.198   0.832
 5576TIP3    H116685   0.674   0.205   0.761
 5576TIP3    H216686   0.759   0.105   0.836
 5577TIP3   OH216687   4.894   7.796   0.301
 5577TIP3    H116688   4.810   7.772   0.340
 5577TIP3    H216689   4.958   7.740   0.346
 5578TIP3   OH216690   5.664   2.902   0.982
 5578TIP3    H116691   5.698   2.870   1.066
 5578TIP3    H216692   5.684   2.832   0.920
 5579TIP3   OH216693   6.208   1.643   2.557
 5579TIP3    H116694   6.214   1.563   2.506
 5579TIP3    H216695   6.294   1.652   2.598
 5580TIP3   OH216696   0.934   3.047   5.492
 5580TIP3    H116697   0.869   3.019   5.557
 5580TIP3    H216698   0.990   2.970   5.481
 5581TIP3   OH216699   2.234   1.136   1.925
 5581TIP3    H116700   2.317   1.179   1.946
 5581TIP3    H216701   2.240   1.050   1.968
 5582TIP3   OH216702   4.592   7.682   1.926
 5582TIP3    H116703   4.525   7.687   1.995
 5582TIP3    H216704   4.653   7.615   1.956
 5583TIP3   OH216705   3.091   5.324   1.546
 5583TIP3    H116706   3.158   5.388   1.523
 5583TIP3    H216707   3.132   5.268   1.611
 5584TIP3   OH216708   6.027   7.226   4.796
 5584TIP3    H116709   5.957   7.218   4.731
 5584TIP3    H216710   6.068   7.310   4.776
 5585TIP3   OH216711   4.621   2.514   1.924
 5585TIP3    H116712   4.665   2.505   1.840
 5585TIP3    H216713   4.600   2.607   1.930
 5586TIP3   OH216714   5.507   1.868   6.253
 5586TIP3    H116715   5.596   1.863   6.288
 5586TIP3    H216716   5.497   1.789   6.200
 5587TIP3   OH216717   6.586   2.274   5.670
 5587TIP3    H116718   6.504   2.306   5.708
 5587TIP3    H216719   6.594   2.324   5.588
 5588TIP3   OH216720   4.758   6.127   4.426
 5588TIP3    H116721   4.740   6.172   4.343
 5588TIP3    H216722   4.849   6.098   4.418
 5589TIP3   OH216723   1.280   5.985   4.474
 5589TIP3    H116724   1.354   5.932   4.504
 5589TIP3    H216725   1.285   5.981   4.378
 5590TIP3   OH216726   6.414   5.047   0.462
 5590TIP3    H116727   6.432   5.076   0.372
 5590TIP3    H216728   6.457   4.962   0.468
 5591TIP3   OH216729   5.368   2.630   2.554
 5591TIP3    H116730   5.299   2.568   2.576
 5591TIP3    H216731   5.419   2.637   2.634
 5592TIP3   OH216732   2.308   2.670   1.079
 5592TIP3    H116733   2.302   2.696   1.171
 5592TIP3    H216734   2.302   2.574   1.081
 5593TIP3   OH216735   2.261   6.256   4.216
 5593TIP3    H116736   2.339   6.306   4.240
 5593TIP3    H216737   2.191   6.295   4.268
 5594TIP3   OH216738   6.747   2.551   3.839
 5594TIP3    H116739   6.695   2.629   3.817
 5594TIP3    H216740   6.682   2.485   3.861
 5595TIP3   OH216741   7.758   0.555   2.410
 5595TIP3    H116742   7.716   0.478   2.371
 5595TIP3    H216743   7.771   0.532   2.502
 5596TIP3   OH216744   4.928   4.120   2.599
 5596TIP3    H116745   4.988   4.056   2.562
 5596TIP3    H216746   4.931   4.194   2.538
 5597TIP3   OH216747   5.940   0.267   3.884
 5597TIP3    H116748   6.008   0.213   3.844
 5597TIP3    H216749   5.915   0.329   3.815
 5598TIP3   OH216750   2.551   5.260   4.961
 5598TIP3    H116751   2.534   5.353   4.950
 5598TIP3    H216752   2.613   5.238   4.892
 5599TIP3   OH216753   1.395   6.234   5.907
 5599TIP3    H116754   1.417   6.275   5.824
 5599TIP3    H216755   1.317   6.182   5.888
 5600TIP3   OH216756   2.848   5.187   1.013
 5600TIP3    H116757   2.768   5.146   1.045
 5600TIP3    H216758   2.896   5.212   1.092
 5601TIP3   OH216759   6.246   1.459   6.032
 5601TIP3    H116760   6.192   1.404   5.975
 5601TIP3    H216761   6.265   1.536   5.979
 5602TIP3   OH216762   2.332   0.680   1.199
 5602TIP3    H116763   2.268   0.685   1.270
 5602TIP3    H216764   2.380   0.762   1.204
 5603TIP3   OH216765   3.706   1.567   0.577
 5603TIP3    H116766   3.694   1.480   0.540
 5603TIP3    H216767   3.625   1.584   0.626
 5604TIP3   OH216768   0.049   4.127   0.623
 5604TIP3    H116769  -0.023   4.186   0.602
 5604TIP3    H216770   0.124   4.184   0.637
 5605TIP3   OH216771   5.131   1.265   5.784
 5605TIP3    H116772   5.169   1.187   5.825
 5605TIP3    H216773   5.135   1.332   5.852
 5606TIP3   OH216774   4.503   4.362   1.791
 5606TIP3    H116775   4.595   4.389   1.792
 5606TIP3    H216776   4.455   4.438   1.824
 5607TIP3   OH216777   1.096   0.511   0.128
 5607TIP3    H116778   1.056   0.427   0.149
 5607TIP3    H216779   1.145   0.534   0.208
 5608TIP3   OH216780   0.112   6.129   3.927
 5608TIP3    H116781   0.110   6.033   3.928
 5608TIP3    H216782   0.139   6.153   4.016
 5609TIP3   OH216783   0.142   6.585   5.306
 5609TIP3    H116784   0.174   6.523   5.370
 5609TIP3    H216785   0.053   6.555   5.286
 5610TIP3   OH216786   6.224   2.994   4.066
 5610TIP3    H116787   6.185   2.919   4.021
 5610TIP3    H216788   6.204   2.979   4.158
 5611TIP3   OH216789   1.966   5.274   6.364
 5611TIP3    H116790   2.001   5.258   6.277
 5611TIP3    H216791   1.930   5.190   6.392
 5612TIP3   OH216792   1.407   5.214   3.540
 5612TIP3    H116793   1.354   5.224   3.619
 5612TIP3    H216794   1.375   5.282   3.481
 5613TIP3   OH216795   7.380   3.458   6.204
 5613TIP3    H116796   7.400   3.534   6.259
 5613TIP3    H216797   7.284   3.456   6.201
 5614TIP3   OH216798   6.449   0.973   3.534
 5614TIP3    H116799   6.486   0.978   3.446
 5614TIP3    H216800   6.478   1.053   3.578
 5615TIP3   OH216801   7.773   1.445   1.533
 5615TIP3    H116802   7.701   1.462   1.594
 5615TIP3    H216803   7.786   1.350   1.537
 5616TIP3   OH216804   2.429   5.868   4.069
 5616TIP3    H116805   2.447   5.954   4.106
 5616TIP3    H216806   2.495   5.855   4.002
 5617TIP3   OH216807   4.682   7.618   4.367
 5617TIP3    H116808   4.661   7.708   4.388
 5617TIP3    H216809   4.703   7.620   4.273
 5618TIP3   OH216810   1.505   0.096   2.797
 5618TIP3    H116811   1.527   0.131   2.710
 5618TIP3    H216812   1.435   0.033   2.780
 5619TIP3   OH216813   7.236   2.418   1.655
 5619TIP3    H116814   7.195   2.390   1.737
 5619TIP3    H216815   7.250   2.512   1.667
 5620TIP3   OH216816   1.799   5.540   4.987
 5620TIP3    H116817   1.875   5.597   4.972
 5620TIP3    H216818   1.732   5.597   5.024
 5621TIP3   OH216819   2.884   3.849   3.537
 5621TIP3    H116820   2.901   3.905   3.613
 5621TIP3    H216821   2.970   3.841   3.494
 5622TIP3   OH216822   0.039   1.948   0.368
 5622TIP3    H116823  -0.010   2.030   0.362
 5622TIP3    H216824   0.076   1.936   0.281
 5623TIP3   OH216825   0.706   0.215   1.894
 5623TIP3    H116826   0.654   0.142   1.928
 5623TIP3    H216827   0.646   0.262   1.836
 5624TIP3   OH216828   5.645   1.006   0.837
 5624TIP3    H116829   5.665   0.998   0.743
 5624TIP3    H216830   5.638   0.916   0.868
 5625TIP3   OH216831   1.176   7.731   6.045
 5625TIP3    H116832   1.251   7.722   6.104
 5625TIP3    H216833   1.121   7.797   6.087
 5626TIP3   OH216834   0.625   3.729   2.212
 5626TIP3    H116835   0.625   3.811   2.164
 5626TIP3    H216836   0.552   3.679   2.174
 5627TIP3   OH216837   5.889   6.901   4.826
 5627TIP3    H116838   5.972   6.858   4.805
 5627TIP3    H216839   5.908   6.955   4.903
 5628TIP3   OH216840   3.526   1.761   0.945
 5628TIP3    H116841   3.513   1.690   0.882
 5628TIP3    H216842   3.469   1.832   0.913
 5629TIP3   OH216843   2.158   6.327   3.147
 5629TIP3    H116844   2.251   6.332   3.167
 5629TIP3    H216845   2.130   6.419   3.139
 5630TIP3   OH216846   2.586   1.865   5.143
 5630TIP3    H116847   2.611   1.826   5.226
 5630TIP3    H216848   2.598   1.959   5.156
 5631TIP3   OH216849   7.139   4.469   5.779
 5631TIP3    H116850   7.086   4.422   5.844
 5631TIP3    H216851   7.118   4.426   5.696
 5632TIP3   OH216852   3.087   2.372   1.958
 5632TIP3    H116853   3.096   2.278   1.976
 5632TIP3    H216854   2.995   2.392   1.977
 5633TIP3   OH216855   2.954   6.977   3.120
 5633TIP3    H116856   2.859   6.970   3.107
 5633TIP3    H216857   2.983   6.887   3.134
 5634TIP3   OH216858   1.581   5.575   6.437
 5634TIP3    H116859   1.505   5.623   6.402
 5634TIP3    H216860   1.605   5.624   6.516
 5635TIP3   OH216861   0.751   7.530   6.705
 5635TIP3    H116862   0.779   7.580   6.782
 5635TIP3    H216863   0.667   7.493   6.730
 5636TIP3   OH216864   4.986   1.887   2.092
 5636TIP3    H116865   4.920   1.956   2.086
 5636TIP3    H216866   5.026   1.899   2.178
 5637TIP3   OH216867   1.592   5.985   5.011
 5637TIP3    H116868   1.617   5.951   4.925
 5637TIP3    H216869   1.593   6.080   4.999
 5638TIP3   OH216870   6.541   1.929   4.505
 5638TIP3    H116871   6.605   1.971   4.448
 5638TIP3    H216872   6.515   1.998   4.566
 5639TIP3   OH216873   1.643   1.317   2.443
 5639TIP3    H116874   1.631   1.374   2.367
 5639TIP3    H216875   1.554   1.286   2.463
 5640TIP3   OH216876   3.788   3.160   5.853
 5640TIP3    H116877   3.791   3.074   5.811
 5640TIP3    H216878   3.868   3.165   5.905
 5641TIP3   OH216879   5.985   2.386   6.110
 5641TIP3    H116880   5.980   2.418   6.199
 5641TIP3    H216881   5.908   2.422   6.066
 5642TIP3   OH216882   6.056   7.224   3.274
 5642TIP3    H116883   5.969   7.187   3.258
 5642TIP3    H216884   6.048   7.315   3.244
 5643TIP3   OH216885   5.518   0.734   5.068
 5643TIP3    H116886   5.516   0.797   5.140
 5643TIP3    H216887   5.608   0.736   5.036
 5644TIP3   OH216888   5.872   2.569   2.117
 5644TIP3    H116889   5.862   2.604   2.206
 5644TIP3    H216890   5.796   2.511   2.106
 5645TIP3   OH216891   0.667   7.283   2.281
 5645TIP3    H116892   0.628   7.351   2.226
 5645TIP3    H216893   0.760   7.286   2.260
 5646TIP3   OH216894   5.611   0.071   4.235
 5646TIP3    H116895   5.651   0.104   4.154
 5646TIP3    H216896   5.545   0.137   4.257
 5647TIP3   OH216897   4.074   5.425   0.403
 5647TIP3    H116898   3.983   5.422   0.373
 5647TIP3    H216899   4.088   5.340   0.444
 5648TIP3   OH216900   7.954   0.284   4.106
 5648TIP3    H116901   7.879   0.227   4.123
 5648TIP3    H216902   8.016   0.229   4.058
 5649TIP3   OH216903   3.553   4.374   3.518
 5649TIP3    H116904   3.473   4.323   3.503
 5649TIP3    H216905   3.556   4.435   3.445
 5650TIP3   OH216906   8.216   5.838   0.031
 5650TIP3    H116907   8.180   5.912  -0.017
 5650TIP3    H216908   8.292   5.874   0.077
 5651TIP3   OH216909   4.483   5.601   6.668
 5651TIP3    H116910   4.417   5.533   6.653
 5651TIP3    H216911   4.450   5.678   6.623
 5652TIP3   OH216912   6.132   5.019   0.978
 5652TIP3    H116913   6.135   5.115   0.974
 5652TIP3    H216914   6.219   4.991   0.949
 5653TIP3   OH216915   6.348   2.277   4.412
 5653TIP3    H116916   6.328   2.213   4.344
 5653TIP3    H216917   6.439   2.302   4.395
 5654TIP3   OH216918   0.322   1.821   4.039
 5654TIP3    H116919   0.231   1.817   4.008
 5654TIP3    H216920   0.336   1.738   4.085
 5655TIP3   OH216921   5.180   5.097   6.728
 5655TIP3    H116922   5.185   5.034   6.657
 5655TIP3    H216923   5.087   5.097   6.753
 5656TIP3   OH216924   7.629   4.942   5.433
 5656TIP3    H116925   7.600   5.028   5.401
 5656TIP3    H216926   7.618   4.884   5.358
 5657TIP3   OH216927   7.197   4.725   5.655
 5657TIP3    H116928   7.239   4.639   5.646
 5657TIP3    H216929   7.195   4.741   5.749
 5658TIP3   OH216930   4.052   6.733   1.757
 5658TIP3    H116931   4.134   6.686   1.743
 5658TIP3    H216932   3.991   6.692   1.695
 5659TIP3   OH216933   7.723   1.668   2.669
 5659TIP3    H116934   7.644   1.658   2.721
 5659TIP3    H216935   7.693   1.658   2.578
 5660TIP3   OH216936   0.274   2.874   0.646
 5660TIP3    H116937   0.321   2.933   0.706
 5660TIP3    H216938   0.343   2.826   0.601
 5661TIP3   OH216939   6.450   4.235   0.135
 5661TIP3    H116940   6.522   4.220   0.074
 5661TIP3    H216941   6.447   4.330   0.147
 5662TIP3   OH216942   1.306   3.288   2.879
 5662TIP3    H116943   1.257   3.355   2.831
 5662TIP3    H216944   1.376   3.336   2.923
 5663TIP3   OH216945   4.693   1.217   0.569
 5663TIP3    H116946   4.780   1.201   0.608
 5663TIP3    H216947   4.644   1.137   0.588
 5664TIP3   OH216948   8.156   3.257   4.357
 5664TIP3    H116949   8.161   3.205   4.277
 5664TIP3    H216950   8.078   3.311   4.345
 5665TIP3   OH216951   4.562   7.246   1.564
 5665TIP3    H116952   4.607   7.330   1.556
 5665TIP3    H216953   4.485   7.265   1.619
 5666TIP3   OH216954   1.421   5.267   1.470
 5666TIP3    H116955   1.424   5.311   1.385
 5666TIP3    H216956   1.513   5.249   1.491
 5667TIP3   OH216957   1.973   3.524   2.777
 5667TIP3    H116958   1.905   3.531   2.711
 5667TIP3    H216959   2.055   3.521   2.728
 5668TIP3   OH216960   1.038   6.789   6.523
 5668TIP3    H116961   0.958   6.839   6.506
 5668TIP3    H216962   1.108   6.841   6.483
 5669TIP3   OH216963   5.360   7.661   1.474
 5669TIP3    H116964   5.329   7.614   1.551
 5669TIP3    H216965   5.455   7.666   1.486
 5670TIP3   OH216966   7.758   3.781   4.245
 5670TIP3    H116967   7.732   3.763   4.154
 5670TIP3    H216968   7.714   3.864   4.265
 5671TIP3   OH216969   0.531   3.990   3.744
 5671TIP3    H116970   0.528   4.085   3.727
 5671TIP3    H216971   0.516   3.983   3.838
 5672TIP3   OH216972   7.503   2.945   5.226
 5672TIP3    H116973   7.488   2.902   5.142
 5672TIP3    H216974   7.528   2.873   5.285
 5673TIP3   OH216975   1.819   4.451   2.750
 5673TIP3    H116976   1.826   4.439   2.655
 5673TIP3    H216977   1.726   4.470   2.765
 5674TIP3   OH216978   4.997   4.416   3.116
 5674TIP3    H116979   4.993   4.503   3.155
 5674TIP3    H216980   4.980   4.430   3.023
 5675TIP3   OH216981   0.433   5.650   0.801
 5675TIP3    H116982   0.386   5.674   0.881
 5675TIP3    H216983   0.494   5.723   0.786
 5676TIP3   OH216984   3.967   0.794   6.547
 5676TIP3    H116985   4.024   0.745   6.606
 5676TIP3    H216986   3.930   0.729   6.487
 5677TIP3   OH216987   6.792   1.789   1.443
 5677TIP3    H116988   6.826   1.875   1.465
 5677TIP3    H216989   6.827   1.771   1.355
 5678TIP3   OH216990   4.699   4.481   1.608
 5678TIP3    H116991   4.615   4.525   1.627
 5678TIP3    H216992   4.764   4.551   1.616
 5679TIP3   OH216993   6.577   6.356   4.908
 5679TIP3    H116994   6.633   6.424   4.946
 5679TIP3    H216995   6.499   6.403   4.878
 5680TIP3   OH216996   6.013   3.535   2.593
 5680TIP3    H116997   6.021   3.440   2.584
 5680TIP3    H216998   5.925   3.555   2.561
 5681TIP3   OH216999   5.198   3.900   6.104
 5681TIP3    H117000   5.167   3.810   6.113
 5681TIP3    H217001   5.279   3.893   6.054
 5682TIP3   OH217002   1.098   2.247   6.396
 5682TIP3    H117003   1.134   2.162   6.370
 5682TIP3    H217004   1.073   2.289   6.314
 5683TIP3   OH217005   0.109   7.186   5.025
 5683TIP3    H117006   0.137   7.161   5.113
 5683TIP3    H217007   0.044   7.254   5.039
 5684TIP3   OH217008   6.482   2.046   4.753
 5684TIP3    H117009   6.390   2.068   4.747
 5684TIP3    H217010   6.528   2.129   4.738
 5685TIP3   OH217011   4.765   6.054   4.850
 5685TIP3    H117012   4.797   6.120   4.788
 5685TIP3    H217013   4.669   6.061   4.843
 5686TIP3   OH217014   5.614   0.133   4.893
 5686TIP3    H117015   5.704   0.107   4.914
 5686TIP3    H217016   5.616   0.228   4.890
 5687TIP3   OH217017   5.922   1.087   3.577
 5687TIP3    H117018   5.985   1.017   3.559
 5687TIP3    H217019   5.879   1.061   3.659
 5688TIP3   OH217020   5.919   5.501   3.670
 5688TIP3    H117021   5.993   5.520   3.727
 5688TIP3    H217022   5.849   5.473   3.729
 5689TIP3   OH217023   2.060   7.066   6.146
 5689TIP3    H117024   2.139   7.044   6.195
 5689TIP3    H217025   2.002   7.104   6.211
 5690TIP3   OH217026   7.519   6.065   6.149
 5690TIP3    H117027   7.609   6.096   6.160
 5690TIP3    H217028   7.498   6.020   6.231
 5691TIP3   OH217029   0.240   6.006   1.731
 5691TIP3    H117030   0.162   5.952   1.742
 5691TIP3    H217031   0.300   5.976   1.798
 5692TIP3   OH217032   1.081   0.933   1.488
 5692TIP3    H117033   1.172   0.908   1.472
 5692TIP3    H217034   1.034   0.902   1.411
 5693TIP3   OH217035   7.587   0.690   6.384
 5693TIP3    H117036   7.521   0.748   6.422
 5693TIP3    H217037   7.539   0.612   6.358
 5694TIP3   OH217038   1.009   1.035   1.110
 5694TIP3    H117039   0.993   0.949   1.150
 5694TIP3    H217040   0.922   1.066   1.086
 5695TIP3   OH217041   4.750   5.849   1.731
 5695TIP3    H117042   4.681   5.914   1.746
 5695TIP3    H217043   4.821   5.877   1.788
 5696TIP3   OH217044   1.686   6.869   5.051
 5696TIP3    H117045   1.619   6.824   5.000
 5696TIP3    H217046   1.668   6.843   5.141
 5697TIP3   OH217047   4.069   6.744   0.136
 5697TIP3    H117048   4.070   6.670   0.076
 5697TIP3    H217049   4.062   6.703   0.223
 5698TIP3   OH217050   1.792   0.827   3.843
 5698TIP3    H117051   1.840   0.773   3.904
 5698TIP3    H217052   1.715   0.857   3.892
 5699TIP3   OH217053   7.363   2.203   0.722
 5699TIP3    H117054   7.299   2.137   0.693
 5699TIP3    H217055   7.437   2.192   0.663
 5700TIP3   OH217056   2.166   3.600   2.559
 5700TIP3    H117057   2.089   3.611   2.504
 5700TIP3    H217058   2.161   3.672   2.622
 5701TIP3   OH217059   2.945   3.774   2.819
 5701TIP3    H117060   2.965   3.681   2.829
 5701TIP3    H217061   3.029   3.818   2.829
 5702TIP3   OH217062   1.455   7.136   2.832
 5702TIP3    H117063   1.538   7.117   2.788
 5702TIP3    H217064   1.448   7.231   2.830
 5703TIP3   OH217065   1.579   5.648   5.380
 5703TIP3    H117066   1.641   5.667   5.450
 5703TIP3    H217067   1.509   5.712   5.391
 5704TIP3   OH217068   7.259   2.906   0.105
 5704TIP3    H117069   7.173   2.930   0.073
 5704TIP3    H217070   7.248   2.817   0.141
 5705TIP3   OH217071   8.047   6.454   0.758
 5705TIP3    H117072   8.129   6.405   0.754
 5705TIP3    H217073   8.072   6.539   0.795
 5706TIP3   OH217074   0.559   0.762   6.350
 5706TIP3    H117075   0.613   0.690   6.382
 5706TIP3    H217076   0.576   0.765   6.256
 5707TIP3   OH217077   1.206   6.843   2.248
 5707TIP3    H117078   1.222   6.802   2.333
 5707TIP3    H217079   1.208   6.937   2.266
 5708TIP3   OH217080   4.283   0.078   2.599
 5708TIP3    H117081   4.282   0.171   2.578
 5708TIP3    H217082   4.192   0.057   2.620
 5709TIP3   OH217083   7.203   6.528   2.355
 5709TIP3    H117084   7.289   6.509   2.317
 5709TIP3    H217085   7.174   6.608   2.312
 5710TIP3   OH217086   6.849   6.496   2.117
 5710TIP3    H117087   6.761   6.470   2.145
 5710TIP3    H217088   6.851   6.476   2.024
 5711TIP3   OH217089   5.024   2.458   1.890
 5711TIP3    H117090   4.981   2.532   1.932
 5711TIP3    H217091   5.081   2.497   1.823
 5712TIP3   OH217092   8.145   3.987   5.864
 5712TIP3    H117093   8.226   3.937   5.875
 5712TIP3    H217094   8.124   3.981   5.771
 5713TIP3   OH217095   7.659   1.077   0.330
 5713TIP3    H117096   7.710   1.107   0.405
 5713TIP3    H217097   7.581   1.036   0.368
 5714TIP3   OH217098   5.219   7.518   4.374
 5714TIP3    H117099   5.169   7.436   4.382
 5714TIP3    H217100   5.153   7.586   4.372
 5715TIP3   OH217101   8.036   6.105   1.450
 5715TIP3    H117102   7.972   6.110   1.520
 5715TIP3    H217103   8.004   6.167   1.384
 5716TIP3   OH217104   2.535   3.809   5.465
 5716TIP3    H117105   2.474   3.881   5.484
 5716TIP3    H217106   2.509   3.739   5.525
 5717TIP3   OH217107   5.223   1.704   1.652
 5717TIP3    H117108   5.130   1.712   1.632
 5717TIP3    H217109   5.268   1.745   1.578
 5718TIP3   OH217110   1.703   6.185   2.284
 5718TIP3    H117111   1.634   6.193   2.218
 5718TIP3    H217112   1.702   6.093   2.309
 5719TIP3   OH217113   6.069   2.447   1.159
 5719TIP3    H117114   6.041   2.529   1.118
 5719TIP3    H217115   6.136   2.474   1.222
 5720TIP3   OH217116   1.913   3.860   4.461
 5720TIP3    H117117   1.927   3.783   4.405
 5720TIP3    H217118   1.818   3.868   4.467
 5721TIP3   OH217119   1.629   3.617   3.371
 5721TIP3    H117120   1.675   3.607   3.454
 5721TIP3    H217121   1.659   3.702   3.337
 5722TIP3   OH217122   3.706   3.207   0.926
 5722TIP3    H117123   3.739   3.211   1.016
 5722TIP3    H217124   3.774   3.250   0.874
 5723TIP3   OH217125   6.089   7.782   6.038
 5723TIP3    H117126   6.160   7.774   5.974
 5723TIP3    H217127   6.052   7.694   6.043
 5724TIP3   OH217128   6.702   1.434   3.553
 5724TIP3    H117129   6.651   1.506   3.516
 5724TIP3    H217130   6.673   1.430   3.644
 5725TIP3   OH217131   4.969   7.682   0.074
 5725TIP3    H117132   4.930   7.729  -0.001
 5725TIP3    H217133   4.919   7.713   0.150
 5726TIP3   OH217134   5.216   5.758   6.634
 5726TIP3    H117135   5.183   5.828   6.577
 5726TIP3    H217136   5.224   5.682   6.576
 5727TIP3   OH217137   0.169   6.178   0.477
 5727TIP3    H117138   0.219   6.205   0.554
 5727TIP3    H217139   0.087   6.142   0.513
 5728TIP3   OH217140   1.540   4.415   0.908
 5728TIP3    H117141   1.609   4.349   0.916
 5728TIP3    H217142   1.583   4.490   0.867
 5729TIP3   OH217143   1.869   7.113   5.443
 5729TIP3    H117144   1.881   7.047   5.374
 5729TIP3    H217145   1.958   7.143   5.464
 5730TIP3   OH217146   3.972   3.995   4.603
 5730TIP3    H117147   4.056   3.985   4.647
 5730TIP3    H217148   3.941   4.081   4.631
 5731TIP3   OH217149   0.004   5.445   2.544
 5731TIP3    H117150   0.097   5.468   2.553
 5731TIP3    H217151   0.003   5.374   2.480
 5732TIP3   OH217152   6.630   0.397   3.032
 5732TIP3    H117153   6.723   0.421   3.025
 5732TIP3    H217154   6.613   0.344   2.955
 5733TIP3   OH217155   4.776   3.134   1.566
 5733TIP3    H117156   4.779   3.045   1.530
 5733TIP3    H217157   4.714   3.128   1.639
 5734TIP3   OH217158   7.629   0.899   1.426
 5734TIP3    H117159   7.661   0.809   1.422
 5734TIP3    H217160   7.595   0.917   1.338
 5735TIP3   OH217161   0.471   0.793   2.415
 5735TIP3    H117162   0.535   0.864   2.416
 5735TIP3    H217163   0.510   0.726   2.358
 5736TIP3   OH217164   4.524   2.107   6.591
 5736TIP3    H117165   4.464   2.057   6.536
 5736TIP3    H217166   4.468   2.147   6.658
 5737TIP3   OH217167   7.940   2.279   0.058
 5737TIP3    H117168   7.982   2.193   0.054
 5737TIP3    H217169   8.005   2.339   0.022
 5738TIP3   OH217170   1.369   2.718   4.152
 5738TIP3    H117171   1.322   2.779   4.095
 5738TIP3    H217172   1.300   2.678   4.205
 5739TIP3   OH217173   0.244   5.590   2.549
 5739TIP3    H117174   0.233   5.684   2.560
 5739TIP3    H217175   0.339   5.579   2.538
 5740TIP3   OH217176   3.668   0.835   2.733
 5740TIP3    H117177   3.749   0.842   2.683
 5740TIP3    H217178   3.696   0.839   2.825
 5741TIP3   OH217179   1.307   5.954   5.137
 5741TIP3    H117180   1.397   5.934   5.113
 5741TIP3    H217181   1.273   5.873   5.175
 5742TIP3   OH217182   6.508   4.985   6.544
 5742TIP3    H117183   6.556   5.065   6.524
 5742TIP3    H217184   6.516   4.932   6.465
 5743TIP3   OH217185   1.179   3.694   3.078
 5743TIP3    H117186   1.270   3.710   3.051
 5743TIP3    H217187   1.176   3.601   3.098
 5744TIP3   OH217188   4.324   5.558   4.194
 5744TIP3    H117189   4.231   5.535   4.199
 5744TIP3    H217190   4.364   5.484   4.147
 5745TIP3   OH217191   7.141   7.173   2.233
 5745TIP3    H117192   7.226   7.194   2.193
 5745TIP3    H217193   7.143   7.219   2.317
 5746TIP3   OH217194   6.596   2.788   2.403
 5746TIP3    H117195   6.663   2.722   2.424
 5746TIP3    H217196   6.628   2.868   2.444
 5747TIP3   OH217197   1.804   7.390   0.983
 5747TIP3    H117198   1.827   7.356   1.070
 5747TIP3    H217199   1.888   7.419   0.947
 5748TIP3   OH217200   5.375   2.336   1.812
 5748TIP3    H117201   5.313   2.265   1.799
 5748TIP3    H217202   5.321   2.416   1.810
 5749TIP3   OH217203   1.015   2.994   2.575
 5749TIP3    H117204   0.932   2.947   2.578
 5749TIP3    H217205   1.072   2.940   2.520
 5750TIP3   OH217206   5.013   3.043   2.024
 5750TIP3    H117207   5.082   3.020   2.086
 5750TIP3    H217208   5.031   3.135   2.001
 5751TIP3   OH217209   2.092   3.572   3.561
 5751TIP3    H117210   2.169   3.607   3.606
 5751TIP3    H217211   2.031   3.551   3.631
 5752TIP3   OH217212   0.067   0.411   6.060
 5752TIP3    H117213  -0.005   0.466   6.027
 5752TIP3    H217214   0.024   0.331   6.090
 5753TIP3   OH217215   6.839   0.773   3.678
 5753TIP3    H117216   6.857   0.856   3.634
 5753TIP3    H217217   6.764   0.737   3.631
 5754TIP3   OH217218   3.549   6.163   0.382
 5754TIP3    H117219   3.593   6.243   0.352
 5754TIP3    H217220   3.506   6.129   0.303
 5755TIP3   OH217221   7.741   2.507   1.920
 5755TIP3    H117222   7.719   2.555   1.840
 5755TIP3    H217223   7.808   2.444   1.893
 5756TIP3   OH217224   4.289   6.316   1.835
 5756TIP3    H117225   4.273   6.381   1.903
 5756TIP3    H217226   4.306   6.235   1.883
 5757TIP3   OH217227   5.629   5.128   4.950
 5757TIP3    H117228   5.631   5.060   4.882
 5757TIP3    H217229   5.552   5.181   4.929
 5758TIP3   OH217230   7.031   3.064   3.731
 5758TIP3    H117231   7.110   3.103   3.695
 5758TIP3    H217232   6.963   3.129   3.715
 5759TIP3   OH217233   3.193   6.319   0.434
 5759TIP3    H117234   3.230   6.344   0.349
 5759TIP3    H217235   3.101   6.298   0.414
 5760TIP3   OH217236   0.350   6.274   0.156
 5760TIP3    H117237   0.419   6.210   0.140
 5760TIP3    H217238   0.270   6.232   0.125
 5761TIP3   OH217239   1.352   6.438   0.256
 5761TIP3    H117240   1.403   6.518   0.247
 5761TIP3    H217241   1.413   6.368   0.232
 5762TIP3   OH217242   1.336   1.170   1.671
 5762TIP3    H117243   1.412   1.186   1.616
 5762TIP3    H217244   1.268   1.228   1.636
 5763TIP3   OH217245   2.685   7.402   5.064
 5763TIP3    H117246   2.759   7.360   5.107
 5763TIP3    H217247   2.610   7.346   5.087
 5764TIP3   OH217248   1.725   6.622   3.479
 5764TIP3    H117249   1.710   6.597   3.387
 5764TIP3    H217250   1.638   6.646   3.511
 5765TIP3   OH217251   3.237   7.443   3.348
 5765TIP3    H117252   3.180   7.433   3.271
 5765TIP3    H217253   3.301   7.373   3.340
 5766TIP3   OH217254   7.481   0.538   2.546
 5766TIP3    H117255   7.426   0.460   2.557
 5766TIP3    H217256   7.563   0.516   2.591
 5767TIP3   OH217257   1.663   3.462   4.278
 5767TIP3    H117258   1.662   3.472   4.182
 5767TIP3    H217259   1.666   3.367   4.292
 5768TIP3   OH217260   5.343   4.592   3.400
 5768TIP3    H117261   5.353   4.511   3.450
 5768TIP3    H217262   5.309   4.655   3.463
 5769TIP3   OH217263   5.591   4.150   0.822
 5769TIP3    H117264   5.657   4.219   0.812
 5769TIP3    H217265   5.637   4.079   0.867
 5770TIP3   OH217266   3.598   1.603   2.332
 5770TIP3    H117267   3.693   1.597   2.325
 5770TIP3    H217268   3.581   1.609   2.427
 5771TIP3   OH217269   7.195   0.367   4.458
 5771TIP3    H117270   7.119   0.408   4.416
 5771TIP3    H217271   7.266   0.430   4.443
 5772TIP3   OH217272   5.196   5.074   2.978
 5772TIP3    H117273   5.192   4.999   2.918
 5772TIP3    H217274   5.268   5.054   3.038
 5773TIP3   OH217275   0.974   3.638   4.524
 5773TIP3    H117276   1.026   3.588   4.587
 5773TIP3    H217277   0.972   3.583   4.446
 5774TIP3   OH217278   7.057   1.780   2.385
 5774TIP3    H117279   7.048   1.768   2.480
 5774TIP3    H217280   6.981   1.736   2.347
 5775TIP3   OH217281   1.945   5.861   5.548
 5775TIP3    H117282   1.978   5.822   5.629
 5775TIP3    H217283   1.931   5.953   5.569
 5776TIP3   OH217284   8.050   3.577   0.588
 5776TIP3    H117285   8.035   3.625   0.670
 5776TIP3    H217286   7.968   3.531   0.572
 5777TIP3   OH217287   7.782   3.221   1.828
 5777TIP3    H117288   7.822   3.242   1.744
 5777TIP3    H217289   7.857   3.205   1.887
 5778TIP3   OH217290   3.303   3.059   2.460
 5778TIP3    H117291   3.278   3.090   2.547
 5778TIP3    H217292   3.247   3.109   2.400
 5779TIP3   OH217293   2.758   5.591   4.181
 5779TIP3    H117294   2.828   5.652   4.202
 5779TIP3    H217295   2.784   5.510   4.225
 5780TIP3   OH217296   7.255   2.680   1.750
 5780TIP3    H117297   7.190   2.719   1.691
 5780TIP3    H217298   7.316   2.752   1.768
 5781TIP3   OH217299   0.161   0.653   6.669
 5781TIP3    H117300   0.247   0.696   6.672
 5781TIP3    H217301   0.147   0.634   6.576
 5782TIP3   OH217302   3.871   1.866   5.308
 5782TIP3    H117303   3.829   1.785   5.340
 5782TIP3    H217304   3.964   1.845   5.308
 5783TIP3   OH217305   1.987   0.309   4.420
 5783TIP3    H117306   2.029   0.297   4.335
 5783TIP3    H217307   2.011   0.230   4.470
 5784TIP3   OH217308   2.368   0.643   4.342
 5784TIP3    H117309   2.385   0.727   4.300
 5784TIP3    H217310   2.452   0.598   4.343
 5785TIP3   OH217311   3.016   6.063   5.661
 5785TIP3    H117312   3.030   6.026   5.574
 5785TIP3    H217313   3.097   6.044   5.709
 5786TIP3   OH217314   3.130   7.732   0.311
 5786TIP3    H117315   3.141   7.643   0.278
 5786TIP3    H217316   3.090   7.780   0.239
 5787TIP3   OH217317   3.630   0.506   1.958
 5787TIP3    H117318   3.713   0.552   1.960
 5787TIP3    H217319   3.575   0.552   2.022
 5788TIP3   OH217320   1.011   4.259   0.568
 5788TIP3    H117321   1.094   4.211   0.563
 5788TIP3    H217322   1.001   4.299   0.482
 5789TIP3   OH217323   0.534   0.112   5.323
 5789TIP3    H117324   0.541   0.050   5.250
 5789TIP3    H217325   0.617   0.159   5.323
 5790TIP3   OH217326   3.761   2.317   4.431
 5790TIP3    H117327   3.691   2.369   4.390
 5790TIP3    H217328   3.785   2.253   4.364
 5791TIP3   OH217329   1.099   4.672   5.044
 5791TIP3    H117330   1.067   4.703   5.129
 5791TIP3    H217331   1.030   4.614   5.011
 5792TIP3   OH217332   0.457   2.021   3.662
 5792TIP3    H117333   0.451   2.107   3.704
 5792TIP3    H217334   0.496   2.038   3.577
 5793TIP3   OH217335   7.960   1.382   3.277
 5793TIP3    H117336   7.957   1.355   3.185
 5793TIP3    H217337   7.928   1.473   3.276
 5794TIP3   OH217338   0.037   5.194   1.860
 5794TIP3    H117339   0.105   5.197   1.927
 5794TIP3    H217340   0.055   5.270   1.804
 5795TIP3   OH217341   3.116   6.153   5.979
 5795TIP3    H117342   3.030   6.112   5.988
 5795TIP3    H217343   3.098   6.247   5.983
 5796TIP3   OH217344   0.834   7.585   6.144
 5796TIP3    H117345   0.840   7.655   6.210
 5796TIP3    H217346   0.788   7.625   6.070
 5797TIP3   OH217347   3.082   1.897   3.665
 5797TIP3    H117348   2.986   1.908   3.663
 5797TIP3    H217349   3.095   1.805   3.644
 5798TIP3   OH217350   0.607   0.893   2.750
 5798TIP3    H117351   0.530   0.931   2.709
 5798TIP3    H217352   0.654   0.968   2.788
 5799TIP3   OH217353   8.021   7.200   4.017
 5799TIP3    H117354   8.014   7.163   4.105
 5799TIP3    H217355   8.068   7.134   3.966
 5800TIP3   OH217356   4.333   1.163   5.723
 5800TIP3    H117357   4.300   1.243   5.682
 5800TIP3    H217358   4.273   1.147   5.796
 5801TIP3   OH217359   3.513   3.773   4.121
 5801TIP3    H117360   3.521   3.730   4.205
 5801TIP3    H217361   3.519   3.866   4.140
 5802TIP3   OH217362   2.457   6.252   1.231
 5802TIP3    H117363   2.415   6.292   1.308
 5802TIP3    H217364   2.472   6.161   1.257
 5803TIP3   OH217365   7.266   4.542   3.461
 5803TIP3    H117366   7.331   4.600   3.421
 5803TIP3    H217367   7.317   4.466   3.489
 5804TIP3   OH217368   2.287   2.668   5.823
 5804TIP3    H117369   2.237   2.749   5.829
 5804TIP3    H217370   2.291   2.650   5.729
 5805TIP3   OH217371   8.281   1.117   0.643
 5805TIP3    H117372   8.194   1.099   0.680
 5805TIP3    H217373   8.293   1.211   0.654
 5806TIP3   OH217374   6.556   0.514   6.634
 5806TIP3    H117375   6.553   0.501   6.540
 5806TIP3    H217376   6.520   0.602   6.648
 5807TIP3   OH217377   6.637   6.031   1.436
 5807TIP3    H117378   6.561   6.078   1.401
 5807TIP3    H217379   6.600   5.952   1.475
 5808TIP3   OH217380   5.617   6.957   4.971
 5808TIP3    H117381   5.664   6.915   5.043
 5808TIP3    H217382   5.685   7.002   4.921
 5809TIP3   OH217383   2.494   2.916   0.099
 5809TIP3    H117384   2.466   2.958   0.180
 5809TIP3    H217385   2.531   2.832   0.126
 5810TIP3   OH217386   2.049   2.717   3.560
 5810TIP3    H117387   2.049   2.702   3.654
 5810TIP3    H217388   2.019   2.807   3.549
 5811TIP3   OH217389   3.046   3.780   4.621
 5811TIP3    H117390   3.131   3.757   4.657
 5811TIP3    H217391   3.066   3.845   4.552
 5812TIP3   OH217392   5.424   5.372   2.538
 5812TIP3    H117393   5.442   5.465   2.552
 5812TIP3    H217394   5.488   5.344   2.473
 5813TIP3   OH217395   8.073   0.140   4.607
 5813TIP3    H117396   8.146   0.200   4.590
 5813TIP3    H217397   8.096   0.098   4.690
 5814TIP3   OH217398   1.967   4.482   1.357
 5814TIP3    H117399   2.003   4.417   1.418
 5814TIP3    H217400   2.004   4.566   1.386
 5815TIP3   OH217401   7.447   5.977   6.428
 5815TIP3    H117402   7.531   5.961   6.472
 5815TIP3    H217403   7.382   5.962   6.497
 5816TIP3   OH217404   7.310   3.949   4.987
 5816TIP3    H117405   7.355   3.954   5.072
 5816TIP3    H217406   7.279   4.038   4.970
 5817TIP3   OH217407   2.054   4.850   0.759
 5817TIP3    H117408   1.996   4.905   0.707
 5817TIP3    H217409   2.131   4.838   0.703
 5818TIP3   OH217410   3.778   2.852   6.062
 5818TIP3    H117411   3.698   2.905   6.069
 5818TIP3    H217412   3.794   2.845   5.968
 5819TIP3   OH217413   7.850   4.075   2.743
 5819TIP3    H117414   7.941   4.095   2.722
 5819TIP3    H217415   7.835   3.988   2.706
 5820TIP3   OH217416   4.152   6.339   1.097
 5820TIP3    H117417   4.170   6.360   1.189
 5820TIP3    H217418   4.216   6.272   1.075
 5821TIP3   OH217419   4.950   6.931   3.692
 5821TIP3    H117420   4.955   7.026   3.696
 5821TIP3    H217421   5.023   6.901   3.747
 5822TIP3   OH217422   7.151   7.618   1.439
 5822TIP3    H117423   7.074   7.563   1.421
 5822TIP3    H217424   7.142   7.690   1.377
 5823TIP3   OH217425   0.580   1.804   0.392
 5823TIP3    H117426   0.633   1.883   0.403
 5823TIP3    H217427   0.507   1.832   0.336
 5824TIP3   OH217428   3.006   6.607   1.207
 5824TIP3    H117429   2.914   6.579   1.200
 5824TIP3    H217430   3.054   6.540   1.158
 5825TIP3   OH217431   1.057   5.197   2.708
 5825TIP3    H117432   1.127   5.187   2.643
 5825TIP3    H217433   1.072   5.126   2.770
 5826TIP3   OH217434   2.900   5.769   0.790
 5826TIP3    H117435   2.942   5.788   0.707
 5826TIP3    H217436   2.842   5.844   0.806
 5827TIP3   OH217437   8.041   4.937   4.081
 5827TIP3    H117438   8.136   4.931   4.092
 5827TIP3    H217439   8.024   5.030   4.065
 5828TIP3   OH217440   6.994   0.946   3.217
 5828TIP3    H117441   7.044   0.936   3.297
 5828TIP3    H217442   6.960   1.036   3.220
 5829TIP3   OH217443   4.977   5.789   5.357
 5829TIP3    H117444   5.019   5.831   5.281
 5829TIP3    H217445   4.922   5.720   5.318
 5830TIP3   OH217446   1.908   3.452   4.926
 5830TIP3    H117447   1.831   3.418   4.879
 5830TIP3    H217448   1.910   3.402   5.007
 5831TIP3   OH217449   6.636   6.721   4.202
 5831TIP3    H117450   6.696   6.693   4.133
 5831TIP3    H217451   6.682   6.702   4.284
 5832TIP3   OH217452   5.071   4.122   4.193
 5832TIP3    H117453   5.116   4.181   4.254
 5832TIP3    H217454   5.100   4.151   4.107
 5833TIP3   OH217455   3.085   1.850   1.063
 5833TIP3    H117456   3.074   1.763   1.102
 5833TIP3    H217457   3.160   1.887   1.110
 5834TIP3   OH217458   1.964   0.892   3.305
 5834TIP3    H117459   2.017   0.812   3.299
 5834TIP3    H217460   2.026   0.963   3.291
 5835TIP3   OH217461   3.779   1.994   0.428
 5835TIP3    H117462   3.784   2.024   0.519
 5835TIP3    H217463   3.768   1.899   0.435
 5836TIP3   OH217464   3.269   2.056   2.758
 5836TIP3    H117465   3.278   1.961   2.770
 5836TIP3    H217466   3.263   2.068   2.664
 5837TIP3   OH217467   6.803   4.536   5.526
 5837TIP3    H117468   6.844   4.614   5.490
 5837TIP3    H217469   6.769   4.489   5.450
 5838TIP3   OH217470   3.902   0.104   5.787
 5838TIP3    H117471   3.919   0.059   5.869
 5838TIP3    H217472   3.889   0.034   5.723
 5839TIP3   OH217473   2.650   6.616   6.115
 5839TIP3    H117474   2.631   6.647   6.027
 5839TIP3    H217475   2.693   6.531   6.102
 5840TIP3   OH217476   4.279   7.427   1.966
 5840TIP3    H117477   4.234   7.344   1.947
 5840TIP3    H217478   4.237   7.491   1.908
 5841TIP3   OH217479   5.834   5.919   4.623
 5841TIP3    H117480   5.771   5.849   4.605
 5841TIP3    H217481   5.901   5.876   4.678
 5842TIP3   OH217482   7.056   6.624   5.564
 5842TIP3    H117483   7.131   6.674   5.596
 5842TIP3    H217484   7.049   6.646   5.471
 5843TIP3   OH217485   0.336   3.512   6.500
 5843TIP3    H117486   0.305   3.423   6.515
 5843TIP3    H217487   0.428   3.510   6.523
 5844TIP3   OH217488   2.901   7.296   6.692
 5844TIP3    H117489   2.861   7.313   6.778
 5844TIP3    H217490   2.994   7.289   6.711
 5845TIP3   OH217491   6.218   7.778   2.595
 5845TIP3    H117492   6.187   7.866   2.573
 5845TIP3    H217493   6.289   7.792   2.658
 5846TIP3   OH217494   3.853   2.728   2.113
 5846TIP3    H117495   3.834   2.635   2.101
 5846TIP3    H217496   3.772   2.765   2.148
 5847TIP3   OH217497   1.877   6.835   1.155
 5847TIP3    H117498   1.867   6.741   1.166
 5847TIP3    H217499   1.916   6.865   1.237
 5848TIP3   OH217500   6.366   6.109   5.904
 5848TIP3    H117501   6.412   6.026   5.899
 5848TIP3    H217502   6.286   6.095   5.853
 5849TIP3   OH217503   0.162   0.671   3.145
 5849TIP3    H117504   0.073   0.660   3.179
 5849TIP3    H217505   0.185   0.584   3.113
 5850TIP3   OH217506   2.225   5.585   4.279
 5850TIP3    H117507   2.186   5.672   4.272
 5850TIP3    H217508   2.152   5.527   4.303
 5851TIP3   OH217509   4.784   3.191   3.204
 5851TIP3    H117510   4.726   3.131   3.157
 5851TIP3    H217511   4.793   3.266   3.145
 5852TIP3   OH217512   2.713   4.829   3.796
 5852TIP3    H117513   2.794   4.811   3.842
 5852TIP3    H217514   2.683   4.912   3.834
 5853TIP3   OH217515   7.338   7.189   2.991
 5853TIP3    H117516   7.419   7.143   2.969
 5853TIP3    H217517   7.328   7.255   2.923
 5854TIP3   OH217518   7.407   4.019   5.236
 5854TIP3    H117519   7.419   3.938   5.284
 5854TIP3    H217520   7.380   4.083   5.302
 5855TIP3   OH217521   6.945   2.020   3.707
 5855TIP3    H117522   6.923   2.093   3.765
 5855TIP3    H217523   7.002   1.964   3.760
 5856TIP3   OH217524   4.697   3.790   6.348
 5856TIP3    H117525   4.620   3.738   6.325
 5856TIP3    H217526   4.771   3.736   6.320
 5857TIP3   OH217527   5.393   1.431   2.579
 5857TIP3    H117528   5.361   1.490   2.511
 5857TIP3    H217529   5.394   1.484   2.658
 5858TIP3   OH217530   5.322   6.661   5.381
 5858TIP3    H117531   5.244   6.685   5.431
 5858TIP3    H217532   5.352   6.743   5.342
 5859TIP3   OH217533   6.684   4.281   3.248
 5859TIP3    H117534   6.777   4.303   3.249
 5859TIP3    H217535   6.675   4.213   3.315
 5860TIP3   OH217536   2.691   4.964   1.824
 5860TIP3    H117537   2.681   4.896   1.758
 5860TIP3    H217538   2.783   4.960   1.849
 5861TIP3   OH217539   5.184   6.430   0.490
 5861TIP3    H117540   5.275   6.430   0.518
 5861TIP3    H217541   5.188   6.419   0.395
 5862TIP3   OH217542   3.588   7.808   2.140
 5862TIP3    H117543   3.621   7.870   2.204
 5862TIP3    H217544   3.566   7.730   2.192
 5863TIP3   OH217545   6.679   6.229   2.421
 5863TIP3    H117546   6.698   6.322   2.409
 5863TIP3    H217547   6.762   6.185   2.404
 5864TIP3   OH217548   7.267   2.992   5.965
 5864TIP3    H117549   7.268   3.056   6.037
 5864TIP3    H217550   7.175   2.967   5.957
 5865TIP3   OH217551   6.726   0.475   0.030
 5865TIP3    H117552   6.757   0.388   0.053
 5865TIP3    H217553   6.632   0.472   0.046
 5866TIP3   OH217554   7.831   4.755   0.768
 5866TIP3    H117555   7.737   4.737   0.772
 5866TIP3    H217556   7.869   4.706   0.840
 5867TIP3   OH217557   5.112   6.895   5.245
 5867TIP3    H117558   5.077   6.967   5.297
 5867TIP3    H217559   5.106   6.818   5.302
 5868TIP3   OH217560   5.224   6.537   1.143
 5868TIP3    H117561   5.205   6.630   1.157
 5868TIP3    H217562   5.179   6.515   1.062
 5869TIP3   OH217563   6.626   0.425   6.403
 5869TIP3    H117564   6.708   0.400   6.446
 5869TIP3    H217565   6.615   0.360   6.333
 5870TIP3   OH217566   5.904   7.037   5.072
 5870TIP3    H117567   5.883   6.957   5.120
 5870TIP3    H217568   5.844   7.103   5.108
 5871TIP3   OH217569   7.703   5.170   3.821
 5871TIP3    H117570   7.630   5.227   3.799
 5871TIP3    H217571   7.779   5.209   3.778
 5872TIP3   OH217572   3.842   3.089   4.996
 5872TIP3    H117573   3.886   3.170   5.022
 5872TIP3    H217574   3.748   3.108   5.006
 5873TIP3   OH217575   0.482   3.294   3.925
 5873TIP3    H117576   0.431   3.294   4.006
 5873TIP3    H217577   0.462   3.209   3.884
 5874TIP3   OH217578   7.350   0.067   1.751
 5874TIP3    H117579   7.282   0.132   1.767
 5874TIP3    H217580   7.318  -0.013   1.793
 5875TIP3   OH217581   7.681   3.680   3.251
 5875TIP3    H117582   7.656   3.590   3.269
 5875TIP3    H217583   7.714   3.678   3.161
 5876TIP3   OH217584   1.556   5.216   4.751
 5876TIP3    H117585   1.572   5.224   4.845
 5876TIP3    H217586   1.469   5.176   4.745
 5877TIP3   OH217587   3.161   6.528   4.609
 5877TIP3    H117588   3.248   6.510   4.573
 5877TIP3    H217589   3.142   6.618   4.583
 5878TIP3   OH217590   1.019   3.287   5.384
 5878TIP3    H117591   0.996   3.200   5.419
 5878TIP3    H217592   0.959   3.300   5.311
 5879TIP3   OH217593   3.676   0.621   1.658
 5879TIP3    H117594   3.684   0.530   1.687
 5879TIP3    H217595   3.640   0.667   1.733
 5880TIP3   OH217596   0.582   4.306   3.143
 5880TIP3    H117597   0.544   4.376   3.196
 5880TIP3    H217598   0.661   4.281   3.190
 5881TIP3   OH217599   3.200   3.776   5.758
 5881TIP3    H117600   3.187   3.749   5.849
 5881TIP3    H217601   3.125   3.832   5.738
 5882TIP3   OH217602   4.990   1.249   5.388
 5882TIP3    H117603   4.941   1.170   5.411
 5882TIP3    H217604   5.066   1.248   5.447
 5883TIP3   OH217605   6.653   5.820   2.363
 5883TIP3    H117606   6.566   5.820   2.403
 5883TIP3    H217607   6.640   5.860   2.277
 5884TIP3   OH217608   3.287   1.540   2.961
 5884TIP3    H117609   3.338   1.468   2.923
 5884TIP3    H217610   3.319   1.618   2.918
 5885TIP3   OH217611   1.800   7.782   0.801
 5885TIP3    H117612   1.755   7.759   0.882
 5885TIP3    H217613   1.753   7.733   0.733
 5886TIP3   OH217614   2.280   5.287   3.534
 5886TIP3    H117615   2.221   5.361   3.518
 5886TIP3    H217616   2.270   5.233   3.456
 5887TIP3   OH217617   1.970   2.217   2.048
 5887TIP3    H117618   1.949   2.245   2.138
 5887TIP3    H217619   1.888   2.178   2.016
 5888TIP3   OH217620   5.011   0.994   4.137
 5888TIP3    H117621   4.928   0.950   4.149
 5888TIP3    H217622   4.988   1.086   4.121
 5889TIP3   OH217623   4.345   6.857   4.106
 5889TIP3    H117624   4.317   6.780   4.155
 5889TIP3    H217625   4.398   6.907   4.169
 5890TIP3   OH217626   2.333   5.690   5.859
 5890TIP3    H117627   2.290   5.699   5.774
 5890TIP3    H217628   2.273   5.638   5.912
 5891TIP3   OH217629   3.061   4.186   4.656
 5891TIP3    H117630   3.156   4.177   4.667
 5891TIP3    H217631   3.028   4.198   4.745
 5892TIP3   OH217632   3.410   3.795   5.322
 5892TIP3    H117633   3.371   3.718   5.362
 5892TIP3    H217634   3.504   3.780   5.327
 5893TIP3   OH217635   5.593   0.842   2.596
 5893TIP3    H117636   5.507   0.837   2.639
 5893TIP3    H217637   5.589   0.776   2.527
 5894TIP3   OH217638   3.101   3.634   3.224
 5894TIP3    H117639   3.141   3.637   3.137
 5894TIP3    H217640   3.137   3.555   3.264
 5895TIP3   OH217641   3.863   0.388   1.218
 5895TIP3    H117642   3.815   0.460   1.260
 5895TIP3    H217643   3.847   0.313   1.275
 5896TIP3   OH217644   3.529   5.165   3.708
 5896TIP3    H117645   3.596   5.194   3.770
 5896TIP3    H217646   3.570   5.173   3.622
 5897TIP3   OH217647   1.336   4.363   1.350
 5897TIP3    H117648   1.287   4.281   1.346
 5897TIP3    H217649   1.407   4.345   1.411
 5898TIP3   OH217650   0.479   5.054   5.773
 5898TIP3    H117651   0.560   5.067   5.724
 5898TIP3    H217652   0.443   5.142   5.782
 5899TIP3   OH217653   5.153   7.582   3.126
 5899TIP3    H117654   5.091   7.638   3.079
 5899TIP3    H217655   5.183   7.519   3.059
 5900TIP3   OH217656   5.195   4.997   1.912
 5900TIP3    H117657   5.218   4.964   1.999
 5900TIP3    H217658   5.253   4.949   1.852
 5901TIP3   OH217659   6.504   2.742   5.360
 5901TIP3    H117660   6.503   2.838   5.358
 5901TIP3    H217661   6.413   2.717   5.348
 5902TIP3   OH217662   4.856   1.477   5.898
 5902TIP3    H117663   4.880   1.434   5.816
 5902TIP3    H217664   4.762   1.464   5.906
 5903TIP3   OH217665   7.714   5.393   2.967
 5903TIP3    H117666   7.782   5.395   2.900
 5903TIP3    H217667   7.761   5.390   3.050
 5904TIP3   OH217668   7.501   7.813   2.333
 5904TIP3    H117669   7.446   7.814   2.255
 5904TIP3    H217670   7.557   7.891   2.324
 5905TIP3   OH217671   5.488   0.580   5.588
 5905TIP3    H117672   5.520   0.499   5.627
 5905TIP3    H217673   5.552   0.600   5.520
 5906TIP3   OH217674   3.832   2.310   2.929
 5906TIP3    H117675   3.856   2.316   2.837
 5906TIP3    H217676   3.818   2.216   2.945
 5907TIP3   OH217677   1.064   1.815   1.560
 5907TIP3    H117678   1.102   1.887   1.610
 5907TIP3    H217679   0.986   1.852   1.519
 5908TIP3   OH217680   6.138   0.727   5.755
 5908TIP3    H117681   6.059   0.700   5.709
 5908TIP3    H217682   6.122   0.703   5.847
 5909TIP3   OH217683   4.890   1.013   2.392
 5909TIP3    H117684   4.972   0.991   2.436
 5909TIP3    H217685   4.913   1.084   2.332
 5910TIP3   OH217686   8.140   4.101   4.169
 5910TIP3    H117687   8.089   4.036   4.120
 5910TIP3    H217688   8.151   4.173   4.107
 5911TIP3   OH217689   5.398   5.769   0.685
 5911TIP3    H117690   5.416   5.693   0.741
 5911TIP3    H217691   5.466   5.832   0.709
 5912TIP3   OH217692   6.227   0.499   2.006
 5912TIP3    H117693   6.137   0.500   1.974
 5912TIP3    H217694   6.227   0.560   2.080
 5913TIP3   OH217695   0.941   6.570   3.807
 5913TIP3    H117696   0.977   6.625   3.738
 5913TIP3    H217697   0.966   6.481   3.783
 5914TIP3   OH217698   1.804   4.017   1.104
 5914TIP3    H117699   1.832   3.926   1.109
 5914TIP3    H217700   1.885   4.066   1.089
 5915TIP3   OH217701   2.552   1.299   4.792
 5915TIP3    H117702   2.568   1.245   4.715
 5915TIP3    H217703   2.464   1.274   4.821
 5916TIP3   OH217704   1.319   0.566   2.495
 5916TIP3    H117705   1.228   0.584   2.473
 5916TIP3    H217706   1.337   0.621   2.572
 5917TIP3   OH217707   5.772   3.526   2.499
 5917TIP3    H117708   5.759   3.431   2.497
 5917TIP3    H217709   5.726   3.559   2.422
 5918TIP3   OH217710   0.291   2.704   5.267
 5918TIP3    H117711   0.261   2.736   5.182
 5918TIP3    H217712   0.240   2.755   5.331
 5919TIP3   OH217713   3.022   1.793   3.343
 5919TIP3    H117714   2.967   1.749   3.409
 5919TIP3    H217715   3.107   1.800   3.385
 5920TIP3   OH217716   2.337   3.830   1.826
 5920TIP3    H117717   2.420   3.810   1.869
 5920TIP3    H217718   2.287   3.748   1.830
 5921TIP3   OH217719   2.600   5.067   2.462
 5921TIP3    H117720   2.588   5.162   2.458
 5921TIP3    H217721   2.517   5.034   2.497
 5922TIP3   OH217722   1.364   2.064   6.001
 5922TIP3    H117723   1.395   2.004   5.933
 5922TIP3    H217724   1.348   2.146   5.954
 5923TIP3   OH217725   4.108   1.012   1.404
 5923TIP3    H117726   4.178   1.035   1.465
 5923TIP3    H217727   4.029   1.053   1.440
 5924TIP3   OH217728   2.187   7.552   5.791
 5924TIP3    H117729   2.159   7.466   5.825
 5924TIP3    H217730   2.105   7.597   5.771
 5925TIP3   OH217731   4.290   4.608   1.979
 5925TIP3    H117732   4.252   4.667   2.045
 5925TIP3    H217733   4.369   4.574   2.021
 5926TIP3   OH217734   3.583   7.352   0.060
 5926TIP3    H117735   3.619   7.286   0.001
 5926TIP3    H217736   3.564   7.304   0.141
 5927TIP3   OH217737   2.295   3.163   1.872
 5927TIP3    H117738   2.380   3.128   1.847
 5927TIP3    H217739   2.282   3.239   1.815
 5928TIP3   OH217740   1.581   0.296   5.344
 5928TIP3    H117741   1.499   0.248   5.351
 5928TIP3    H217742   1.576   0.365   5.410
 5929TIP3   OH217743   1.098   2.793   3.594
 5929TIP3    H117744   1.112   2.835   3.509
 5929TIP3    H217745   1.149   2.845   3.656
 5930TIP3   OH217746   1.463   4.400   4.488
 5930TIP3    H117747   1.421   4.357   4.562
 5930TIP3    H217748   1.454   4.338   4.415
 5931TIP3   OH217749   7.993   4.669   3.572
 5931TIP3    H117750   7.983   4.669   3.476
 5931TIP3    H217751   8.039   4.588   3.591
 5932TIP3   OH217752   1.714   6.173   0.330
 5932TIP3    H117753   1.797   6.157   0.376
 5932TIP3    H217754   1.738   6.182   0.238
 5933TIP3   OH217755   0.668   6.154   6.347
 5933TIP3    H117756   0.739   6.199   6.392
 5933TIP3    H217757   0.651   6.075   6.399
 5934TIP3   OH217758   0.030   2.880   0.862
 5934TIP3    H117759   0.067   2.832   0.788
 5934TIP3    H217760   0.098   2.942   0.887
 5935TIP3   OH217761   7.623   6.115   0.423
 5935TIP3    H117762   7.582   6.170   0.490
 5935TIP3    H217763   7.600   6.026   0.449
 5936TIP3   OH217764   7.440   5.736   5.678
 5936TIP3    H117765   7.491   5.655   5.684
 5936TIP3    H217766   7.468   5.788   5.754
 5937TIP3   OH217767   0.688   6.801   5.398
 5937TIP3    H117768   0.695   6.805   5.303
 5937TIP3    H217769   0.614   6.743   5.414
 5938TIP3   OH217770   6.365   5.196   1.193
 5938TIP3    H117771   6.357   5.137   1.118
 5938TIP3    H217772   6.313   5.154   1.262
 5939TIP3   OH217773   7.780   0.176   5.189
 5939TIP3    H117774   7.703   0.233   5.195
 5939TIP3    H217775   7.854   0.233   5.209
 5940TIP3   OH217776   3.269   2.455   0.703
 5940TIP3    H117777   3.270   2.462   0.799
 5940TIP3    H217778   3.183   2.489   0.678
 5941TIP3   OH217779   5.756   0.842   5.447
 5941TIP3    H117780   5.665   0.869   5.462
 5941TIP3    H217781   5.799   0.854   5.531
 5942TIP3   OH217782   3.728   5.000   2.811
 5942TIP3    H117783   3.741   4.983   2.904
 5942TIP3    H217784   3.674   5.079   2.808
 5943TIP3   OH217785   5.901   2.331   0.155
 5943TIP3    H117786   5.920   2.408   0.208
 5943TIP3    H217787   5.927   2.356   0.066
 5944TIP3   OH217788   3.125   5.016   4.417
 5944TIP3    H117789   3.063   5.067   4.469
 5944TIP3    H217790   3.073   4.983   4.343
 5945TIP3   OH217791   6.880   2.913   0.692
 5945TIP3    H117792   6.884   2.968   0.769
 5945TIP3    H217793   6.787   2.896   0.679
 5946TIP3   OH217794   4.605   5.446   1.855
 5946TIP3    H117795   4.528   5.486   1.896
 5946TIP3    H217796   4.645   5.393   1.924
 5947TIP3   OH217797   7.502   1.850   1.897
 5947TIP3    H117798   7.553   1.840   1.816
 5947TIP3    H217799   7.544   1.921   1.944
 5948TIP3   OH217800   3.080   1.012   4.332
 5948TIP3    H117801   3.106   1.104   4.318
 5948TIP3    H217802   3.024   1.015   4.409
 5949TIP3   OH217803   0.510   5.261   1.867
 5949TIP3    H117804   0.510   5.252   1.772
 5949TIP3    H217805   0.419   5.248   1.893
 5950TIP3   OH217806   0.653   0.032   3.400
 5950TIP3    H117807   0.606  -0.018   3.333
 5950TIP3    H217808   0.604   0.114   3.407
 5951TIP3   OH217809   3.927   4.399   2.887
 5951TIP3    H117810   3.870   4.326   2.911
 5951TIP3    H217811   4.015   4.368   2.905
 5952TIP3   OH217812   0.308   6.432   1.556
 5952TIP3    H117813   0.283   6.452   1.466
 5952TIP3    H217814   0.280   6.508   1.607
 5953TIP3   OH217815   7.974   3.152   3.438
 5953TIP3    H117816   7.973   3.177   3.345
 5953TIP3    H217817   7.910   3.081   3.444
 5954TIP3   OH217818   6.588   3.922   5.395
 5954TIP3    H117819   6.582   3.879   5.310
 5954TIP3    H217820   6.547   3.861   5.457
 5955TIP3   OH217821   0.956   6.993   5.235
 5955TIP3    H117822   1.030   7.041   5.271
 5955TIP3    H217823   0.881   7.051   5.248
 5956TIP3   OH217824   2.811   6.941   4.019
 5956TIP3    H117825   2.901   6.914   4.038
 5956TIP3    H217826   2.810   7.035   4.040
 5957TIP3   OH217827   6.355   2.380   1.311
 5957TIP3    H117828   6.354   2.474   1.329
 5957TIP3    H217829   6.354   2.339   1.398
 5958TIP3   OH217830   6.771   5.799   0.979
 5958TIP3    H117831   6.692   5.781   0.928
 5958TIP3    H217832   6.739   5.814   1.068
 5959TIP3   OH217833   1.097   0.677   1.884
 5959TIP3    H117834   1.107   0.583   1.875
 5959TIP3    H217835   1.092   0.692   1.979
 5960TIP3   OH217836   4.354   7.182   2.266
 5960TIP3    H117837   4.332   7.177   2.173
 5960TIP3    H217838   4.295   7.249   2.301
 5961TIP3   OH217839   5.313   6.411   3.348
 5961TIP3    H117840   5.330   6.367   3.265
 5961TIP3    H217841   5.270   6.493   3.324
 5962TIP3   OH217842   2.221   4.472   6.011
 5962TIP3    H117843   2.301   4.491   5.962
 5962TIP3    H217844   2.174   4.555   6.015
 5963TIP3   OH217845   1.231   0.996   5.708
 5963TIP3    H117846   1.310   0.971   5.755
 5963TIP3    H217847   1.227   0.936   5.634
 5964TIP3   OH217848   5.125   2.516   0.915
 5964TIP3    H117849   5.096   2.604   0.939
 5964TIP3    H217850   5.112   2.511   0.820
 5965TIP3   OH217851   2.454   6.362   2.147
 5965TIP3    H117852   2.391   6.356   2.075
 5965TIP3    H217853   2.409   6.324   2.222
 5966TIP3   OH217854   4.314   2.243   3.114
 5966TIP3    H117855   4.230   2.205   3.089
 5966TIP3    H217856   4.327   2.213   3.204
 5967TIP3   OH217857   5.270   0.531   0.801
 5967TIP3    H117858   5.178   0.539   0.776
 5967TIP3    H217859   5.306   0.468   0.738
 5968TIP3   OH217860   2.792   2.718   4.497
 5968TIP3    H117861   2.802   2.777   4.422
 5968TIP3    H217862   2.741   2.768   4.560
 5969TIP3   OH217863   1.693   2.157   2.042
 5969TIP3    H117864   1.657   2.104   2.113
 5969TIP3    H217865   1.673   2.109   1.962
 5970TIP3   OH217866   2.353   3.149   1.249
 5970TIP3    H117867   2.382   3.239   1.235
 5970TIP3    H217868   2.293   3.132   1.177
 5971TIP3   OH217869  -0.009   4.119   3.317
 5971TIP3    H117870   0.012   4.113   3.224
 5971TIP3    H217871   0.074   4.142   3.359
 5972TIP3   OH217872   7.167   5.708   2.024
 5972TIP3    H117873   7.117   5.627   2.011
 5972TIP3    H217874   7.110   5.763   2.079
 5973TIP3   OH217875   0.401   5.004   6.435
 5973TIP3    H117876   0.339   5.006   6.508
 5973TIP3    H217877   0.394   4.916   6.400
 5974TIP3   OH217878   4.029   2.091   4.398
 5974TIP3    H117879   4.113   2.053   4.423
 5974TIP3    H217880   4.028   2.178   4.438
 5975TIP3   OH217881   7.052   5.006   1.595
 5975TIP3    H117882   7.078   4.977   1.508
 5975TIP3    H217883   7.122   4.976   1.653
 5976TIP3   OH217884   6.520   4.600   1.467
 5976TIP3    H117885   6.484   4.688   1.453
 5976TIP3    H217886   6.536   4.595   1.561
 5977TIP3   OH217887   3.209   1.373   3.677
 5977TIP3    H117888   3.257   1.292   3.695
 5977TIP3    H217889   3.190   1.369   3.583
 5978TIP3   OH217890   5.947   0.264   2.935
 5978TIP3    H117891   5.941   0.298   2.846
 5978TIP3    H217892   5.928   0.171   2.927
 5979TIP3   OH217893   2.404   6.403  -0.004
 5979TIP3    H117894   2.458   6.472  -0.042
 5979TIP3    H217895   2.447   6.383   0.079
 5980TIP3   OH217896   0.900   2.440   3.141
 5980TIP3    H117897   0.876   2.348   3.153
 5980TIP3    H217898   0.922   2.447   3.048
 5981TIP3   OH217899   2.436   6.853   6.274
 5981TIP3    H117900   2.344   6.862   6.299
 5981TIP3    H217901   2.454   6.930   6.220
 5982TIP3   OH217902   3.715   6.364   1.965
 5982TIP3    H117903   3.740   6.449   2.001
 5982TIP3    H217904   3.724   6.374   1.871
 5983TIP3   OH217905   2.328   1.707   5.398
 5983TIP3    H117906   2.387   1.635   5.379
 5983TIP3    H217907   2.269   1.674   5.465
 5984TIP3   OH217908   4.873   7.150   4.476
 5984TIP3    H117909   4.942   7.150   4.409
 5984TIP3    H217910   4.921   7.145   4.559
 5985TIP3   OH217911   5.369   0.244   5.779
 5985TIP3    H117912   5.311   0.300   5.727
 5985TIP3    H217913   5.457   0.275   5.759
 5986TIP3   OH217914   7.844   0.268   4.504
 5986TIP3    H117915   7.779   0.268   4.574
 5986TIP3    H217916   7.909   0.204   4.532
 5987TIP3   OH217917   6.525   0.815   0.097
 5987TIP3    H117918   6.560   0.904   0.091
 5987TIP3    H217919   6.594   0.765   0.141
 5988TIP3   OH217920   1.335   2.469   3.378
 5988TIP3    H117921   1.321   2.398   3.316
 5988TIP3    H217922   1.347   2.425   3.462
 5989TIP3   OH217923   5.674   5.440   0.184
 5989TIP3    H117924   5.715   5.358   0.158
 5989TIP3    H217925   5.688   5.445   0.279
 5990TIP3   OH217926   7.334   3.128   3.940
 5990TIP3    H117927   7.362   3.196   4.001
 5990TIP3    H217928   7.407   3.118   3.879
 5991TIP3   OH217929   1.761   1.866   0.748
 5991TIP3    H117930   1.738   1.947   0.792
 5991TIP3    H217931   1.764   1.801   0.818
 5992TIP3   OH217932   6.713   2.622   0.623
 5992TIP3    H117933   6.744   2.669   0.701
 5992TIP3    H217934   6.786   2.565   0.599
 5993TIP3   OH217935   0.383   1.172   2.839
 5993TIP3    H117936   0.336   1.187   2.921
 5993TIP3    H217937   0.467   1.217   2.851
 5994TIP3   OH217938   2.894   2.074   0.586
 5994TIP3    H117939   2.961   2.131   0.548
 5994TIP3    H217940   2.932   2.045   0.669
 5995TIP3   OH217941   4.117   2.250   5.628
 5995TIP3    H117942   4.195   2.259   5.574
 5995TIP3    H217943   4.134   2.305   5.704
 5996TIP3   OH217944   7.414   3.862   4.308
 5996TIP3    H117945   7.417   3.955   4.332
 5996TIP3    H217946   7.443   3.816   4.387
 5997TIP3   OH217947   3.199   1.421   3.413
 5997TIP3    H117948   3.245   1.340   3.392
 5997TIP3    H217949   3.215   1.477   3.337
 5998TIP3   OH217950   5.347   5.204   4.404
 5998TIP3    H117951   5.302   5.170   4.327
 5998TIP3    H217952   5.295   5.173   4.478
 5999TIP3   OH217953   1.139   0.020   2.216
 5999TIP3    H117954   1.053  -0.006   2.185
 5999TIP3    H217955   1.132   0.017   2.311
 6000TIP3   OH217956   2.002   2.020   3.460
 6000TIP3    H117957   2.033   1.991   3.374
 6000TIP3    H217958   1.929   2.078   3.440
 6001TIP3   OH217959   3.009   7.571   1.354
 6001TIP3    H117960   2.951   7.606   1.287
 6001TIP3    H217961   2.950   7.541   1.424
 6002TIP3   OH217962   0.426   7.581   6.559
 6002TIP3    H117963   0.451   7.579   6.467
 6002TIP3    H217964   0.452   7.668   6.589
 6003TIP3   OH217965   1.308   3.280   1.128
 6003TIP3    H117966   1.335   3.333   1.053
 6003TIP3    H217967   1.388   3.273   1.181
 6004TIP3   OH217968   0.317   2.455   5.134
 6004TIP3    H117969   0.236   2.471   5.085
 6004TIP3    H217970   0.318   2.522   5.202
 6005TIP3   OH217971   0.494   3.471   4.945
 6005TIP3    H117972   0.399   3.479   4.954
 6005TIP3    H217973   0.510   3.482   4.851
 6006TIP3   OH217974   4.629   1.151   4.349
 6006TIP3    H117975   4.672   1.235   4.364
 6006TIP3    H217976   4.646   1.131   4.257
 6007TIP3   OH217977   7.901   0.014   2.207
 6007TIP3    H117978   7.820  -0.037   2.201
 6007TIP3    H217979   7.872   0.105   2.206
 6008TIP3   OH217980   1.349   5.034   6.040
 6008TIP3    H117981   1.287   4.976   6.084
 6008TIP3    H217982   1.318   5.122   6.061
 6009TIP3   OH217983   2.113   0.791   5.281
 6009TIP3    H117984   2.041   0.771   5.221
 6009TIP3    H217985   2.105   0.885   5.298
 6010TIP3   OH217986   1.368   3.567   1.549
 6010TIP3    H117987   1.300   3.499   1.556
 6010TIP3    H217988   1.410   3.550   1.465
 6011TIP3   OH217989   7.201   6.906   3.022
 6011TIP3    H117990   7.249   6.970   2.969
 6011TIP3    H217991   7.173   6.955   3.099
 6012TIP3   OH217992   4.387   0.827   2.929
 6012TIP3    H117993   4.481   0.842   2.928
 6012TIP3    H217994   4.378   0.735   2.954
 6013TIP3   OH217995   6.485   7.124   2.341
 6013TIP3    H117996   6.496   7.091   2.252
 6013TIP3    H217997   6.436   7.205   2.330
 6014TIP3   OH217998   7.826   1.037   3.660
 6014TIP3    H117999   7.840   1.060   3.568
 6014TIP3    H218000   7.901   1.074   3.706
 6015TIP3   OH218001   0.710   1.658   3.756
 6015TIP3    H118002   0.634   1.618   3.799
 6015TIP3    H218003   0.685   1.661   3.664
 6016TIP3   OH218004   1.769   6.961   1.906
 6016TIP3    H118005   1.690   6.937   1.857
 6016TIP3    H218006   1.740   7.027   1.968
 6017TIP3   OH218007   7.847   0.555   1.074
 6017TIP3    H118008   7.917   0.609   1.037
 6017TIP3    H218009   7.796   0.615   1.129
 6018TIP3   OH218010   2.037   7.627   6.729
 6018TIP3    H118011   2.035   7.675   6.646
 6018TIP3    H218012   1.945   7.612   6.750
 6019TIP3   OH218013   1.118   0.018   2.479
 6019TIP3    H118014   1.168  -0.064   2.489
 6019TIP3    H218015   1.106   0.049   2.568
 6020TIP3   OH218016   4.149   5.166   3.149
 6020TIP3    H118017   4.143   5.162   3.054
 6020TIP3    H218018   4.233   5.124   3.170
 6021TIP3   OH218019   0.681   2.710   5.503
 6021TIP3    H118020   0.687   2.779   5.569
 6021TIP3    H218021   0.770   2.678   5.493
 6022TIP3   OH218022   4.319   6.666   6.066
 6022TIP3    H118023   4.331   6.643   5.974
 6022TIP3    H218024   4.406   6.692   6.096
 6023TIP3   OH218025   3.311   1.559   6.564
 6023TIP3    H118026   3.271   1.616   6.499
 6023TIP3    H218027   3.390   1.604   6.592
 6024TIP3   OH218028   4.485   1.879   2.272
 6024TIP3    H118029   4.490   1.944   2.202
 6024TIP3    H218030   4.501   1.795   2.229
 6025TIP3   OH218031   0.079   3.452   5.349
 6025TIP3    H118032   0.065   3.359   5.331
 6025TIP3    H218033   0.099   3.490   5.263
 6026TIP3   OH218034   4.921   3.764   1.027
 6026TIP3    H118035   4.868   3.824   0.975
 6026TIP3    H218036   4.995   3.817   1.058
 6027TIP3   OH218037   5.134   3.275   3.743
 6027TIP3    H118038   5.215   3.302   3.700
 6027TIP3    H218039   5.065   3.297   3.680
 6028TIP3   OH218040   0.192   7.224   6.255
 6028TIP3    H118041   0.116   7.268   6.294
 6028TIP3    H218042   0.177   7.231   6.161
 6029TIP3   OH218043   7.094   6.115   6.544
 6029TIP3    H118044   7.141   6.036   6.572
 6029TIP3    H218045   7.060   6.152   6.625
 6030TIP3   OH218046   0.821   3.624   1.274
 6030TIP3    H118047   0.772   3.602   1.353
 6030TIP3    H218048   0.800   3.554   1.212
 6031TIP3   OH218049   3.411   2.744   1.258
 6031TIP3    H118050   3.364   2.810   1.309
 6031TIP3    H218051   3.472   2.705   1.320
 6032TIP3   OH218052   4.128   4.693   5.088
 6032TIP3    H118053   4.043   4.654   5.109
 6032TIP3    H218054   4.148   4.659   5.001
 6033TIP3   OH218055   0.923   1.037   4.122
 6033TIP3    H118056   0.958   1.072   4.040
 6033TIP3    H218057   0.871   1.109   4.158
 6034TIP3   OH218058   3.974   2.041   5.110
 6034TIP3    H118059   4.025   2.042   5.029
 6034TIP3    H218060   4.039   2.043   5.180
 6035TIP3   OH218061   3.995   2.769   3.809
 6035TIP3    H118062   4.088   2.791   3.807
 6035TIP3    H218063   3.992   2.676   3.831
 6036TIP3   OH218064   6.742   3.748   1.568
 6036TIP3    H118065   6.793   3.801   1.629
 6036TIP3    H218066   6.660   3.796   1.557
 6037TIP3   OH218067   6.486   1.723   3.921
 6037TIP3    H118068   6.433   1.698   3.996
 6037TIP3    H218069   6.570   1.751   3.958
 6038TIP3   OH218070   0.086   5.316   1.584
 6038TIP3    H118071   0.028   5.266   1.526
 6038TIP3    H218072   0.029   5.382   1.624
 6039TIP3   OH218073   6.827   4.626   3.475
 6039TIP3    H118074   6.855   4.578   3.397
 6039TIP3    H218075   6.840   4.718   3.452
 6040TIP3   OH218076   4.299   2.844   3.651
 6040TIP3    H118077   4.266   2.923   3.608
 6040TIP3    H218078   4.381   2.871   3.692
 6041TIP3   OH218079   5.919   4.630   1.481
 6041TIP3    H118080   5.865   4.551   1.472
 6041TIP3    H218081   5.971   4.632   1.401
 6042TIP3   OH218082   3.502   2.834   3.421
 6042TIP3    H118083   3.433   2.868   3.364
 6042TIP3    H218084   3.531   2.910   3.471
 6043TIP3   OH218085   5.347   2.265   1.086
 6043TIP3    H118086   5.338   2.356   1.059
 6043TIP3    H218087   5.289   2.216   1.028
 6044TIP3   OH218088   5.933   5.901   0.204
 6044TIP3    H118089   5.908   5.888   0.295
 6044TIP3    H218090   6.021   5.864   0.198
 6045TIP3   OH218091   5.318   5.561   5.529
 6045TIP3    H118092   5.333   5.469   5.507
 6045TIP3    H218093   5.268   5.559   5.610
 6046TIP3   OH218094   5.061   0.716   4.734
 6046TIP3    H118095   5.156   0.710   4.744
 6046TIP3    H218096   5.027   0.642   4.783
 6047TIP3   OH218097   0.836   1.663   1.698
 6047TIP3    H118098   0.839   1.670   1.602
 6047TIP3    H218099   0.924   1.634   1.722
 6048TIP3   OH218100   2.557   5.810   2.687
 6048TIP3    H118101   2.499   5.738   2.662
 6048TIP3    H218102   2.630   5.804   2.625
 6049TIP3   OH218103   2.621   3.592   1.423
 6049TIP3    H118104   2.709   3.559   1.442
 6049TIP3    H218105   2.628   3.687   1.432
 6050TIP3   OH218106   5.944   5.765   5.725
 6050TIP3    H118107   5.870   5.720   5.766
 6050TIP3    H218108   5.907   5.814   5.652
 6051TIP3   OH218109   4.957   0.075   4.653
 6051TIP3    H118110   5.034   0.037   4.694
 6051TIP3    H218111   4.922   0.137   4.717
 6052TIP3   OH218112   2.363   1.049   3.404
 6052TIP3    H118113   2.392   1.056   3.313
 6052TIP3    H218114   2.439   1.073   3.456
 6053TIP3   OH218115   6.607   4.892   1.138
 6053TIP3    H118116   6.619   4.848   1.222
 6053TIP3    H218117   6.652   4.837   1.075
 6054TIP3   OH218118   3.032   7.191   2.635
 6054TIP3    H118119   3.034   7.147   2.720
 6054TIP3    H218120   2.958   7.152   2.590
 6055TIP3   OH218121   6.756   2.983   2.587
 6055TIP3    H118122   6.679   3.002   2.640
 6055TIP3    H218123   6.807   2.921   2.640
 6056TIP3   OH218124   4.383   3.612   1.511
 6056TIP3    H118125   4.370   3.664   1.590
 6056TIP3    H218126   4.438   3.538   1.540
 6057TIP3   OH218127   3.172   5.293   0.178
 6057TIP3    H118128   3.129   5.209   0.192
 6057TIP3    H218129   3.168   5.308   0.084
 6058TIP3   OH218130   2.946   1.828   2.609
 6058TIP3    H118131   2.935   1.832   2.704
 6058TIP3    H218132   3.020   1.886   2.592
 6059TIP3   OH218133   4.257   0.337   0.320
 6059TIP3    H118134   4.296   0.263   0.366
 6059TIP3    H218135   4.219   0.299   0.240
 6060TIP3   OH218136   1.327   0.257   4.717
 6060TIP3    H118137   1.315   0.162   4.708
 6060TIP3    H218138   1.399   0.267   4.779
 6061TIP3   OH218139   3.575   3.976   1.391
 6061TIP3    H118140   3.595   3.914   1.462
 6061TIP3    H218141   3.643   4.044   1.400
 6062TIP3   OH218142   5.368   3.984   3.694
 6062TIP3    H118143   5.329   4.071   3.684
 6062TIP3    H218144   5.458   4.000   3.721
 6063TIP3   OH218145   5.208   1.816   3.243
 6063TIP3    H118146   5.192   1.739   3.188
 6063TIP3    H218147   5.159   1.799   3.323
 6064TIP3   OH218148   1.014   1.915   6.551
 6064TIP3    H118149   1.010   1.857   6.627
 6064TIP3    H218150   1.012   2.003   6.587
 6065TIP3   OH218151   1.779   1.799   1.187
 6065TIP3    H118152   1.869   1.777   1.211
 6065TIP3    H218153   1.731   1.795   1.269
 6066TIP3   OH218154   3.246   4.560   4.424
 6066TIP3    H118155   3.171   4.511   4.459
 6066TIP3    H218156   3.231   4.650   4.452
 6067TIP3   OH218157   5.680   3.202   0.993
 6067TIP3    H118158   5.658   3.109   1.005
 6067TIP3    H218159   5.615   3.233   0.930
 6068TIP3   OH218160   4.156   4.256   6.622
 6068TIP3    H118161   4.225   4.222   6.678
 6068TIP3    H218162   4.199   4.268   6.537
 6069TIP3   OH218163   0.417   2.621   0.788
 6069TIP3    H118164   0.341   2.609   0.732
 6069TIP3    H218165   0.484   2.565   0.750
 6070TIP3   OH218166   2.378   3.539   5.971
 6070TIP3    H118167   2.360   3.507   6.059
 6070TIP3    H218168   2.446   3.605   5.982
 6071TIP3   OH218169   1.304   2.898   2.277
 6071TIP3    H118170   1.281   2.904   2.370
 6071TIP3    H218171   1.323   2.989   2.252
 6072TIP3   OH218172   6.478   1.805   2.451
 6072TIP3    H118173   6.466   1.768   2.363
 6072TIP3    H218174   6.503   1.896   2.434
 6073TIP3   OH218175   5.668   4.321   4.325
 6073TIP3    H118176   5.732   4.331   4.255
 6073TIP3    H218177   5.616   4.245   4.299
 6074TIP3   OH218178   0.739   4.369   5.873
 6074TIP3    H118179   0.739   4.392   5.780
 6074TIP3    H218180   0.812   4.419   5.910
 6075TIP3   OH218181   4.298   0.376   2.573
 6075TIP3    H118182   4.381   0.371   2.527
 6075TIP3    H218183   4.250   0.446   2.528
 6076TIP3   OH218184   1.337   3.444   0.886
 6076TIP3    H118185   1.330   3.452   0.790
 6076TIP3    H218186   1.256   3.483   0.919
 6077TIP3   OH218187   7.492   4.097   2.816
 6077TIP3    H118188   7.544   4.176   2.799
 6077TIP3    H218189   7.512   4.039   2.742
 6078TIP3   OH218190   7.325   5.076   1.057
 6078TIP3    H118191   7.287   5.101   1.141
 6078TIP3    H218192   7.419   5.090   1.068
 6079TIP3   OH218193   6.780   5.104   5.111
 6079TIP3    H118194   6.756   5.181   5.060
 6079TIP3    H218195   6.818   5.140   5.191
 6080TIP3   OH218196   0.309   6.642   2.583
 6080TIP3    H118197   0.231   6.600   2.548
 6080TIP3    H218198   0.335   6.704   2.515
 6081TIP3   OH218199   0.348   5.898   1.958
 6081TIP3    H118200   0.369   5.904   2.051
 6081TIP3    H218201   0.317   5.808   1.946
 6082TIP3   OH218202   2.152   2.549   0.478
 6082TIP3    H118203   2.140   2.467   0.432
 6082TIP3    H218204   2.245   2.570   0.466
 6083TIP3   OH218205   7.766   2.494   3.661
 6083TIP3    H118206   7.828   2.519   3.729
 6083TIP3    H218207   7.807   2.418   3.619
 6084TIP3   OH218208   7.972   3.761   6.796
 6084TIP3    H118209   7.886   3.788   6.765
 6084TIP3    H218210   8.029   3.768   6.720
 6085TIP3   OH218211   5.714   0.123   6.243
 6085TIP3    H118212   5.805   0.139   6.218
 6085TIP3    H218213   5.666   0.120   6.161
 6086TIP3   OH218214   3.253   3.103   4.768
 6086TIP3    H118215   3.225   3.182   4.722
 6086TIP3    H218216   3.347   3.116   4.781
 6087TIP3   OH218217   2.363   5.712   2.430
 6087TIP3    H118218   2.287   5.747   2.477
 6087TIP3    H218219   2.349   5.617   2.429
 6088TIP3   OH218220   5.388   4.475   3.139
 6088TIP3    H118221   5.475   4.495   3.174
 6088TIP3    H218222   5.329   4.530   3.190
 6089TIP3   OH218223   3.024   7.017   2.867
 6089TIP3    H118224   3.002   7.010   2.960
 6089TIP3    H218225   2.959   6.962   2.823
 6090TIP3   OH218226   5.340   1.914   5.528
 6090TIP3    H118227   5.262   1.860   5.539
 6090TIP3    H218228   5.317   1.973   5.456
 6091TIP3   OH218229   0.129   5.595   3.831
 6091TIP3    H118230   0.054   5.556   3.785
 6091TIP3    H218231   0.198   5.598   3.764
 6092TIP3   OH218232   2.258   6.717   2.487
 6092TIP3    H118233   2.302   6.786   2.538
 6092TIP3    H218234   2.231   6.653   2.552
 6093TIP3   OH218235   3.696   7.278   2.410
 6093TIP3    H118236   3.768   7.289   2.471
 6093TIP3    H218237   3.640   7.355   2.424
 6094TIP3   OH218238   1.161   0.505   6.050
 6094TIP3    H118239   1.086   0.476   6.101
 6094TIP3    H218240   1.147   0.599   6.038
 6095TIP3   OH218241   0.889   5.424   2.869
 6095TIP3    H118242   0.932   5.373   2.801
 6095TIP3    H218243   0.919   5.513   2.855
 6096TIP3   OH218244   6.799   7.406   6.350
 6096TIP3    H118245   6.837   7.480   6.397
 6096TIP3    H218246   6.815   7.425   6.258
 6097TIP3   OH218247   7.787   0.786   3.523
 6097TIP3    H118248   7.825   0.856   3.576
 6097TIP3    H218249   7.716   0.750   3.578
 6098TIP3   OH218250   3.136   0.825   5.784
 6098TIP3    H118251   3.191   0.842   5.707
 6098TIP3    H218252   3.083   0.750   5.759
 6099TIP3   OH218253   5.115   1.047   3.255
 6099TIP3    H118254   5.054   1.037   3.182
 6099TIP3    H218255   5.159   1.130   3.236
 6100TIP3   OH218256   2.068   3.883   6.635
 6100TIP3    H118257   1.984   3.916   6.603
 6100TIP3    H218258   2.128   3.897   6.562
 6101TIP3   OH218259   1.273   3.200   1.789
 6101TIP3    H118260   1.358   3.166   1.758
 6101TIP3    H218261   1.253   3.272   1.729
 6102TIP3   OH218262   5.992   4.672   2.223
 6102TIP3    H118263   6.069   4.685   2.279
 6102TIP3    H218264   6.025   4.621   2.148
 6103TIP3   OH218265   5.268   5.542   1.182
 6103TIP3    H118266   5.311   5.507   1.260
 6103TIP3    H218267   5.262   5.636   1.198
 6104TIP3   OH218268   2.207   1.100   4.417
 6104TIP3    H118269   2.213   1.148   4.334
 6104TIP3    H218270   2.195   1.167   4.483
 6105TIP3   OH218271   2.279   3.760   1.543
 6105TIP3    H118272   2.320   3.749   1.629
 6105TIP3    H218273   2.212   3.827   1.557
 6106TIP3   OH218274   7.780   4.249   2.976
 6106TIP3    H118275   7.723   4.301   2.920
 6106TIP3    H218276   7.817   4.183   2.917
 6107TIP3   OH218277   5.733   6.405   2.424
 6107TIP3    H118278   5.702   6.335   2.481
 6107TIP3    H218279   5.714   6.373   2.335
 6108TIP3   OH218280   7.570   7.380   2.325
 6108TIP3    H118281   7.612   7.450   2.276
 6108TIP3    H218282   7.548   7.419   2.409
 6109TIP3   OH218283   2.673   7.274   2.313
 6109TIP3    H118284   2.679   7.179   2.323
 6109TIP3    H218285   2.638   7.287   2.225
 6110TIP3   OH218286   5.449   2.224   5.141
 6110TIP3    H118287   5.454   2.317   5.164
 6110TIP3    H218288   5.379   2.219   5.076
 6111TIP3   OH218289   7.588   4.912   1.608
 6111TIP3    H118290   7.646   4.974   1.565
 6111TIP3    H218291   7.641   4.833   1.621
 6112TIP3   OH218292   2.010   0.677   0.542
 6112TIP3    H118293   1.916   0.672   0.527
 6112TIP3    H218294   2.025   0.619   0.617
 6113TIP3   OH218295   1.626   2.812   4.116
 6113TIP3    H118296   1.547   2.760   4.131
 6113TIP3    H218297   1.593   2.900   4.097
 6114TIP3   OH218298   3.293   0.864   3.559
 6114TIP3    H118299   3.248   0.926   3.616
 6114TIP3    H218300   3.380   0.855   3.597
 6115TIP3   OH218301   2.888   4.900   4.752
 6115TIP3    H118302   2.883   4.878   4.659
 6115TIP3    H218303   2.970   4.861   4.782
 6116TIP3   OH218304   4.867   1.353   6.237
 6116TIP3    H118305   4.830   1.434   6.201
 6116TIP3    H218306   4.936   1.383   6.296
 6117TIP3   OH218307   7.874   3.852   3.454
 6117TIP3    H118308   7.954   3.880   3.410
 6117TIP3    H218309   7.815   3.825   3.383
 6118TIP3   OH218310   7.581   1.609   4.196
 6118TIP3    H118311   7.518   1.539   4.176
 6118TIP3    H218312   7.613   1.588   4.284
 6119TIP3   OH218313   5.098   4.480   1.385
 6119TIP3    H118314   5.083   4.572   1.406
 6119TIP3    H218315   5.113   4.480   1.290
 6120TIP3   OH218316   3.304   0.346   4.233
 6120TIP3    H118317   3.310   0.251   4.239
 6120TIP3    H218318   3.395   0.376   4.237
 6121TIP3   OH218319   7.490   3.188   4.884
 6121TIP3    H118320   7.513   3.260   4.826
 6121TIP3    H218321   7.495   3.225   4.972
 6122TIP3   OH218322   1.359   3.756   3.337
 6122TIP3    H118323   1.399   3.729   3.254
 6122TIP3    H218324   1.385   3.688   3.399
 6123TIP3   OH218325   5.018   7.065   5.973
 6123TIP3    H118326   4.967   7.138   6.008
 6123TIP3    H218327   5.109   7.095   5.976
 6124TIP3   OH218328   7.523   2.582   6.453
 6124TIP3    H118329   7.448   2.595   6.511
 6124TIP3    H218330   7.596   2.564   6.512
 6125TIP3   OH218331   4.136   3.954   4.049
 6125TIP3    H118332   4.135   3.898   3.972
 6125TIP3    H218333   4.052   3.999   4.047
 6126TIP3   OH218334   7.962   5.318   6.549
 6126TIP3    H118335   8.033   5.265   6.586
 6126TIP3    H218336   7.928   5.367   6.624
 6127TIP3   OH218337   6.029   3.126   2.288
 6127TIP3    H118338   6.000   3.089   2.205
 6127TIP3    H218339   6.107   3.177   2.266
 6128TIP3   OH218340   4.595   5.189   6.758
 6128TIP3    H118341   4.654   5.264   6.754
 6128TIP3    H218342   4.652   5.114   6.769
 6129TIP3   OH218343   1.554   3.248   1.190
 6129TIP3    H118344   1.552   3.159   1.223
 6129TIP3    H218345   1.646   3.264   1.169
 6130TIP3   OH218346   7.624   6.788   2.850
 6130TIP3    H118347   7.624   6.721   2.919
 6130TIP3    H218348   7.558   6.757   2.787
 6131TIP3   OH218349   5.584   3.810   0.454
 6131TIP3    H118350   5.524   3.770   0.517
 6131TIP3    H218351   5.530   3.875   0.408
 6132TIP3   OH218352   1.587   2.566   3.486
 6132TIP3    H118353   1.523   2.526   3.428
 6132TIP3    H218354   1.641   2.493   3.517
 6133TIP3   OH218355   2.062   7.308   4.232
 6133TIP3    H118356   2.058   7.219   4.266
 6133TIP3    H218357   2.042   7.364   4.307
 6134TIP3   OH218358   3.378   4.619   4.168
 6134TIP3    H118359   3.329   4.590   4.245
 6134TIP3    H218360   3.462   4.574   4.175
 6135TIP3   OH218361   2.903   0.459   4.900
 6135TIP3    H118362   2.998   0.465   4.907
 6135TIP3    H218363   2.870   0.506   4.978
 6136TIP3   OH218364   0.556   0.769   5.752
 6136TIP3    H118365   0.462   0.771   5.773
 6136TIP3    H218366   0.573   0.852   5.707
 6137TIP3   OH218367   2.552   1.355   3.551
 6137TIP3    H118368   2.614   1.398   3.492
 6137TIP3    H218369   2.580   1.382   3.639
 6138TIP3   OH218370   5.296   0.229   6.749
 6138TIP3    H118371   5.256   0.238   6.662
 6138TIP3    H218372   5.278   0.311   6.793
 6139TIP3   OH218373   1.687   3.296   2.765
 6139TIP3    H118374   1.765   3.325   2.813
 6139TIP3    H218375   1.621   3.282   2.833
 6140TIP3   OH218376   0.224   3.606   4.534
 6140TIP3    H118377   0.207   3.696   4.507
 6140TIP3    H218378   0.151   3.556   4.497
 6141TIP3   OH218379   6.570   1.214   6.437
 6141TIP3    H118380   6.492   1.267   6.423
 6141TIP3    H218381   6.537   1.131   6.470
 6142TIP3   OH218382   2.496   5.516   4.813
 6142TIP3    H118383   2.545   5.542   4.735
 6142TIP3    H218384   2.409   5.555   4.801
 6143TIP3   OH218385   3.000   6.227   4.604
 6143TIP3    H118386   3.081   6.257   4.646
 6143TIP3    H218387   2.943   6.303   4.604
 6144TIP3   OH218388   5.974   6.728   1.645
 6144TIP3    H118389   5.935   6.806   1.606
 6144TIP3    H218390   5.913   6.657   1.624
 6145TIP3   OH218391   5.965   0.767   0.886
 6145TIP3    H118392   6.055   0.742   0.908
 6145TIP3    H218393   5.967   0.781   0.791
 6146TIP3   OH218394   6.190   5.880   4.657
 6146TIP3    H118395   6.130   5.845   4.722
 6146TIP3    H218396   6.265   5.912   4.707
 6147TIP3   OH218397   2.472   6.735   5.187
 6147TIP3    H118398   2.394   6.714   5.136
 6147TIP3    H218399   2.452   6.819   5.228
 6148TIP3   OH218400   3.918   3.129   2.120
 6148TIP3    H118401   3.988   3.165   2.175
 6148TIP3    H218402   3.844   3.117   2.179
 6149TIP3   OH218403   6.520   2.440   3.236
 6149TIP3    H118404   6.508   2.362   3.184
 6149TIP3    H218405   6.437   2.450   3.283
 6150TIP3   OH218406   0.042   4.870   1.350
 6150TIP3    H118407   0.045   4.774   1.347
 6150TIP3    H218408  -0.018   4.894   1.279
 6151TIP3   OH218409   1.266   2.956   5.013
 6151TIP3    H118410   1.296   2.892   5.077
 6151TIP3    H218411   1.264   2.908   4.930
 6152TIP3   OH218412   0.253   5.404   1.363
 6152TIP3    H118413   0.206   5.369   1.438
 6152TIP3    H218414   0.243   5.499   1.370
 6153TIP3   OH218415   2.488   5.211   1.699
 6153TIP3    H118416   2.528   5.205   1.612
 6153TIP3    H218417   2.447   5.126   1.713
 6154TIP3   OH218418   3.592   0.228   1.168
 6154TIP3    H118419   3.666   0.188   1.213
 6154TIP3    H218420   3.625   0.248   1.080
 6155TIP3   OH218421   0.107   6.925   5.903
 6155TIP3    H118422   0.048   6.934   5.828
 6155TIP3    H218423   0.084   6.841   5.942
 6156TIP3   OH218424   5.734   1.452   5.746
 6156TIP3    H118425   5.745   1.544   5.723
 6156TIP3    H218426   5.691   1.453   5.831
 6157TIP3   OH218427   1.043   0.578   4.929
 6157TIP3    H118428   0.980   0.607   4.863
 6157TIP3    H218429   1.111   0.532   4.880
 6158TIP3   OH218430   5.629   7.555   6.303
 6158TIP3    H118431   5.608   7.642   6.269
 6158TIP3    H218432   5.690   7.571   6.374
 6159TIP3   OH218433   6.859   3.207   0.097
 6159TIP3    H118434   6.953   3.219   0.112
 6159TIP3    H218435   6.824   3.182   0.182
 6160TIP3   OH218436   0.558   2.842   2.956
 6160TIP3    H118437   0.515   2.884   3.031
 6160TIP3    H218438   0.636   2.801   2.993
 6161TIP3   OH218439   6.563   2.361   3.931
 6161TIP3    H118440   6.537   2.286   3.984
 6161TIP3    H218441   6.500   2.362   3.858
 6162TIP3   OH218442   4.086   4.629   2.220
 6162TIP3    H118443   4.004   4.613   2.268
 6162TIP3    H218444   4.058   4.670   2.138
 6163TIP3   OH218445   6.875   3.657   6.097
 6163TIP3    H118446   6.891   3.630   6.188
 6163TIP3    H218447   6.785   3.690   6.097
 6164TIP3   OH218448   3.649   2.384   1.339
 6164TIP3    H118449   3.652   2.377   1.243
 6164TIP3    H218450   3.614   2.299   1.367
 6165TIP3   OH218451   0.565   3.743   3.645
 6165TIP3    H118452   0.533   3.824   3.684
 6165TIP3    H218453   0.661   3.749   3.652
 6166TIP3   OH218454   0.653   7.773   4.512
 6166TIP3    H118455   0.650   7.690   4.559
 6166TIP3    H218456   0.658   7.749   4.420
 6167TIP3   OH218457   6.495   6.424   0.773
 6167TIP3    H118458   6.573   6.479   0.762
 6167TIP3    H218459   6.507   6.380   0.857
 6168TIP3   OH218460   2.081   0.752   6.566
 6168TIP3    H118461   2.020   0.693   6.610
 6168TIP3    H218462   2.088   0.719   6.477
 6169TIP3   OH218463   6.909   2.493   2.685
 6169TIP3    H118464   6.842   2.479   2.751
 6169TIP3    H218465   6.986   2.447   2.719
 6170TIP3   OH218466   4.650   3.634   0.451
 6170TIP3    H118467   4.640   3.660   0.543
 6170TIP3    H218468   4.656   3.717   0.403
 6171TIP3   OH218469   1.800   4.496   3.554
 6171TIP3    H118470   1.713   4.485   3.590
 6171TIP3    H218471   1.845   4.414   3.573
 6172TIP3   OH218472   3.618   4.541   5.504
 6172TIP3    H118473   3.579   4.483   5.570
 6172TIP3    H218474   3.587   4.628   5.529
 6173TIP3   OH218475   5.996   6.422   1.428
 6173TIP3    H118476   5.908   6.398   1.459
 6173TIP3    H218477   6.044   6.339   1.427
 6174TIP3   OH218478   3.624   1.612   6.312
 6174TIP3    H118479   3.711   1.589   6.342
 6174TIP3    H218480   3.577   1.528   6.308
 6175TIP3   OH218481   3.504   4.278   2.810
 6175TIP3    H118482   3.461   4.337   2.748
 6175TIP3    H218483   3.442   4.271   2.883
 6176TIP3   OH218484   0.013   2.544   5.775
 6176TIP3    H118485   0.059   2.482   5.831
 6176TIP3    H218486  -0.016   2.613   5.835
 6177TIP3   OH218487   5.067   3.817   1.942
 6177TIP3    H118488   4.995   3.812   1.879
 6177TIP3    H218489   5.024   3.810   2.027
 6178TIP3   OH218490   2.435  -0.003   6.295
 6178TIP3    H118491   2.418   0.076   6.244
 6178TIP3    H218492   2.489   0.027   6.369
 6179TIP3   OH218493   2.932   1.821   2.884
 6179TIP3    H118494   2.929   1.730   2.914
 6179TIP3    H218495   2.927   1.873   2.964
 6180TIP3   OH218496   2.390   1.715   6.623
 6180TIP3    H118497   2.437   1.700   6.706
 6180TIP3    H218498   2.459   1.742   6.562
 6181TIP3   OH218499   0.174   2.248   2.072
 6181TIP3    H118500   0.080   2.259   2.089
 6181TIP3    H218501   0.203   2.186   2.139
 6182TIP3   OH218502   1.166   4.040   0.362
 6182TIP3    H118503   1.110   4.097   0.309
 6182TIP3    H218504   1.202   4.098   0.429
 6183TIP3   OH218505   3.198   3.280   0.607
 6183TIP3    H118506   3.284   3.292   0.646
 6183TIP3    H218507   3.189   3.185   0.599
 6184TIP3   OH218508   5.551   3.628   3.637
 6184TIP3    H118509   5.546   3.563   3.707
 6184TIP3    H218510   5.634   3.609   3.592
 6185TIP3   OH218511   5.531   2.377   6.642
 6185TIP3    H118512   5.596   2.430   6.689
 6185TIP3    H218513   5.448   2.398   6.684
 6186TIP3   OH218514   4.772   1.332   5.653
 6186TIP3    H118515   4.755   1.251   5.700
 6186TIP3    H218516   4.736   1.318   5.565
 6187TIP3   OH218517   5.668   2.317   5.690
 6187TIP3    H118518   5.753   2.357   5.672
 6187TIP3    H218519   5.657   2.324   5.785
 6188TIP3   OH218520   0.417   1.148   0.089
 6188TIP3    H118521   0.410   1.151  -0.006
 6188TIP3    H218522   0.400   1.238   0.117
 6189TIP3   OH218523   5.803   7.658   3.990
 6189TIP3    H118524   5.834   7.608   3.915
 6189TIP3    H218525   5.776   7.743   3.953
 6190TIP3   OH218526   4.685   0.288   3.462
 6190TIP3    H118527   4.772   0.252   3.449
 6190TIP3    H218528   4.626   0.223   3.424
 6191TIP3   OH218529   1.794   0.976   4.405
 6191TIP3    H118530   1.721   1.024   4.366
 6191TIP3    H218531   1.854   0.960   4.332
 6192TIP3   OH218532   1.163   1.690   1.257
 6192TIP3    H118533   1.091   1.735   1.213
 6192TIP3    H218534   1.122   1.613   1.297
 6193TIP3   OH218535   0.709   6.906   0.071
 6193TIP3    H118536   0.725   6.931   0.162
 6193TIP3    H218537   0.786   6.855   0.046
 6194TIP3   OH218538   5.421   4.324   3.503
 6194TIP3    H118539   5.508   4.290   3.478
 6194TIP3    H218540   5.360   4.271   3.451
 6195TIP3   OH218541   5.185   2.419   4.014
 6195TIP3    H118542   5.191   2.425   3.918
 6195TIP3    H218543   5.117   2.482   4.037
 6196TIP3   OH218544   2.240   7.503   2.244
 6196TIP3    H118545   2.219   7.597   2.237
 6196TIP3    H218546   2.304   7.498   2.315
 6197TIP3   OH218547   7.335   0.704   2.718
 6197TIP3    H118548   7.369   0.634   2.662
 6197TIP3    H218549   7.280   0.757   2.660
 6198TIP3   OH218550   3.922   0.697   0.829
 6198TIP3    H118551   3.889   0.745   0.905
 6198TIP3    H218552   3.918   0.605   0.856
 6199TIP3   OH218553   4.264   3.952   5.014
 6199TIP3    H118554   4.171   3.961   5.033
 6199TIP3    H218555   4.267   3.893   4.939
 6200TIP3   OH218556   1.859   1.024   6.765
 6200TIP3    H118557   1.889   1.106   6.726
 6200TIP3    H218558   1.798   0.988   6.701
 6201TIP3   OH218559   5.767   2.063   4.358
 6201TIP3    H118560   5.830   2.038   4.426
 6201TIP3    H218561   5.761   2.158   4.364
 6202TIP3   OH218562   6.687   5.300   5.822
 6202TIP3    H118563   6.630   5.241   5.872
 6202TIP3    H218564   6.749   5.334   5.887
 6203TIP3   OH218565   2.153   2.146   2.396
 6203TIP3    H118566   2.073   2.197   2.382
 6203TIP3    H218567   2.130   2.086   2.467
 6204TIP3   OH218568   5.413   7.136   2.131
 6204TIP3    H118569   5.379   7.181   2.053
 6204TIP3    H218570   5.347   7.154   2.199
 6205TIP3   OH218571   5.992   2.512   1.640
 6205TIP3    H118572   5.997   2.589   1.697
 6205TIP3    H218573   5.957   2.545   1.558
 6206TIP3   OH218574   1.076   2.311   3.344
 6206TIP3    H118575   1.071   2.362   3.425
 6206TIP3    H218576   1.048   2.372   3.275
 6207TIP3   OH218577   3.534   4.058   5.353
 6207TIP3    H118578   3.485   3.977   5.369
 6207TIP3    H218579   3.607   4.054   5.416
 6208TIP3   OH218580   1.652   4.817   4.264
 6208TIP3    H118581   1.700   4.889   4.305
 6208TIP3    H218582   1.677   4.820   4.172
 6209TIP3   OH218583   5.304   2.391   0.462
 6209TIP3    H118584   5.385   2.440   0.473
 6209TIP3    H218585   5.301   2.368   0.369
 6210TIP3   OH218586   7.399   5.356   5.061
 6210TIP3    H118587   7.309   5.361   5.092
 6210TIP3    H218588   7.413   5.263   5.041
 6211TIP3   OH218589   8.206   7.465   4.623
 6211TIP3    H118590   8.249   7.520   4.557
 6211TIP3    H218591   8.247   7.490   4.706
 6212TIP3   OH218592   7.062   3.973   3.649
 6212TIP3    H118593   7.042   4.033   3.577
 6212TIP3    H218594   7.056   4.028   3.728
 6213TIP3   OH218595   1.422   1.813   1.644
 6213TIP3    H118596   1.435   1.907   1.628
 6213TIP3    H218597   1.449   1.800   1.735
 6214TIP3   OH218598   5.409   2.721   0.448
 6214TIP3    H118599   5.359   2.754   0.523
 6214TIP3    H218600   5.498   2.754   0.462
 6215TIP3   OH218601   3.342   5.565   5.300
 6215TIP3    H118602   3.385   5.587   5.218
 6215TIP3    H218603   3.379   5.480   5.325
 6216TIP3   OH218604   3.489   0.076   4.095
 6216TIP3    H118605   3.407   0.103   4.053
 6216TIP3    H218606   3.556   0.128   4.052
 6217TIP3   OH218607   5.440   6.109   5.795
 6217TIP3    H118608   5.472   6.165   5.865
 6217TIP3    H218609   5.455   6.159   5.715
 6218TIP3   OH218610   0.250   0.142   6.116
 6218TIP3    H118611   0.311   0.088   6.166
 6218TIP3    H218612   0.294   0.227   6.109
 6219TIP3   OH218613   1.424   5.550   5.003
 6219TIP3    H118614   1.411   5.574   4.912
 6219TIP3    H218615   1.507   5.590   5.028
 6220TIP3   OH218616   1.290   0.970   0.311
 6220TIP3    H118617   1.260   0.882   0.288
 6220TIP3    H218618   1.368   0.983   0.257
 6221TIP3   OH218619   2.004   1.925   1.777
 6221TIP3    H118620   1.947   1.854   1.747
 6221TIP3    H218621   2.087   1.882   1.798
 6222TIP3   OH218622   3.733   0.940   2.218
 6222TIP3    H118623   3.803   0.876   2.226
 6222TIP3    H218624   3.657   0.889   2.188
 6223TIP3   OH218625   1.730   1.830   2.314
 6223TIP3    H118626   1.703   1.827   2.406
 6223TIP3    H218627   1.699   1.747   2.278
 6224TIP3   OH218628   6.313   4.173   4.009
 6224TIP3    H118629   6.343   4.164   4.099
 6224TIP3    H218630   6.293   4.267   4.000
 6225TIP3   OH218631   3.517   1.953   2.990
 6225TIP3    H118632   3.456   1.944   3.063
 6225TIP3    H218633   3.591   2.003   3.026
 6226TIP3   OH218634   7.289   0.692   1.323
 6226TIP3    H118635   7.285   0.780   1.287
 6226TIP3    H218636   7.260   0.701   1.414
 6227TIP3   OH218637   7.848   4.586   0.425
 6227TIP3    H118638   7.811   4.593   0.513
 6227TIP3    H218639   7.910   4.659   0.420
 6228TIP3   OH218640   3.014   6.542   5.691
 6228TIP3    H118641   3.021   6.452   5.660
 6228TIP3    H218642   3.055   6.595   5.622
 6229TIP3   OH218643   0.426   6.764   2.127
 6229TIP3    H118644   0.409   6.787   2.218
 6229TIP3    H218645   0.344   6.781   2.081
 6230TIP3   OH218646   6.929   6.697   2.546
 6230TIP3    H118647   6.900   6.771   2.492
 6230TIP3    H218648   7.023   6.712   2.558
 6231TIP3   OH218649   3.660   5.359   5.865
 6231TIP3    H118650   3.670   5.284   5.924
 6231TIP3    H218651   3.614   5.323   5.789
 6232TIP3   OH218652   3.041   6.182   6.358
 6232TIP3    H118653   3.049   6.114   6.424
 6232TIP3    H218654   3.002   6.138   6.283
 6233TIP3   OH218655   6.143   0.842   6.554
 6233TIP3    H118656   6.122   0.758   6.596
 6233TIP3    H218657   6.122   0.908   6.621
 6234TIP3   OH218658   7.881   5.475   3.253
 6234TIP3    H118659   7.951   5.519   3.205
 6234TIP3    H218660   7.917   5.461   3.340
 6235TIP3   OH218661   0.429   6.451   0.714
 6235TIP3    H118662   0.506   6.398   0.694
 6235TIP3    H218663   0.354   6.395   0.690
 6236TIP3   OH218664   7.608   2.734   5.390
 6236TIP3    H118665   7.647   2.647   5.400
 6236TIP3    H218666   7.608   2.770   5.479
 6237TIP3   OH218667   7.840   6.957   2.852
 6237TIP3    H118668   7.854   6.952   2.758
 6237TIP3    H218669   7.766   6.898   2.869
 6238TIP3   OH218670   7.141   0.382   3.316
 6238TIP3    H118671   7.231   0.412   3.324
 6238TIP3    H218672   7.092   0.433   3.380
 6239TIP3   OH218673   5.007   6.390   4.916
 6239TIP3    H118674   5.082   6.331   4.918
 6239TIP3    H218675   5.029   6.455   4.850
 6240TIP3   OH218676   5.403   6.103   3.313
 6240TIP3    H118677   5.436   6.134   3.229
 6240TIP3    H218678   5.308   6.100   3.302
 6241TIP3   OH218679   7.366   7.297   1.455
 6241TIP3    H118680   7.348   7.379   1.409
 6241TIP3    H218681   7.402   7.238   1.387
 6242TIP3   OH218682   7.551   4.414   5.861
 6242TIP3    H118683   7.584   4.497   5.826
 6242TIP3    H218684   7.627   4.372   5.899
 6243TIP3   OH218685   0.449   1.148   1.199
 6243TIP3    H118686   0.453   1.124   1.107
 6243TIP3    H218687   0.361   1.124   1.227
 6244TIP3   OH218688   2.902   3.643   5.290
 6244TIP3    H118689   2.828   3.700   5.266
 6244TIP3    H218690   2.861   3.566   5.329
 6245TIP3   OH218691   6.050   6.119   6.415
 6245TIP3    H118692   6.108   6.144   6.487
 6245TIP3    H218693   6.107   6.073   6.353
 6246TIP3   OH218694   4.148   0.258   3.116
 6246TIP3    H118695   4.129   0.164   3.115
 6246TIP3    H218696   4.169   0.279   3.025
 6247TIP3   OH218697   5.368   1.552   3.059
 6247TIP3    H118698   5.418   1.603   3.123
 6247TIP3    H218699   5.409   1.465   3.061
 6248TIP3   OH218700   5.183   6.431   6.235
 6248TIP3    H118701   5.192   6.503   6.296
 6248TIP3    H218702   5.227   6.358   6.278
 6249TIP3   OH218703   3.883   5.755   4.370
 6249TIP3    H118704   3.959   5.701   4.349
 6249TIP3    H218705   3.917   5.822   4.429
 6250TIP3   OH218706   0.463   0.428   5.488
 6250TIP3    H118707   0.542   0.416   5.542
 6250TIP3    H218708   0.440   0.520   5.499
 6251TIP3   OH218709   6.591   7.755   0.703
 6251TIP3    H118710   6.588   7.675   0.652
 6251TIP3    H218711   6.530   7.741   0.775
 6252TIP3   OH218712   1.165   3.829   4.433
 6252TIP3    H118713   1.101   3.900   4.440
 6252TIP3    H218714   1.143   3.769   4.504
 6253TIP3   OH218715   8.066   1.813   6.569
 6253TIP3    H118716   8.154   1.821   6.606
 6253TIP3    H218717   8.077   1.839   6.477
 6254TIP3   OH218718   2.942   4.881   5.573
 6254TIP3    H118719   3.015   4.822   5.557
 6254TIP3    H218720   2.962   4.958   5.520
 6255TIP3   OH218721   7.910   2.088   6.520
 6255TIP3    H118722   7.942   2.154   6.458
 6255TIP3    H218723   7.883   2.015   6.466
 6256TIP3   OH218724   5.101   7.649   2.550
 6256TIP3    H118725   5.064   7.651   2.637
 6256TIP3    H218726   5.026   7.659   2.491
 6257TIP3   OH218727   5.939   2.200   1.116
 6257TIP3    H118728   5.964   2.293   1.121
 6257TIP3    H218729   5.863   2.194   1.174
 6258TIP3   OH218730   7.537   3.625   1.286
 6258TIP3    H118731   7.562   3.706   1.329
 6258TIP3    H218732   7.442   3.633   1.274
 6259TIP3   OH218733   3.757   0.784   1.906
 6259TIP3    H118734   3.684   0.787   1.968
 6259TIP3    H218735   3.830   0.747   1.956
 6260TIP3   OH218736   3.787   6.370   3.169
 6260TIP3    H118737   3.835   6.326   3.098
 6260TIP3    H218738   3.728   6.430   3.124
 6261TIP3   OH218739   3.395   2.523   5.406
 6261TIP3    H118740   3.365   2.550   5.319
 6261TIP3    H218741   3.416   2.605   5.451
 6262TIP3   OH218742   7.065   4.982   6.768
 6262TIP3    H118743   7.022   5.059   6.732
 6262TIP3    H218744   6.994   4.930   6.805
 6263TIP3   OH218745   5.157   7.308   6.439
 6263TIP3    H118746   5.183   7.380   6.383
 6263TIP3    H218747   5.140   7.348   6.524
 6264TIP3   OH218748   3.352   0.039   5.332
 6264TIP3    H118749   3.345   0.061   5.425
 6264TIP3    H218750   3.314  -0.049   5.326
 6265TIP3   OH218751   6.970   4.507   2.828
 6265TIP3    H118752   6.919   4.583   2.858
 6265TIP3    H218753   6.929   4.483   2.744
 6266TIP3   OH218754   7.288   4.697   4.020
 6266TIP3    H118755   7.200   4.728   4.043
 6266TIP3    H218756   7.294   4.710   3.926
 6267TIP3   OH218757   0.116   1.537   4.203
 6267TIP3    H118758   0.121   1.448   4.238
 6267TIP3    H218759   0.058   1.529   4.127
 6268TIP3   OH218760   2.980   6.412   6.724
 6268TIP3    H118761   2.988   6.487   6.664
 6268TIP3    H218762   2.892   6.421   6.761
 6269TIP3   OH218763   5.168   2.682   6.539
 6269TIP3    H118764   5.150   2.655   6.449
 6269TIP3    H218765   5.111   2.627   6.593
 6270TIP3   OH218766   7.213   0.724   0.256
 6270TIP3    H118767   7.169   0.795   0.210
 6270TIP3    H218768   7.238   0.761   0.340
 6271TIP3   OH218769   7.415   5.661   0.159
 6271TIP3    H118770   7.372   5.624   0.236
 6271TIP3    H218771   7.359   5.734   0.133
 6272TIP3   OH218772   6.949   1.520   4.180
 6272TIP3    H118773   6.962   1.451   4.246
 6272TIP3    H218774   6.983   1.599   4.222
 6273TIP3   OH218775   5.356   2.929   4.751
 6273TIP3    H118776   5.432   2.924   4.808
 6273TIP3    H218777   5.296   2.863   4.784
 6274TIP3   OH218778   3.620   4.861   0.117
 6274TIP3    H118779   3.691   4.869   0.053
 6274TIP3    H218780   3.661   4.817   0.192
 6275TIP3   OH218781   2.871   4.369   2.474
 6275TIP3    H118782   2.783   4.372   2.512
 6275TIP3    H218783   2.929   4.366   2.550
 6276TIP3   OH218784   4.709   4.958   6.112
 6276TIP3    H118785   4.636   4.921   6.064
 6276TIP3    H218786   4.784   4.951   6.053
 6277TIP3   OH218787   5.267   3.666   3.660
 6277TIP3    H118788   5.358   3.695   3.665
 6277TIP3    H218789   5.273   3.571   3.649
 6278TIP3   OH218790   6.111   3.242   3.960
 6278TIP3    H118791   6.159   3.162   3.981
 6278TIP3    H218792   6.147   3.308   4.020
 6279TIP3   OH218793   1.844   1.076   6.313
 6279TIP3    H118794   1.891   1.077   6.397
 6279TIP3    H218795   1.830   0.983   6.295
 6280TIP3   OH218796   8.023   7.787   6.572
 6280TIP3    H118797   8.070   7.711   6.606
 6280TIP3    H218798   8.091   7.840   6.529
 6281TIP3   OH218799   5.504   6.141   1.408
 6281TIP3    H118800   5.588   6.149   1.452
 6281TIP3    H218801   5.503   6.213   1.344
 6282TIP3   OH218802   1.088   7.302   0.050
 6282TIP3    H118803   1.117   7.313   0.141
 6282TIP3    H218804   1.168   7.302  -0.001
 6283TIP3   OH218805   7.368   5.388   1.915
 6283TIP3    H118806   7.361   5.398   2.009
 6283TIP3    H218807   7.300   5.325   1.892
 6284TIP3   OH218808   0.663   1.286   6.201
 6284TIP3    H118809   0.746   1.270   6.246
 6284TIP3    H218810   0.598   1.239   6.253
 6285TIP3   OH218811   5.052   5.706   2.829
 6285TIP3    H118812   5.011   5.630   2.873
 6285TIP3    H218813   5.145   5.697   2.847
 6286TIP3   OH218814   0.300   1.800   5.672
 6286TIP3    H118815   0.253   1.825   5.592
 6286TIP3    H218816   0.352   1.724   5.646
 6287TIP3   OH218817   7.126   5.162   5.565
 6287TIP3    H118818   7.119   5.183   5.658
 6287TIP3    H218819   7.083   5.235   5.521
 6288TIP3   OH218820   6.167   6.248   1.249
 6288TIP3    H118821   6.179   6.299   1.168
 6288TIP3    H218822   6.146   6.160   1.219
 6289TIP3   OH218823   5.643   2.202   0.978
 6289TIP3    H118824   5.576   2.217   1.045
 6289TIP3    H218825   5.722   2.241   1.014
 6290TIP3   OH218826   0.778   1.628   4.632
 6290TIP3    H118827   0.852   1.612   4.691
 6290TIP3    H218828   0.789   1.563   4.562
 6291TIP3   OH218829   5.346   5.446   4.593
 6291TIP3    H118830   5.348   5.391   4.514
 6291TIP3    H218831   5.328   5.534   4.560
 6292TIP3   OH218832   5.767   1.439   0.414
 6292TIP3    H118833   5.837   1.381   0.445
 6292TIP3    H218834   5.718   1.385   0.352
 6293TIP3   OH218835   1.863   6.364   2.152
 6293TIP3    H118836   1.819   6.286   2.185
 6293TIP3    H218837   1.865   6.424   2.226
 6294TIP3   OH218838   4.634   2.953   2.811
 6294TIP3    H118839   4.684   2.938   2.891
 6294TIP3    H218840   4.661   3.040   2.782
 6295TIP3   OH218841   0.181   3.351   2.007
 6295TIP3    H118842   0.254   3.310   1.960
 6295TIP3    H218843   0.104   3.331   1.954
 6296TIP3   OH218844   0.805   5.436   0.275
 6296TIP3    H118845   0.776   5.527   0.270
 6296TIP3    H218846   0.724   5.385   0.275
 6297TIP3   OH218847   5.397   7.454   2.687
 6297TIP3    H118848   5.485   7.492   2.693
 6297TIP3    H218849   5.344   7.523   2.648
 6298TIP3   OH218850   4.629   4.498   1.345
 6298TIP3    H118851   4.707   4.552   1.354
 6298TIP3    H218852   4.633   4.438   1.420
 6299TIP3   OH218853   6.151   1.595   2.023
 6299TIP3    H118854   6.085   1.557   1.966
 6299TIP3    H218855   6.108   1.602   2.108
 6300TIP3   OH218856   7.918   1.943   5.071
 6300TIP3    H118857   7.967   2.005   5.018
 6300TIP3    H218858   7.971   1.931   5.150
 6301TIP3   OH218859   0.064   5.568   0.235
 6301TIP3    H118860   0.029   5.552   0.147
 6301TIP3    H218861  -0.012   5.560   0.292
 6302TIP3   OH218862   1.782   4.355   2.044
 6302TIP3    H118863   1.854   4.418   2.042
 6302TIP3    H218864   1.719   4.393   2.105
 6303TIP3   OH218865   3.873   6.916   1.171
 6303TIP3    H118866   3.906   6.828   1.189
 6303TIP3    H218867   3.780   6.911   1.196
 6304TIP3   OH218868   3.085   4.203   1.511
 6304TIP3    H118869   3.067   4.261   1.437
 6304TIP3    H218870   3.163   4.154   1.485
 6305TIP3   OH218871   4.777   2.191   0.050
 6305TIP3    H118872   4.739   2.209   0.136
 6305TIP3    H218873   4.712   2.221  -0.013
 6306TIP3   OH218874   6.017   2.340   4.236
 6306TIP3    H118875   6.077   2.412   4.260
 6306TIP3    H218876   6.044   2.316   4.148
 6307TIP3   OH218877   4.413   7.055   2.944
 6307TIP3    H118878   4.348   7.083   2.880
 6307TIP3    H218879   4.412   6.959   2.938
 6308TIP3   OH218880   1.701   0.308   4.544
 6308TIP3    H118881   1.786   0.323   4.503
 6308TIP3    H218882   1.707   0.353   4.628
 6309TIP3   OH218883   3.630   6.242   0.109
 6309TIP3    H118884   3.640   6.186   0.032
 6309TIP3    H218885   3.720   6.255   0.140
 6310TIP3   OH218886   0.809   5.619   0.667
 6310TIP3    H118887   0.870   5.545   0.660
 6310TIP3    H218888   0.776   5.632   0.579
 6311TIP3   OH218889   2.159   3.969   4.568
 6311TIP3    H118890   2.069   3.945   4.546
 6311TIP3    H218891   2.213   3.907   4.521
 6312TIP3   OH218892   4.938   1.980   4.578
 6312TIP3    H118893   4.935   2.062   4.530
 6312TIP3    H218894   4.850   1.943   4.569
 6313TIP3   OH218895   3.232   1.023   3.866
 6313TIP3    H118896   3.288   0.948   3.888
 6313TIP3    H218897   3.276   1.065   3.792
 6314TIP3   OH218898   6.128   1.226   1.302
 6314TIP3    H118899   6.124   1.167   1.227
 6314TIP3    H218900   6.208   1.200   1.349
 6315TIP3   OH218901   2.574   4.847   4.516
 6315TIP3    H118902   2.497   4.880   4.562
 6315TIP3    H218903   2.548   4.763   4.481
 6316TIP3   OH218904   6.728   4.791   4.866
 6316TIP3    H118905   6.636   4.806   4.886
 6316TIP3    H218906   6.736   4.696   4.859
 6317TIP3   OH218907   0.337   4.849   4.484
 6317TIP3    H118908   0.390   4.907   4.428
 6317TIP3    H218909   0.382   4.849   4.568
 6318TIP3   OH218910   6.146   7.464   1.097
 6318TIP3    H118911   6.238   7.446   1.080
 6318TIP3    H218912   6.102   7.449   1.014
 6319TIP3   OH218913   3.840   2.911   6.492
 6319TIP3    H118914   3.847   2.853   6.567
 6319TIP3    H218915   3.828   2.853   6.417
 6320TIP3   OH218916   0.714   3.894   2.012
 6320TIP3    H118917   0.784   3.875   1.949
 6320TIP3    H218918   0.718   3.989   2.024
 6321TIP3   OH218919   2.941   4.895   2.830
 6321TIP3    H118920   2.942   4.837   2.907
 6321TIP3    H218921   2.848   4.899   2.805
 6322TIP3   OH218922   6.197   4.095   6.460
 6322TIP3    H118923   6.173   4.049   6.380
 6322TIP3    H218924   6.293   4.099   6.458
 6323TIP3   OH218925   6.350   2.161   1.773
 6323TIP3    H118926   6.279   2.223   1.759
 6323TIP3    H218927   6.376   2.174   1.864
 6324TIP3   OH218928   1.558   2.257   6.179
 6324TIP3    H118929   1.503   2.193   6.133
 6324TIP3    H218930   1.538   2.340   6.136
 6325TIP3   OH218931   0.138   2.605   6.631
 6325TIP3    H118932   0.227   2.585   6.602
 6325TIP3    H218933   0.148   2.640   6.719
 6326TIP3   OH218934   1.529   1.405   5.727
 6326TIP3    H118935   1.522   1.500   5.720
 6326TIP3    H218936   1.551   1.376   5.639
 6327TIP3   OH218937   5.823   6.040   5.691
 6327TIP3    H118938   5.765   5.974   5.651
 6327TIP3    H218939   5.800   6.039   5.783
 6328TIP3   OH218940   2.535   7.607   5.016
 6328TIP3    H118941   2.597   7.537   5.036
 6328TIP3    H218942   2.584   7.688   5.029
 6329TIP3   OH218943   3.607   7.030   2.347
 6329TIP3    H118944   3.561   7.002   2.426
 6329TIP3    H218945   3.656   7.108   2.375
 6330TIP3   OH218946   6.018   7.249   4.190
 6330TIP3    H118947   6.095   7.293   4.225
 6330TIP3    H218948   5.944   7.303   4.219
 6331TIP3   OH218949   2.591   2.644   4.932
 6331TIP3    H118950   2.608   2.693   4.852
 6331TIP3    H218951   2.503   2.609   4.921
 6332TIP3   OH218952   2.256   2.284   0.354
 6332TIP3    H118953   2.270   2.283   0.449
 6332TIP3    H218954   2.292   2.200   0.324
 6333TIP3   OH218955   7.522   5.817   4.858
 6333TIP3    H118956   7.432   5.849   4.861
 6333TIP3    H218957   7.551   5.833   4.768
 6334TIP3   OH218958   6.522   7.111   4.007
 6334TIP3    H118959   6.481   7.029   3.979
 6334TIP3    H218960   6.556   7.150   3.926
 6335TIP3   OH218961   3.588   6.128   6.450
 6335TIP3    H118962   3.545   6.196   6.501
 6335TIP3    H218963   3.517   6.068   6.425
 6336TIP3   OH218964   0.476   1.292   3.144
 6336TIP3    H118965   0.492   1.198   3.137
 6336TIP3    H218966   0.483   1.310   3.238
 6337TIP3   OH218967   3.450   3.778   2.453
 6337TIP3    H118968   3.397   3.836   2.398
 6337TIP3    H218969   3.387   3.712   2.485
 6338TIP3   OH218970   3.131   2.667   1.111
 6338TIP3    H118971   3.063   2.726   1.143
 6338TIP3    H218972   3.146   2.695   1.021
 6339TIP3   OH218973   0.759   0.844   2.454
 6339TIP3    H118974   0.751   0.910   2.522
 6339TIP3    H218975   0.811   0.886   2.385
 6340TIP3   OH218976   0.160   2.430   0.919
 6340TIP3    H118977   0.245   2.397   0.949
 6340TIP3    H218978   0.178   2.519   0.889
 6341TIP3   OH218979   4.325   2.755   3.396
 6341TIP3    H118980   4.282   2.783   3.477
 6341TIP3    H218981   4.316   2.659   3.396
 6342TIP3   OH218982   2.180   3.923   2.513
 6342TIP3    H118983   2.087   3.903   2.511
 6342TIP3    H218984   2.211   3.905   2.425
 6343TIP3   OH218985   5.633   4.995   4.712
 6343TIP3    H118986   5.721   4.989   4.675
 6343TIP3    H218987   5.575   4.982   4.637
 6344TIP3   OH218988   6.248   4.963   3.969
 6344TIP3    H118989   6.232   4.895   4.036
 6344TIP3    H218990   6.204   5.041   4.004
 6345TIP3   OH218991   3.810   7.374   3.521
 6345TIP3    H118992   3.784   7.450   3.573
 6345TIP3    H218993   3.728   7.328   3.504
 6346TIP3   OH218994   4.605   4.295   1.153
 6346TIP3    H118995   4.556   4.335   1.082
 6346TIP3    H218996   4.637   4.368   1.205
 6347TIP3   OH218997   7.404   7.181   6.144
 6347TIP3    H118998   7.456   7.212   6.070
 6347TIP3    H218999   7.452   7.208   6.221
 6348TIP3   OH219000   2.107   0.234   4.172
 6348TIP3    H119001   2.183   0.196   4.216
 6348TIP3    H219002   2.143   0.277   4.095
 6349TIP3   OH219003   0.038   0.621   2.418
 6349TIP3    H119004   0.087   0.632   2.336
 6349TIP3    H219005   0.103   0.637   2.487
 6350TIP3   OH219006   6.302   5.170   6.601
 6350TIP3    H119007   6.298   5.201   6.510
 6350TIP3    H219008   6.370   5.102   6.600
 6351TIP3   OH219009   2.929   4.810   5.840
 6351TIP3    H119010   2.912   4.840   5.750
 6351TIP3    H219011   2.926   4.889   5.893
 6352TIP3   OH219012   0.685   7.037   5.988
 6352TIP3    H119013   0.608   7.012   5.937
 6352TIP3    H219014   0.660   7.118   6.031
 6353TIP3   OH219015   1.285   5.712   4.800
 6353TIP3    H119016   1.351   5.779   4.783
 6353TIP3    H219017   1.297   5.648   4.729
 6354TIP3   OH219018   1.665   5.166   1.549
 6354TIP3    H119019   1.691   5.154   1.641
 6354TIP3    H219020   1.612   5.088   1.530
 6355TIP3   OH219021   5.448   5.106   1.130
 6355TIP3    H119022   5.450   5.040   1.199
 6355TIP3    H219023   5.490   5.064   1.055
 6356TIP3   OH219024   4.887   2.749   4.409
 6356TIP3    H119025   4.835   2.672   4.386
 6356TIP3    H219026   4.825   2.805   4.456
 6357TIP3   OH219027   0.848   0.583   6.075
 6357TIP3    H119028   0.767   0.634   6.078
 6357TIP3    H219029   0.831   0.512   6.014
 6358TIP3   OH219030   7.467   6.297   5.150
 6358TIP3    H119031   7.388   6.244   5.139
 6358TIP3    H219032   7.536   6.246   5.106
 6359TIP3   OH219033   4.003   5.846   5.065
 6359TIP3    H119034   3.992   5.935   5.032
 6359TIP3    H219035   3.994   5.854   5.160
 6360TIP3   OH219036   5.206   4.816   4.528
 6360TIP3    H119037   5.253   4.844   4.450
 6360TIP3    H219038   5.207   4.893   4.586
 6361TIP3   OH219039   7.618   6.246   4.524
 6361TIP3    H119040   7.623   6.157   4.559
 6361TIP3    H219041   7.684   6.295   4.572
 6362TIP3   OH219042   2.458   7.454   1.119
 6362TIP3    H119043   2.481   7.465   1.027
 6362TIP3    H219044   2.528   7.399   1.155
 6363TIP3   OH219045   4.943   4.830   4.217
 6363TIP3    H119046   4.925   4.884   4.140
 6363TIP3    H219047   5.008   4.880   4.267
 6364TIP3   OH219048   8.086   0.134   0.202
 6364TIP3    H119049   8.063   0.130   0.109
 6364TIP3    H219050   8.144   0.059   0.215
 6365TIP3   OH219051   7.118   3.721   0.591
 6365TIP3    H119052   7.096   3.629   0.574
 6365TIP3    H219053   7.046   3.752   0.647
 6366TIP3   OH219054   1.355   2.600   3.808
 6366TIP3    H119055   1.364   2.655   3.730
 6366TIP3    H219056   1.369   2.660   3.881
 6367TIP3   OH219057   5.599   3.864   2.739
 6367TIP3    H119058   5.688   3.889   2.762
 6367TIP3    H219059   5.556   3.845   2.822
 6368TIP3   OH219060   5.411   7.773   1.126
 6368TIP3    H119061   5.398   7.864   1.097
 6368TIP3    H219062   5.481   7.778   1.191
 6369TIP3   OH219063   8.024   5.454   2.919
 6369TIP3    H119064   8.112   5.491   2.928
 6369TIP3    H219065   7.984   5.502   2.847
 6370TIP3   OH219066   7.758   5.214   3.423
 6370TIP3    H119067   7.846   5.188   3.394
 6370TIP3    H219068   7.766   5.222   3.518
 6371TIP3   OH219069   8.195   0.986   0.311
 6371TIP3    H119070   8.275   0.994   0.363
 6371TIP3    H219071   8.171   0.893   0.319
 6372TIP3   OH219072   8.150   7.044   3.699
 6372TIP3    H119073   8.070   7.006   3.736
 6372TIP3    H219074   8.200   6.968   3.669
 6373TIP3   OH219075   0.541   4.314   4.848
 6373TIP3    H119076   0.457   4.358   4.860
 6373TIP3    H219077   0.546   4.250   4.919
 6374TIP3   OH219078   3.093   2.801   3.224
 6374TIP3    H119079   3.029   2.856   3.269
 6374TIP3    H219080   3.139   2.755   3.295
 6375TIP3   OH219081   5.047   2.084   3.269
 6375TIP3    H119082   5.038   2.033   3.350
 6375TIP3    H219083   5.124   2.046   3.226
 6376TIP3   OH219084   8.155   1.504   0.200
 6376TIP3    H119085   8.215   1.460   0.259
 6376TIP3    H219086   8.203   1.509   0.117
 6377TIP3   OH219087   3.640   6.784   4.005
 6377TIP3    H119088   3.630   6.743   4.091
 6377TIP3    H219089   3.550   6.794   3.973
 6378TIP3   OH219090   3.928   2.203   6.046
 6378TIP3    H119091   3.941   2.108   6.047
 6378TIP3    H219092   4.015   2.240   6.055
 6379TIP3   OH219093   4.951   2.078   1.835
 6379TIP3    H119094   4.860   2.059   1.811
 6379TIP3    H219095   4.948   2.097   1.928
 6380TIP3   OH219096   7.283   1.098   3.244
 6380TIP3    H119097   7.316   1.019   3.286
 6380TIP3    H219098   7.350   1.164   3.260
 6381TIP3   OH219099   7.133   5.843   0.352
 6381TIP3    H119100   7.091   5.924   0.323
 6381TIP3    H219101   7.199   5.872   0.415
 6382TIP3   OH219102   0.575   2.504   3.164
 6382TIP3    H119103   0.640   2.567   3.196
 6382TIP3    H219104   0.592   2.498   3.070
 6383TIP3   OH219105   1.320   2.919   0.959
 6383TIP3    H119106   1.256   2.967   1.012
 6383TIP3    H219107   1.402   2.924   1.008
 6384TIP3   OH219108   2.464   7.761   0.393
 6384TIP3    H119109   2.415   7.814   0.330
 6384TIP3    H219110   2.464   7.673   0.355
 6385TIP3   OH219111   0.286   6.362   2.455
 6385TIP3    H119112   0.198   6.398   2.451
 6385TIP3    H219113   0.337   6.412   2.391
 6386TIP3   OH219114   0.996   5.439   2.539
 6386TIP3    H119115   0.969   5.348   2.547
 6386TIP3    H219116   1.082   5.442   2.582
 6387TIP3   OH219117   3.151   0.759   4.237
 6387TIP3    H119118   3.126   0.729   4.150
 6387TIP3    H219119   3.103   0.840   4.250
 6388TIP3   OH219120   5.411   3.570   3.372
 6388TIP3    H119121   5.336   3.615   3.334
 6388TIP3    H219122   5.486   3.604   3.323
 6389TIP3   OH219123   3.879   7.323   2.627
 6389TIP3    H119124   3.958   7.368   2.598
 6389TIP3    H219125   3.863   7.356   2.715
 6390TIP3   OH219126   0.008   3.991   3.653
 6390TIP3    H119127   0.009   3.900   3.622
 6390TIP3    H219128   0.041   4.042   3.579
 6391TIP3   OH219129   4.703   5.871   6.066
 6391TIP3    H119130   4.751   5.852   5.985
 6391TIP3    H219131   4.625   5.815   6.060
 6392TIP3   OH219132   3.666   5.546   0.126
 6392TIP3    H119133   3.588   5.507   0.166
 6392TIP3    H219134   3.639   5.569   0.037
 6393TIP3   OH219135   4.470   7.126   4.570
 6393TIP3    H119136   4.544   7.066   4.561
 6393TIP3    H219137   4.511   7.212   4.579
 6394TIP3   OH219138   1.006   7.709   2.967
 6394TIP3    H119139   0.930   7.682   3.018
 6394TIP3    H219140   0.991   7.803   2.951
 6395TIP3   OH219141   0.690   6.098   0.286
 6395TIP3    H119142   0.712   6.093   0.193
 6395TIP3    H219143   0.686   6.191   0.305
 6396TIP3   OH219144   5.630   2.730   1.456
 6396TIP3    H119145   5.650   2.742   1.549
 6396TIP3    H219146   5.537   2.709   1.454
 6397TIP3   OH219147   5.916   0.864   1.657
 6397TIP3    H119148   5.983   0.883   1.591
 6397TIP3    H219149   5.889   0.950   1.689
 6398TIP3   OH219150   6.266   1.627   4.670
 6398TIP3    H119151   6.354   1.646   4.704
 6398TIP3    H219152   6.236   1.709   4.632
 6399TIP3   OH219153   6.938   4.912   1.002
 6399TIP3    H119154   7.026   4.891   1.033
 6399TIP3    H219155   6.925   5.003   1.027
 6400TIP3   OH219156   3.463   6.505   1.708
 6400TIP3    H119157   3.412   6.530   1.631
 6400TIP3    H219158   3.498   6.588   1.741
 6401TIP3   OH219159   4.344   6.167   1.186
 6401TIP3    H119160   4.417   6.155   1.125
 6401TIP3    H219161   4.320   6.078   1.212
 6402TIP3   OH219162   5.581   3.887   3.466
 6402TIP3    H119163   5.553   3.840   3.544
 6402TIP3    H219164   5.597   3.819   3.401
 6403TIP3   OH219165   7.160   0.171   2.961
 6403TIP3    H119166   7.125   0.121   2.887
 6403TIP3    H219167   7.201   0.248   2.921
 6404TIP3   OH219168   6.524   6.425   5.606
 6404TIP3    H119169   6.576   6.377   5.670
 6404TIP3    H219170   6.457   6.362   5.578
 6405TIP3   OH219171   3.393   6.827   6.075
 6405TIP3    H119172   3.349   6.840   6.159
 6405TIP3    H219173   3.450   6.752   6.090
 6406TIP3   OH219174   2.674   1.942   5.734
 6406TIP3    H119175   2.582   1.933   5.758
 6406TIP3    H219176   2.673   1.999   5.656
 6407TIP3   OH219177   1.799   1.396   2.647
 6407TIP3    H119178   1.730   1.354   2.595
 6407TIP3    H219179   1.868   1.414   2.583
 6408TIP3   OH219180   3.847   0.357   6.685
 6408TIP3    H119181   3.794   0.282   6.657
 6408TIP3    H219182   3.793   0.433   6.663
 6409TIP3   OH219183   6.911   4.393   3.822
 6409TIP3    H119184   6.907   4.325   3.755
 6409TIP3    H219185   6.904   4.475   3.774
 6410TIP3   OH219186   0.031   5.243   2.345
 6410TIP3    H119187   0.013   5.203   2.260
 6410TIP3    H219188   0.075   5.175   2.396
 6411TIP3   OH219189   4.347   1.893   5.622
 6411TIP3    H119190   4.254   1.913   5.628
 6411TIP3    H219191   4.351   1.797   5.618
 6412TIP3   OH219192   4.351   4.068   1.511
 6412TIP3    H119193   4.403   4.075   1.591
 6412TIP3    H219194   4.413   4.082   1.440
 6413TIP3   OH219195   4.987   3.378   3.545
 6413TIP3    H119196   4.903   3.367   3.501
 6413TIP3    H219197   5.047   3.406   3.476
 6414TIP3   OH219198   5.697   1.980   5.462
 6414TIP3    H119199   5.727   1.958   5.550
 6414TIP3    H219200   5.663   2.069   5.469
 6415TIP3   OH219201   4.925   5.819   5.850
 6415TIP3    H119202   4.874   5.840   5.772
 6415TIP3    H219203   4.971   5.900   5.872
 6416TIP3   OH219204   6.702   2.988   1.209
 6416TIP3    H119205   6.789   2.947   1.209
 6416TIP3    H219206   6.693   3.026   1.296
 6417TIP3   OH219207   2.645   3.504   3.437
 6417TIP3    H119208   2.633   3.588   3.482
 6417TIP3    H219209   2.712   3.522   3.371
 6418TIP3   OH219210   5.765   4.037   1.693
 6418TIP3    H119211   5.755   3.949   1.731
 6418TIP3    H219212   5.677   4.074   1.694
 6419TIP3   OH219213   6.828   0.662   2.753
 6419TIP3    H119214   6.880   0.607   2.695
 6419TIP3    H219215   6.738   0.635   2.738
 6420TIP3   OH219216   6.236   6.092   4.150
 6420TIP3    H119217   6.179   6.135   4.214
 6420TIP3    H219218   6.210   6.130   4.066
 6421TIP3   OH219219   8.126   0.238   6.126
 6421TIP3    H119220   8.048   0.292   6.140
 6421TIP3    H219221   8.146   0.202   6.213
 6422TIP3   OH219222   7.844   3.756   0.063
 6422TIP3    H119223   7.769   3.711   0.023
 6422TIP3    H219224   7.806   3.807   0.134
 6423TIP3   OH219225   3.942   4.320   5.995
 6423TIP3    H119226   3.950   4.341   6.088
 6423TIP3    H219227   4.033   4.314   5.964
 6424TIP3   OH219228   3.372   1.048   5.994
 6424TIP3    H119229   3.450   1.047   6.050
 6424TIP3    H219230   3.384   0.974   5.935
 6425TIP3   OH219231   8.022   0.514   2.223
 6425TIP3    H119232   7.998   0.604   2.248
 6425TIP3    H219233   8.089   0.526   2.155
 6426TIP3   OH219234   6.081   5.811   2.511
 6426TIP3    H119235   6.137   5.736   2.529
 6426TIP3    H219236   5.993   5.775   2.503
 6427TIP3   OH219237   3.090   0.023   3.667
 6427TIP3    H119238   3.091   0.111   3.629
 6427TIP3    H219239   3.175   0.014   3.709
 6428TIP3   OH219240   6.817   3.869   3.972
 6428TIP3    H119241   6.852   3.859   4.061
 6428TIP3    H219242   6.843   3.789   3.926
 6429TIP3   OH219243   2.209   4.704   0.300
 6429TIP3    H119244   2.230   4.623   0.346
 6429TIP3    H219245   2.294   4.747   0.288
 6430TIP3   OH219246   6.754   3.448   1.520
 6430TIP3    H119247   6.716   3.430   1.434
 6430TIP3    H219248   6.735   3.540   1.537
 6431TIP3   OH219249   7.877   2.986   4.472
 6431TIP3    H119250   7.817   3.042   4.422
 6431TIP3    H219251   7.891   3.033   4.554
 6432TIP3   OH219252   1.483   4.760   2.842
 6432TIP3    H119253   1.436   4.679   2.825
 6432TIP3    H219254   1.435   4.803   2.912
 6433TIP3   OH219255   7.995   3.842   6.511
 6433TIP3    H119256   7.942   3.917   6.485
 6433TIP3    H219257   8.068   3.841   6.449
 6434TIP3   OH219258   0.861   0.674   3.111
 6434TIP3    H119259   0.792   0.692   3.047
 6434TIP3    H219260   0.816   0.632   3.184
 6435TIP3   OH219261   3.963   7.116   3.650
 6435TIP3    H119262   3.969   7.210   3.631
 6435TIP3    H219263   3.982   7.109   3.744
 6436TIP3   OH219264   1.315   0.026   5.852
 6436TIP3    H119265   1.304  -0.058   5.896
 6436TIP3    H219266   1.304   0.091   5.921
 6437TIP3   OH219267   6.241   6.158   4.793
 6437TIP3    H119268   6.328   6.137   4.758
 6437TIP3    H219269   6.233   6.102   4.870
 6438TIP3   OH219270   4.869   2.502   3.070
 6438TIP3    H119271   4.782   2.537   3.053
 6438TIP3    H219272   4.853   2.414   3.104
 6439TIP3   OH219273   4.402   4.980   3.982
 6439TIP3    H119274   4.442   5.017   4.060
 6439TIP3    H219275   4.324   4.935   4.013
 6440TIP3   OH219276   1.355   4.314   2.489
 6440TIP3    H119277   1.381   4.288   2.577
 6440TIP3    H219278   1.429   4.291   2.433
 6441TIP3   OH219279   3.181   5.027   5.833
 6441TIP3    H119280   3.215   4.961   5.893
 6441TIP3    H219281   3.242   5.025   5.759
 6442TIP3   OH219282   7.382   0.264   4.094
 6442TIP3    H119283   7.349   0.210   4.166
 6442TIP3    H219284   7.466   0.298   4.125
 6443TIP3   OH219285   4.121   6.155   6.141
 6443TIP3    H119286   4.082   6.106   6.069
 6443TIP3    H219287   4.047   6.180   6.196
 6444TIP3   OH219288   2.689   3.248   1.065
 6444TIP3    H119289   2.660   3.278   1.151
 6444TIP3    H219290   2.629   3.290   1.004
 6445TIP3   OH219291   5.789   0.971   2.983
 6445TIP3    H119292   5.828   1.051   3.019
 6445TIP3    H219293   5.795   0.982   2.888
 6446TIP3   OH219294   7.933   6.710   1.277
 6446TIP3    H119295   7.965   6.775   1.339
 6446TIP3    H219296   7.862   6.754   1.231
 6447TIP3   OH219297   4.846   4.178   3.130
 6447TIP3    H119298   4.934   4.204   3.158
 6447TIP3    H219299   4.788   4.224   3.190
 6448TIP3   OH219300   5.706   3.376   1.207
 6448TIP3    H119301   5.796   3.349   1.225
 6448TIP3    H219302   5.683   3.332   1.125
 6449TIP3   OH219303   6.864   2.490   1.571
 6449TIP3    H119304   6.815   2.427   1.518
 6449TIP3    H219305   6.856   2.457   1.660
 6450TIP3   OH219306   3.301   6.110   3.458
 6450TIP3    H119307   3.233   6.128   3.522
 6450TIP3    H219308   3.356   6.188   3.460
 6451TIP3   OH219309   5.789   6.057   0.556
 6451TIP3    H119310   5.749   6.064   0.469
 6451TIP3    H219311   5.767   5.969   0.586
 6452TIP3   OH219312   2.737   4.557   0.592
 6452TIP3    H119313   2.798   4.505   0.540
 6452TIP3    H219314   2.791   4.597   0.660
 6453TIP3   OH219315   7.141   3.528   5.576
 6453TIP3    H119316   7.056   3.541   5.533
 6453TIP3    H219317   7.157   3.610   5.622
 6454TIP3   OH219318   1.055   1.473   0.042
 6454TIP3    H119319   0.997   1.397   0.037
 6454TIP3    H219320   1.143   1.437   0.038
 6455TIP3   OH219321   6.180   5.692   5.625
 6455TIP3    H119322   6.114   5.720   5.687
 6455TIP3    H219323   6.148   5.608   5.591
 6456TIP3   OH219324   5.920   1.186   3.074
 6456TIP3    H119325   5.890   1.165   3.163
 6456TIP3    H219326   5.885   1.274   3.057
 6457TIP3   OH219327   7.965   6.759   2.654
 6457TIP3    H119328   7.893   6.775   2.594
 6457TIP3    H219329   7.945   6.675   2.694
 6458TIP3   OH219330   0.658   2.149   2.922
 6458TIP3    H119331   0.569   2.182   2.935
 6458TIP3    H219332   0.708   2.226   2.893
 6459TIP3   OH219333   4.259   4.258   4.313
 6459TIP3    H119334   4.271   4.252   4.407
 6459TIP3    H219335   4.176   4.213   4.297
 6460TIP3   OH219336   8.008   5.922   3.930
 6460TIP3    H119337   7.938   5.908   3.867
 6460TIP3    H219338   8.058   5.840   3.929
 6461TIP3   OH219339   6.215   6.986   6.301
 6461TIP3    H119340   6.292   6.928   6.292
 6461TIP3    H219341   6.181   6.994   6.212
 6462TIP3   OH219342   5.344   3.898   5.443
 6462TIP3    H119343   5.429   3.916   5.403
 6462TIP3    H219344   5.355   3.920   5.535
 6463TIP3   OH219345   7.637   1.448   3.243
 6463TIP3    H119346   7.619   1.541   3.251
 6463TIP3    H219347   7.703   1.430   3.311
 6464TIP3   OH219348   4.035   5.217   4.913
 6464TIP3    H119349   4.118   5.169   4.924
 6464TIP3    H219350   4.043   5.257   4.826
 6465TIP3   OH219351   5.330   5.633   1.723
 6465TIP3    H119352   5.385   5.562   1.757
 6465TIP3    H219353   5.324   5.696   1.795
 6466TIP3   OH219354   3.482   6.407   3.841
 6466TIP3    H119355   3.420   6.457   3.894
 6466TIP3    H219356   3.567   6.420   3.884
 6467TIP3   OH219357   8.256   0.974   1.289
 6467TIP3    H119358   8.304   0.896   1.260
 6467TIP3    H219359   8.324   1.035   1.318
 6468TIP3   OH219360   3.793   2.711   6.304
 6468TIP3    H119361   3.722   2.647   6.299
 6468TIP3    H219362   3.791   2.756   6.220
 6469TIP3   OH219363   1.840   7.040   0.977
 6469TIP3    H119364   1.776   7.015   0.909
 6469TIP3    H219365   1.833   6.971   1.043
 6470TIP3   OH219366   4.752   4.862   3.114
 6470TIP3    H119367   4.759   4.938   3.056
 6470TIP3    H219368   4.718   4.897   3.196
 6471TIP3   OH219369   4.652   6.676   2.364
 6471TIP3    H119370   4.614   6.597   2.325
 6471TIP3    H219371   4.745   6.657   2.371
 6472TIP3   OH219372   4.686   3.721   4.499
 6472TIP3    H119373   4.653   3.695   4.413
 6472TIP3    H219374   4.687   3.817   4.496
 6473TIP3   OH219375   7.047   2.348   5.730
 6473TIP3    H119376   6.980   2.416   5.733
 6473TIP3    H219377   6.998   2.267   5.719
 6474TIP3   OH219378   5.674   3.610   4.654
 6474TIP3    H119379   5.676   3.703   4.674
 6474TIP3    H219380   5.582   3.591   4.637
 6475TIP3   OH219381   3.219   1.461   4.525
 6475TIP3    H119382   3.256   1.549   4.523
 6475TIP3    H219383   3.247   1.425   4.609
 6476TIP3   OH219384   5.739   3.749   0.731
 6476TIP3    H119385   5.769   3.799   0.807
 6476TIP3    H219386   5.717   3.663   0.766
 6477TIP3   OH219387   7.426   0.105   3.524
 6477TIP3    H119388   7.348   0.157   3.546
 6477TIP3    H219389   7.499   0.158   3.554
 6478TIP3   OH219390   3.951   1.397   1.916
 6478TIP3    H119391   3.902   1.351   1.984
 6478TIP3    H219392   3.990   1.327   1.864
 6479TIP3   OH219393   4.209   2.537   4.750
 6479TIP3    H119394   4.221   2.563   4.658
 6479TIP3    H219395   4.272   2.591   4.798
 6480TIP3   OH219396   0.805   6.123   4.164
 6480TIP3    H119397   0.771   6.103   4.251
 6480TIP3    H219398   0.814   6.218   4.162
 6481TIP3   OH219399   5.600   7.562   3.306
 6481TIP3    H119400   5.550   7.641   3.285
 6481TIP3    H219401   5.591   7.553   3.401
 6482TIP3   OH219402   2.768   1.935   5.977
 6482TIP3    H119403   2.706   1.924   5.905
 6482TIP3    H219404   2.752   1.861   6.035
 6483TIP3   OH219405   3.577   2.762   3.766
 6483TIP3    H119406   3.584   2.816   3.687
 6483TIP3    H219407   3.492   2.786   3.804
 6484TIP3   OH219408   3.167   1.924   5.592
 6484TIP3    H119409   3.111   1.928   5.670
 6484TIP3    H219410   3.256   1.932   5.627
 6485TIP3   OH219411   0.615   1.077   0.313
 6485TIP3    H119412   0.645   1.167   0.297
 6485TIP3    H219413   0.535   1.069   0.262
 6486TIP3   OH219414   1.398   1.305   5.039
 6486TIP3    H119415   1.437   1.295   5.126
 6486TIP3    H219416   1.395   1.399   5.024
 6487TIP3   OH219417   3.209   3.660   5.502
 6487TIP3    H119418   3.212   3.695   5.592
 6487TIP3    H219419   3.116   3.657   5.481
 6488TIP3   OH219420   0.739   2.092   2.464
 6488TIP3    H119421   0.678   2.018   2.457
 6488TIP3    H219422   0.782   2.096   2.379
 6489TIP3   OH219423   2.961   4.862   2.500
 6489TIP3    H119424   2.935   4.952   2.483
 6489TIP3    H219425   2.894   4.828   2.559
 6490TIP3   OH219426   0.917   1.457   3.110
 6490TIP3    H119427   1.002   1.482   3.147
 6490TIP3    H219428   0.935   1.447   3.016
 6491TIP3   OH219429   3.793   5.624   5.495
 6491TIP3    H119430   3.796   5.709   5.538
 6491TIP3    H219431   3.856   5.631   5.423
 6492TIP3   OH219432   6.860   2.549   0.174
 6492TIP3    H119433   6.846   2.635   0.213
 6492TIP3    H219434   6.783   2.533   0.120
 6493TIP3   OH219435   3.203   1.169   0.936
 6493TIP3    H119436   3.121   1.220   0.940
 6493TIP3    H219437   3.225   1.167   0.843
 6494TIP3   OH219438   0.689   5.988   2.265
 6494TIP3    H119439   0.763   5.940   2.229
 6494TIP3    H219440   0.697   6.076   2.227
 6495TIP3   OH219441   5.589   3.331   5.957
 6495TIP3    H119442   5.642   3.310   5.881
 6495TIP3    H219443   5.648   3.319   6.032
 6496TIP3   OH219444   1.448   6.692   2.890
 6496TIP3    H119445   1.497   6.655   2.963
 6496TIP3    H219446   1.356   6.685   2.916
 6497TIP3   OH219447   3.014   6.094   1.896
 6497TIP3    H119448   2.945   6.029   1.907
 6497TIP3    H219449   2.980   6.154   1.831
 6498TIP3   OH219450   5.592   6.359   2.868
 6498TIP3    H119451   5.614   6.425   2.934
 6498TIP3    H219452   5.601   6.275   2.914
 6499TIP3   OH219453   0.383   0.530   4.753
 6499TIP3    H119454   0.304   0.505   4.802
 6499TIP3    H219455   0.418   0.605   4.800
 6500TIP3   OH219456   2.555   4.374   6.074
 6500TIP3    H119457   2.553   4.454   6.127
 6500TIP3    H219458   2.530   4.402   5.986
 6501TIP3   OH219459   4.710   5.007   4.725
 6501TIP3    H119460   4.724   5.023   4.632
 6501TIP3    H219461   4.664   5.084   4.757
 6502TIP3   OH219462   7.464   3.868   5.539
 6502TIP3    H119463   7.482   3.826   5.455
 6502TIP3    H219464   7.534   3.932   5.549
 6503TIP3   OH219465   7.008   0.992   1.332
 6503TIP3    H119466   7.077   1.053   1.304
 6503TIP3    H219467   6.991   0.937   1.256
 6504TIP3   OH219468   1.581   3.739   2.245
 6504TIP3    H119469   1.586   3.666   2.307
 6504TIP3    H219470   1.523   3.802   2.287
 6505TIP3   OH219471   2.124   5.814   1.108
 6505TIP3    H119472   2.183   5.757   1.157
 6505TIP3    H219473   2.180   5.887   1.081
 6506TIP3   OH219474   4.071   5.092   2.364
 6506TIP3    H119475   4.002   5.145   2.406
 6506TIP3    H219476   4.031   5.006   2.351
 6507TIP3   OH219477   0.156   6.692   2.840
 6507TIP3    H119478   0.222   6.717   2.905
 6507TIP3    H219479   0.196   6.714   2.755
 6508TIP3   OH219480   5.218   5.807   0.469
 6508TIP3    H119481   5.250   5.814   0.559
 6508TIP3    H219482   5.268   5.873   0.421
 6509TIP3   OH219483   2.462   2.194   3.710
 6509TIP3    H119484   2.549   2.229   3.729
 6509TIP3    H219485   2.450   2.124   3.774
 6510TIP3   OH219486   4.049   4.606   3.876
 6510TIP3    H119487   4.110   4.563   3.935
 6510TIP3    H219488   4.104   4.652   3.812
 6511TIP3   OH219489   3.339   7.279   4.643
 6511TIP3    H119490   3.391   7.253   4.719
 6511TIP3    H219491   3.396   7.339   4.594
 6512TIP3   OH219492   2.968   0.603   6.424
 6512TIP3    H119493   2.875   0.605   6.448
 6512TIP3    H219494   2.973   0.541   6.351
 6513TIP3   OH219495   8.028   3.432   6.591
 6513TIP3    H119496   8.091   3.471   6.531
 6513TIP3    H219497   7.955   3.493   6.592
 6514TIP3   OH219498   4.463   1.825   1.357
 6514TIP3    H119499   4.494   1.781   1.436
 6514TIP3    H219500   4.374   1.852   1.378
 6515TIP3   OH219501   0.181   0.466   6.293
 6515TIP3    H119502   0.190   0.560   6.279
 6515TIP3    H219503   0.136   0.434   6.216
 6516TIP3   OH219504   6.093   2.556   5.777
 6516TIP3    H119505   6.005   2.556   5.815
 6516TIP3    H219506   6.147   2.603   5.841
 6517TIP3   OH219507   1.421   1.767   1.134
 6517TIP3    H119508   1.444   1.726   1.051
 6517TIP3    H219509   1.366   1.702   1.178
 6518TIP3   OH219510   4.560   0.178   1.188
 6518TIP3    H119511   4.607   0.146   1.265
 6518TIP3    H219512   4.541   0.270   1.209
 6519TIP3   OH219513   7.922   3.660   2.130
 6519TIP3    H119514   7.841   3.617   2.159
 6519TIP3    H219515   7.980   3.588   2.108
 6520TIP3   OH219516   0.260   0.267   1.785
 6520TIP3    H119517   0.328   0.235   1.726
 6520TIP3    H219518   0.208   0.327   1.732
 6521TIP3   OH219519   2.369   7.270   3.888
 6521TIP3    H119520   2.277   7.270   3.861
 6521TIP3    H219521   2.371   7.324   3.966
 6522TIP3   OH219522   1.566   4.438   0.486
 6522TIP3    H119523   1.614   4.362   0.519
 6522TIP3    H219524   1.535   4.483   0.564
 6523TIP3   OH219525   2.715   0.069   6.445
 6523TIP3    H119526   2.732  -0.013   6.398
 6523TIP3    H219527   2.791   0.079   6.503
 6524TIP3   OH219528   5.195   3.276   4.646
 6524TIP3    H119529   5.165   3.271   4.737
 6524TIP3    H219530   5.145   3.208   4.601
 6525TIP3   OH219531   1.579   2.976   3.522
 6525TIP3    H119532   1.641   2.935   3.462
 6525TIP3    H219533   1.540   2.902   3.569
 6526TIP3   OH219534   7.871   3.474   1.731
 6526TIP3    H119535   7.941   3.520   1.777
 6526TIP3    H219536   7.810   3.447   1.800
 6527TIP3   OH219537   2.203   6.730   5.801
 6527TIP3    H119538   2.261   6.714   5.875
 6527TIP3    H219539   2.167   6.817   5.817
 6528TIP3   OH219540   4.518   6.192   4.943
 6528TIP3    H119541   4.587   6.258   4.949
 6528TIP3    H219542   4.480   6.189   5.031
 6529TIP3   OH219543   1.680   6.946   3.442
 6529TIP3    H119544   1.617   6.887   3.402
 6529TIP3    H219545   1.647   7.034   3.422
 6530TIP3   OH219546   8.126   4.654   4.065
 6530TIP3    H119547   8.194   4.718   4.085
 6530TIP3    H219548   8.152   4.575   4.112
 6531TIP3   OH219549   3.704   7.051   2.774
 6531TIP3    H119550   3.684   7.139   2.806
 6531TIP3    H219551   3.791   7.059   2.736
 6532TIP3   OH219552   0.316   6.754   6.606
 6532TIP3    H119553   0.238   6.792   6.568
 6532TIP3    H219554   0.293   6.739   6.698
 6533TIP3   OH219555   0.726   5.302   1.604
 6533TIP3    H119556   0.706   5.286   1.512
 6533TIP3    H219557   0.677   5.381   1.626
 6534TIP3   OH219558   7.770   3.886   2.052
 6534TIP3    H119559   7.831   3.960   2.057
 6534TIP3    H219560   7.819   3.812   2.086
 6535TIP3   OH219561   1.042   2.465   0.909
 6535TIP3    H119562   1.041   2.442   1.002
 6535TIP3    H219563   1.113   2.528   0.901
 6536TIP3   OH219564   3.002   7.188   5.032
 6536TIP3    H119565   2.929   7.165   4.974
 6536TIP3    H219566   3.008   7.284   5.026
 6537TIP3   OH219567   5.520   6.234   6.628
 6537TIP3    H119568   5.609   6.214   6.659
 6537TIP3    H219569   5.465   6.171   6.674
 6538TIP3   OH219570   7.554   1.223   2.170
 6538TIP3    H119571   7.541   1.260   2.082
 6538TIP3    H219572   7.471   1.181   2.191
 6539TIP3   OH219573   0.720   4.029   5.662
 6539TIP3    H119574   0.715   4.118   5.628
 6539TIP3    H219575   0.756   4.039   5.751
 6540TIP3   OH219576   4.528   1.457   1.637
 6540TIP3    H119577   4.613   1.480   1.598
 6540TIP3    H219578   4.518   1.364   1.619
 6541TIP3   OH219579   0.461   6.206   4.951
 6541TIP3    H119580   0.441   6.164   4.867
 6541TIP3    H219581   0.453   6.135   5.015
 6542TIP3   OH219582   8.023   0.862   3.254
 6542TIP3    H119583   7.949   0.803   3.240
 6542TIP3    H219584   8.036   0.905   3.169
 6543TIP3   OH219585   5.849   2.438   0.935
 6543TIP3    H119586   5.901   2.489   0.997
 6543TIP3    H219587   5.913   2.405   0.872
 6544TIP3   OH219588   4.198   6.449   1.334
 6544TIP3    H119589   4.165   6.532   1.370
 6544TIP3    H219590   4.235   6.404   1.410
 6545TIP3   OH219591   4.587   3.414   1.040
 6545TIP3    H119592   4.683   3.415   1.039
 6545TIP3    H219593   4.563   3.506   1.052
 6546TIP3   OH219594   4.292   6.325   1.569
 6546TIP3    H119595   4.306   6.343   1.662
 6546TIP3    H219596   4.377   6.295   1.537
 6547TIP3   OH219597   3.199   4.914   4.719
 6547TIP3    H119598   3.170   5.001   4.692
 6547TIP3    H219599   3.166   4.856   4.651
 6548TIP3   OH219600   2.537   6.341   1.852
 6548TIP3    H119601   2.616   6.378   1.812
 6548TIP3    H219602   2.569   6.267   1.903
 6549TIP3   OH219603   2.283   2.347   5.759
 6549TIP3    H119604   2.204   2.306   5.793
 6549TIP3    H219605   2.350   2.328   5.824
 6550TIP3   OH219606   6.551   2.731   1.166
 6550TIP3    H119607   6.481   2.712   1.103
 6550TIP3    H219608   6.541   2.823   1.188
 6551TIP3   OH219609   1.231   6.029   3.994
 6551TIP3    H119610   1.228   6.125   3.989
 6551TIP3    H219611   1.258   6.001   3.907
 6552TIP3   OH219612   3.101   5.916   2.253
 6552TIP3    H119613   3.126   5.920   2.161
 6552TIP3    H219614   3.113   6.005   2.286
 6553TIP3   OH219615   6.152   4.743   3.638
 6553TIP3    H119616   6.214   4.786   3.580
 6553TIP3    H219617   6.184   4.762   3.726
 6554TIP3   OH219618   6.848   6.529   4.711
 6554TIP3    H119619   6.820   6.551   4.800
 6554TIP3    H219620   6.938   6.500   4.721
 6555TIP3   OH219621   1.791   3.381   2.363
 6555TIP3    H119622   1.708   3.413   2.398
 6555TIP3    H219623   1.772   3.355   2.273
 6556TIP3   OH219624   3.724   5.355   5.191
 6556TIP3    H119625   3.747   5.296   5.119
 6556TIP3    H219626   3.807   5.396   5.216
 6557TIP3   OH219627   4.638   1.775   5.854
 6557TIP3    H119628   4.642   1.819   5.769
 6557TIP3    H219629   4.621   1.684   5.834
 6558TIP3   OH219630   1.629   2.155   3.747
 6558TIP3    H119631   1.599   2.219   3.811
 6558TIP3    H219632   1.562   2.087   3.747
 6559TIP3   OH219633   2.042   0.719   2.232
 6559TIP3    H119634   1.954   0.683   2.238
 6559TIP3    H219635   2.094   0.664   2.291
 6560TIP3   OH219636   0.140   2.425   1.412
 6560TIP3    H119637   0.144   2.441   1.318
 6560TIP3    H219638   0.047   2.413   1.431
 6561TIP3   OH219639   1.836   3.195   3.927
 6561TIP3    H119640   1.771   3.137   3.967
 6561TIP3    H219641   1.910   3.138   3.905
 6562TIP3   OH219642   4.406   7.468   4.850
 6562TIP3    H119643   4.389   7.560   4.869
 6562TIP3    H219644   4.500   7.458   4.858
 6563TIP3   OH219645   6.656   0.529   4.077
 6563TIP3    H119646   6.636   0.495   3.990
 6563TIP3    H219647   6.612   0.614   4.080
 6564TIP3   OH219648   4.667   0.926   0.215
 6564TIP3    H119649   4.613   0.999   0.247
 6564TIP3    H219650   4.623   0.896   0.135
 6565TIP3   OH219651   2.415   2.023   5.783
 6565TIP3    H119652   2.371   2.051   5.703
 6565TIP3    H219653   2.446   2.104   5.823
 6566TIP3   OH219654   3.134   3.652   0.015
 6566TIP3    H119655   3.114   3.624   0.104
 6566TIP3    H219656   3.229   3.664   0.014
 6567TIP3   OH219657   3.827   5.937   2.853
 6567TIP3    H119658   3.808   5.907   2.764
 6567TIP3    H219659   3.838   5.856   2.904
 6568TIP3   OH219660   4.265   4.162   3.942
 6568TIP3    H119661   4.187   4.217   3.951
 6568TIP3    H219662   4.233   4.073   3.956
 6569TIP3   OH219663   6.937   6.728   0.015
 6569TIP3    H119664   6.901   6.795  -0.043
 6569TIP3    H219665   6.877   6.654   0.006
 6570TIP3   OH219666   5.618   5.740   4.415
 6570TIP3    H119667   5.569   5.669   4.375
 6570TIP3    H219668   5.698   5.699   4.448
 6571TIP3   OH219669   7.047   0.038   5.156
 6571TIP3    H119670   7.032   0.077   5.070
 6571TIP3    H219671   7.102  -0.038   5.138
 6572TIP3   OH219672   8.067   1.377   6.135
 6572TIP3    H119673   8.156   1.356   6.108
 6572TIP3    H219674   8.054   1.468   6.106
 6573TIP3   OH219675   7.312   3.598   4.738
 6573TIP3    H119676   7.358   3.651   4.804
 6573TIP3    H219677   7.279   3.662   4.675
 6574TIP3   OH219678   1.457   0.161   5.659
 6574TIP3    H119679   1.541   0.121   5.638
 6574TIP3    H219680   1.416   0.101   5.722
 6575TIP3   OH219681   2.410   5.658   0.953
 6575TIP3    H119682   2.398   5.666   1.048
 6575TIP3    H219683   2.501   5.632   0.942
 6576TIP3   OH219684   3.608   4.518   5.086
 6576TIP3    H119685   3.561   4.437   5.103
 6576TIP3    H219686   3.542   4.587   5.094
 6577TIP3   OH219687   6.567   2.247   2.576
 6577TIP3    H119688   6.531   2.331   2.547
 6577TIP3    H219689   6.659   2.249   2.548
 6578TIP3   OH219690   8.178  -0.010   2.587
 6578TIP3    H119691   8.161   0.001   2.681
 6578TIP3    H219692   8.102   0.031   2.544
 6579TIP3   OH219693   2.206   7.566   1.108
 6579TIP3    H119694   2.202   7.592   1.200
 6579TIP3    H219695   2.291   7.524   1.099
 6580TIP3   OH219696   4.334   2.989   1.205
 6580TIP3    H119697   4.361   3.001   1.296
 6580TIP3    H219698   4.262   2.927   1.210
 6581TIP3   OH219699   6.026   6.219   2.574
 6581TIP3    H119700   5.957   6.272   2.615
 6581TIP3    H219701   6.009   6.226   2.480
 6582TIP3   OH219702   8.096   3.660   6.044
 6582TIP3    H119703   8.014   3.611   6.048
 6582TIP3    H219704   8.148   3.615   5.977
 6583TIP3   OH219705   4.137   0.298   5.472
 6583TIP3    H119706   4.113   0.353   5.547
 6583TIP3    H219707   4.130   0.357   5.397
 6584TIP3   OH219708   2.863   3.482   1.512
 6584TIP3    H119709   2.869   3.398   1.466
 6584TIP3    H219710   2.951   3.519   1.506
 6585TIP3   OH219711   5.009   6.114   5.817
 6585TIP3    H119712   5.083   6.102   5.757
 6585TIP3    H219713   5.039   6.178   5.881
 6586TIP3   OH219714   1.196   4.893   1.881
 6586TIP3    H119715   1.269   4.846   1.921
 6586TIP3    H219716   1.236   4.941   1.808
 6587TIP3   OH219717   1.589   3.941   0.950
 6587TIP3    H119718   1.633   3.947   1.034
 6587TIP3    H219719   1.496   3.945   0.972
 6588TIP3   OH219720   2.671   5.538   3.224
 6588TIP3    H119721   2.686   5.519   3.316
 6588TIP3    H219722   2.597   5.484   3.199
 6589TIP3   OH219723   2.419   2.506   0.487
 6589TIP3    H119724   2.511   2.532   0.497
 6589TIP3    H219725   2.413   2.422   0.532
 6590TIP3   OH219726   6.833   0.775   5.998
 6590TIP3    H119727   6.747   0.755   5.959
 6590TIP3    H219728   6.880   0.692   5.996
 6591TIP3   OH219729   5.760   6.786   1.940
 6591TIP3    H119730   5.755   6.822   2.029
 6591TIP3    H219731   5.738   6.693   1.951
 6592TIP3   OH219732   8.049   5.050   4.722
 6592TIP3    H119733   8.140   5.071   4.742
 6592TIP3    H219734   8.002   5.073   4.803
 6593TIP3   OH219735   8.114   4.089   0.435
 6593TIP3    H119736   8.102   4.173   0.478
 6593TIP3    H219737   8.027   4.063   0.405
 6594TIP3   OH219738   1.869   7.460   1.548
 6594TIP3    H119739   1.890   7.460   1.454
 6594TIP3    H219740   1.790   7.407   1.555
 6595TIP3   OH219741   0.579   4.693   1.329
 6595TIP3    H119742   0.646   4.658   1.389
 6595TIP3    H219743   0.620   4.770   1.291
 6596TIP3   OH219744   2.472   1.434   1.716
 6596TIP3    H119745   2.493   1.448   1.808
 6596TIP3    H219746   2.437   1.519   1.687
 6597TIP3   OH219747   5.094   0.374   6.125
 6597TIP3    H119748   5.174   0.321   6.125
 6597TIP3    H219749   5.060   0.367   6.036
 6598TIP3   OH219750   0.568   2.764   5.235
 6598TIP3    H119751   0.602   2.728   5.317
 6598TIP3    H219752   0.473   2.771   5.249
 6599TIP3   OH219753   1.496   7.597   4.576
 6599TIP3    H119754   1.572   7.589   4.635
 6599TIP3    H219755   1.436   7.528   4.605
 6600TIP3   OH219756   5.054   2.842   5.814
 6600TIP3    H119757   5.091   2.930   5.810
 6600TIP3    H219758   5.030   2.830   5.907
 6601TIP3   OH219759   0.358   1.366   6.689
 6601TIP3    H119760   0.435   1.411   6.656
 6601TIP3    H219761   0.371   1.274   6.665
 6602TIP3   OH219762   2.598   5.076   3.542
 6602TIP3    H119763   2.621   5.048   3.630
 6602TIP3    H219764   2.518   5.029   3.522
 6603TIP3   OH219765   5.034   3.500   4.091
 6603TIP3    H119766   5.095   3.547   4.034
 6603TIP3    H219767   4.956   3.556   4.094
 6604TIP3   OH219768   5.279   2.167   5.375
 6604TIP3    H119769   5.309   2.227   5.443
 6604TIP3    H219770   5.327   2.193   5.296
 6605TIP3   OH219771   5.961   4.163   4.284
 6605TIP3    H119772   5.943   4.235   4.223
 6605TIP3    H219773   6.030   4.197   4.341
 6606TIP3   OH219774   7.356   6.052   1.069
 6606TIP3    H119775   7.306   6.130   1.091
 6606TIP3    H219776   7.361   6.003   1.151
 6607TIP3   OH219777   4.417   1.104   3.641
 6607TIP3    H119778   4.348   1.129   3.580
 6607TIP3    H219779   4.498   1.119   3.593
 6608TIP3   OH219780   5.595   4.957   2.531
 6608TIP3    H119781   5.578   4.984   2.441
 6608TIP3    H219782   5.630   5.035   2.573
 6609TIP3   OH219783   1.349   3.801   0.939
 6609TIP3    H119784   1.323   3.813   1.030
 6609TIP3    H219785   1.268   3.807   0.889
 6610TIP3   OH219786   0.726   6.417   1.365
 6610TIP3    H119787   0.778   6.485   1.407
 6610TIP3    H219788   0.776   6.393   1.287
 6611TIP3   OH219789   4.509   0.811   3.559
 6611TIP3    H119790   4.506   0.733   3.615
 6611TIP3    H219791   4.544   0.880   3.615
 6612TIP3   OH219792   5.904   3.005   2.080
 6612TIP3    H119793   5.958   2.927   2.095
 6612TIP3    H219794   5.919   3.026   1.988
 6613TIP3   OH219795   2.666   2.229   2.096
 6613TIP3    H119796   2.702   2.262   2.179
 6613TIP3    H219797   2.666   2.134   2.106
 6614TIP3   OH219798   0.460   6.014   0.074
 6614TIP3    H119799   0.398   5.942   0.088
 6614TIP3    H219800   0.546   5.974   0.085
 6615TIP3   OH219801   8.279   3.541   2.551
 6615TIP3    H119802   8.338   3.468   2.570
 6615TIP3    H219803   8.245   3.523   2.463
 6616TIP3   OH219804   3.399   5.376   6.387
 6616TIP3    H119805   3.308   5.358   6.363
 6616TIP3    H219806   3.428   5.440   6.323
 6617TIP3   OH219807   1.963   6.386   5.134
 6617TIP3    H119808   2.058   6.381   5.141
 6617TIP3    H219809   1.935   6.296   5.118
 6618TIP3   OH219810   1.403   7.167   5.648
 6618TIP3    H119811   1.312   7.192   5.634
 6618TIP3    H219812   1.406   7.132   5.737
 6619TIP3   OH219813   0.947   3.912   3.878
 6619TIP3    H119814   1.023   3.970   3.877
 6619TIP3    H219815   0.973   3.839   3.934
 6620TIP3   OH219816   1.220   6.922   5.090
 6620TIP3    H119817   1.197   7.002   5.042
 6620TIP3    H219818   1.301   6.945   5.136
 6621TIP3   OH219819   3.048   3.572   6.163
 6621TIP3    H119820   2.979   3.628   6.126
 6621TIP3    H219821   3.128   3.603   6.121
 6622TIP3   OH219822   3.473   4.379   1.104
 6622TIP3    H119823   3.435   4.352   1.020
 6622TIP3    H219824   3.406   4.356   1.168
 6623TIP3   OH219825   8.087   2.763   5.277
 6623TIP3    H119826   8.018   2.828   5.266
 6623TIP3    H219827   8.163   2.813   5.306
 6624TIP3   OH219828   2.118   5.449   2.773
 6624TIP3    H119829   2.119   5.457   2.677
 6624TIP3    H219830   2.031   5.478   2.798
 6625TIP3   OH219831   2.820   3.903   3.084
 6625TIP3    H119832   2.854   3.991   3.100
 6625TIP3    H219833   2.857   3.878   2.999
 6626TIP3   OH219834   1.949   4.803   1.078
 6626TIP3    H119835   1.997   4.778   1.157
 6626TIP3    H219836   1.862   4.766   1.090
 6627TIP3   OH219837   6.148   3.422   5.261
 6627TIP3    H119838   6.185   3.372   5.188
 6627TIP3    H219839   6.064   3.454   5.228
 6628TIP3   OH219840   4.905   0.552   0.117
 6628TIP3    H119841   4.851   0.613   0.167
 6628TIP3    H219842   4.866   0.552   0.029
 6629TIP3   OH219843   5.537   7.754   6.571
 6629TIP3    H119844   5.610   7.702   6.537
 6629TIP3    H219845   5.464   7.692   6.576
 6630TIP3   OH219846   8.313   2.735   4.726
 6630TIP3    H119847   8.268   2.659   4.763
 6630TIP3    H219848   8.289   2.734   4.634
 6631TIP3   OH219849   0.634   4.873   3.489
 6631TIP3    H119850   0.566   4.813   3.520
 6631TIP3    H219851   0.606   4.897   3.400
 6632TIP3   OH219852   4.057   7.322   5.981
 6632TIP3    H119853   4.022   7.253   6.037
 6632TIP3    H219854   4.059   7.283   5.894
 6633TIP3   OH219855   0.655   6.622   2.062
 6633TIP3    H119856   0.577   6.668   2.094
 6633TIP3    H219857   0.624   6.536   2.035
 6634TIP3   OH219858   3.241   6.609   1.935
 6634TIP3    H119859   3.246   6.546   2.006
 6634TIP3    H219860   3.326   6.653   1.935
 6635TIP3   OH219861   3.596   5.530   3.730
 6635TIP3    H119862   3.579   5.503   3.640
 6635TIP3    H219863   3.620   5.449   3.776
 6636TIP3   OH219864   4.968   5.336   4.621
 6636TIP3    H119865   5.009   5.259   4.661
 6636TIP3    H219866   4.975   5.320   4.527
 6637TIP3   OH219867   4.236   7.443   2.271
 6637TIP3    H119868   4.312   7.487   2.309
 6637TIP3    H219869   4.253   7.442   2.177
 6638TIP3   OH219870   1.858   0.514   2.066
 6638TIP3    H119871   1.805   0.525   2.145
 6638TIP3    H219872   1.816   0.442   2.018
 6639TIP3   OH219873   7.311   0.954   4.420
 6639TIP3    H119874   7.280   0.877   4.371
 6639TIP3    H219875   7.358   0.917   4.495
 6640TIP3   OH219876   5.119   0.100   2.139
 6640TIP3    H119877   5.109   0.075   2.048
 6640TIP3    H219878   5.213   0.091   2.156
 6641TIP3   OH219879   1.710   0.492   1.118
 6641TIP3    H119880   1.700   0.413   1.065
 6641TIP3    H219881   1.642   0.551   1.086
 6642TIP3   OH219882   1.276   0.808   4.486
 6642TIP3    H119883   1.235   0.721   4.486
 6642TIP3    H219884   1.261   0.840   4.397
 6643TIP3   OH219885   1.459   1.208   3.964
 6643TIP3    H119886   1.482   1.184   3.874
 6643TIP3    H219887   1.424   1.297   3.957
 6644TIP3   OH219888   3.959   0.982   3.459
 6644TIP3    H119889   4.043   0.973   3.503
 6644TIP3    H219890   3.931   0.893   3.441
 6645TIP3   OH219891   1.332   0.906   6.214
 6645TIP3    H119892   1.285   0.902   6.131
 6645TIP3    H219893   1.416   0.864   6.196
 6646TIP3   OH219894   0.057   7.149   3.896
 6646TIP3    H119895  -0.017   7.131   3.838
 6646TIP3    H219896   0.051   7.081   3.963
 6647TIP3   OH219897   4.286   0.178   6.723
 6647TIP3    H119898   4.221   0.117   6.688
 6647TIP3    H219899   4.356   0.121   6.757
 6648TIP3   OH219900   4.627   0.945   6.648
 6648TIP3    H119901   4.610   1.029   6.690
 6648TIP3    H219902   4.694   0.964   6.583
 6649TIP3   OH219903   3.731   3.203   5.307
 6649TIP3    H119904   3.774   3.118   5.318
 6649TIP3    H219905   3.674   3.211   5.383
 6650TIP3   OH219906   3.657   3.464   2.669
 6650TIP3    H119907   3.578   3.451   2.616
 6650TIP3    H219908   3.728   3.470   2.605
 6651TIP3   OH219909   0.392   2.775   3.744
 6651TIP3    H119910   0.369   2.865   3.768
 6651TIP3    H219911   0.355   2.721   3.814
 6652TIP3   OH219912   5.969   5.843   5.421
 6652TIP3    H119913   6.001   5.753   5.417
 6652TIP3    H219914   5.887   5.841   5.373
 6653TIP3   OH219915   0.261   2.588   2.628
 6653TIP3    H119916   0.210   2.510   2.651
 6653TIP3    H219917   0.270   2.583   2.533
 6654TIP3   OH219918   3.581   2.616   5.128
 6654TIP3    H119919   3.509   2.661   5.084
 6654TIP3    H219920   3.614   2.680   5.191
 6655TIP3   OH219921   6.308   4.596   6.722
 6655TIP3    H119922   6.259   4.516   6.702
 6655TIP3    H219923   6.304   4.603   6.817
 6656TIP3   OH219924   3.692   3.288   3.095
 6656TIP3    H119925   3.734   3.207   3.067
 6656TIP3    H219926   3.755   3.328   3.155
 6657TIP3   OH219927   1.299   3.292   5.305
 6657TIP3    H119928   1.208   3.279   5.280
 6657TIP3    H219929   1.310   3.387   5.309
 6658TIP3   OH219930   1.427   3.626   3.880
 6658TIP3    H119931   1.427   3.565   3.806
 6658TIP3    H219932   1.519   3.635   3.904
 6659TIP3   OH219933   6.350   0.907   0.615
 6659TIP3    H119934   6.346   1.002   0.623
 6659TIP3    H219935   6.411   0.892   0.543
 6660TIP3   OH219936   5.086   1.538   6.675
 6660TIP3    H119937   5.051   1.607   6.731
 6660TIP3    H219938   5.178   1.559   6.665
 6661TIP3   OH219939   7.849   3.056   2.906
 6661TIP3    H119940   7.862   2.961   2.903
 6661TIP3    H219941   7.770   3.068   2.959
 6662TIP3   OH219942   7.422   5.811   3.431
 6662TIP3    H119943   7.403   5.733   3.483
 6662TIP3    H219944   7.395   5.884   3.486
 6663TIP3   OH219945   4.674   6.789   4.763
 6663TIP3    H119946   4.695   6.711   4.712
 6663TIP3    H219947   4.738   6.787   4.835
 6664TIP3   OH219948   7.695   6.889   4.993
 6664TIP3    H119949   7.648   6.875   4.912
 6664TIP3    H219950   7.655   6.827   5.055
 6665TIP3   OH219951   1.038   3.265   6.750
 6665TIP3    H119952   1.038   3.185   6.803
 6665TIP3    H219953   1.092   3.326   6.800
 6666TIP3   OH219954   0.200   7.098   2.407
 6666TIP3    H119955   0.119   7.113   2.456
 6666TIP3    H219956   0.259   7.168   2.436
 6667TIP3   OH219957   6.498   1.461   4.069
 6667TIP3    H119958   6.500   1.367   4.090
 6667TIP3    H219959   6.451   1.501   4.141
 6668TIP3   OH219960   4.359   5.453   4.755
 6668TIP3    H119961   4.417   5.529   4.758
 6668TIP3    H219962   4.348   5.435   4.662
 6669TIP3   OH219963   7.467   1.959   6.200
 6669TIP3    H119964   7.469   1.888   6.135
 6669TIP3    H219965   7.547   2.009   6.184
 6670TIP3   OH219966   0.806   7.793   5.172
 6670TIP3    H119967   0.781   7.880   5.140
 6670TIP3    H219968   0.734   7.768   5.230
 6671TIP3   OH219969   0.847   2.861   4.412
 6671TIP3    H119970   0.867   2.776   4.450
 6671TIP3    H219971   0.762   2.848   4.369
 6672TIP3   OH219972   6.149   4.962   1.915
 6672TIP3    H119973   6.127   4.997   2.002
 6672TIP3    H219974   6.128   4.869   1.920
 6673TIP3   OH219975   3.419   3.746   6.342
 6673TIP3    H119976   3.335   3.713   6.376
 6673TIP3    H219977   3.460   3.669   6.301
 6674TIP3   OH219978   7.128   2.581   3.145
 6674TIP3    H119979   7.137   2.619   3.233
 6674TIP3    H219980   7.217   2.562   3.117
 6675TIP3   OH219981   7.780   5.056   3.137
 6675TIP3    H119982   7.776   5.002   3.057
 6675TIP3    H219983   7.837   5.129   3.114
 6676TIP3   OH219984   8.020   2.056   4.195
 6676TIP3    H119985   8.034   1.962   4.206
 6676TIP3    H219986   7.956   2.061   4.123
 6677TIP3   OH219987   1.981   5.036   5.984
 6677TIP3    H119988   1.904   4.982   6.003
 6677TIP3    H219989   1.954   5.125   6.003
 6678TIP3   OH219990   5.357   5.790   2.287
 6678TIP3    H119991   5.321   5.734   2.218
 6678TIP3    H219992   5.292   5.859   2.298
 6679TIP3   OH219993   5.953   3.789   3.775
 6679TIP3    H119994   5.866   3.815   3.805
 6679TIP3    H219995   5.959   3.696   3.796
 6680TIP3   OH219996   6.041   5.780   4.427
 6680TIP3    H119997   5.971   5.736   4.474
 6680TIP3    H219998   6.102   5.809   4.495
 6681TIP3   OH219999   2.243   2.967   1.440
 6681TIP3    H120000   2.205   3.034   1.497
 6681TIP3    H220001   2.261   3.014   1.358
 6682TIP3   OH220002   1.793   7.040   4.380
 6682TIP3    H120003   1.777   7.091   4.300
 6682TIP3    H220004   1.824   6.955   4.348
 6683TIP3   OH220005   1.757   2.997   5.723
 6683TIP3    H120006   1.840   3.012   5.768
 6683TIP3    H220007   1.782   2.964   5.636
 6684TIP3   OH220008   7.668   1.063   2.872
 6684TIP3    H120009   7.646   1.048   2.964
 6684TIP3    H220010   7.632   0.988   2.826
 6685TIP3   OH220011   7.394   6.332   2.963
 6685TIP3    H120012   7.373   6.401   2.901
 6685TIP3    H220013   7.434   6.378   3.037
 6686TIP3   OH220014   2.737   3.180   1.939
 6686TIP3    H120015   2.737   3.164   1.844
 6686TIP3    H220016   2.757   3.094   1.977
 6687TIP3   OH220017   1.653   3.879   4.455
 6687TIP3    H120018   1.573   3.842   4.491
 6687TIP3    H220019   1.645   3.973   4.471
 6688TIP3   OH220020   0.593   3.871   2.472
 6688TIP3    H120021   0.620   3.817   2.398
 6688TIP3    H220022   0.623   3.959   2.451
 6689TIP3   OH220023   1.930   0.248   2.870
 6689TIP3    H120024   2.020   0.269   2.896
 6689TIP3    H220025   1.898   0.191   2.940
 6690TIP3   OH220026   4.813   7.250   2.267
 6690TIP3    H120027   4.730   7.298   2.273
 6690TIP3    H220028   4.803   7.178   2.329
 6691TIP3   OH220029   6.562   0.614   2.821
 6691TIP3    H120030   6.553   0.553   2.894
 6691TIP3    H220031   6.506   0.688   2.845
 6692TIP3   OH220032   7.870   4.811   2.836
 6692TIP3    H120033   7.790   4.864   2.840
 6692TIP3    H220034   7.840   4.721   2.839
 6693TIP3   OH220035   2.838   2.077   4.744
 6693TIP3    H120036   2.874   2.068   4.832
 6693TIP3    H220037   2.813   1.988   4.719
 6694TIP3   OH220038   1.579   1.130   5.952
 6694TIP3    H120039   1.634   1.168   6.021
 6694TIP3    H220040   1.610   1.171   5.871
 6695TIP3   OH220041   1.540   2.631   2.722
 6695TIP3    H120042   1.550   2.627   2.818
 6695TIP3    H220043   1.621   2.670   2.691
 6696TIP3   OH220044   5.246   5.824   3.123
 6696TIP3    H120045   5.250   5.767   3.046
 6696TIP3    H220046   5.317   5.793   3.180
 6697TIP3   OH220047   4.935   3.803   6.039
 6697TIP3    H120048   4.997   3.873   6.057
 6697TIP3    H220049   4.926   3.756   6.122
 6698TIP3   OH220050   7.363   1.852   4.704
 6698TIP3    H120051   7.316   1.931   4.729
 6698TIP3    H220052   7.297   1.783   4.707
 6699TIP3   OH220053   4.807   0.240   0.631
 6699TIP3    H120054   4.883   0.257   0.576
 6699TIP3    H220055   4.802   0.315   0.691
 6700TIP3   OH220056   6.323   5.356   5.424
 6700TIP3    H120057   6.402   5.385   5.470
 6700TIP3    H220058   6.251   5.401   5.469
 6701TIP3   OH220059   5.418   5.931   5.113
 6701TIP3    H120060   5.373   6.004   5.156
 6701TIP3    H220061   5.503   5.967   5.089
 6702TIP3   OH220062   7.790   4.318   5.984
 6702TIP3    H120063   7.844   4.327   6.063
 6702TIP3    H220064   7.847   4.347   5.913
 6703TIP3   OH220065   8.032   1.107   4.546
 6703TIP3    H120066   7.967   1.077   4.483
 6703TIP3    H220067   8.108   1.051   4.529
 6704TIP3   OH220068   0.967   5.972   3.977
 6704TIP3    H120069   0.924   6.024   4.045
 6704TIP3    H220070   1.059   5.969   4.003
 6705TIP3   OH220071   4.642   5.729   0.367
 6705TIP3    H120072   4.643   5.637   0.342
 6705TIP3    H220073   4.702   5.734   0.442
 6706TIP3   OH220074   3.380   5.897   3.699
 6706TIP3    H120075   3.407   5.970   3.754
 6706TIP3    H220076   3.413   5.919   3.612
 6707TIP3   OH220077   1.877   0.401   0.725
 6707TIP3    H120078   1.928   0.463   0.776
 6707TIP3    H220079   1.914   0.315   0.747
 6708TIP3   OH220080   1.182   2.434   4.798
 6708TIP3    H120081   1.146   2.500   4.857
 6708TIP3    H220082   1.109   2.376   4.779
 6709TIP3   OH220083   7.951   5.819   0.619
 6709TIP3    H120084   7.870   5.860   0.649
 6709TIP3    H220085   8.013   5.832   0.691
 6710TIP3   OH220086   3.378   3.028   4.341
 6710TIP3    H120087   3.354   2.998   4.428
 6710TIP3    H220088   3.323   2.976   4.282
 6711TIP3   OH220089   4.636   3.340   4.868
 6711TIP3    H120090   4.667   3.367   4.955
 6711TIP3    H220091   4.545   3.317   4.882
 6712TIP3   OH220092   2.686   2.565   5.860
 6712TIP3    H120093   2.717   2.608   5.780
 6712TIP3    H220094   2.726   2.478   5.858
 6713TIP3   OH220095   5.337   0.788   4.871
 6713TIP3    H120096   5.289   0.871   4.873
 6713TIP3    H220097   5.392   0.790   4.949
 6714TIP3   OH220098   2.201   4.459   2.482
 6714TIP3    H120099   2.129   4.431   2.426
 6714TIP3    H220100   2.225   4.381   2.532
 6715TIP3   OH220101   1.180   5.613   0.974
 6715TIP3    H120102   1.261   5.662   0.965
 6715TIP3    H220103   1.184   5.546   0.906
 6716TIP3   OH220104   7.220   3.259   2.468
 6716TIP3    H120105   7.160   3.331   2.487
 6716TIP3    H220106   7.240   3.221   2.554
 6717TIP3   OH220107   0.603   7.565   4.696
 6717TIP3    H120108   0.521   7.532   4.662
 6717TIP3    H220109   0.582   7.600   4.782
 6718TIP3   OH220110   2.173   1.605   0.673
 6718TIP3    H120111   2.170   1.569   0.585
 6718TIP3    H220112   2.151   1.697   0.662
 6719TIP3   OH220113   2.943   0.312   2.921
 6719TIP3    H120114   2.890   0.250   2.971
 6719TIP3    H220115   2.883   0.344   2.852
 6720TIP3   OH220116   5.054   1.431   2.890
 6720TIP3    H120117   5.113   1.359   2.866
 6720TIP3    H220118   5.026   1.410   2.979
 6721TIP3   OH220119   8.108   1.978   0.698
 6721TIP3    H120120   8.091   1.999   0.790
 6721TIP3    H220121   8.192   2.019   0.680
 6722TIP3   OH220122   1.350   1.075   1.064
 6722TIP3    H120123   1.313   1.066   0.976
 6722TIP3    H220124   1.433   1.028   1.059
 6723TIP3   OH220125   2.895   6.204   1.679
 6723TIP3    H120126   2.847   6.138   1.629
 6723TIP3    H220127   2.847   6.285   1.663
 6724TIP3   OH220128   7.106   6.156   3.726
 6724TIP3    H120129   7.068   6.148   3.814
 6724TIP3    H220130   7.063   6.087   3.675
 6725TIP3   OH220131   1.362   4.428   1.804
 6725TIP3    H120132   1.408   4.506   1.774
 6725TIP3    H220133   1.271   4.444   1.779
 6726TIP3   OH220134   0.951   6.587   3.302
 6726TIP3    H120135   0.871   6.535   3.292
 6726TIP3    H220136   0.932   6.669   3.257
 6727TIP3   OH220137   0.763   5.640   3.720
 6727TIP3    H120138   0.771   5.664   3.628
 6727TIP3    H220139   0.715   5.713   3.760
 6728TIP3   OH220140   5.481   3.521   4.436
 6728TIP3    H120141   5.510   3.610   4.419
 6728TIP3    H220142   5.413   3.505   4.369
 6729TIP3   OH220143   5.589   5.708   1.168
 6729TIP3    H120144   5.554   5.661   1.244
 6729TIP3    H220145   5.554   5.797   1.176
 6730TIP3   OH220146   5.151   7.127   3.548
 6730TIP3    H120147   5.075   7.092   3.501
 6730TIP3    H220148   5.137   7.221   3.550
 6731TIP3   OH220149   6.225   6.003   0.287
 6731TIP3    H120150   6.140   6.042   0.306
 6731TIP3    H220151   6.249   5.956   0.367
 6732TIP3   OH220152   4.304   4.044   5.287
 6732TIP3    H120153   4.384   4.095   5.273
 6732TIP3    H220154   4.287   4.002   5.203
 6733TIP3   OH220155   7.815   3.559   0.348
 6733TIP3    H120156   7.746   3.501   0.380
 6733TIP3    H220157   7.771   3.640   0.324
 6734TIP3   OH220158   2.711   5.535   0.459
 6734TIP3    H120159   2.789   5.544   0.514
 6734TIP3    H220160   2.702   5.619   0.415
 6735TIP3   OH220161   1.777   5.797   3.806
 6735TIP3    H120162   1.688   5.772   3.783
 6735TIP3    H220163   1.800   5.738   3.878
 6736TIP3   OH220164   3.255   4.628   0.744
 6736TIP3    H120165   3.186   4.602   0.806
 6736TIP3    H220166   3.257   4.557   0.680
 6737TIP3   OH220167   7.822   7.250   1.690
 6737TIP3    H120168   7.820   7.205   1.774
 6737TIP3    H220169   7.810   7.342   1.711
 6738TIP3   OH220170   1.056   1.984   0.668
 6738TIP3    H120171   1.106   2.065   0.656
 6738TIP3    H220172   1.057   1.943   0.582
 6739TIP3   OH220173   3.685   4.020   5.090
 6739TIP3    H120174   3.640   4.061   5.164
 6739TIP3    H220175   3.630   3.945   5.067
 6740TIP3   OH220176   0.215   3.116   3.565
 6740TIP3    H120177   0.125   3.128   3.536
 6740TIP3    H220178   0.238   3.199   3.606
 6741TIP3   OH220179   4.009   6.477   5.976
 6741TIP3    H120180   4.097   6.483   6.014
 6741TIP3    H220181   3.952   6.459   6.050
 6742TIP3   OH220182   3.892   3.171   1.589
 6742TIP3    H120183   3.882   3.186   1.683
 6742TIP3    H220184   3.985   3.149   1.578
 6743TIP3   OH220185   2.394   4.699   2.626
 6743TIP3    H120186   2.461   4.645   2.668
 6743TIP3    H220187   2.311   4.669   2.665
 6744TIP3   OH220188   6.583   4.776   3.334
 6744TIP3    H120189   6.565   4.850   3.277
 6744TIP3    H220190   6.631   4.714   3.279
 6745TIP3   OH220191   1.897   1.937   2.143
 6745TIP3    H120192   1.937   2.012   2.187
 6745TIP3    H220193   1.853   1.888   2.212
 6746TIP3   OH220194   0.310   3.573   2.894
 6746TIP3    H120195   0.364   3.535   2.824
 6746TIP3    H220196   0.364   3.641   2.932
 6747TIP3   OH220197   4.132   6.320   2.588
 6747TIP3    H120198   4.217   6.350   2.555
 6747TIP3    H220199   4.075   6.321   2.510
 6748TIP3   OH220200   3.749   4.305   1.905
 6748TIP3    H120201   3.800   4.275   1.830
 6748TIP3    H220202   3.668   4.255   1.901
 6749TIP3   OH220203   1.337   2.865   6.398
 6749TIP3    H120204   1.418   2.848   6.447
 6749TIP3    H220205   1.270   2.876   6.466
 6750TIP3   OH220206   2.113   7.849   5.623
 6750TIP3    H120207   2.071   7.849   5.537
 6750TIP3    H220208   2.048   7.809   5.681
 6751TIP3   OH220209   0.303   4.364   5.223
 6751TIP3    H120210   0.245   4.355   5.147
 6751TIP3    H220211   0.354   4.443   5.205
 6752TIP3   OH220212   5.220   4.212   5.311
 6752TIP3    H120213   5.130   4.229   5.339
 6752TIP3    H220214   5.214   4.135   5.255
 6753TIP3   OH220215   8.239   6.668   2.679
 6753TIP3    H120216   8.165   6.725   2.656
 6753TIP3    H220217   8.272   6.703   2.761
 6754TIP3   OH220218   3.650   6.642   5.862
 6754TIP3    H120219   3.582   6.592   5.816
 6754TIP3    H220220   3.607   6.674   5.941
 6755TIP3   OH220221   4.123   7.176   2.043
 6755TIP3    H120222   4.045   7.210   1.999
 6755TIP3    H220223   4.159   7.112   1.982
 6756TIP3   OH220224   4.263   2.378   2.851
 6756TIP3    H120225   4.216   2.308   2.806
 6756TIP3    H220226   4.269   2.348   2.942
 6757TIP3   OH220227   0.650   5.658   2.809
 6757TIP3    H120228   0.668   5.630   2.899
 6757TIP3    H220229   0.704   5.736   2.797
 6758TIP3   OH220230   6.808   6.857   6.667
 6758TIP3    H120231   6.756   6.936   6.657
 6758TIP3    H220232   6.850   6.866   6.753
 6759TIP3   OH220233   1.736   7.347   5.390
 6759TIP3    H120234   1.703   7.382   5.472
 6759TIP3    H220235   1.811   7.292   5.415
 6760TIP3   OH220236   4.854   4.013   5.057
 6760TIP3    H120237   4.793   3.980   5.123
 6760TIP3    H220238   4.850   4.108   5.067
 6761TIP3   OH220239   0.783   4.701   3.755
 6761TIP3    H120240   0.721   4.654   3.699
 6761TIP3    H220241   0.769   4.665   3.842
 6762TIP3   OH220242   6.882   3.782   1.322
 6762TIP3    H120243   6.856   3.783   1.414
 6762TIP3    H220244   6.800   3.772   1.274
 6763TIP3   OH220245   1.248   3.719   2.492
 6763TIP3    H120246   1.194   3.725   2.414
 6763TIP3    H220247   1.278   3.628   2.494
 6764TIP3   OH220248   0.646   3.348   3.373
 6764TIP3    H120249   0.581   3.402   3.418
 6764TIP3    H220250   0.607   3.261   3.371
 6765TIP3   OH220251   1.827   4.570   6.599
 6765TIP3    H120252   1.841   4.548   6.508
 6765TIP3    H220253   1.909   4.547   6.643
 6766TIP3   OH220254   1.718   5.506   0.270
 6766TIP3    H120255   1.718   5.467   0.357
 6766TIP3    H220256   1.764   5.589   0.280
 6767TIP3   OH220257   7.779   7.740   4.122
 6767TIP3    H120258   7.689   7.720   4.096
 6767TIP3    H220259   7.772   7.766   4.214
 6768TIP3   OH220260   2.330   7.401   6.243
 6768TIP3    H120261   2.244   7.438   6.266
 6768TIP3    H220262   2.393   7.467   6.273
 6769TIP3   OH220263   2.153   7.063   2.070
 6769TIP3    H120264   2.125   7.025   1.986
 6769TIP3    H220265   2.177   7.153   2.048
 6770TIP3   OH220266   0.478   3.074   6.108
 6770TIP3    H120267   0.451   2.990   6.071
 6770TIP3    H220268   0.400   3.129   6.101
 6771TIP3   OH220269   1.883   6.910   0.061
 6771TIP3    H120270   1.881   6.883  -0.031
 6771TIP3    H220271   1.795   6.941   0.079
 6772TIP3   OH220272   1.974   7.215   3.073
 6772TIP3    H120273   2.063   7.231   3.043
 6772TIP3    H220274   1.964   7.119   3.071
 6773TIP3   OH220275   3.094   4.015   5.545
 6773TIP3    H120276   3.036   3.965   5.489
 6773TIP3    H220277   3.166   4.042   5.487
 6774TIP3   OH220278   2.504   0.460   5.040
 6774TIP3    H120279   2.424   0.497   5.078
 6774TIP3    H220280   2.568   0.532   5.044
 6775TIP3   OH220281   4.613   3.495   2.758
 6775TIP3    H120282   4.590   3.507   2.850
 6775TIP3    H220283   4.649   3.406   2.755
 6776TIP3   OH220284   5.381   0.750   0.307
 6776TIP3    H120285   5.329   0.671   0.299
 6776TIP3    H220286   5.400   0.756   0.401
 6777TIP3   OH220287   1.968   4.449   3.256
 6777TIP3    H120288   1.982   4.354   3.257
 6777TIP3    H220289   2.002   4.479   3.341
 6778TIP3   OH220290   4.271   0.105   3.449
 6778TIP3    H120291   4.215   0.161   3.503
 6778TIP3    H220292   4.348   0.088   3.504
 6779TIP3   OH220293   4.026   1.770   1.413
 6779TIP3    H120294   3.966   1.709   1.457
 6779TIP3    H220295   4.061   1.824   1.484
 6780TIP3   OH220296   1.704   4.007   2.905
 6780TIP3    H120297   1.698   3.914   2.886
 6780TIP3    H220298   1.617   4.031   2.937
 6781TIP3   OH220299   2.877   7.237   4.431
 6781TIP3    H120300   2.794   7.229   4.478
 6781TIP3    H220301   2.944   7.228   4.499
 6782TIP3   OH220302   0.061   2.448   5.031
 6782TIP3    H120303  -0.008   2.385   5.007
 6782TIP3    H220304   0.030   2.532   4.997
 6783TIP3   OH220305   8.234   4.601   5.605
 6783TIP3    H120306   8.171   4.536   5.574
 6783TIP3    H220307   8.191   4.685   5.591
 6784TIP3   OH220308   4.594   2.780   2.097
 6784TIP3    H120309   4.604   2.744   2.185
 6784TIP3    H220310   4.683   2.797   2.067
 6785TIP3   OH220311   2.280   3.303   0.512
 6785TIP3    H120312   2.222   3.334   0.444
 6785TIP3    H220313   2.362   3.351   0.499
 6786TIP3   OH220314   4.077   0.572   2.776
 6786TIP3    H120315   4.117   0.580   2.689
 6786TIP3    H220316   4.030   0.489   2.772
 6787TIP3   OH220317   0.259   0.904   0.868
 6787TIP3    H120318   0.303   0.862   0.942
 6787TIP3    H220319   0.206   0.835   0.829
 6788TIP3   OH220320   2.519   6.179   5.915
 6788TIP3    H120321   2.467   6.100   5.929
 6788TIP3    H220322   2.459   6.251   5.934
 6789TIP3   OH220323   0.332   6.887   3.559
 6789TIP3    H120324   0.334   6.977   3.525
 6789TIP3    H220325   0.358   6.895   3.651
 6790TIP3   OH220326   0.583   6.293   6.118
 6790TIP3    H120327   0.599   6.238   6.195
 6790TIP3    H220328   0.577   6.231   6.045
 6791TIP3   OH220329   8.253   3.482   4.710
 6791TIP3    H120330   8.180   3.436   4.669
 6791TIP3    H220331   8.287   3.538   4.641
 6792TIP3   OH220332   2.819   0.785   0.315
 6792TIP3    H120333   2.831   0.719   0.383
 6792TIP3    H220334   2.742   0.756   0.266
 6793TIP3   OH220335   0.456   1.862   4.816
 6793TIP3    H120336   0.478   1.776   4.779
 6793TIP3    H220337   0.365   1.876   4.790
 6794TIP3   OH220338   6.371   4.163   5.297
 6794TIP3    H120339   6.296   4.140   5.352
 6794TIP3    H220340   6.399   4.080   5.259
 6795TIP3   OH220341   0.771   4.296   0.275
 6795TIP3    H120342   0.783   4.294   0.180
 6795TIP3    H220343   0.774   4.389   0.298
 6796TIP3   OH220344   3.183   2.134   2.472
 6796TIP3    H120345   3.100   2.132   2.519
 6796TIP3    H220346   3.177   2.210   2.414
 6797TIP3   OH220347   2.530   0.356   4.496
 6797TIP3    H120348   2.556   0.409   4.420
 6797TIP3    H220349   2.609   0.352   4.551
 6798TIP3   OH220350   7.433   3.357   2.277
 6798TIP3    H120351   7.491   3.290   2.240
 6798TIP3    H220352   7.375   3.308   2.335
 6799TIP3   OH220353   7.586   5.328   0.436
 6799TIP3    H120354   7.591   5.240   0.472
 6799TIP3    H220355   7.536   5.378   0.500
 6800TIP3   OH220356   4.837   7.478   1.898
 6800TIP3    H120357   4.863   7.527   1.976
 6800TIP3    H220358   4.832   7.387   1.927
 6801TIP3   OH220359   6.684   6.303   0.159
 6801TIP3    H120360   6.733   6.283   0.238
 6801TIP3    H220361   6.610   6.243   0.161
 6802TIP3   OH220362   2.528   3.402   5.244
 6802TIP3    H120363   2.500   3.482   5.199
 6802TIP3    H220364   2.619   3.419   5.269
 6803TIP3   OH220365   7.815   4.296   4.648
 6803TIP3    H120366   7.802   4.348   4.727
 6803TIP3    H220367   7.734   4.307   4.599
 6804TIP3   OH220368   3.467   7.086   6.759
 6804TIP3    H120369   3.401   7.130   6.706
 6804TIP3    H220370   3.442   6.993   6.756
 6805TIP3   OH220371   7.666   7.807   3.640
 6805TIP3    H120372   7.677   7.758   3.559
 6805TIP3    H220373   7.668   7.740   3.709
 6806TIP3   OH220374   6.935   3.061   3.004
 6806TIP3    H120375   6.843   3.081   3.025
 6806TIP3    H220376   6.950   3.105   2.920
 6807TIP3   OH220377   1.345   6.845   3.252
 6807TIP3    H120378   1.331   6.902   3.327
 6807TIP3    H220379   1.322   6.898   3.176
 6808TIP3   OH220380   0.302   5.734   1.039
 6808TIP3    H120381   0.389   5.733   1.078
 6808TIP3    H220382   0.243   5.715   1.112
 6809TIP3   OH220383   3.177   0.387   3.007
 6809TIP3    H120384   3.211   0.298   3.014
 6809TIP3    H220385   3.095   0.377   2.959
 6810TIP3   OH220386   8.080   7.077   1.814
 6810TIP3    H120387   8.151   7.030   1.858
 6810TIP3    H220388   8.093   7.059   1.721
 6811TIP3   OH220389   6.918   4.716   5.046
 6811TIP3    H120390   6.988   4.759   4.997
 6811TIP3    H220391   6.837   4.758   5.015
 6812TIP3   OH220392   7.477   6.377   1.339
 6812TIP3    H120393   7.384   6.369   1.360
 6812TIP3    H220394   7.521   6.325   1.406
 6813TIP3   OH220395   1.307   7.015   6.140
 6813TIP3    H120396   1.292   6.968   6.058
 6813TIP3    H220397   1.375   7.079   6.118
 6814TIP3   OH220398   3.551   2.582   6.241
 6814TIP3    H120399   3.489   2.651   6.218
 6814TIP3    H220400   3.497   2.504   6.253
 6815TIP3   OH220401   4.708   6.532   2.933
 6815TIP3    H120402   4.709   6.618   2.976
 6815TIP3    H220403   4.674   6.472   3.000
 6816TIP3   OH220404   4.299   3.870   5.903
 6816TIP3    H120405   4.266   3.923   5.975
 6816TIP3    H220406   4.330   3.934   5.838
 6817TIP3   OH220407   1.742   2.405   0.117
 6817TIP3    H120408   1.769   2.464   0.046
 6817TIP3    H220409   1.697   2.333   0.072
 6818TIP3   OH220410   5.414   4.988   0.479
 6818TIP3    H120411   5.373   4.944   0.553
 6818TIP3    H220412   5.508   4.981   0.496
 6819TIP3   OH220413   0.602   6.685   2.964
 6819TIP3    H120414   0.647   6.759   2.923
 6819TIP3    H220415   0.511   6.694   2.935
 6820TIP3   OH220416   2.795   7.519   0.967
 6820TIP3    H120417   2.743   7.574   1.025
 6820TIP3    H220418   2.808   7.573   0.889
 6821TIP3   OH220419   0.052   2.637   1.178
 6821TIP3    H120420   0.032   2.544   1.187
 6821TIP3    H220421   0.098   2.643   1.094
 6822TIP3   OH220422   8.004   1.571   1.519
 6822TIP3    H120423   7.922   1.521   1.514
 6822TIP3    H220424   7.986   1.652   1.471
 6823TIP3   OH220425   0.683   3.551   0.093
 6823TIP3    H120426   0.686   3.526   0.001
 6823TIP3    H220427   0.761   3.605   0.106
 6824TIP3   OH220428   0.565   2.359   4.676
 6824TIP3    H120429   0.497   2.348   4.743
 6824TIP3    H220430   0.584   2.271   4.646
 6825TIP3   OH220431   6.601   7.147   5.028
 6825TIP3    H120432   6.553   7.207   5.086
 6825TIP3    H220433   6.653   7.203   4.972
 6826TIP3   OH220434   4.106   2.553   5.294
 6826TIP3    H120435   4.169   2.499   5.343
 6826TIP3    H220436   4.157   2.628   5.264
 6827TIP3   OH220437   6.128   4.306   2.103
 6827TIP3    H120438   6.200   4.243   2.094
 6827TIP3    H220439   6.158   4.367   2.171
 6828TIP3   OH220440   2.504   0.304   2.814
 6828TIP3    H120441   2.593   0.339   2.815
 6828TIP3    H220442   2.448   0.380   2.797
 6829TIP3   OH220443   3.231   2.317   2.840
 6829TIP3    H120444   3.311   2.319   2.893
 6829TIP3    H220445   3.234   2.234   2.794
 6830TIP3   OH220446   0.951   6.921   5.963
 6830TIP3    H120447   1.004   6.927   6.042
 6830TIP3    H220448   0.871   6.969   5.985
 6831TIP3   OH220449   4.155   3.200   2.579
 6831TIP3    H120450   4.105   3.126   2.545
 6831TIP3    H220451   4.193   3.168   2.661
 6832TIP3   OH220452   6.018   6.286   4.206
 6832TIP3    H120453   5.963   6.363   4.191
 6832TIP3    H220454   6.017   6.274   4.300
 6833TIP3   OH220455   2.250   1.813   1.830
 6833TIP3    H120456   2.248   1.779   1.920
 6833TIP3    H220457   2.238   1.735   1.775
 6834TIP3   OH220458   7.383   4.686   5.356
 6834TIP3    H120459   7.339   4.766   5.385
 6834TIP3    H220460   7.451   4.717   5.295
 6835TIP3   OH220461   3.921   5.900   0.762
 6835TIP3    H120462   3.948   5.809   0.774
 6835TIP3    H220463   3.985   5.951   0.812
 6836TIP3   OH220464   2.627   4.086   1.852
 6836TIP3    H120465   2.599   4.163   1.902
 6836TIP3    H220466   2.713   4.110   1.817
 6837TIP3   OH220467   5.267   1.420   1.709
 6837TIP3    H120468   5.360   1.418   1.730
 6837TIP3    H220469   5.252   1.509   1.677
 6838TIP3   OH220470   2.268   4.484   4.704
 6838TIP3    H120471   2.349   4.481   4.755
 6838TIP3    H220472   2.250   4.393   4.682
 6839TIP3   OH220473   6.983   1.944   0.798
 6839TIP3    H120474   6.916   1.887   0.760
 6839TIP3    H220475   6.955   2.033   0.775
 6840TIP3   OH220476   2.223   0.430   1.158
 6840TIP3    H120477   2.274   0.484   1.097
 6840TIP3    H220478   2.172   0.493   1.208
 6841TIP3   OH220479   1.404   7.318   2.260
 6841TIP3    H120480   1.425   7.239   2.209
 6841TIP3    H220481   1.460   7.311   2.337
 6842TIP3   OH220482   1.006   6.592   2.741
 6842TIP3    H120483   0.989   6.623   2.830
 6842TIP3    H220484   0.927   6.542   2.718
 6843TIP3   OH220485   2.946   7.070   6.197
 6843TIP3    H120486   2.862   7.095   6.234
 6843TIP3    H220487   2.946   6.974   6.199
 6844TIP3   OH220488   7.292   6.108   2.861
 6844TIP3    H120489   7.318   6.178   2.921
 6844TIP3    H220490   7.207   6.078   2.894
 6845TIP3   OH220491   4.931   0.986   0.207
 6845TIP3    H120492   4.952   1.064   0.155
 6845TIP3    H220493   4.835   0.986   0.211
 6846TIP3   OH220494   0.553   6.996   2.028
 6846TIP3    H120495   0.495   6.920   2.025
 6846TIP3    H220496   0.578   7.004   2.121
 6847TIP3   OH220497   7.619   3.144   0.300
 6847TIP3    H120498   7.702   3.167   0.257
 6847TIP3    H220499   7.562   3.115   0.229
 6848TIP3   OH220500   5.170   7.022   4.045
 6848TIP3    H120501   5.258   7.041   4.077
 6848TIP3    H220502   5.184   6.971   3.966
 6849TIP3   OH220503   0.701   2.811   4.164
 6849TIP3    H120504   0.744   2.742   4.114
 6849TIP3    H220505   0.695   2.885   4.104
 6850TIP3   OH220506   8.047   3.226   1.941
 6850TIP3    H120507   8.061   3.201   1.850
 6850TIP3    H220508   8.100   3.164   1.991
 6851TIP3   OH220509   5.646   3.663   3.292
 6851TIP3    H120510   5.670   3.643   3.202
 6851TIP3    H220511   5.697   3.601   3.344
 6852TIP3   OH220512   6.367   5.642   1.676
 6852TIP3    H120513   6.289   5.596   1.644
 6852TIP3    H220514   6.433   5.573   1.684
 6853TIP3   OH220515   3.846   4.057   4.304
 6853TIP3    H120516   3.840   4.021   4.215
 6853TIP3    H220517   3.793   4.136   4.301
 6854TIP3   OH220518   7.557   1.582   2.870
 6854TIP3    H120519   7.553   1.491   2.899
 6854TIP3    H220520   7.466   1.605   2.852
 6855TIP3   OH220521   4.109   1.055   3.718
 6855TIP3    H120522   4.178   1.025   3.658
 6855TIP3    H220523   4.137   1.143   3.744
 6856TIP3   OH220524   6.250   2.555   0.841
 6856TIP3    H120525   6.312   2.540   0.912
 6856TIP3    H220526   6.293   2.620   0.785
 6857TIP3   OH220527   5.459   6.878   5.459
 6857TIP3    H120528   5.427   6.813   5.521
 6857TIP3    H220529   5.473   6.956   5.513
 6858TIP3   OH220530   7.576   3.073   1.866
 6858TIP3    H120531   7.643   3.139   1.850
 6858TIP3    H220532   7.529   3.104   1.943
 6859TIP3   OH220533   6.505   5.850   5.930
 6859TIP3    H120534   6.426   5.796   5.930
 6859TIP3    H220535   6.548   5.831   6.013
 6860TIP3   OH220536   4.077   0.973   0.116
 6860TIP3    H120537   4.089   0.928   0.199
 6860TIP3    H220538   4.036   1.056   0.140
 6861TIP3   OH220539   5.300   0.550   5.192
 6861TIP3    H120540   5.348   0.600   5.125
 6861TIP3    H220541   5.369   0.506   5.242
 6862TIP3   OH220542   6.305   1.742   0.821
 6862TIP3    H120543   6.300   1.663   0.874
 6862TIP3    H220544   6.237   1.799   0.855
 6863TIP3   OH220545   7.287   5.525   1.528
 6863TIP3    H120546   7.249   5.594   1.473
 6863TIP3    H220547   7.377   5.553   1.543
 6864TIP3   OH220548   2.171   5.875   0.443
 6864TIP3    H120549   2.185   5.871   0.349
 6864TIP3    H220550   2.252   5.841   0.481
 6865TIP3   OH220551   4.744   7.789   0.843
 6865TIP3    H120552   4.686   7.842   0.789
 6865TIP3    H220553   4.686   7.741   0.901
 6866TIP3   OH220554  -0.048   7.041   1.606
 6866TIP3    H120555   0.041   7.007   1.596
 6866TIP3    H220556  -0.040   7.135   1.591
 6867TIP3   OH220557   5.603   2.342   0.395
 6867TIP3    H120558   5.571   2.362   0.308
 6867TIP3    H220559   5.586   2.249   0.407
 6868TIP3   OH220560   7.221   4.648   0.845
 6868TIP3    H120561   7.216   4.706   0.770
 6868TIP3    H220562   7.286   4.581   0.821
 6869TIP3   OH220563   3.424   0.342   3.631
 6869TIP3    H120564   3.341   0.300   3.610
 6869TIP3    H220565   3.489   0.296   3.579
 6870TIP3   OH220566   0.076   4.499   0.549
 6870TIP3    H120567   0.156   4.463   0.588
 6870TIP3    H220568   0.020   4.521   0.624
 6871TIP3   OH220569   0.937   6.590   6.702
 6871TIP3    H120570   0.944   6.643   6.782
 6871TIP3    H220571   0.925   6.653   6.632
 6872TIP3   OH220572   4.932   4.838   5.526
 6872TIP3    H120573   4.955   4.781   5.600
 6872TIP3    H220574   5.014   4.880   5.502
 6873TIP3   OH220575   2.013   7.150   4.509
 6873TIP3    H120576   1.972   7.156   4.596
 6873TIP3    H220577   1.944   7.113   4.453
 6874TIP3   OH220578   6.202   5.211   4.862
 6874TIP3    H120579   6.180   5.232   4.771
 6874TIP3    H220580   6.121   5.174   4.897
 6875TIP3   OH220581   3.360   1.056   5.532
 6875TIP3    H120582   3.339   1.061   5.439
 6875TIP3    H220583   3.341   0.965   5.556
 6876TIP3   OH220584   7.007   7.277   0.733
 6876TIP3    H120585   7.052   7.271   0.649
 6876TIP3    H220586   7.073   7.251   0.798
 6877TIP3   OH220587   1.183   5.438   3.933
 6877TIP3    H120588   1.166   5.404   4.021
 6877TIP3    H220589   1.101   5.425   3.886
 6878TIP3   OH220590   7.726   1.543   0.054
 6878TIP3    H120591   7.669   1.521  -0.019
 6878TIP3    H220592   7.718   1.469   0.114
 6879TIP3   OH220593   0.270   1.588   2.176
 6879TIP3    H120594   0.264   1.533   2.098
 6879TIP3    H220595   0.280   1.677   2.141
 6880TIP3   OH220596   7.333   3.536   6.622
 6880TIP3    H120597   7.255   3.516   6.571
 6880TIP3    H220598   7.301   3.553   6.711
 6881TIP3   OH220599   1.890   1.912   2.925
 6881TIP3    H120600   1.845   1.922   2.841
 6881TIP3    H220601   1.846   1.838   2.967
 6882TIP3   OH220602   4.393   4.550   2.639
 6882TIP3    H120603   4.359   4.496   2.710
 6882TIP3    H220604   4.466   4.598   2.679
 6883TIP3   OH220605   3.013   2.327  -0.001
 6883TIP3    H120606   2.980   2.271   0.069
 6883TIP3    H220607   3.108   2.321   0.007
 6884TIP3   OH220608   4.483   4.853   3.031
 6884TIP3    H120609   4.560   4.827   3.081
 6884TIP3    H220610   4.443   4.924   3.081
 6885TIP3   OH220611   4.126   6.986   1.835
 6885TIP3    H120612   4.093   6.896   1.839
 6885TIP3    H220613   4.075   7.027   1.765
 6886TIP3   OH220614   3.262   2.829   4.203
 6886TIP3    H120615   3.225   2.799   4.120
 6886TIP3    H220616   3.201   2.796   4.269
 6887TIP3   OH220617   4.204   7.328   5.233
 6887TIP3    H120618   4.263   7.280   5.175
 6887TIP3    H220619   4.118   7.318   5.192
 6888TIP3   OH220620   3.006   5.222   5.173
 6888TIP3    H120621   2.970   5.133   5.171
 6888TIP3    H220622   2.993   5.254   5.083
 6889TIP3   OH220623   7.490   3.814   4.577
 6889TIP3    H120624   7.570   3.867   4.571
 6889TIP3    H220625   7.503   3.761   4.655
 6890TIP3   OH220626   6.646   1.311   3.306
 6890TIP3    H120627   6.641   1.308   3.402
 6890TIP3    H220628   6.554   1.317   3.278
 6891TIP3   OH220629   0.615   6.394   1.938
 6891TIP3    H120630   0.636   6.340   1.862
 6891TIP3    H220631   0.542   6.449   1.909
 6892TIP3   OH220632   4.136   7.287   1.465
 6892TIP3    H120633   4.149   7.265   1.557
 6892TIP3    H220634   4.186   7.368   1.453
 6893TIP3   OH220635   0.369   7.331   3.079
 6893TIP3    H120636   0.352   7.394   3.149
 6893TIP3    H220637   0.361   7.245   3.121
 6894TIP3   OH220638   0.087   7.000   4.579
 6894TIP3    H120639   0.009   6.960   4.616
 6894TIP3    H220640   0.121   6.935   4.518
 6895TIP3   OH220641   0.322   4.695   3.712
 6895TIP3    H120642   0.263   4.687   3.786
 6895TIP3    H220643   0.366   4.779   3.725
 6896TIP3   OH220644   0.849   5.515   4.136
 6896TIP3    H120645   0.941   5.498   4.154
 6896TIP3    H220646   0.834   5.604   4.168
 6897TIP3   OH220647   6.905   3.353   5.589
 6897TIP3    H120648   6.987   3.310   5.615
 6897TIP3    H220649   6.877   3.401   5.667
 6898TIP3   OH220650   7.163   7.489   0.868
 6898TIP3    H120651   7.156   7.578   0.834
 6898TIP3    H220652   7.187   7.436   0.792
 6899TIP3   OH220653   6.916   0.769   6.645
 6899TIP3    H120654   6.932   0.848   6.593
 6899TIP3    H220655   6.896   0.801   6.733
 6900TIP3   OH220656   1.184   2.714   5.981
 6900TIP3    H120657   1.090   2.702   5.966
 6900TIP3    H220658   1.198   2.682   6.070
 6901TIP3   OH220659   8.251   5.270   5.594
 6901TIP3    H120660   8.311   5.213   5.547
 6901TIP3    H220661   8.206   5.319   5.525
 6902TIP3   OH220662   4.790   3.116   4.122
 6902TIP3    H120663   4.855   3.170   4.076
 6902TIP3    H220664   4.746   3.177   4.181
 6903TIP3   OH220665   1.934   0.483   3.616
 6903TIP3    H120666   1.879   0.500   3.692
 6903TIP3    H220667   1.873   0.468   3.544
 6904TIP3   OH220668   1.694   1.529   0.186
 6904TIP3    H120669   1.662   1.453   0.235
 6904TIP3    H220670   1.696   1.500   0.095
 6905TIP3   OH220671   7.716   7.508   5.693
 6905TIP3    H120672   7.764   7.487   5.773
 6905TIP3    H220673   7.782   7.549   5.636
 6906TIP3   OH220674   4.091  -0.002   5.480
 6906TIP3    H120675   4.112   0.090   5.497
 6906TIP3    H220676   3.996  -0.004   5.474
 6907TIP3   OH220677   1.636   1.403   0.579
 6907TIP3    H120678   1.644   1.308   0.580
 6907TIP3    H220679   1.563   1.420   0.519
 6908TIP3   OH220680   7.527   7.690   4.052
 6908TIP3    H120681   7.480   7.773   4.050
 6908TIP3    H220682   7.488   7.642   4.125
 6909TIP3   OH220683   0.304   3.115   0.476
 6909TIP3    H120684   0.302   3.149   0.386
 6909TIP3    H220685   0.356   3.180   0.524
 6910TIP3   OH220686   4.313   7.573   5.095
 6910TIP3    H120687   4.303   7.519   5.173
 6910TIP3    H220688   4.382   7.530   5.044
 6911TIP3   OH220689   0.414   4.626   2.450
 6911TIP3    H120690   0.341   4.572   2.481
 6911TIP3    H220691   0.487   4.565   2.441
 6912TIP3   OH220692   3.547   6.305   0.870
 6912TIP3    H120693   3.471   6.313   0.812
 6912TIP3    H220694   3.547   6.213   0.896
 6913TIP3   OH220695   2.594   4.614   6.743
 6913TIP3    H120696   2.533   4.591   6.813
 6913TIP3    H220697   2.566   4.559   6.669
 6914TIP3   OH220698   0.873   4.188   3.153
 6914TIP3    H120699   0.928   4.254   3.197
 6914TIP3    H220700   0.932   4.114   3.138
 6915TIP3   OH220701   7.251   0.781   0.523
 6915TIP3    H120702   7.291   0.713   0.578
 6915TIP3    H220703   7.292   0.862   0.551
 6916TIP3   OH220704   8.220   4.261   1.418
 6916TIP3    H120705   8.228   4.322   1.344
 6916TIP3    H220706   8.181   4.183   1.380
 6917TIP3   OH220707   6.820   5.423   3.267
 6917TIP3    H120708   6.894   5.380   3.224
 6917TIP3    H220709   6.761   5.445   3.195
 6918TIP3   OH220710   5.551   4.988   5.615
 6918TIP3    H120711   5.578   5.070   5.573
 6918TIP3    H220712   5.466   5.007   5.654
 6919TIP3   OH220713   8.293   3.189   5.268
 6919TIP3    H120714   8.249   3.148   5.193
 6919TIP3    H220715   8.378   3.145   5.273
 6920TIP3   OH220716   7.712   6.990   3.957
 6920TIP3    H120717   7.744   7.039   4.033
 6920TIP3    H220718   7.622   6.969   3.979
 6921TIP3   OH220719   1.957   7.408   6.468
 6921TIP3    H120720   1.883   7.434   6.522
 6921TIP3    H220721   2.030   7.399   6.530
 6922TIP3   OH220722   3.984   7.018   5.385
 6922TIP3    H120723   4.030   7.021   5.469
 6922TIP3    H220724   3.967   7.110   5.364
 6923TIP3   OH220725   7.372   2.975   3.305
 6923TIP3    H120726   7.452   3.027   3.312
 6923TIP3    H220727   7.368   2.950   3.213
 6924TIP3   OH220728   5.707   4.491   6.408
 6924TIP3    H120729   5.694   4.578   6.447
 6924TIP3    H220730   5.693   4.430   6.480
 6925TIP3   OH220731   0.861   6.817   4.821
 6925TIP3    H120732   0.780   6.765   4.813
 6925TIP3    H220733   0.836   6.892   4.874
 6926TIP3   OH220734   6.097   7.246   0.067
 6926TIP3    H120735   6.020   7.294   0.037
 6926TIP3    H220736   6.156   7.314   0.100
 6927TIP3   OH220737   2.472   7.101   0.347
 6927TIP3    H120738   2.396   7.050   0.373
 6927TIP3    H220739   2.436   7.177   0.301
 6928TIP3   OH220740   0.563   7.637   6.315
 6928TIP3    H120741   0.641   7.690   6.329
 6928TIP3    H220742   0.561   7.623   6.220
 6929TIP3   OH220743   0.177   4.269   1.498
 6929TIP3    H120744   0.083   4.268   1.481
 6929TIP3    H220745   0.215   4.310   1.420
 6930TIP3   OH220746   7.286   7.403   6.444
 6930TIP3    H120747   7.249   7.320   6.474
 6930TIP3    H220748   7.265   7.465   6.514
 6931TIP3   OH220749   8.141   7.801   3.845
 6931TIP3    H120750   8.142   7.836   3.755
 6931TIP3    H220751   8.061   7.749   3.849
 6932TIP3   OH220752   6.166   0.998   5.816
 6932TIP3    H120753   6.253   1.022   5.850
 6932TIP3    H220754   6.180   0.916   5.770
 6933TIP3   OH220755   7.118   0.552   3.589
 6933TIP3    H120756   7.119   0.546   3.685
 6933TIP3    H220757   7.028   0.528   3.565
 6934TIP3   OH220758   7.948   0.014   6.415
 6934TIP3    H120759   8.019   0.070   6.385
 6934TIP3    H220760   7.969  -0.005   6.507
 6935TIP3   OH220761   4.917   5.716   3.221
 6935TIP3    H120762   4.853   5.782   3.195
 6935TIP3    H220763   4.866   5.635   3.230
 6936TIP3   OH220764   5.227   6.605   2.200
 6936TIP3    H120765   5.314   6.644   2.208
 6936TIP3    H220766   5.166   6.677   2.216
 6937TIP3   OH220767   4.763   7.489   5.790
 6937TIP3    H120768   4.755   7.552   5.861
 6937TIP3    H220769   4.774   7.543   5.711
 6938TIP3   OH220770   4.601   0.367   1.417
 6938TIP3    H120771   4.680   0.419   1.404
 6938TIP3    H220772   4.633   0.284   1.452
 6939TIP3   OH220773   6.603   3.072   1.465
 6939TIP3    H120774   6.682   3.064   1.518
 6939TIP3    H220775   6.549   3.136   1.511
 6940TIP3   OH220776   2.134   6.120   0.183
 6940TIP3    H120777   2.130   6.093   0.091
 6940TIP3    H220778   2.220   6.089   0.213
 6941TIP3   OH220779   6.275   2.788   3.613
 6941TIP3    H120780   6.305   2.756   3.527
 6941TIP3    H220781   6.185   2.817   3.597
 6942TIP3   OH220782   4.589   3.260   2.337
 6942TIP3    H120783   4.535   3.298   2.406
 6942TIP3    H220784   4.543   3.180   2.310
 6943TIP3   OH220785   1.531   7.419   6.054
 6943TIP3    H120786   1.497   7.422   6.144
 6943TIP3    H220787   1.467   7.469   6.003
 6944TIP3   OH220788   4.739   7.647   1.381
 6944TIP3    H120789   4.735   7.735   1.419
 6944TIP3    H220790   4.808   7.652   1.315
 6945TIP3   OH220791   4.226   1.230   1.594
 6945TIP3    H120792   4.239   1.301   1.531
 6945TIP3    H220793   4.314   1.202   1.617
 6946TIP3   OH220794   0.945   3.816   0.974
 6946TIP3    H120795   0.939   3.886   1.040
 6946TIP3    H220796   0.855   3.802   0.945
 6947TIP3   OH220797   7.587   7.171   2.649
 6947TIP3    H120798   7.570   7.210   2.734
 6947TIP3    H220799   7.550   7.233   2.586
 6948TIP3   OH220800   1.348   0.369   0.859
 6948TIP3    H120801   1.269   0.328   0.895
 6948TIP3    H220802   1.326   0.462   0.853
 6949TIP3   OH220803   2.936   0.207   5.137
 6949TIP3    H120804   2.944   0.263   5.060
 6949TIP3    H220805   2.853   0.233   5.177
 6950TIP3   OH220806   3.358   4.712   0.128
 6950TIP3    H120807   3.415   4.784   0.102
 6950TIP3    H220808   3.405   4.668   0.199
 6951TIP3   OH220809   1.664   7.318   1.465
 6951TIP3    H120810   1.660   7.245   1.404
 6951TIP3    H220811   1.615   7.388   1.422
 6952TIP3   OH220812   5.614   0.778   1.857
 6952TIP3    H120813   5.615   0.770   1.762
 6952TIP3    H220814   5.534   0.732   1.884
 6953TIP3   OH220815   4.020   7.816   0.708
 6953TIP3    H120816   4.058   7.874   0.642
 6953TIP3    H220817   3.925   7.827   0.698
 6954TIP3   OH220818   7.791   2.616   3.018
 6954TIP3    H120819   7.785   2.623   3.113
 6954TIP3    H220820   7.884   2.597   3.001
 6955TIP3   OH220821   6.381   4.997   0.184
 6955TIP3    H120822   6.459   4.957   0.146
 6955TIP3    H220823   6.308   4.954   0.140
 6956TIP3   OH220824   4.808   2.855   5.296
 6956TIP3    H120825   4.872   2.812   5.352
 6956TIP3    H220826   4.785   2.789   5.230
 6957TIP3   OH220827   2.089   1.237   2.839
 6957TIP3    H120828   2.038   1.318   2.849
 6957TIP3    H220829   2.025   1.171   2.813
 6958TIP3   OH220830   0.043   0.295   1.250
 6958TIP3    H120831   0.114   0.286   1.314
 6958TIP3    H220832   0.046   0.387   1.225
 6959TIP3   OH220833   3.563   6.594   3.414
 6959TIP3    H120834   3.633   6.654   3.387
 6959TIP3    H220835   3.610   6.523   3.459
 6960TIP3   OH220836   0.200   1.491   2.430
 6960TIP3    H120837   0.129   1.427   2.429
 6960TIP3    H220838   0.216   1.512   2.338
 6961TIP3   OH220839   6.440   2.058   0.187
 6961TIP3    H120840   6.406   2.064   0.276
 6961TIP3    H220841   6.367   2.083   0.131
 6962TIP3   OH220842   5.526   1.324   3.099
 6962TIP3    H120843   5.615   1.360   3.099
 6962TIP3    H220844   5.520   1.276   3.016
 6963TIP3   OH220845   7.623   3.428   4.196
 6963TIP3    H120846   7.690   3.417   4.128
 6963TIP3    H220847   7.540   3.407   4.152
 6964TIP3   OH220848   6.142   4.871   5.453
 6964TIP3    H120849   6.214   4.900   5.397
 6964TIP3    H220850   6.128   4.779   5.430
 6965TIP3   OH220851   7.647   6.109   0.142
 6965TIP3    H120852   7.698   6.035   0.108
 6965TIP3    H220853   7.617   6.080   0.228
 6966TIP3   OH220854   2.275   0.247   4.592
 6966TIP3    H120855   2.359   0.273   4.553
 6966TIP3    H220856   2.232   0.195   4.524
 6967TIP3   OH220857   7.876   4.283   0.529
 6967TIP3    H120858   7.797   4.280   0.474
 6967TIP3    H220859   7.913   4.370   0.512
 6968TIP3   OH220860   4.518   5.407   2.781
 6968TIP3    H120861   4.431   5.447   2.773
 6968TIP3    H220862   4.559   5.454   2.855
 6969TIP3   OH220863   7.681   4.657   6.081
 6969TIP3    H120864   7.757   4.605   6.107
 6969TIP3    H220865   7.673   4.643   5.987
 6970TIP3   OH220866   2.059   7.070   5.097
 6970TIP3    H120867   2.072   7.160   5.066
 6970TIP3    H220868   2.140   7.048   5.142
 6971TIP3   OH220869   5.617   4.595   0.717
 6971TIP3    H120870   5.614   4.653   0.641
 6971TIP3    H220871   5.537   4.614   0.765
 6972TIP3   OH220872   7.610   3.207   1.061
 6972TIP3    H120873   7.528   3.248   1.089
 6972TIP3    H220874   7.631   3.249   0.978
 6973TIP3   OH220875   2.565   1.067   5.703
 6973TIP3    H120876   2.559   0.986   5.754
 6973TIP3    H220877   2.478   1.107   5.711
 6974TIP3   OH220878   6.934   5.358   3.539
 6974TIP3    H120879   6.982   5.374   3.458
 6974TIP3    H220880   6.897   5.270   3.529
 6975TIP3   OH220881   6.277   7.086   3.112
 6975TIP3    H120882   6.274   7.007   3.166
 6975TIP3    H220883   6.207   7.142   3.146
 6976TIP3   OH220884   3.128   0.328   1.210
 6976TIP3    H120885   3.072   0.387   1.160
 6976TIP3    H220886   3.217   0.349   1.182
 6977TIP3   OH220887   2.480   7.045   1.901
 6977TIP3    H120888   2.402   7.076   1.854
 6977TIP3    H220889   2.533   7.002   1.834
 6978TIP3   OH220890   3.943   1.418   1.280
 6978TIP3    H120891   4.014   1.446   1.338
 6978TIP3    H220892   3.915   1.334   1.315
 6979TIP3   OH220893   2.005   4.190   2.409
 6979TIP3    H120894   1.918   4.163   2.379
 6979TIP3    H220895   2.011   4.156   2.498
 6980TIP3   OH220896   2.597   0.313   3.195
 6980TIP3    H120897   2.517   0.269   3.167
 6980TIP3    H220898   2.605   0.388   3.135
 6981TIP3   OH220899   0.422   0.815   2.124
 6981TIP3    H120900   0.475   0.755   2.071
 6981TIP3    H220901   0.485   0.874   2.164
 6982TIP3   OH220902   4.370   2.567   3.738
 6982TIP3    H120903   4.375   2.657   3.706
 6982TIP3    H220904   4.402   2.514   3.664
 6983TIP3   OH220905   0.577   5.571   2.542
 6983TIP3    H120906   0.594   5.664   2.531
 6983TIP3    H220907   0.618   5.549   2.626
 6984TIP3   OH220908   0.164   6.786   4.403
 6984TIP3    H120909   0.211   6.729   4.343
 6984TIP3    H220910   0.072   6.764   4.389
 6985TIP3   OH220911   0.792   0.274   5.384
 6985TIP3    H120912   0.872   0.221   5.387
 6985TIP3    H220913   0.822   0.364   5.383
 6986TIP3   OH220914   3.741   3.587   0.673
 6986TIP3    H120915   3.791   3.537   0.738
 6986TIP3    H220916   3.666   3.621   0.722
 6987TIP3   OH220917   2.907   1.001   2.829
 6987TIP3    H120918   2.907   1.065   2.901
 6987TIP3    H220919   2.913   0.916   2.873
 6988TIP3   OH220920   1.575   5.270   6.799
 6988TIP3    H120921   1.574   5.295   6.707
 6988TIP3    H220922   1.650   5.212   6.807
 6989TIP3   OH220923   7.729   3.559   4.390
 6989TIP3    H120924   7.678   3.496   4.340
 6989TIP3    H220925   7.710   3.643   4.350
 6990TIP3   OH220926   5.105   5.345   3.253
 6990TIP3    H120927   5.100   5.387   3.339
 6990TIP3    H220928   5.198   5.331   3.238
 6991TIP3   OH220929   5.682   3.362   6.225
 6991TIP3    H120930   5.649   3.416   6.296
 6991TIP3    H220931   5.768   3.332   6.256
 6992TIP3   OH220932   5.828   7.271   5.697
 6992TIP3    H120933   5.890   7.335   5.733
 6992TIP3    H220934   5.772   7.249   5.771
 6993TIP3   OH220935   4.945   5.061   1.749
 6993TIP3    H120936   4.992   5.039   1.829
 6993TIP3    H220937   5.014   5.090   1.689
 6994TIP3   OH220938   4.329   1.971   0.349
 6994TIP3    H120939   4.274   2.009   0.280
 6994TIP3    H220940   4.267   1.929   0.408
 6995TIP3   OH220941   6.219   1.651   0.592
 6995TIP3    H120942   6.129   1.638   0.622
 6995TIP3    H220943   6.265   1.687   0.667
 6996TIP3   OH220944   1.855   0.836   5.988
 6996TIP3    H120945   1.816   0.838   5.900
 6996TIP3    H220946   1.949   0.833   5.972
 6997TIP3   OH220947   0.363   2.937   2.151
 6997TIP3    H120948   0.433   2.934   2.086
 6997TIP3    H220949   0.287   2.900   2.107
 6998TIP3   OH220950   1.538   2.238   5.442
 6998TIP3    H120951   1.506   2.300   5.377
 6998TIP3    H220952   1.626   2.269   5.464
 6999TIP3   OH220953   7.036   4.188   1.646
 6999TIP3    H120954   7.073   4.111   1.603
 6999TIP3    H220955   6.986   4.232   1.577
 7000TIP3   OH220956   5.739   0.817   0.361
 7000TIP3    H120957   5.696   0.901   0.373
 7000TIP3    H220958   5.787   0.826   0.279
 7001TIP3   OH220959   0.435   5.306   5.051
 7001TIP3    H120960   0.424   5.211   5.057
 7001TIP3    H220961   0.422   5.337   5.141
 7002TIP3   OH220962   7.527   5.901   5.878
 7002TIP3    H120963   7.518   5.947   5.961
 7002TIP3    H220964   7.611   5.930   5.843
 7003TIP3   OH220965   0.801   6.281   4.860
 7003TIP3    H120966   0.758   6.343   4.919
 7003TIP3    H220967   0.893   6.283   4.886
 7004TIP3   OH220968   1.281   6.393   2.461
 7004TIP3    H120969   1.371   6.372   2.436
 7004TIP3    H220970   1.291   6.454   2.534
 7005TIP3   OH220971   4.904   0.536   2.984
 7005TIP3    H120972   4.940   0.568   2.901
 7005TIP3    H220973   4.980   0.505   3.033
 7006TIP3   OH220974   4.955   0.774   5.526
 7006TIP3    H120975   5.027   0.712   5.515
 7006TIP3    H220976   4.891   0.726   5.579
 7007TIP3   OH220977   3.133   3.064   3.957
 7007TIP3    H120978   3.065   3.129   3.939
 7007TIP3    H220979   3.105   3.021   4.038
 7008TIP3   OH220980   1.360   2.229   1.641
 7008TIP3    H120981   1.420   2.283   1.693
 7008TIP3    H220982   1.332   2.160   1.700
 7009TIP3   OH220983   6.542   7.440   0.125
 7009TIP3    H120984   6.616   7.464   0.181
 7009TIP3    H220985   6.528   7.347   0.143
 7010TIP3   OH220986   7.360   6.689   3.133
 7010TIP3    H120987   7.313   6.763   3.094
 7010TIP3    H220988   7.291   6.638   3.176
 7011TIP3   OH220989   0.974   1.060   2.588
 7011TIP3    H120990   0.892   1.102   2.561
 7011TIP3    H220991   1.021   1.129   2.634
 7012TIP3   OH220992   0.552   0.136   2.879
 7012TIP3    H120993   0.462   0.116   2.905
 7012TIP3    H220994   0.544   0.217   2.828
 7013TIP3   OH220995   4.566   6.527   1.674
 7013TIP3    H120996   4.624   6.567   1.739
 7013TIP3    H220997   4.623   6.507   1.600
 7014TIP3   OH220998   2.202   0.945   3.989
 7014TIP3    H120999   2.154   1.025   4.012
 7014TIP3    H221000   2.281   0.948   4.044
 7015TIP3   OH221001   2.925   0.573   2.517
 7015TIP3    H121002   2.872   0.640   2.474
 7015TIP3    H221003   3.008   0.574   2.469
 7016TIP3   OH221004   4.150   7.502   1.728
 7016TIP3    H121005   4.221   7.506   1.665
 7016TIP3    H221006   4.093   7.576   1.705
 7017TIP3   OH221007   4.830   4.693   5.205
 7017TIP3    H121008   4.795   4.736   5.283
 7017TIP3    H221009   4.925   4.694   5.217
 7018TIP3   OH221010   5.932   5.434   2.427
 7018TIP3    H121011   5.907   5.523   2.403
 7018TIP3    H221012   5.997   5.445   2.496
 7019TIP3   OH221013   1.143   5.137   4.764
 7019TIP3    H121014   1.211   5.200   4.739
 7019TIP3    H221015   1.190   5.054   4.774
 7020TIP3   OH221016   0.499   1.578   3.139
 7020TIP3    H121017   0.506   1.595   3.045
 7020TIP3    H221018   0.500   1.482   3.146
 7021TIP3   OH221019   5.075   4.192   0.061
 7021TIP3    H121020   5.046   4.260   0.000
 7021TIP3    H221021   5.020   4.117   0.042
 7022TIP3   OH221022   5.305   7.258   0.413
 7022TIP3    H121023   5.355   7.177   0.405
 7022TIP3    H221024   5.290   7.287   0.323
 7023TIP3   OH221025   4.145   4.563   0.035
 7023TIP3    H121026   4.207   4.626  -0.002
 7023TIP3    H221027   4.181   4.542   0.122
 7024TIP3   OH221028   3.263   2.207   0.108
 7024TIP3    H121029   3.239   2.178   0.196
 7024TIP3    H221030   3.251   2.129   0.054
 7025TIP3   OH221031   7.715   2.151   2.779
 7025TIP3    H121032   7.712   2.058   2.804
 7025TIP3    H221033   7.799   2.181   2.811
 7026TIP3   OH221034   6.036   2.655   0.999
 7026TIP3    H121035   6.072   2.737   1.032
 7026TIP3    H221036   6.101   2.624   0.935
 7027TIP3   OH221037   3.241   6.596   0.286
 7027TIP3    H121038   3.298   6.523   0.264
 7027TIP3    H221039   3.154   6.569   0.258
 7028TIP3   OH221040   3.191   6.412   2.462
 7028TIP3    H121041   3.130   6.411   2.535
 7028TIP3    H221042   3.191   6.503   2.432
 7029TIP3   OH221043   0.352   3.884   0.894
 7029TIP3    H121044   0.300   3.929   0.960
 7029TIP3    H221045   0.369   3.798   0.932
 7030TIP3   OH221046   1.641   1.695   5.652
 7030TIP3    H121047   1.730   1.713   5.683
 7030TIP3    H221048   1.646   1.705   5.557
 7031TIP3   OH221049   0.287   2.274   6.513
 7031TIP3    H121050   0.289   2.247   6.421
 7031TIP3    H221051   0.212   2.334   6.518
 7032TIP3   OH221052   2.560   5.315   2.328
 7032TIP3    H121053   2.652   5.341   2.321
 7032TIP3    H221054   2.517   5.359   2.255
 7033TIP3   OH221055   5.833   3.051   2.606
 7033TIP3    H121056   5.888   2.999   2.547
 7033TIP3    H221057   5.885   3.059   2.686
 7034TIP3   OH221058   7.093   6.342   2.516
 7034TIP3    H121059   7.123   6.395   2.443
 7034TIP3    H221060   7.154   6.268   2.518
 7035TIP3   OH221061   6.849   6.184   0.413
 7035TIP3    H121062   6.909   6.196   0.486
 7035TIP3    H221063   6.776   6.134   0.450
 7036TIP3   OH221064   1.627   1.791   2.560
 7036TIP3    H121065   1.693   1.842   2.608
 7036TIP3    H221066   1.544   1.815   2.601
 7037TIP3   OH221067   6.515   1.496   5.209
 7037TIP3    H121068   6.444   1.460   5.155
 7037TIP3    H221069   6.585   1.432   5.201
 7038TIP3   OH221070   6.798   0.028   1.942
 7038TIP3    H121071   6.867   0.073   1.991
 7038TIP3    H221072   6.718   0.077   1.962
 7039TIP3   OH221073   0.562   2.959   5.010
 7039TIP3    H121074   0.514   3.037   5.038
 7039TIP3    H221075   0.565   2.904   5.088
 7040TIP3   OH221076   7.005   0.828   2.909
 7040TIP3    H121077   7.019   0.885   2.833
 7040TIP3    H221078   6.965   0.749   2.873
 7041TIP3   OH221079   0.331   6.685   4.217
 7041TIP3    H121080   0.410   6.633   4.227
 7041TIP3    H221081   0.323   6.699   4.122
 7042TIP3   OH221082   0.193   3.085   2.739
 7042TIP3    H121083   0.277   3.130   2.729
 7042TIP3    H221084   0.209   2.997   2.704
 7043TIP3   OH221085   6.803   0.219   0.024
 7043TIP3    H121086   6.889   0.179   0.012
 7043TIP3    H221087   6.763   0.170   0.096
 7044TIP3   OH221088   4.141   7.669   3.039
 7044TIP3    H121089   4.235   7.675   3.057
 7044TIP3    H221090   4.100   7.726   3.105
 7045TIP3   OH221091   6.264   0.892   3.154
 7045TIP3    H121092   6.213   0.957   3.202
 7045TIP3    H221093   6.307   0.840   3.222
 7046TIP3   OH221094   2.659   6.710   2.483
 7046TIP3    H121095   2.592   6.679   2.422
 7046TIP3    H221096   2.738   6.661   2.458
 7047TIP3   OH221097   2.982   5.914   2.889
 7047TIP3    H121098   2.944   5.826   2.886
 7047TIP3    H221099   2.996   5.931   2.982
 7048TIP3   OH221100   2.576   1.544   5.455
 7048TIP3    H121101   2.581   1.639   5.458
 7048TIP3    H221102   2.579   1.522   5.362
 7049TIP3   OH221103   6.547   6.784   6.525
 7049TIP3    H121104   6.516   6.801   6.436
 7049TIP3    H221105   6.583   6.867   6.555
 7050TIP3   OH221106   5.547   1.028   1.155
 7050TIP3    H121107   5.543   0.942   1.197
 7050TIP3    H221108   5.559   1.009   1.062
 7051TIP3   OH221109   5.745   6.888   3.374
 7051TIP3    H121110   5.816   6.914   3.432
 7051TIP3    H221111   5.681   6.846   3.432
 7052TIP3   OH221112   4.230   1.374   4.705
 7052TIP3    H121113   4.199   1.464   4.708
 7052TIP3    H221114   4.214   1.346   4.615
 7053TIP3   OH221115   5.273   4.127   6.450
 7053TIP3    H121116   5.285   4.042   6.410
 7053TIP3    H221117   5.221   4.109   6.529
 7054TIP3   OH221118   6.048   5.271   0.951
 7054TIP3    H121119   6.050   5.262   0.856
 7054TIP3    H221120   5.995   5.350   0.966
 7055TIP3   OH221121   1.177   4.714   0.804
 7055TIP3    H121122   1.159   4.647   0.738
 7055TIP3    H221123   1.261   4.753   0.776
 7056TIP3   OH221124   4.751   1.654   2.017
 7056TIP3    H121125   4.835   1.697   2.035
 7056TIP3    H221126   4.774   1.564   1.994
 7057TIP3   OH221127   3.878   2.852   0.526
 7057TIP3    H121128   3.913   2.772   0.488
 7057TIP3    H221129   3.896   2.920   0.461
 7058TIP3   OH221130   7.519   2.256   6.597
 7058TIP3    H121131   7.593   2.317   6.593
 7058TIP3    H221132   7.479   2.263   6.510
 7059TIP3   OH221133   7.084   2.574   6.400
 7059TIP3    H121134   7.113   2.634   6.468
 7059TIP3    H221135   7.013   2.524   6.441
 7060TIP3   OH221136   3.383   5.395   2.900
 7060TIP3    H121137   3.421   5.447   2.972
 7060TIP3    H221138   3.320   5.337   2.944
 7061TIP3   OH221139   6.449   0.109   4.718
 7061TIP3    H121140   6.419   0.152   4.798
 7061TIP3    H221141   6.373   0.111   4.660
 7062TIP3   OH221142   3.057   6.927   3.534
 7062TIP3    H121143   3.095   6.916   3.622
 7062TIP3    H221144   2.963   6.922   3.548
 7063TIP3   OH221145   1.323   6.255   4.584
 7063TIP3    H121146   1.395   6.265   4.522
 7063TIP3    H221147   1.317   6.341   4.627
 7064TIP3   OH221148   6.432   3.379   3.534
 7064TIP3    H121149   6.413   3.286   3.521
 7064TIP3    H221150   6.442   3.415   3.446
 7065TIP3   OH221151   1.626   6.518   0.048
 7065TIP3    H121152   1.594   6.593   0.098
 7065TIP3    H221153   1.681   6.469   0.109
 7066TIP3   OH221154   2.071   3.053   3.896
 7066TIP3    H121155   2.142   3.073   3.958
 7066TIP3    H221156   2.059   2.958   3.904
 7067TIP3   OH221157   2.394   1.012   4.866
 7067TIP3    H121158   2.336   0.978   4.797
 7067TIP3    H221159   2.482   0.994   4.834
 7068TIP3   OH221160   6.322   1.229   4.784
 7068TIP3    H121161   6.367   1.303   4.826
 7068TIP3    H221162   6.237   1.265   4.758
 7069TIP3   OH221163   4.747   5.112   3.619
 7069TIP3    H121164   4.681   5.147   3.559
 7069TIP3    H221165   4.710   5.028   3.649
 7070TIP3   OH221166   7.928   1.792   1.187
 7070TIP3    H121167   7.875   1.734   1.242
 7070TIP3    H221168   7.864   1.849   1.145
 7071TIP3   OH221169   7.848   3.832   0.785
 7071TIP3    H121170   7.850   3.737   0.774
 7071TIP3    H221171   7.922   3.851   0.843
 7072TIP3   OH221172   5.392   7.516   0.419
 7072TIP3    H121173   5.340   7.436   0.403
 7072TIP3    H221174   5.444   7.495   0.496
 7073TIP3   OH221175   2.522   0.738   4.986
 7073TIP3    H121176   2.434   0.743   4.948
 7073TIP3    H221177   2.577   0.784   4.923
 7074TIP3   OH221178   4.712   6.555   4.620
 7074TIP3    H121179   4.678   6.467   4.637
 7074TIP3    H221180   4.756   6.548   4.536
 7075TIP3   OH221181   7.143   0.635   3.052
 7075TIP3    H121182   7.196   0.668   3.124
 7075TIP3    H221183   7.110   0.713   3.008
 7076TIP3   OH221184   1.768   1.548   4.499
 7076TIP3    H121185   1.809   1.555   4.586
 7076TIP3    H221186   1.841   1.530   4.440
 7077TIP3   OH221187   5.556   6.249   6.000
 7077TIP3    H121188   5.586   6.214   6.084
 7077TIP3    H221189   5.552   6.344   6.014
 7078TIP3   OH221190   2.706   0.926   5.907
 7078TIP3    H121191   2.688   0.867   5.980
 7078TIP3    H221192   2.652   1.003   5.925
 7079TIP3   OH221193   0.398   0.599   3.882
 7079TIP3    H121194   0.458   0.529   3.908
 7079TIP3    H221195   0.455   0.668   3.849
 7080TIP3   OH221196   0.189   3.140   1.212
 7080TIP3    H121197   0.190   3.045   1.222
 7080TIP3    H221198   0.166   3.155   1.121
 7081TIP3   OH221199   7.204   1.238   0.787
 7081TIP3    H121200   7.166   1.162   0.832
 7081TIP3    H221201   7.298   1.227   0.795
 7082TIP3   OH221202   2.263   6.947   0.417
 7082TIP3    H121203   2.199   7.006   0.376
 7082TIP3    H221204   2.283   6.882   0.350
 7083TIP3   OH221205   6.970   2.334   2.262
 7083TIP3    H121206   6.978   2.396   2.189
 7083TIP3    H221207   7.023   2.260   2.235
 7084TIP3   OH221208   7.970   6.151   2.772
 7084TIP3    H121209   7.974   6.204   2.693
 7084TIP3    H221210   7.903   6.085   2.754
 7085TIP3   OH221211   7.962   3.400   2.564
 7085TIP3    H121212   7.962   3.333   2.496
 7085TIP3    H221213   8.034   3.458   2.541
 7086TIP3   OH221214   4.141   6.876   2.625
 7086TIP3    H121215   4.167   6.848   2.537
 7086TIP3    H221216   4.061   6.927   2.611
 7087TIP3   OH221217   2.221   2.369   1.845
 7087TIP3    H121218   2.268   2.368   1.929
 7087TIP3    H221219   2.189   2.280   1.835
 7088TIP3   OH221220   7.125   5.399   5.969
 7088TIP3    H121221   7.131   5.447   6.052
 7088TIP3    H221222   7.154   5.310   5.991
 7089TIP3   OH221223   0.723   5.883   5.870
 7089TIP3    H121224   0.686   5.810   5.920
 7089TIP3    H221225   0.694   5.961   5.916
 7090TIP3   OH221226   3.190   1.844   3.086
 7090TIP3    H121227   3.100   1.870   3.068
 7090TIP3    H221228   3.216   1.899   3.161
 7091TIP3   OH221229   1.445   4.042   6.124
 7091TIP3    H121230   1.385   4.107   6.088
 7091TIP3    H221231   1.411   3.958   6.092
 7092TIP3   OH221232   7.540   4.428   6.641
 7092TIP3    H121233   7.554   4.509   6.592
 7092TIP3    H221234   7.587   4.361   6.591
 7093TIP3   OH221235   2.770   4.362   3.185
 7093TIP3    H121236   2.687   4.385   3.144
 7093TIP3    H221237   2.745   4.316   3.265
 7094TIP3   OH221238   4.307   4.322   4.637
 7094TIP3    H121239   4.283   4.395   4.579
 7094TIP3    H221240   4.264   4.342   4.720
 7095TIP3   OH221241   1.692   0.871   0.705
 7095TIP3    H121242   1.605   0.905   0.723
 7095TIP3    H221243   1.687   0.778   0.725
 7096TIP3   OH221244   6.052   6.332   5.859
 7096TIP3    H121245   5.962   6.358   5.837
 7096TIP3    H221246   6.107   6.387   5.803
 7097TIP3   OH221247   5.583   4.336   6.595
 7097TIP3    H121248   5.592   4.396   6.669
 7097TIP3    H221249   5.555   4.253   6.635
 7098TIP3   OH221250   0.743   2.377   1.931
 7098TIP3    H121251   0.820   2.385   1.874
 7098TIP3    H221252   0.717   2.467   1.948
 7099TIP3   OH221253   2.344   2.246   2.774
 7099TIP3    H121254   2.274   2.205   2.825
 7099TIP3    H221255   2.419   2.188   2.785
 7100TIP3   OH221256   3.966   0.279   2.519
 7100TIP3    H121257   3.916   0.306   2.596
 7100TIP3    H221258   3.941   0.188   2.505
 7101TIP3   OH221259   6.260   5.824   4.240
 7101TIP3    H121260   6.249   5.919   4.234
 7101TIP3    H221261   6.187   5.795   4.295
 7102TIP3   OH221262   1.809   3.193   2.143
 7102TIP3    H121263   1.844   3.121   2.091
 7102TIP3    H221264   1.828   3.169   2.234
 7103TIP3   OH221265   6.556   3.531   2.957
 7103TIP3    H121266   6.529   3.623   2.951
 7103TIP3    H221267   6.622   3.530   3.027
 7104TIP3   OH221268   4.213   1.039   5.137
 7104TIP3    H121269   4.165   1.072   5.213
 7104TIP3    H221270   4.304   1.034   5.167
 7105TIP3   OH221271   2.117   6.775   0.971
 7105TIP3    H121272   2.033   6.796   1.011
 7105TIP3    H221273   2.102   6.784   0.877
 7106TIP3   OH221274   3.259   7.617   2.564
 7106TIP3    H121275   3.194   7.547   2.567
 7106TIP3    H221276   3.329   7.583   2.509
 7107TIP3   OH221277   5.397   4.022   0.368
 7107TIP3    H121278   5.409   4.094   0.306
 7107TIP3    H221279   5.413   4.061   0.454
 7108TIP3   OH221280   4.130   2.042   3.199
 7108TIP3    H121281   4.095   2.131   3.204
 7108TIP3    H221282   4.140   2.016   3.291
 7109TIP3   OH221283   6.126   4.049   5.037
 7109TIP3    H121284   6.040   4.038   4.996
 7109TIP3    H221285   6.162   4.127   4.994
 7110TIP3   OH221286   2.156   0.749   3.813
 7110TIP3    H121287   2.100   0.694   3.869
 7110TIP3    H221288   2.172   0.828   3.865
 7111TIP3   OH221289   5.907   0.957   2.365
 7111TIP3    H121290   5.829   0.901   2.372
 7111TIP3    H221291   5.886   1.019   2.295
 7112TIP3   OH221292   4.484   4.716   0.664
 7112TIP3    H121293   4.445   4.665   0.735
 7112TIP3    H221294   4.426   4.791   0.654
 7113TIP3   OH221295   0.366   6.870   6.007
 7113TIP3    H121296   0.279   6.888   5.972
 7113TIP3    H221297   0.398   6.797   5.954
 7114TIP3   OH221298   7.986   3.908   4.066
 7114TIP3    H121299   7.928   3.836   4.092
 7114TIP3    H221300   8.000   3.894   3.972
 7115TIP3   OH221301   0.107   7.640   0.293
 7115TIP3    H121302   0.111   7.597   0.379
 7115TIP3    H221303   0.187   7.693   0.289
 7116TIP3   OH221304   6.363   7.045   1.074
 7116TIP3    H121305   6.325   6.961   1.099
 7116TIP3    H221306   6.326   7.064   0.988
 7117TIP3   OH221307   6.183   7.459   3.581
 7117TIP3    H121308   6.207   7.375   3.542
 7117TIP3    H221309   6.088   7.464   3.569
 7118TIP3   OH221310   5.488   7.587   2.081
 7118TIP3    H121311   5.529   7.640   2.149
 7118TIP3    H221312   5.461   7.507   2.126
 7119TIP3   OH221313   4.167   1.186   5.941
 7119TIP3    H121314   4.072   1.182   5.952
 7119TIP3    H221315   4.203   1.138   6.016
 7120TIP3   OH221316   2.360   5.490   3.115
 7120TIP3    H121317   2.408   5.407   3.122
 7120TIP3    H221318   2.370   5.530   3.201
 7121TIP3   OH221319   6.531   7.612   2.070
 7121TIP3    H121320   6.545   7.528   2.026
 7121TIP3    H221321   6.468   7.657   2.014
 7122TIP3   OH221322   3.596   0.085   2.582
 7122TIP3    H121323   3.581  -0.009   2.569
 7122TIP3    H221324   3.618   0.118   2.495
 7123TIP3   OH221325   1.671   6.043   3.942
 7123TIP3    H121326   1.698   5.964   3.897
 7123TIP3    H221327   1.673   6.019   4.035
 7124TIP3   OH221328   1.837   0.948   5.150
 7124TIP3    H121329   1.904   0.909   5.094
 7124TIP3    H221330   1.779   0.995   5.090
 7125TIP3   OH221331   8.035   6.114   5.525
 7125TIP3    H121332   7.948   6.076   5.532
 7125TIP3    H221333   8.047   6.163   5.607
 7126TIP3   OH221334   4.649   3.119   4.488
 7126TIP3    H121335   4.705   3.156   4.557
 7126TIP3    H221336   4.576   3.180   4.481
 7127TIP3   OH221337   1.455   4.512   6.141
 7127TIP3    H121338   1.531   4.528   6.085
 7127TIP3    H221339   1.384   4.492   6.080
 7128TIP3   OH221340   6.367   7.529   0.855
 7128TIP3    H121341   6.386   7.455   0.911
 7128TIP3    H221342   6.329   7.491   0.776
 7129TIP3   OH221343   1.379   7.416   6.281
 7129TIP3    H121344   1.291   7.378   6.285
 7129TIP3    H221345   1.365   7.508   6.305
 7130TIP3   OH221346   2.663   4.657   5.188
 7130TIP3    H121347   2.607   4.685   5.116
 7130TIP3    H221348   2.631   4.705   5.264
 7131TIP3   OH221349   1.214   7.132   4.302
 7131TIP3    H121350   1.288   7.185   4.273
 7131TIP3    H221351   1.166   7.111   4.222
 7132TIP3   OH221352   6.920   3.014   0.444
 7132TIP3    H121353   6.854   3.084   0.451
 7132TIP3    H221354   6.922   2.976   0.532
 7133TIP3   OH221355   3.549   1.342   6.372
 7133TIP3    H121356   3.453   1.344   6.367
 7133TIP3    H221357   3.568   1.295   6.453
 7134TIP3   OH221358   1.925   3.083   5.507
 7134TIP3    H121359   2.019   3.071   5.522
 7134TIP3    H221360   1.903   3.163   5.555
 7135TIP3   OH221361   6.604   7.578   5.551
 7135TIP3    H121362   6.646   7.492   5.548
 7135TIP3    H221363   6.633   7.621   5.470
 7136TIP3   OH221364   7.929   5.650   1.330
 7136TIP3    H121365   8.000   5.714   1.324
 7136TIP3    H221366   7.867   5.689   1.391
 7137TIP3   OH221367   7.538   7.612   6.553
 7137TIP3    H121368   7.548   7.642   6.463
 7137TIP3    H221369   7.471   7.669   6.590
 7138TIP3   OH221370   5.229   1.964   3.537
 7138TIP3    H121371   5.135   1.968   3.550
 7138TIP3    H221372   5.266   2.017   3.608
 7139TIP3   OH221373   6.013   1.451   1.161
 7139TIP3    H121374   5.929   1.464   1.206
 7139TIP3    H221375   6.064   1.397   1.222
 7140TIP3   OH221376   3.111  -0.033   4.536
 7140TIP3    H121377   3.054   0.043   4.527
 7140TIP3    H221378   3.164  -0.014   4.613
 7141TIP3   OH221379   5.175   1.510   2.273
 7141TIP3    H121380   5.092   1.464   2.268
 7141TIP3    H221381   5.164   1.572   2.346
 7142TIP3   OH221382   4.009   1.892   4.681
 7142TIP3    H121383   4.009   1.797   4.696
 7142TIP3    H221384   3.930   1.908   4.629
 7143TIP3   OH221385   5.133   6.976   4.977
 7143TIP3    H121386   5.108   6.953   5.067
 7143TIP3    H221387   5.089   7.060   4.961
 7144TIP3   OH221388   1.835   2.875   2.936
 7144TIP3    H121389   1.754   2.922   2.914
 7144TIP3    H221390   1.807   2.807   2.997
 7145TIP3   OH221391   7.061   3.148   4.016
 7145TIP3    H121392   7.152   3.169   3.998
 7145TIP3    H221393   7.048   3.060   3.981
 7146TIP3   OH221394   6.937   2.833   0.237
 7146TIP3    H121395   6.966   2.912   0.284
 7146TIP3    H221396   6.948   2.855   0.145
 7147TIP3   OH221397   7.448   1.599   1.537
 7147TIP3    H121398   7.374   1.628   1.590
 7147TIP3    H221399   7.408   1.558   1.460
 7148TIP3   OH221400   3.804   7.004   0.421
 7148TIP3    H121401   3.898   7.020   0.418
 7148TIP3    H221402   3.765   7.090   0.437
 7149TIP3   OH221403   2.501   7.100   1.322
 7149TIP3    H121404   2.491   7.152   1.402
 7149TIP3    H221405   2.546   7.158   1.261
 7150TIP3   OH221406   0.438   1.053   4.545
 7150TIP3    H121407   0.390   0.984   4.500
 7150TIP3    H221408   0.520   1.012   4.571
 7151TIP3   OH221409   7.396   0.837   6.559
 7151TIP3    H121410   7.340   0.895   6.507
 7151TIP3    H221411   7.467   0.893   6.588
 7152TIP3   OH221412   4.888   6.837   2.955
 7152TIP3    H121413   4.943   6.880   3.020
 7152TIP3    H221414   4.799   6.859   2.981
 7153TIP3   OH221415   8.056   3.813   0.386
 7153TIP3    H121416   8.058   3.740   0.447
 7153TIP3    H221417   7.986   3.870   0.420
 7154TIP3   OH221418   5.218   7.245   4.477
 7154TIP3    H121419   5.252   7.166   4.519
 7154TIP3    H221420   5.183   7.298   4.549
 7155TIP3   OH221421   6.562   2.563   1.610
 7155TIP3    H121422   6.609   2.626   1.555
 7155TIP3    H221423   6.582   2.478   1.571
 7156TIP3   OH221424   6.586   0.026   6.417
 7156TIP3    H121425   6.639   0.103   6.440
 7156TIP3    H221426   6.632  -0.047   6.459
 7157TIP3   OH221427   5.503   5.045   2.269
 7157TIP3    H121428   5.433   5.077   2.212
 7157TIP3    H221429   5.509   4.952   2.248
 7158TIP3   OH221430   3.440   6.800   1.881
 7158TIP3    H121431   3.448   6.821   1.974
 7158TIP3    H221432   3.415   6.883   1.839
 7159TIP3   OH221433   2.390   2.371   2.063
 7159TIP3    H121434   2.481   2.350   2.042
 7159TIP3    H221435   2.377   2.336   2.151
 7160TIP3   OH221436   4.170   3.412   1.550
 7160TIP3    H121437   4.105   3.469   1.510
 7160TIP3    H221438   4.213   3.467   1.616
 7161TIP3   OH221439   8.015   1.201   5.701
 7161TIP3    H121440   7.920   1.202   5.712
 7161TIP3    H221441   8.042   1.117   5.739
 7162TIP3   OH221442   5.998   0.819   2.579
 7162TIP3    H121443   5.991   0.892   2.518
 7162TIP3    H221444   6.035   0.858   2.659
 7163TIP3   OH221445   4.298   5.695   3.075
 7163TIP3    H121446   4.245   5.676   2.997
 7163TIP3    H221447   4.388   5.677   3.047
 7164TIP3   OH221448   3.195   3.832   2.912
 7164TIP3    H121449   3.283   3.868   2.906
 7164TIP3    H221450   3.208   3.738   2.925
 7165TIP3   OH221451   7.811   2.223   3.089
 7165TIP3    H121452   7.861   2.275   3.026
 7165TIP3    H221453   7.873   2.206   3.160
 7166TIP3   OH221454   3.715   1.884   6.679
 7166TIP3    H121455   3.649   1.816   6.693
 7166TIP3    H221456   3.799   1.838   6.681
 7167TIP3   OH221457   4.261   4.758   1.716
 7167TIP3    H121458   4.241   4.707   1.795
 7167TIP3    H221459   4.253   4.849   1.744
 7168TIP3   OH221460   5.651   5.166   5.439
 7168TIP3    H121461   5.725   5.122   5.396
 7168TIP3    H221462   5.593   5.190   5.367
 7169TIP3   OH221463   7.230   3.212   1.369
 7169TIP3    H121464   7.149   3.202   1.418
 7169TIP3    H221465   7.298   3.180   1.429
 7170TIP3   OH221466   0.252   7.225   5.638
 7170TIP3    H121467   0.239   7.312   5.600
 7170TIP3    H221468   0.180   7.172   5.601
 7171TIP3   OH221469   3.613   4.538   5.994
 7171TIP3    H121470   3.692   4.577   6.029
 7171TIP3    H221471   3.548   4.546   6.064
 7172TIP3   OH221472   6.692   5.825   1.248
 7172TIP3    H121473   6.639   5.902   1.267
 7172TIP3    H221474   6.669   5.763   1.318
 7173TIP3   OH221475   7.881   7.720   5.114
 7173TIP3    H121476   7.799   7.670   5.120
 7173TIP3    H221477   7.863   7.788   5.050
 7174TIP3   OH221478   4.213   1.229   2.955
 7174TIP3    H121479   4.270   1.177   2.898
 7174TIP3    H221480   4.218   1.318   2.921
 7175TIP3   OH221481   7.970   0.542   0.714
 7175TIP3    H121482   7.978   0.623   0.764
 7175TIP3    H221483   8.048   0.540   0.659
 7176TIP3   OH221484   2.224   1.645   4.965
 7176TIP3    H121485   2.130   1.629   4.961
 7176TIP3    H221486   2.232   1.736   4.995
 7177TIP3   OH221487   4.842   2.872   4.695
 7177TIP3    H121488   4.900   2.914   4.632
 7177TIP3    H221489   4.803   2.944   4.743
 7178TIP3   OH221490   2.694   5.717   5.474
 7178TIP3    H121491   2.768   5.699   5.416
 7178TIP3    H221492   2.655   5.631   5.490
 7179TIP3   OH221493   3.843   2.421   4.829
 7179TIP3    H121494   3.917   2.405   4.887
 7179TIP3    H221495   3.834   2.516   4.827
 7180TIP3   OH221496   6.160   1.745   3.105
 7180TIP3    H121497   6.203   1.788   3.032
 7180TIP3    H221498   6.231   1.728   3.168
 7181TIP3   OH221499   2.994   1.859   0.124
 7181TIP3    H121500   2.935   1.819   0.187
 7181TIP3    H221501   3.042   1.926   0.173
 7182TIP3   OH221502   0.806   2.607   3.346
 7182TIP3    H121503   0.837   2.548   3.277
 7182TIP3    H221504   0.862   2.587   3.421
 7183TIP3   OH221505   4.402   5.157   5.471
 7183TIP3    H121506   4.494   5.135   5.457
 7183TIP3    H221507   4.371   5.090   5.532
 7184TIP3   OH221508   7.504   5.188   1.500
 7184TIP3    H121509   7.490   5.254   1.569
 7184TIP3    H221510   7.563   5.230   1.438
 7185TIP3   OH221511   2.674   4.239   3.418
 7185TIP3    H121512   2.717   4.240   3.504
 7185TIP3    H221513   2.655   4.146   3.402
 7186TIP3   OH221514   7.124   1.222   1.218
 7186TIP3    H121515   7.060   1.262   1.159
 7186TIP3    H221516   7.201   1.208   1.164
 7187TIP3   OH221517   4.799   2.444   2.403
 7187TIP3    H121518   4.847   2.520   2.370
 7187TIP3    H221519   4.720   2.480   2.443
 7188TIP3   OH221520   4.543   1.183   1.000
 7188TIP3    H121521   4.571   1.139   1.081
 7188TIP3    H221522   4.529   1.112   0.938
 7189TIP3   OH221523   0.262   1.350   0.551
 7189TIP3    H121524   0.289   1.258   0.554
 7189TIP3    H221525   0.332   1.394   0.504
 7190TIP3   OH221526   3.402   1.285   2.632
 7190TIP3    H121527   3.436   1.248   2.551
 7190TIP3    H221528   3.311   1.308   2.612
 7191TIP3   OH221529   0.043   1.816   4.111
 7191TIP3    H121530   0.048   1.786   4.020
 7191TIP3    H221531  -0.048   1.801   4.137
 7192TIP3   OH221532   1.503   7.785   0.657
 7192TIP3    H121533   1.416   7.794   0.697
 7192TIP3    H221534   1.520   7.691   0.659
 7193TIP3   OH221535   5.551   7.369   0.620
 7193TIP3    H121536   5.589   7.408   0.699
 7193TIP3    H221537   5.488   7.305   0.653
 7194TIP3   OH221538   6.436   5.640   6.320
 7194TIP3    H121539   6.473   5.686   6.245
 7194TIP3    H221540   6.436   5.705   6.391
 7195TIP3   OH221541   0.949   5.607   1.158
 7195TIP3    H121542   0.943   5.693   1.199
 7195TIP3    H221543   1.037   5.602   1.123
 7196TIP3   OH221544   4.688   6.935   4.529
 7196TIP3    H121545   4.691   6.903   4.619
 7196TIP3    H221546   4.768   6.987   4.520
 7197TIP3   OH221547   0.324   6.300   4.358
 7197TIP3    H121548   0.282   6.373   4.402
 7197TIP3    H221549   0.362   6.247   4.428
 7198TIP3   OH221550   8.015   3.157   2.329
 7198TIP3    H121551   7.958   3.105   2.384
 7198TIP3    H221552   8.044   3.097   2.260
 7199TIP3   OH221553   3.143   2.985   5.030
 7199TIP3    H121554   3.182   3.035   4.958
 7199TIP3    H221555   3.074   3.042   5.063
 7200TIP3   OH221556   5.410   2.780   1.002
 7200TIP3    H121557   5.398   2.695   0.960
 7200TIP3    H221558   5.497   2.809   0.974
 7201TIP3   OH221559   3.663   3.450   4.238
 7201TIP3    H121560   3.645   3.373   4.292
 7201TIP3    H221561   3.650   3.420   4.148
 7202TIP3   OH221562   3.783   0.496   3.301
 7202TIP3    H121563   3.690   0.479   3.287
 7202TIP3    H221564   3.823   0.485   3.215
 7203TIP3   OH221565   2.899   2.928   0.525
 7203TIP3    H121566   2.908   2.939   0.620
 7203TIP3    H221567   2.833   2.992   0.500
 7204TIP3   OH221568   2.888   2.804   3.486
 7204TIP3    H121569   2.808   2.837   3.526
 7204TIP3    H221570   2.904   2.864   3.413
 7205TIP3   OH221571   6.105   1.928   5.355
 7205TIP3    H121572   6.160   1.851   5.368
 7205TIP3    H221573   6.015   1.894   5.357
 7206TIP3   OH221574   5.987   1.943   1.100
 7206TIP3    H121575   5.956   1.913   1.014
 7206TIP3    H221576   5.962   2.036   1.102
 7207TIP3   OH221577   0.071   6.559   2.489
 7207TIP3    H121578   0.030   6.587   2.571
 7207TIP3    H221579   0.015   6.595   2.420
 7208TIP3   OH221580   1.862   0.440   1.346
 7208TIP3    H121581   1.890   0.350   1.331
 7208TIP3    H221582   1.801   0.459   1.275
 7209TIP3   OH221583   0.014   2.069   5.001
 7209TIP3    H121584  -0.023   2.150   5.036
 7209TIP3    H221585   0.057   2.095   4.920
 7210TIP3   OH221586   0.556   6.213   1.169
 7210TIP3    H121587   0.596   6.128   1.189
 7210TIP3    H221588   0.517   6.241   1.251
 7211TIP3   OH221589   4.602   2.352   0.679
 7211TIP3    H121590   4.627   2.262   0.657
 7211TIP3    H221591   4.596   2.353   0.774
 7212TIP3   OH221592   3.394   2.185   1.291
 7212TIP3    H121593   3.379   2.278   1.274
 7212TIP3    H221594   3.489   2.175   1.289
 7213TIP3   OH221595   3.335   2.669   3.909
 7213TIP3    H121596   3.240   2.676   3.915
 7213TIP3    H221597   3.350   2.596   3.849
 7214TIP3   OH221598   4.140   0.626   4.721
 7214TIP3    H121599   4.095   0.652   4.640
 7214TIP3    H221600   4.115   0.693   4.785
 7215TIP3   OH221601   5.405   1.374   5.363
 7215TIP3    H121602   5.383   1.332   5.280
 7215TIP3    H221603   5.347   1.333   5.427
 7216TIP3   OH221604   1.859   3.252   1.140
 7216TIP3    H121605   1.888   3.241   1.230
 7216TIP3    H221606   1.901   3.181   1.092
 7217TIP3   OH221607   4.048   2.432   3.449
 7217TIP3    H121608   4.114   2.417   3.382
 7217TIP3    H221609   3.975   2.474   3.403
 7218TIP3   OH221610   5.481   4.497   1.923
 7218TIP3    H121611   5.535   4.566   1.884
 7218TIP3    H221612   5.518   4.483   2.010
 7219TIP3   OH221613   5.671   1.552   2.129
 7219TIP3    H121614   5.709   1.472   2.164
 7219TIP3    H221615   5.655   1.607   2.206
 7220TIP3   OH221616   6.428   5.449   4.236
 7220TIP3    H121617   6.506   5.491   4.199
 7220TIP3    H221618   6.399   5.509   4.304
 7221TIP3   OH221619   4.191   5.308   2.169
 7221TIP3    H121620   4.278   5.269   2.163
 7221TIP3    H221621   4.141   5.246   2.223
 7222TIP3   OH221622   7.459   7.563   4.620
 7222TIP3    H121623   7.500   7.494   4.567
 7222TIP3    H221624   7.389   7.598   4.565
 7223TIP3   OH221625   1.148   3.934   3.615
 7223TIP3    H121626   1.110   4.001   3.671
 7223TIP3    H221627   1.224   3.901   3.664
 7224TIP3   OH221628   1.832   4.276   4.044
 7224TIP3    H121629   1.866   4.321   4.121
 7224TIP3    H221630   1.882   4.312   3.971
 7225TIP3   OH221631   6.518   7.845   4.731
 7225TIP3    H121632   6.613   7.859   4.729
 7225TIP3    H221633   6.501   7.812   4.819
 7226TIP3   OH221634   7.822   0.979   4.354
 7226TIP3    H121635   7.849   0.888   4.359
 7226TIP3    H221636   7.787   0.990   4.265
 7227TIP3   OH221637   1.505   7.153   4.382
 7227TIP3    H121638   1.590   7.110   4.387
 7227TIP3    H221639   1.516   7.218   4.312
 7228TIP3   OH221640   4.113   1.594   3.187
 7228TIP3    H121641   4.144   1.661   3.125
 7228TIP3    H221642   4.181   1.590   3.254
 7229TIP3   OH221643   5.810   4.175   1.995
 7229TIP3    H121644   5.808   4.257   2.045
 7229TIP3    H221645   5.896   4.138   2.014
 7230TIP3   OH221646   1.668   1.537   1.530
 7230TIP3    H121647   1.705   1.500   1.450
 7230TIP3    H221648   1.574   1.518   1.523
 7231TIP3   OH221649   0.541   4.858   5.461
 7231TIP3    H121650   0.537   4.939   5.411
 7231TIP3    H221651   0.555   4.790   5.395
 7232TIP3   OH221652   7.548   5.848   0.444
 7232TIP3    H121653   7.557   5.856   0.539
 7232TIP3    H221654   7.485   5.778   0.432
 7233TIP3   OH221655   5.750   4.334   3.211
 7233TIP3    H121656   5.691   4.295   3.277
 7233TIP3    H221657   5.829   4.281   3.216
 7234TIP3   OH221658   6.715   0.250   4.709
 7234TIP3    H121659   6.714   0.275   4.801
 7234TIP3    H221660   6.633   0.202   4.697
 7235TIP3   OH221661   7.481   3.755   5.295
 7235TIP3    H121662   7.549   3.785   5.235
 7235TIP3    H221663   7.439   3.682   5.249
 7236TIP3   OH221664   3.364   3.963   5.096
 7236TIP3    H121665   3.368   3.891   5.159
 7236TIP3    H221666   3.411   3.929   5.019
 7237TIP3   OH221667   0.995   4.210   5.495
 7237TIP3    H121668   1.076   4.232   5.448
 7237TIP3    H221669   0.956   4.140   5.443
 7238TIP3   OH221670   1.865   5.701   4.654
 7238TIP3    H121671   1.773   5.680   4.666
 7238TIP3    H221672   1.908   5.616   4.645
 7239TIP3   OH221673   4.207   2.633   1.542
 7239TIP3    H121674   4.195   2.596   1.630
 7239TIP3    H221675   4.160   2.716   1.545
 7240TIP3   OH221676   1.265   3.162   4.746
 7240TIP3    H121677   1.236   3.139   4.658
 7240TIP3    H221678   1.284   3.077   4.787
 7241TIP3   OH221679   4.747   3.429   1.445
 7241TIP3    H121680   4.750   3.517   1.407
 7241TIP3    H221681   4.666   3.426   1.494
 7242TIP3   OH221682   6.955   3.301   3.404
 7242TIP3    H121683   6.965   3.366   3.334
 7242TIP3    H221684   6.872   3.257   3.384
 7243TIP3   OH221685   1.896   2.845   0.437
 7243TIP3    H121686   1.979   2.854   0.390
 7243TIP3    H221687   1.910   2.771   0.496
 7244TIP3   OH221688   7.155   1.826   1.274
 7244TIP3    H121689   7.186   1.844   1.363
 7244TIP3    H221690   7.226   1.777   1.234
 7245TIP3   OH221691   4.073   0.204   3.589
 7245TIP3    H121692   4.036   0.240   3.509
 7245TIP3    H221693   4.016   0.129   3.610
 7246TIP3   OH221694   2.130   2.649   2.024
 7246TIP3    H121695   2.152   2.572   1.972
 7246TIP3    H221696   2.166   2.723   1.975
 7247TIP3   OH221697   5.171   2.039   0.995
 7247TIP3    H121698   5.250   1.990   0.971
 7247TIP3    H221699   5.125   1.981   1.056
 7248TIP3   OH221700   5.179   4.937   1.210
 7248TIP3    H121701   5.255   4.985   1.245
 7248TIP3    H221702   5.122   5.004   1.174
 7249TIP3   OH221703   3.837   5.505   3.026
 7249TIP3    H121704   3.766   5.526   2.965
 7249TIP3    H221705   3.910   5.559   2.998
 7250TIP3   OH221706   1.774   5.243   5.555
 7250TIP3    H121707   1.693   5.254   5.505
 7250TIP3    H221708   1.777   5.319   5.613
 7251TIP3   OH221709   3.308   7.128   2.209
 7251TIP3    H121710   3.277   7.148   2.121
 7251TIP3    H221711   3.324   7.213   2.249
 7252TIP3   OH221712   5.852   6.797   4.300
 7252TIP3    H121713   5.921   6.733   4.281
 7252TIP3    H221714   5.773   6.745   4.310
 7253TIP3   OH221715   5.037   2.179   4.020
 7253TIP3    H121716   5.115   2.234   4.029
 7253TIP3    H221717   4.965   2.236   4.047
 7254TIP3   OH221718   4.322   2.593   4.505
 7254TIP3    H121719   4.407   2.627   4.536
 7254TIP3    H221720   4.310   2.633   4.419
 7255TIP3   OH221721   3.133   1.091   6.417
 7255TIP3    H121722   3.107   1.003   6.389
 7255TIP3    H221723   3.078   1.150   6.366
 7256TIP3   OH221724   7.933   6.848   2.274
 7256TIP3    H121725   7.927   6.941   2.253
 7256TIP3    H221726   7.941   6.845   2.369
 7257TIP3   OH221727   0.645   6.734   1.496
 7257TIP3    H121728   0.644   6.669   1.566
 7257TIP3    H221729   0.734   6.731   1.461
 7258TIP3   OH221730   7.881   7.801   0.965
 7258TIP3    H121731   7.898   7.884   1.009
 7258TIP3    H221732   7.790   7.781   0.986
 7259TIP3   OH221733   6.379   7.343   4.848
 7259TIP3    H121734   6.340   7.400   4.782
 7259TIP3    H221735   6.456   7.306   4.805
 7260TIP3   OH221736   3.594   0.719   2.506
 7260TIP3    H121737   3.629   0.764   2.583
 7260TIP3    H221738   3.601   0.626   2.528
 7261TIP3   OH221739   4.649   3.274   3.831
 7261TIP3    H121740   4.580   3.271   3.897
 7261TIP3    H221741   4.717   3.329   3.869
 7262TIP3   OH221742   1.280   6.204   5.511
 7262TIP3    H121743   1.329   6.253   5.577
 7262TIP3    H221744   1.344   6.187   5.442
 7263TIP3   OH221745   1.076   2.425   1.172
 7263TIP3    H121746   1.034   2.398   1.254
 7263TIP3    H221747   1.147   2.362   1.160
 7264TIP3   OH221748   1.077   4.693   1.545
 7264TIP3    H121749   1.161   4.731   1.521
 7264TIP3    H221750   1.099   4.625   1.609
 7265TIP3   OH221751   2.078   7.626   4.951
 7265TIP3    H121752   2.052   7.599   4.863
 7265TIP3    H221753   2.000   7.611   5.005
 7266TIP3   OH221754   5.331   6.122   1.030
 7266TIP3    H121755   5.338   6.170   0.948
 7266TIP3    H221756   5.359   6.184   1.097
 7267TIP3   OH221757   6.069   4.801   1.601
 7267TIP3    H121758   6.007   4.748   1.551
 7267TIP3    H221759   6.015   4.854   1.659
 7268TIP3   OH221760   7.009   4.046   3.369
 7268TIP3    H121761   6.997   3.952   3.363
 7268TIP3    H221762   7.081   4.065   3.309
 7269TIP3   OH221763   5.834   1.915   0.244
 7269TIP3    H121764   5.850   1.983   0.310
 7269TIP3    H221765   5.793   1.843   0.292
 7270TIP3   OH221766   6.365   4.971   5.322
 7270TIP3    H121767   6.434   4.998   5.383
 7270TIP3    H221768   6.404   4.899   5.272
 7271TIP3   OH221769   1.088   5.025   4.132
 7271TIP3    H121770   1.084   5.118   4.112
 7271TIP3    H221771   1.181   5.008   4.149
 7272TIP3   OH221772   2.174   2.537   5.153
 7272TIP3    H121773   2.158   2.443   5.162
 7272TIP3    H221774   2.259   2.551   5.194
 7273TIP3   OH221775   6.971   6.965   2.853
 7273TIP3    H121776   6.889   7.000   2.819
 7273TIP3    H221777   6.987   7.015   2.933
 7274TIP3   OH221778   4.125   6.126   4.692
 7274TIP3    H121779   4.083   6.061   4.749
 7274TIP3    H221780   4.136   6.203   4.748
 7275TIP3   OH221781   1.356   2.459   1.255
 7275TIP3    H121782   1.294   2.527   1.281
 7275TIP3    H221783   1.403   2.438   1.335
 7276TIP3   OH221784   0.766   6.406   0.320
 7276TIP3    H121785   0.827   6.335   0.298
 7276TIP3    H221786   0.800   6.482   0.271
 7277TIP3   OH221787   6.860   6.723   5.762
 7277TIP3    H121788   6.906   6.807   5.753
 7277TIP3    H221789   6.879   6.676   5.681
 7278TIP3   OH221790   8.274   4.039   5.177
 7278TIP3    H121791   8.291   4.091   5.098
 7278TIP3    H221792   8.238   3.957   5.144
 7279TIP3   OH221793   2.511   1.535   3.278
 7279TIP3    H121794   2.586   1.479   3.259
 7279TIP3    H221795   2.470   1.549   3.193
 7280TIP3   OH221796   1.322   0.992   4.039
 7280TIP3    H121797   1.373   1.073   4.039
 7280TIP3    H221798   1.272   0.996   4.120
 7281TIP3   OH221799   5.857   1.188   0.943
 7281TIP3    H121800   5.799   1.118   0.913
 7281TIP3    H221801   5.857   1.180   1.038
 7282TIP3   OH221802   3.703   7.137   3.950
 7282TIP3    H121803   3.660   7.063   3.906
 7282TIP3    H221804   3.777   7.098   3.996
 7283TIP3   OH221805   3.839   4.298   5.224
 7283TIP3    H121806   3.853   4.236   5.295
 7283TIP3    H221807   3.744   4.307   5.219
 7284TIP3   OH221808   7.222   2.242   6.488
 7284TIP3    H121809   7.172   2.316   6.454
 7284TIP3    H221810   7.294   2.231   6.426
 7285TIP3   OH221811   7.916   7.615   2.821
 7285TIP3    H121812   7.890   7.586   2.909
 7285TIP3    H221813   8.004   7.579   2.810
 7286TIP3   OH221814   5.228   4.245   5.918
 7286TIP3    H121815   5.322   4.231   5.927
 7286TIP3    H221816   5.203   4.194   5.841
 7287TIP3   OH221817   2.739   1.463   5.653
 7287TIP3    H121818   2.764   1.374   5.627
 7287TIP3    H221819   2.704   1.502   5.573
 7288TIP3   OH221820   2.394   6.323   3.417
 7288TIP3    H121821   2.472   6.275   3.445
 7288TIP3    H221822   2.394   6.402   3.470
 7289TIP3   OH221823   0.154   5.380   4.692
 7289TIP3    H121824   0.183   5.289   4.698
 7289TIP3    H221825   0.171   5.417   4.778
 7290TIP3   OH221826   6.002   3.760   0.090
 7290TIP3    H121827   5.955   3.834   0.127
 7290TIP3    H221828   6.048   3.796   0.014
 7291TIP3   OH221829   4.581   1.119   2.176
 7291TIP3    H121830   4.677   1.114   2.179
 7291TIP3    H221831   4.557   1.063   2.102
 7292TIP3   OH221832   5.845   7.058   4.375
 7292TIP3    H121833   5.893   7.086   4.297
 7292TIP3    H221834   5.862   6.964   4.381
 7293TIP3   OH221835   4.164   3.764   3.834
 7293TIP3    H121836   4.152   3.795   3.744
 7293TIP3    H221837   4.221   3.687   3.825
 7294TIP3   OH221838   4.510   0.370   5.221
 7294TIP3    H121839   4.592   0.410   5.248
 7294TIP3    H221840   4.444   0.411   5.277
 7295TIP3   OH221841   5.624   1.088   1.574
 7295TIP3    H121842   5.716   1.105   1.555
 7295TIP3    H221843   5.608   1.132   1.657
 7296TIP3   OH221844   3.941   7.519   1.323
 7296TIP3    H121845   4.006   7.550   1.386
 7296TIP3    H221846   3.858   7.524   1.370
 7297TIP3   OH221847   5.582   2.219   5.429
 7297TIP3    H121848   5.559   2.193   5.340
 7297TIP3    H221849   5.591   2.314   5.425
 7298TIP3   OH221850   6.823   7.118   0.937
 7298TIP3    H121851   6.733   7.132   0.908
 7298TIP3    H221852   6.876   7.168   0.874
 7299TIP3   OH221853   3.253   5.402   5.590
 7299TIP3    H121854   3.342   5.421   5.560
 7299TIP3    H221855   3.241   5.309   5.571
 7300TIP3   OH221856   2.238   2.805   4.493
 7300TIP3    H121857   2.333   2.816   4.485
 7300TIP3    H221858   2.214   2.754   4.415
 7301TIP3   OH221859   1.166   1.519   6.667
 7301TIP3    H121860   1.153   1.613   6.677
 7301TIP3    H221861   1.182   1.507   6.573
 7302TIP3   OH221862   6.166   6.680   1.018
 7302TIP3    H121863   6.092   6.632   1.055
 7302TIP3    H221864   6.196   6.737   1.089
 7303TIP3   OH221865   0.630   2.433   2.896
 7303TIP3    H121866   0.556   2.493   2.892
 7303TIP3    H221867   0.676   2.446   2.813
 7304TIP3   OH221868   6.286   3.013   2.824
 7304TIP3    H121869   6.296   2.980   2.913
 7304TIP3    H221870   6.196   3.045   2.820
 7305TIP3   OH221871   3.805   5.021   3.098
 7305TIP3    H121872   3.878   4.971   3.062
 7305TIP3    H221873   3.846   5.096   3.141
 7306TIP3   OH221874   7.262   6.078   6.015
 7306TIP3    H121875   7.193   6.028   6.059
 7306TIP3    H221876   7.329   6.090   6.082
 7307TIP3   OH221877   1.708   2.183   6.388
 7307TIP3    H121878   1.674   2.233   6.462
 7307TIP3    H221879   1.675   2.229   6.311
 7308TIP3   OH221880   1.934   4.332   2.974
 7308TIP3    H121881   1.904   4.363   2.888
 7308TIP3    H221882   1.854   4.327   3.027
 7309TIP3   OH221883   7.032   6.912   3.263
 7309TIP3    H121884   7.102   6.951   3.315
 7309TIP3    H221885   6.965   6.887   3.327
 7310TIP3   OH221886   2.855   6.674   1.766
 7310TIP3    H121887   2.873   6.596   1.818
 7310TIP3    H221888   2.941   6.708   1.743
 7311TIP3   OH221889   6.032   7.439   2.006
 7311TIP3    H121890   6.064   7.351   1.986
 7311TIP3    H221891   5.937   7.431   2.008
 7312TIP3   OH221892   7.689   2.103   5.009
 7312TIP3    H121893   7.624   2.045   4.968
 7312TIP3    H221894   7.755   2.043   5.045
 7313TIP3   OH221895   7.465   3.283   5.146
 7313TIP3    H121896   7.494   3.371   5.169
 7313TIP3    H221897   7.443   3.242   5.229
 7314TIP3   OH221898   0.446   2.323   2.692
 7314TIP3    H121899   0.475   2.293   2.607
 7314TIP3    H221900   0.490   2.408   2.703
 7315TIP3   OH221901   1.012   2.207   6.663
 7315TIP3    H121902   1.061   2.259   6.599
 7315TIP3    H221903   1.080   2.164   6.715
 7316TIP3   OH221904   5.837   6.443   5.380
 7316TIP3    H121905   5.768   6.383   5.353
 7316TIP3    H221906   5.790   6.515   5.423
 7317TIP3   OH221907   2.739   3.522   2.222
 7317TIP3    H121908   2.684   3.454   2.182
 7317TIP3    H221909   2.679   3.593   2.241
 7318TIP3   OH221910   4.753   6.168   2.567
 7318TIP3    H121911   4.832   6.210   2.531
 7318TIP3    H221912   4.714   6.236   2.622
 7319TIP3   OH221913   7.732   7.559   2.192
 7319TIP3    H121914   7.708   7.618   2.120
 7319TIP3    H221915   7.815   7.593   2.225
 7320TIP3   OH221916   6.114   5.132   1.680
 7320TIP3    H121917   6.106   5.225   1.702
 7320TIP3    H221918   6.163   5.094   1.753
 7321TIP3   OH221919   3.052   6.193   3.618
 7321TIP3    H121920   3.018   6.182   3.707
 7321TIP3    H221921   3.083   6.284   3.615
 7322TIP3   OH221922   4.665   6.965   0.171
 7322TIP3    H121923   4.741   6.954   0.114
 7322TIP3    H221924   4.701   7.005   0.251
 7323TIP3   OH221925   3.598   7.021   1.697
 7323TIP3    H121926   3.508   7.023   1.666
 7323TIP3    H221927   3.600   7.082   1.771
 7324TIP3   OH221928   2.208   7.048   1.029
 7324TIP3    H121929   2.213   7.112   0.957
 7324TIP3    H221930   2.138   6.988   1.002
 7325TIP3   OH221931   7.558   3.302   0.709
 7325TIP3    H121932   7.549   3.321   0.616
 7325TIP3    H221933   7.489   3.239   0.728
 7326TIP3   OH221934   0.751   6.383   6.528
 7326TIP3    H121935   0.842   6.399   6.551
 7326TIP3    H221936   0.730   6.451   6.463
 7327TIP3   OH221937   7.389   3.170   4.315
 7327TIP3    H121938   7.359   3.217   4.392
 7327TIP3    H221939   7.379   3.232   4.243
 7328TIP3   OH221940   0.491   2.441   5.496
 7328TIP3    H121941   0.466   2.476   5.582
 7328TIP3    H221942   0.578   2.478   5.479
 7329TIP3   OH221943   7.390   2.501   2.980
 7329TIP3    H121944   7.409   2.508   2.886
 7329TIP3    H221945   7.446   2.567   3.021
 7330TIP3   OH221946   0.973   2.717   6.347
 7330TIP3    H121947   1.058   2.716   6.303
 7330TIP3    H221948   0.909   2.710   6.277
 7331TIP3   OH221949   7.472   0.793   2.416
 7331TIP3    H121950   7.379   0.810   2.434
 7331TIP3    H221951   7.488   0.707   2.454
 7332TIP3   OH221952   2.586   7.687   2.842
 7332TIP3    H121953   2.553   7.765   2.797
 7332TIP3    H221954   2.539   7.687   2.926
 7333TIP3   OH221955   1.700   4.982   4.828
 7333TIP3    H121956   1.784   5.028   4.823
 7333TIP3    H221957   1.716   4.910   4.889
 7334TIP3   OH221958   3.445   3.201   3.290
 7334TIP3    H121959   3.416   3.110   3.277
 7334TIP3    H221960   3.455   3.236   3.202
 7335TIP3   OH221961   8.218   6.061   0.535
 7335TIP3    H121962   8.229   6.026   0.446
 7335TIP3    H221963   8.126   6.044   0.556
 7336TIP3   OH221964   7.365   6.172   1.692
 7336TIP3    H121965   7.450   6.173   1.650
 7336TIP3    H221966   7.381   6.204   1.781
 7337TIP3   OH221967   1.922   6.303   4.693
 7337TIP3    H121968   2.001   6.316   4.641
 7337TIP3    H221969   1.864   6.374   4.665
 7338TIP3   OH221970   6.968   1.136   5.361
 7338TIP3    H121971   6.905   1.149   5.433
 7338TIP3    H221972   6.915   1.100   5.290
 7339TIP3   OH221973   7.142   1.748   4.129
 7339TIP3    H121974   7.201   1.749   4.204
 7339TIP3    H221975   7.078   1.818   4.148
 7340TIP3   OH221976   1.681   5.328   4.342
 7340TIP3    H121977   1.722   5.280   4.270
 7340TIP3    H221978   1.591   5.341   4.313
 7341TIP3   OH221979   2.547   3.219   5.480
 7341TIP3    H121980   2.544   3.279   5.406
 7341TIP3    H221981   2.477   3.248   5.538
 7342TIP3   OH221982   6.725   6.156   2.835
 7342TIP3    H121983   6.789   6.209   2.787
 7342TIP3    H221984   6.645   6.162   2.782
 7343TIP3   OH221985   2.611   0.147   0.994
 7343TIP3    H121986   2.654   0.232   0.990
 7343TIP3    H221987   2.646   0.099   0.918
 7344TIP3   OH221988   6.907   2.190   6.330
 7344TIP3    H121989   6.972   2.125   6.303
 7344TIP3    H221990   6.912   2.191   6.426
 7345TIP3   OH221991   5.245   0.927   2.273
 7345TIP3    H121992   5.328   0.969   2.297
 7345TIP3    H221993   5.212   0.890   2.355
 7346TIP3   OH221994   0.014   0.291   4.534
 7346TIP3    H121995   0.016   0.304   4.439
 7346TIP3    H221996   0.105   0.272   4.557
 7347TIP3   OH221997   0.971   2.676   4.643
 7347TIP3    H121998   0.910   2.747   4.665
 7347TIP3    H221999   0.946   2.604   4.700
 7348TIP3   OH222000   2.394   2.579   5.364
 7348TIP3    H122001   2.421   2.660   5.408
 7348TIP3    H222002   2.474   2.528   5.356
 7349TIP3   OH222003   3.559   0.490   3.891
 7349TIP3    H122004   3.493   0.512   3.956
 7349TIP3    H222005   3.533   0.404   3.859
 7350TIP3   OH222006   0.792   3.441   5.177
 7350TIP3    H122007   0.837   3.357   5.171
 7350TIP3    H222008   0.716   3.425   5.231
 7351TIP3   OH222009   6.973   5.737   4.675
 7351TIP3    H122010   6.999   5.784   4.754
 7351TIP3    H222011   7.037   5.666   4.668
 7352TIP3   OH222012   8.210   7.381   3.111
 7352TIP3    H122013   8.253   7.379   3.197
 7352TIP3    H222014   8.117   7.373   3.131
 7353TIP3   OH222015   5.461   2.351   4.013
 7353TIP3    H122016   5.438   2.319   3.926
 7353TIP3    H222017   5.382   2.395   4.044
 7354TIP3   OH222018   1.650   2.025   0.108
 7354TIP3    H122019   1.617   1.975   0.183
 7354TIP3    H222020   1.582   2.090   0.092
 7355TIP3   OH222021   0.278   3.381   3.626
 7355TIP3    H122022   0.185   3.403   3.621
 7355TIP3    H222023   0.320   3.436   3.560
 7356TIP3   OH222024   5.366   2.845   5.654
 7356TIP3    H122025   5.296   2.877   5.597
 7356TIP3    H222026   5.377   2.753   5.629
 7357TIP3   OH222027   3.497   7.030   2.594
 7357TIP3    H122028   3.566   7.044   2.659
 7357TIP3    H222029   3.428   7.090   2.620
 7358TIP3   OH222030   6.788   7.045   3.047
 7358TIP3    H122031   6.726   7.008   2.985
 7358TIP3    H222032   6.780   6.991   3.125
 7359TIP3   OH222033   4.948   3.563   2.166
 7359TIP3    H122034   4.894   3.491   2.200
 7359TIP3    H222035   4.896   3.602   2.096
 7360TIP3   OH222036   2.792   5.293   5.577
 7360TIP3    H122037   2.828   5.373   5.615
 7360TIP3    H222038   2.731   5.323   5.510
 7361TIP3   OH222039   2.443   4.846   0.313
 7361TIP3    H122040   2.530   4.856   0.273
 7361TIP3    H222041   2.391   4.915   0.272
 7362TIP3   OH222042   2.180   0.704   2.823
 7362TIP3    H122043   2.110   0.738   2.767
 7362TIP3    H222044   2.133   0.654   2.891
 7363TIP3   OH222045   1.240   5.356   0.040
 7363TIP3    H122046   1.181   5.417   0.083
 7363TIP3    H222047   1.236   5.380  -0.053
 7364TIP3   OH222048   2.528   4.369   1.422
 7364TIP3    H122049   2.473   4.293   1.403
 7364TIP3    H222050   2.565   4.352   1.508
 7365TIP3   OH222051   4.502   0.353   2.875
 7365TIP3    H122052   4.569   0.324   2.937
 7365TIP3    H222053   4.549   0.365   2.792
 7366TIP3   OH222054   2.055   4.016   5.320
 7366TIP3    H122055   1.959   4.015   5.316
 7366TIP3    H222056   2.080   3.925   5.307
 7367TIP3   OH222057   3.850   1.718   1.634
 7367TIP3    H122058   3.814   1.681   1.553
 7367TIP3    H222059   3.813   1.807   1.638
 7368TIP3   OH222060   3.951   6.775   3.854
 7368TIP3    H122061   3.983   6.741   3.938
 7368TIP3    H222062   3.880   6.716   3.829
 7369TIP3   OH222063   5.361   2.359   2.418
 7369TIP3    H122064   5.367   2.306   2.498
 7369TIP3    H222065   5.414   2.437   2.438
 7370TIP3   OH222066   7.388   2.412   3.378
 7370TIP3    H122067   7.475   2.428   3.342
 7370TIP3    H222068   7.352   2.500   3.394
 7371TIP3   OH222069   6.984   5.011   4.080
 7371TIP3    H122070   7.016   4.927   4.046
 7371TIP3    H222071   6.948   4.989   4.167
 7372TIP3   OH222072   4.839   3.516   6.454
 7372TIP3    H122073   4.792   3.457   6.395
 7372TIP3    H222074   4.931   3.498   6.438
 7373TIP3   OH222075   2.063   2.650   4.308
 7373TIP3    H122076   2.082   2.558   4.288
 7373TIP3    H222077   1.967   2.656   4.302
 7374TIP3   OH222078   4.513   0.574   1.911
 7374TIP3    H122079   4.559   0.567   1.828
 7374TIP3    H222080   4.532   0.492   1.956
 7375TIP3   OH222081   7.258   3.417   4.959
 7375TIP3    H122082   7.255   3.422   4.864
 7375TIP3    H222083   7.294   3.330   4.977
 7376TIP3   OH222084   0.905   0.139   4.159
 7376TIP3    H122085   0.884   0.217   4.210
 7376TIP3    H222086   0.827   0.122   4.107
 7377TIP3   OH222087   7.892   6.010   1.911
 7377TIP3    H122088   7.863   5.926   1.948
 7377TIP3    H222089   7.971   6.032   1.961
 7378TIP3   OH222090   0.200   7.726   4.804
 7378TIP3    H122091   0.258   7.706   4.731
 7378TIP3    H222092   0.159   7.642   4.825
 7379TIP3   OH222093   0.479   6.684   6.256
 7379TIP3    H122094   0.407   6.731   6.297
 7379TIP3    H222095   0.438   6.636   6.184
 7380TIP3   OH222096   7.289   6.509   5.922
 7380TIP3    H122097   7.236   6.464   5.856
 7380TIP3    H222098   7.380   6.484   5.902
 7381TIP3   OH222099   5.605   1.772   2.264
 7381TIP3    H122100   5.598   1.816   2.179
 7381TIP3    H222101   5.683   1.810   2.304
 7382TIP3   OH222102   7.354   0.211   0.806
 7382TIP3    H122103   7.355   0.256   0.722
 7382TIP3    H222104   7.261   0.195   0.823
 7383TIP3   OH222105   2.247   0.548   5.142
 7383TIP3    H122106   2.193   0.609   5.193
 7383TIP3    H222107   2.243   0.581   5.053
 7384TIP3   OH222108   0.733   5.058   5.561
 7384TIP3    H122109   0.705   5.125   5.498
 7384TIP3    H222110   0.718   4.975   5.517
 7385TIP3   OH222111   1.215   6.082   5.777
 7385TIP3    H122112   1.203   6.070   5.683
 7385TIP3    H222113   1.126   6.090   5.811
 7386TIP3   OH222114   1.100   6.004   0.119
 7386TIP3    H122115   1.032   5.942   0.144
 7386TIP3    H222116   1.175   5.980   0.174
 7387TIP3   OH222117   3.067   7.709   1.979
 7387TIP3    H122118   3.119   7.670   2.049
 7387TIP3    H222119   3.130   7.727   1.909
 7388TIP3   OH222120   3.472   3.048   2.222
 7388TIP3    H122121   3.422   3.083   2.296
 7388TIP3    H222122   3.543   3.110   2.209
 7389TIP3   OH222123   1.627   0.393   0.235
 7389TIP3    H122124   1.720   0.388   0.256
 7389TIP3    H222125   1.584   0.344   0.305
 7390TIP3   OH222126   1.659   1.276   0.288
 7390TIP3    H122127   1.605   1.245   0.361
 7390TIP3    H222128   1.666   1.201   0.229
 7391TIP3   OH222129   3.860   6.219   5.250
 7391TIP3    H122130   3.895   6.178   5.330
 7391TIP3    H222131   3.769   6.189   5.246
 7392TIP3   OH222132   4.686   7.224   5.738
 7392TIP3    H122133   4.763   7.177   5.705
 7392TIP3    H222134   4.722   7.302   5.780
 7393TIP3   OH222135   4.216   1.120   2.504
 7393TIP3    H122136   4.122   1.133   2.492
 7393TIP3    H222137   4.234   1.037   2.461
 7394TIP3   OH222138   0.769   6.935   6.713
 7394TIP3    H122139   0.787   6.882   6.636
 7394TIP3    H222140   0.722   6.877   6.773
 7395TIP3   OH222141   0.059   2.050   1.205
 7395TIP3    H122142   0.131   2.018   1.260
 7395TIP3    H222143  -0.007   1.980   1.208
 7396TIP3   OH222144   1.169   0.125   1.196
 7396TIP3    H122145   1.212   0.079   1.269
 7396TIP3    H222146   1.140   0.207   1.234
 7397TIP3   OH222147   5.779   1.192   4.626
 7397TIP3    H122148   5.691   1.154   4.633
 7397TIP3    H222149   5.775   1.243   4.544
 7398TIP3   OH222150   7.875   6.523   2.810
 7398TIP3    H122151   7.919   6.474   2.880
 7398TIP3    H222152   7.788   6.484   2.805
 7399TIP3   OH222153   6.070   2.781   2.104
 7399TIP3    H122154   6.025   2.699   2.122
 7399TIP3    H222155   6.151   2.776   2.155
 7400TIP3   OH222156   3.516   2.721   1.016
 7400TIP3    H122157   3.464   2.739   1.094
 7400TIP3    H222158   3.607   2.731   1.044
 7401TIP3   OH222159   6.730   3.796   3.633
 7401TIP3    H122160   6.735   3.883   3.595
 7401TIP3    H222161   6.729   3.811   3.728
 7402TIP3   OH222162   7.868   0.606   5.758
 7402TIP3    H122163   7.825   0.582   5.841
 7402TIP3    H222164   7.825   0.553   5.692
 7403TIP3   OH222165   4.191   0.449   6.422
 7403TIP3    H122166   4.273   0.498   6.419
 7403TIP3    H222167   4.143   0.477   6.344
 7404TIP3   OH222168   5.074   3.261   1.836
 7404TIP3    H122169   5.131   3.205   1.783
 7404TIP3    H222170   5.123   3.342   1.847
 7405TIP3   OH222171   1.161   2.577   3.193
 7405TIP3    H122172   1.180   2.553   3.284
 7405TIP3    H222173   1.095   2.646   3.199
 7406TIP3   OH222174   7.399   1.465   2.066
 7406TIP3    H122175   7.444   1.471   1.982
 7406TIP3    H222176   7.416   1.548   2.110
 7407TIP3   OH222177   4.939   6.222   3.271
 7407TIP3    H122178   4.987   6.145   3.242
 7407TIP3    H222179   4.887   6.192   3.345
 7408TIP3   OH222180   7.782   7.162   3.142
 7408TIP3    H122181   7.855   7.219   3.115
 7408TIP3    H222182   7.727   7.219   3.197
 7409TIP3   OH222183   7.310   7.417   2.830
 7409TIP3    H122184   7.322   7.473   2.907
 7409TIP3    H222185   7.220   7.433   2.802
 7410TIP3   OH222186   3.374   0.415   1.122
 7410TIP3    H122187   3.423   0.346   1.077
 7410TIP3    H222188   3.434   0.447   1.190
 7411TIP3   OH222189   5.070   2.673   0.373
 7411TIP3    H122190   4.981   2.646   0.347
 7411TIP3    H222191   5.128   2.623   0.316
 7412TIP3   OH222192   5.432   6.349   1.141
 7412TIP3    H122193   5.484   6.361   1.062
 7412TIP3    H222194   5.353   6.401   1.126
 7413TIP3   OH222195   2.026   3.820   1.275
 7413TIP3    H122196   2.018   3.748   1.213
 7413TIP3    H222197   2.032   3.778   1.361
 7414TIP3   OH222198   6.502   7.375   3.889
 7414TIP3    H122199   6.413   7.351   3.862
 7414TIP3    H222200   6.510   7.342   3.978
 7415TIP3   OH222201   2.675   6.439   4.729
 7415TIP3    H122202   2.687   6.421   4.823
 7415TIP3    H222203   2.763   6.461   4.697
 7416TIP3   OH222204   2.784   0.619   1.425
 7416TIP3    H122205   2.834   0.549   1.468
 7416TIP3    H222206   2.839   0.646   1.352
 7417TIP3   OH222207   1.763   6.440   6.025
 7417TIP3    H122208   1.793   6.350   6.030
 7417TIP3    H222209   1.681   6.441   6.074
 7418TIP3   OH222210   8.180   0.707   3.549
 7418TIP3    H122211   8.247   0.641   3.530
 7418TIP3    H222212   8.197   0.777   3.486
 7419TIP3   OH222213   4.359   6.641   5.802
 7419TIP3    H122214   4.388   6.691   5.725
 7419TIP3    H222215   4.358   6.550   5.772
 7420TIP3   OH222216   3.812   1.956   0.697
 7420TIP3    H122217   3.723   1.957   0.733
 7420TIP3    H222218   3.852   1.877   0.732
 7421TIP3   OH222219   7.412   6.768   4.148
 7421TIP3    H122220   7.375   6.699   4.093
 7421TIP3    H222221   7.413   6.846   4.092
 7422TIP3   OH222222   7.157   3.624   2.539
 7422TIP3    H122223   7.149   3.671   2.457
 7422TIP3    H222224   7.241   3.579   2.534
 7423TIP3   OH222225   4.265   0.129   4.905
 7423TIP3    H122226   4.263   0.087   4.991
 7423TIP3    H222227   4.309   0.213   4.920
 7424TIP3   OH222228   3.223   1.234   2.208
 7424TIP3    H122229   3.214   1.196   2.296
 7424TIP3    H222230   3.228   1.328   2.224
 7425TIP3   OH222231   6.646   7.329   1.938
 7425TIP3    H122232   6.666   7.342   1.846
 7425TIP3    H222233   6.717   7.373   1.985
 7426TIP3   OH222234   3.123   1.304   2.652
 7426TIP3    H122235   3.040   1.353   2.654
 7426TIP3    H222236   3.146   1.293   2.744
 7427TIP3   OH222237   6.198   1.121   4.472
 7427TIP3    H122238   6.127   1.090   4.529
 7427TIP3    H222239   6.197   1.216   4.482
 7428TIP3   OH222240   3.313   3.140   3.550
 7428TIP3    H122241   3.268   3.056   3.555
 7428TIP3    H222242   3.289   3.186   3.631
 7429TIP3   OH222243   4.856   3.482   1.008
 7429TIP3    H122244   4.876   3.574   1.023
 7429TIP3    H222245   4.881   3.465   0.917
 7430TIP3   OH222246   0.176   4.656   2.139
 7430TIP3    H122247   0.206   4.692   2.055
 7430TIP3    H222248   0.207   4.566   2.139
 7431TIP3   OH222249   6.023   5.407   0.646
 7431TIP3    H122250   5.977   5.378   0.568
 7431TIP3    H222251   5.984   5.491   0.668
 7432TIP3   OH222252   6.616   1.574   6.116
 7432TIP3    H122253   6.627   1.532   6.031
 7432TIP3    H222254   6.533   1.620   6.109
 7433TIP3   OH222255   0.192   0.387   2.450
 7433TIP3    H122256   0.249   0.441   2.396
 7433TIP3    H222257   0.109   0.434   2.452
 7434TIP3   OH222258   6.433   6.366   0.503
 7434TIP3    H122259   6.338   6.360   0.506
 7434TIP3    H222260   6.459   6.389   0.592
 7435TIP3   OH222261   6.783   4.037   0.268
 7435TIP3    H122262   6.833   4.104   0.221
 7435TIP3    H222263   6.836   4.018   0.345
 7436TIP3   OH222264   6.190   3.693   1.159
 7436TIP3    H122265   6.095   3.685   1.168
 7436TIP3    H222266   6.216   3.755   1.228
 7437TIP3   OH222267   3.679   1.482   5.678
 7437TIP3    H122268   3.589   1.513   5.689
 7437TIP3    H222269   3.729   1.560   5.657
 7438TIP3   OH222270   8.081   4.797   2.613
 7438TIP3    H122271   8.081   4.869   2.551
 7438TIP3    H222272   8.002   4.809   2.665
 7439TIP3   OH222273   4.236   6.401   6.151
 7439TIP3    H122274   4.331   6.406   6.135
 7439TIP3    H222275   4.215   6.308   6.137
 7440TIP3   OH222276   5.362   0.308   3.100
 7440TIP3    H122277   5.405   0.361   3.033
 7440TIP3    H222278   5.429   0.297   3.168
 7441TIP3   OH222279   1.048   6.633   3.547
 7441TIP3    H122280   1.065   6.724   3.523
 7441TIP3    H222281   0.991   6.600   3.478
 7442TIP3   OH222282   0.964   0.721   0.900
 7442TIP3    H122283   1.004   0.643   0.861
 7442TIP3    H222284   0.900   0.686   0.962
 7443TIP3   OH222285   0.070   3.489   6.165
 7443TIP3    H122286   0.025   3.407   6.145
 7443TIP3    H222287   0.160   3.474   6.135
 7444TIP3   OH222288   1.529   6.693   0.236
 7444TIP3    H122289   1.601   6.724   0.291
 7444TIP3    H222290   1.485   6.773   0.207
 7445TIP3   OH222291   0.475   5.831   2.342
 7445TIP3    H122292   0.538   5.883   2.294
 7445TIP3    H222293   0.508   5.741   2.337
 7446TIP3   OH222294   4.812   2.423   1.717
 7446TIP3    H122295   4.887   2.409   1.774
 7446TIP3    H222296   4.850   2.432   1.629
 7447TIP3   OH222297   6.646   1.414   5.915
 7447TIP3    H122298   6.603   1.416   5.830
 7447TIP3    H222299   6.739   1.404   5.896
 7448TIP3   OH222300   4.893   6.035   0.577
 7448TIP3    H122301   4.968   6.038   0.636
 7448TIP3    H222302   4.817   6.043   0.634
 7449TIP3   OH222303   3.008   3.576   4.863
 7449TIP3    H122304   3.081   3.626   4.826
 7449TIP3    H222305   2.954   3.642   4.907
 7450TIP3   OH222306   3.354   0.049   1.503
 7450TIP3    H122307   3.317   0.130   1.540
 7450TIP3    H222308   3.329  -0.019   1.565
 7451TIP3   OH222309   7.353   0.348   0.579
 7451TIP3    H122310   7.286   0.411   0.554
 7451TIP3    H222311   7.411   0.344   0.502
 7452TIP3   OH222312   6.780   3.348   2.317
 7452TIP3    H122313   6.697   3.342   2.364
 7452TIP3    H222314   6.841   3.387   2.380
 7453TIP3   OH222315   3.832   7.166   1.093
 7453TIP3    H122316   3.837   7.076   1.125
 7453TIP3    H222317   3.898   7.213   1.144
 7454TIP3   OH222318   3.834   1.906   4.436
 7454TIP3    H122319   3.809   1.865   4.353
 7454TIP3    H222320   3.907   1.964   4.413
 7455TIP3   OH222321   6.681   2.529   5.876
 7455TIP3    H122322   6.605   2.476   5.903
 7455TIP3    H222323   6.756   2.482   5.913
 7456TIP3   OH222324   4.682   3.400   1.912
 7456TIP3    H122325   4.669   3.458   1.986
 7456TIP3    H222326   4.772   3.416   1.884
 7457TIP3   OH222327   1.546   4.342   1.533
 7457TIP3    H122328   1.597   4.275   1.488
 7457TIP3    H222329   1.538   4.309   1.623
 7458TIP3   OH222330   0.114   6.398   0.317
 7458TIP3    H122331   0.187   6.415   0.256
 7458TIP3    H222332   0.130   6.309   0.348
 7459TIP3   OH222333   2.164   6.913   4.541
 7459TIP3    H122334   2.195   6.969   4.613
 7459TIP3    H222335   2.104   6.968   4.491
 7460TIP3   OH222336   6.095   2.003   4.222
 7460TIP3    H122337   6.051   1.968   4.144
 7460TIP3    H222338   6.049   1.961   4.295
 7461TIP3   OH222339   4.190   0.066   4.261
 7461TIP3    H122340   4.190   0.132   4.330
 7461TIP3    H222341   4.120   0.005   4.286
 7462TIP3   OH222342   3.582   2.886   4.934
 7462TIP3    H122343   3.523   2.880   5.009
 7462TIP3    H222344   3.584   2.979   4.911
 7463TIP3   OH222345   4.774   7.167   1.995
 7463TIP3    H122346   4.756   7.220   2.072
 7463TIP3    H222347   4.697   7.111   1.985
 7464TIP3   OH222348   0.320   7.741   2.564
 7464TIP3    H122349   0.250   7.688   2.524
 7464TIP3    H222350   0.398   7.721   2.512
 7465TIP3   OH222351   7.584   4.378   2.036
 7465TIP3    H122352   7.604   4.440   1.966
 7465TIP3    H222353   7.662   4.378   2.091
 7466TIP3   OH222354   5.565   1.982   1.099
 7466TIP3    H122355   5.635   1.921   1.121
 7466TIP3    H222356   5.592   2.020   1.015
 7467TIP3   OH222357   7.402   7.106   0.123
 7467TIP3    H122358   7.378   7.029   0.072
 7467TIP3    H222359   7.439   7.167   0.059
 7468TIP3   OH222360   1.886   2.995   4.208
 7468TIP3    H122361   1.908   2.922   4.150
 7468TIP3    H222362   1.925   2.973   4.292
 7469TIP3   OH222363   8.304   3.006   2.940
 7469TIP3    H122364   8.390   3.003   2.898
 7469TIP3    H222365   8.245   3.038   2.872
 7470TIP3   OH222366   6.850   1.051   3.636
 7470TIP3    H122367   6.914   1.114   3.604
 7470TIP3    H222368   6.831   1.080   3.726
 7471TIP3   OH222369   2.047   0.562   3.024
 7471TIP3    H122370   2.078   0.473   3.011
 7471TIP3    H222371   1.962   0.553   3.066
 7472TIP3   OH222372   7.722   1.128   1.140
 7472TIP3    H122373   7.655   1.196   1.130
 7472TIP3    H222374   7.677   1.047   1.119
 7473TIP3   OH222375   6.695   1.880   2.175
 7473TIP3    H122376   6.622   1.930   2.211
 7473TIP3    H222377   6.747   1.944   2.128
 7474TIP3   OH222378   7.956   6.723   3.105
 7474TIP3    H122379   7.907   6.643   3.087
 7474TIP3    H222380   8.033   6.719   3.048
 7475TIP3   OH222381   8.028   1.976   0.953
 7475TIP3    H122382   7.938   1.945   0.965
 7475TIP3    H222383   8.041   2.040   1.023
 7476TIP3   OH222384   7.489   2.224   1.450
 7476TIP3    H122385   7.422   2.183   1.505
 7476TIP3    H222386   7.439   2.261   1.377
 7477TIP3   OH222387   7.588   0.644   5.659
 7477TIP3    H122388   7.536   0.652   5.579
 7477TIP3    H222389   7.665   0.595   5.634
 7478TIP3   OH222390   6.551   3.408   4.001
 7478TIP3    H122391   6.612   3.410   4.075
 7478TIP3    H222392   6.502   3.327   4.013
 7479TIP3   OH222393   5.151   1.180   4.593
 7479TIP3    H122394   5.058   1.160   4.605
 7479TIP3    H222395   5.159   1.201   4.500
 7480TIP3   OH222396   0.114   6.493   3.047
 7480TIP3    H122397   0.063   6.573   3.036
 7480TIP3    H222398   0.077   6.433   2.981
 7481TIP3   OH222399   3.490   6.119   3.119
 7481TIP3    H122400   3.521   6.066   3.046
 7481TIP3    H222401   3.398   6.092   3.131
 7482TIP3   OH222402   6.707   5.236   0.676
 7482TIP3    H122403   6.672   5.292   0.745
 7482TIP3    H222404   6.660   5.153   0.686
 7483TIP3   OH222405   2.521   4.814   4.991
 7483TIP3    H122406   2.497   4.906   4.980
 7483TIP3    H222407   2.550   4.786   4.904
 7484TIP3   OH222408   8.211   0.347   3.350
 7484TIP3    H122409   8.133   0.301   3.316
 7484TIP3    H222410   8.272   0.277   3.371
 7485TIP3   OH222411   6.079   7.141   3.788
 7485TIP3    H122412   6.075   7.175   3.699
 7485TIP3    H222413   6.151   7.189   3.830
 7486TIP3   OH222414   3.262   2.711   5.911
 7486TIP3    H122415   3.183   2.765   5.898
 7486TIP3    H222416   3.230   2.621   5.902
 7487TIP3   OH222417   2.570   2.784   3.327
 7487TIP3    H122418   2.482   2.750   3.316
 7487TIP3    H222419   2.591   2.825   3.244
 7488TIP3   OH222420   1.475   2.940   4.386
 7488TIP3    H122421   1.474   3.035   4.399
 7488TIP3    H222422   1.506   2.928   4.297
 7489TIP3   OH222423   2.310   0.858   1.454
 7489TIP3    H122424   2.359   0.917   1.397
 7489TIP3    H222425   2.364   0.780   1.459
 7490TIP3   OH222426   5.392   4.192   5.525
 7490TIP3    H122427   5.330   4.187   5.452
 7490TIP3    H222428   5.373   4.114   5.578
 7491TIP3   OH222429   0.690   4.390   5.222
 7491TIP3    H122430   0.629   4.320   5.244
 7491TIP3    H222431   0.771   4.344   5.198
 7492TIP3   OH222432   4.255   1.840   2.032
 7492TIP3    H122433   4.179   1.794   1.997
 7492TIP3    H222434   4.312   1.772   2.065
 7493TIP3   OH222435   2.749   0.230   3.862
 7493TIP3    H122436   2.816   0.214   3.928
 7493TIP3    H222437   2.685   0.161   3.875
 7494TIP3   OH222438   4.923   4.732   0.236
 7494TIP3    H122439   5.004   4.692   0.268
 7494TIP3    H222440   4.901   4.798   0.301
 7495TIP3   OH222441   3.125   6.993   5.164
 7495TIP3    H122442   3.091   7.049   5.094
 7495TIP3    H222443   3.218   7.015   5.168
 7496TIP3   OH222444   3.983   0.205   1.052
 7496TIP3    H122445   3.932   0.275   1.092
 7496TIP3    H222446   3.926   0.128   1.061
 7497TIP3   OH222447   2.323   0.495   6.330
 7497TIP3    H122448   2.269   0.537   6.263
 7497TIP3    H222449   2.409   0.537   6.321
 7498TIP3   OH222450   2.246   5.504   1.888
 7498TIP3    H122451   2.151   5.501   1.898
 7498TIP3    H222452   2.260   5.492   1.794
 7499TIP3   OH222453   3.989   4.459   5.550
 7499TIP3    H122454   3.943   4.449   5.634
 7499TIP3    H222455   3.918   4.468   5.486
 7500TIP3   OH222456   2.893   0.861   5.233
 7500TIP3    H122457   2.942   0.914   5.296
 7500TIP3    H222458   2.802   0.866   5.263
 7501TIP3   OH222459   3.098   5.593   6.517
 7501TIP3    H122460   3.069   5.503   6.529
 7501TIP3    H222461   3.130   5.597   6.427
 7502TIP3   OH222462   1.810   3.639   1.066
 7502TIP3    H122463   1.836   3.583   0.993
 7502TIP3    H222464   1.717   3.657   1.050
 7503TIP3   OH222465   6.393   6.954   4.834
 7503TIP3    H122466   6.367   7.032   4.883
 7503TIP3    H222467   6.474   6.925   4.876
 7504TIP3   OH222468   0.730   6.687   4.115
 7504TIP3    H122469   0.683   6.683   4.198
 7504TIP3    H222470   0.748   6.595   4.093
 7505TIP3   OH222471   2.437   0.691   1.809
 7505TIP3    H122472   2.395   0.612   1.775
 7505TIP3    H222473   2.530   0.680   1.788
 7506TIP3   OH222474   1.073   5.492   2.265
 7506TIP3    H122475   1.052   5.458   2.352
 7506TIP3    H222476   1.030   5.578   2.261
 7507TIP3   OH222477   7.182   4.638   4.673
 7507TIP3    H122478   7.153   4.616   4.584
 7507TIP3    H222479   7.277   4.626   4.671
 7508TIP3   OH222480   6.220   4.907   4.695
 7508TIP3    H122481   6.140   4.923   4.745
 7508TIP3    H222482   6.283   4.969   4.731
 7509TIP3   OH222483   6.518   6.842   0.795
 7509TIP3    H122484   6.550   6.808   0.878
 7509TIP3    H222485   6.520   6.938   0.806
 7510TIP3   OH222486   1.056   6.124   5.171
 7510TIP3    H122487   1.143   6.118   5.132
 7510TIP3    H222488   0.997   6.089   5.105
 7511TIP3   OH222489   5.523   0.992   5.951
 7511TIP3    H122490   5.554   0.917   5.901
 7511TIP3    H222491   5.537   1.067   5.894
 7512TIP3   OH222492   8.268   4.950   0.280
 7512TIP3    H122493   8.289   5.042   0.263
 7512TIP3    H222494   8.191   4.953   0.336
 7513TIP3   OH222495   3.577   0.740   6.064
 7513TIP3    H122496   3.495   0.690   6.065
 7513TIP3    H222497   3.640   0.681   6.023
 7514TIP3   OH222498   8.017   6.722   1.958
 7514TIP3    H122499   7.971   6.657   2.012
 7514TIP3    H222500   7.973   6.805   1.978
 7515TIP3   OH222501   0.565   0.272   0.639
 7515TIP3    H122502   0.616   0.338   0.592
 7515TIP3    H222503   0.474   0.299   0.627
 7516TIP3   OH222504   2.093   4.831   2.036
 7516TIP3    H122505   2.129   4.753   2.078
 7516TIP3    H222506   2.082   4.894   2.107
 7517TIP3   OH222507   4.789   0.810   1.940
 7517TIP3    H122508   4.773   0.899   1.910
 7517TIP3    H222509   4.803   0.760   1.860
 7518TIP3   OH222510   3.358   4.494   3.893
 7518TIP3    H122511   3.341   4.559   3.961
 7518TIP3    H222512   3.435   4.446   3.925
 7519TIP3   OH222513   3.229   2.920   6.580
 7519TIP3    H122514   3.269   2.841   6.615
 7519TIP3    H222515   3.204   2.971   6.657
 7520TIP3   OH222516   5.732   2.780   1.218
 7520TIP3    H122517   5.755   2.866   1.253
 7520TIP3    H222518   5.663   2.748   1.276
 7521TIP3   OH222519   3.136   4.159   5.112
 7521TIP3    H122520   3.171   4.079   5.073
 7521TIP3    H222521   3.170   4.159   5.202
 7522TIP3   OH222522   4.100   0.564   6.661
 7522TIP3    H122523   4.089   0.527   6.574
 7522TIP3    H222524   4.074   0.494   6.721
 7523TIP3   OH222525   6.958   4.951   1.921
 7523TIP3    H122526   6.977   4.874   1.867
 7523TIP3    H222527   6.914   4.915   1.998
 7524TIP3   OH222528   0.202   3.672   3.655
 7524TIP3    H122529   0.258   3.598   3.677
 7524TIP3    H222530   0.204   3.728   3.733
 7525TIP3   OH222531   6.905   1.882   5.469
 7525TIP3    H122532   6.912   1.949   5.400
 7525TIP3    H222533   6.827   1.832   5.445
 7526TIP3   OH222534   6.889   7.602   4.282
 7526TIP3    H122535   6.859   7.522   4.327
 7526TIP3    H222536   6.818   7.665   4.296
 7527TIP3   OH222537   3.136   3.736   1.858
 7527TIP3    H122538   3.196   3.756   1.786
 7527TIP3    H222539   3.190   3.684   1.919
 7528TIP3   OH222540   4.920   3.232   6.326
 7528TIP3    H122541   4.825   3.240   6.322
 7528TIP3    H222542   4.948   3.235   6.235
 7529TIP3   OH222543   1.369   3.586   5.409
 7529TIP3    H122544   1.428   3.555   5.477
 7529TIP3    H222545   1.415   3.659   5.368
 7530TIP3   OH222546   2.751   1.718   2.433
 7530TIP3    H122547   2.760   1.783   2.362
 7530TIP3    H222548   2.815   1.746   2.498
 7531TIP3   OH222549   0.720   7.146   4.667
 7531TIP3    H122550   0.759   7.060   4.652
 7531TIP3    H222551   0.672   7.137   4.749
 7532TIP3   OH222552   3.335   2.465   2.455
 7532TIP3    H122553   3.375   2.551   2.446
 7532TIP3    H222554   3.260   2.479   2.514
 7533TIP3   OH222555   0.384   3.526   6.167
 7533TIP3    H122556   0.397   3.612   6.127
 7533TIP3    H222557   0.386   3.542   6.261
 7534TIP3   OH222558   7.741   3.174   1.291
 7534TIP3    H122559   7.685   3.165   1.214
 7534TIP3    H222560   7.698   3.242   1.344
 7535TIP3   OH222561   3.580   1.622   2.593
 7535TIP3    H122562   3.597   1.652   2.682
 7535TIP3    H222563   3.493   1.583   2.597
 7536TIP3   OH222564   4.140   1.981   4.903
 7536TIP3    H122565   4.179   1.899   4.934
 7536TIP3    H222566   4.081   1.953   4.832
 7537TIP3   OH222567   5.187   1.574  -0.027
 7537TIP3    H122568   5.246   1.555   0.046
 7537TIP3    H222569   5.110   1.614   0.014
 7538TIP3   OH222570   4.786   3.670   3.515
 7538TIP3    H122571   4.871   3.684   3.557
 7538TIP3    H222572   4.782   3.576   3.499
 7539TIP3   OH222573   0.606   5.423   3.572
 7539TIP3    H122574   0.596   5.328   3.581
 7539TIP3    H222575   0.529   5.460   3.615
 7540TIP3   OH222576   0.141   7.400   3.984
 7540TIP3    H122577   0.101   7.317   3.959
 7540TIP3    H222578   0.160   7.390   4.078
 7541TIP3   OH222579   1.954   6.367   5.621
 7541TIP3    H122580   1.962   6.459   5.648
 7541TIP3    H222581   2.034   6.325   5.652
 7542TIP3   OH222582   1.746   6.949   3.704
 7542TIP3    H122583   1.725   6.949   3.611
 7542TIP3    H222584   1.795   6.868   3.718
 7543TIP3   OH222585   6.112   4.670   1.873
 7543TIP3    H122586   6.203   4.654   1.896
 7543TIP3    H222587   6.097   4.620   1.793
 7544TIP3   OH222588   5.519   3.265   2.511
 7544TIP3    H122589   5.441   3.298   2.556
 7544TIP3    H222590   5.508   3.292   2.420
 7545TIP3   OH222591   0.361   4.959   1.065
 7545TIP3    H122592   0.432   5.016   1.093
 7545TIP3    H222593   0.291   5.018   1.037
 7546TIP3   OH222594   7.374   4.434   4.037
 7546TIP3    H122595   7.339   4.523   4.034
 7546TIP3    H222596   7.359   4.400   3.948
 7547TIP3   OH222597   6.488   0.786   3.753
 7547TIP3    H122598   6.397   0.757   3.746
 7547TIP3    H222599   6.491   0.865   3.699
 7548TIP3   OH222600   3.385   7.108   1.893
 7548TIP3    H122601   3.296   7.076   1.877
 7548TIP3    H222602   3.375   7.203   1.903
 7549TIP3   OH222603   0.206   3.821   3.895
 7549TIP3    H122604   0.297   3.829   3.926
 7549TIP3    H222605   0.167   3.907   3.914
 7550TIP3   OH222606   3.629   1.926   5.969
 7550TIP3    H122607   3.648   1.994   6.033
 7550TIP3    H222608   3.673   1.956   5.889
 7551TIP3   OH222609   6.161   5.553   2.575
 7551TIP3    H122610   6.137   5.502   2.652
 7551TIP3    H222611   6.249   5.523   2.553
 7552TIP3   OH222612   3.273   7.166   3.241
 7552TIP3    H122613   3.213   7.116   3.186
 7552TIP3    H222614   3.332   7.100   3.279
 7553TIP3   OH222615   8.036   6.282   5.730
 7553TIP3    H122616   8.025   6.249   5.819
 7553TIP3    H222617   8.116   6.334   5.733
 7554TIP3   OH222618   2.465   1.605   5.763
 7554TIP3    H122619   2.547   1.556   5.769
 7554TIP3    H222620   2.461   1.635   5.672
 7555TIP3   OH222621   2.707   3.374   6.723
 7555TIP3    H122622   2.666   3.458   6.703
 7555TIP3    H222623   2.762   3.355   6.647
 7556TIP3   OH222624   6.716   5.104   3.702
 7556TIP3    H122625   6.746   5.041   3.638
 7556TIP3    H222626   6.621   5.093   3.704
 7557TIP3   OH222627   3.141   3.622   0.855
 7557TIP3    H122628   3.056   3.577   0.859
 7557TIP3    H222629   3.135   3.678   0.778
 7558TIP3   OH222630   6.094   2.528   3.932
 7558TIP3    H122631   6.143   2.539   4.014
 7558TIP3    H222632   6.159   2.497   3.869
 7559TIP3   OH222633   7.271   4.239   4.928
 7559TIP3    H122634   7.222   4.321   4.934
 7559TIP3    H222635   7.341   4.248   4.994
 7560TIP3   OH222636   2.362   3.909   3.829
 7560TIP3    H122637   2.401   3.892   3.915
 7560TIP3    H222638   2.268   3.912   3.845
 7561TIP3   OH222639   6.692   4.514   5.269
 7561TIP3    H122640   6.653   4.438   5.225
 7561TIP3    H222641   6.778   4.525   5.226
 7562TIP3   OH222642   7.963   5.198   4.052
 7562TIP3    H122643   7.875   5.230   4.034
 7562TIP3    H222644   7.972   5.206   4.147
 7563TIP3   OH222645   5.614   4.416   2.179
 7563TIP3    H122646   5.707   4.431   2.161
 7563TIP3    H222647   5.607   4.417   2.274
 7564TIP3   OH222648   1.007   6.089   6.660
 7564TIP3    H122649   0.912   6.076   6.662
 7564TIP3    H222650   1.019   6.175   6.621
 7565TIP3   OH222651   6.155   7.646   4.745
 7565TIP3    H122652   6.147   7.561   4.702
 7565TIP3    H222653   6.092   7.642   4.818
 7566TIP3   OH222654   8.021   1.030   5.216
 7566TIP3    H122655   7.953   1.026   5.149
 7566TIP3    H222656   8.103   1.021   5.168
 7567TIP3   OH222657   3.352   4.451   5.318
 7567TIP3    H122658   3.339   4.405   5.402
 7567TIP3    H222659   3.349   4.544   5.341
 7568TIP3   OH222660   0.582   4.670   4.339
 7568TIP3    H122661   0.653   4.734   4.335
 7568TIP3    H222662   0.504   4.723   4.358
 7569TIP3   OH222663   7.429   6.895   4.608
 7569TIP3    H122664   7.523   6.885   4.615
 7569TIP3    H222665   7.408   6.865   4.519
 7570TIP3   OH222666   5.016   2.404   5.919
 7570TIP3    H122667   5.009   2.325   5.866
 7570TIP3    H222668   5.056   2.469   5.860
 7571TIP3   OH222669   2.558   2.038   6.724
 7571TIP3    H122670   2.505   2.008   6.650
 7571TIP3    H222671   2.633   1.979   6.725
 7572TIP3   OH222672   7.842   4.702   4.545
 7572TIP3    H122673   7.900   4.626   4.542
 7572TIP3    H222674   7.873   4.759   4.474
 7573TIP3   OH222675   5.973   6.209   1.794
 7573TIP3    H122676   5.933   6.196   1.708
 7573TIP3    H222677   5.995   6.302   1.796
 7574TIP3   OH222678   0.053   4.156   1.126
 7574TIP3    H122679   0.134   4.186   1.169
 7574TIP3    H222680   0.050   4.062   1.145
 7575TIP3   OH222681   6.992   1.868   5.850
 7575TIP3    H122682   6.898   1.849   5.855
 7575TIP3    H222683   7.034   1.793   5.891
 7576TIP3   OH222684   0.727   4.951   3.116
 7576TIP3    H122685   0.727   5.040   3.080
 7576TIP3    H222686   0.772   4.898   3.050
 7577TIP3   OH222687   6.687   7.800   4.372
 7577TIP3    H122688   6.651   7.712   4.378
 7577TIP3    H222689   6.611   7.857   4.367
 7578TIP3   OH222690   2.886   4.526   1.649
 7578TIP3    H122691   2.954   4.592   1.637
 7578TIP3    H222692   2.820   4.568   1.704
 7579TIP3   OH222693   5.043   7.766   4.322
 7579TIP3    H122694   5.072   7.769   4.413
 7579TIP3    H222695   4.971   7.830   4.318
 7580TIP3   OH222696   2.278   0.068   4.892
 7580TIP3    H122697   2.206   0.015   4.859
 7580TIP3    H222698   2.356   0.030   4.853
 7581TIP3   OH222699   7.373   4.302   3.765
 7581TIP3    H122700   7.456   4.343   3.743
 7581TIP3    H222701   7.395   4.237   3.832
 7582TIP3   OH222702   7.948   5.148   2.645
 7582TIP3    H122703   8.043   5.151   2.651
 7582TIP3    H222704   7.930   5.085   2.575
 7583TIP3   OH222705   1.132   3.379   1.594
 7583TIP3    H122706   1.099   3.465   1.569
 7583TIP3    H222707   1.080   3.317   1.544
 7584TIP3   OH222708   2.844   2.792   3.827
 7584TIP3    H122709   2.772   2.759   3.881
 7584TIP3    H222710   2.800   2.844   3.759
 7585TIP3   OH222711   4.540   4.994   0.513
 7585TIP3    H122712   4.512   5.070   0.565
 7585TIP3    H222713   4.635   5.002   0.507
 7586TIP3   OH222714   2.925   5.283   3.132
 7586TIP3    H122715   2.864   5.222   3.092
 7586TIP3    H222716   2.901   5.285   3.224
 7587TIP3   OH222717   6.094   0.294   5.619
 7587TIP3    H122718   6.189   0.279   5.611
 7587TIP3    H222719   6.076   0.366   5.558
 7588TIP3   OH222720   6.442   0.434   4.742
 7588TIP3    H122721   6.372   0.407   4.683
 7588TIP3    H222722   6.496   0.494   4.689
 7589TIP3   OH222723   5.266   5.107   0.868
 7589TIP3    H122724   5.341   5.064   0.910
 7589TIP3    H222725   5.248   5.054   0.791
 7590TIP3   OH222726   0.353   2.501   4.401
 7590TIP3    H122727   0.392   2.588   4.392
 7590TIP3    H222728   0.278   2.502   4.342
 7591TIP3   OH222729   7.407   4.629   3.224
 7591TIP3    H122730   7.476   4.669   3.172
 7591TIP3    H222731   7.358   4.574   3.163
 7592TIP3   OH222732   7.319   5.063   6.709
 7592TIP3    H122733   7.284   5.144   6.672
 7592TIP3    H222734   7.242   5.011   6.730
 7593TIP3   OH222735   7.170   4.095   6.274
 7593TIP3    H122736   7.197   4.131   6.190
 7593TIP3    H222737   7.239   4.122   6.335
 7594TIP3   OH222738   0.238   7.835   5.320
 7594TIP3    H122739   0.211   7.904   5.259
 7594TIP3    H222740   0.271   7.765   5.263
 7595TIP3   OH222741   7.443   6.920   2.622
 7595TIP3    H122742   7.502   6.995   2.627
 7595TIP3    H222743   7.356   6.958   2.627
 7596TIP3   OH222744   4.464   2.012   2.052
 7596TIP3    H122745   4.377   1.973   2.051
 7596TIP3    H222746   4.454   2.094   2.003
 7597TIP3   OH222747   4.536   4.685   6.418
 7597TIP3    H122748   4.490   4.661   6.499
 7597TIP3    H222749   4.473   4.664   6.348
 7598TIP3   OH222750   5.760   6.047   5.940
 7598TIP3    H122751   5.685   6.106   5.945
 7598TIP3    H222752   5.741   5.978   6.004
 7599TIP3   OH222753   0.656   5.032   1.919
 7599TIP3    H122754   0.612   5.114   1.896
 7599TIP3    H222755   0.706   5.009   1.841
 7600TIP3   OH222756   7.289   4.108   4.688
 7600TIP3    H122757   7.345   4.032   4.705
 7600TIP3    H222758   7.300   4.164   4.765
 7601TIP3   OH222759   7.275   1.086   2.440
 7601TIP3    H122760   7.239   1.174   2.434
 7601TIP3    H222761   7.359   1.098   2.485
 7602TIP3   OH222762   6.453   6.002   5.628
 7602TIP3    H122763   6.431   5.917   5.589
 7602TIP3    H222764   6.548   5.998   5.642
 7603TIP3   OH222765   0.905   0.588   4.701
 7603TIP3    H122766   0.967   0.518   4.682
 7603TIP3    H222767   0.910   0.646   4.624
 7604TIP3   OH222768   5.886   7.311   4.539
 7604TIP3    H122769   5.939   7.240   4.505
 7604TIP3    H222770   5.813   7.268   4.583
 7605TIP3   OH222771   2.349   3.117   3.901
 7605TIP3    H122772   2.353   3.180   3.830
 7605TIP3    H222773   2.421   3.142   3.960
 7606TIP3   OH222774   1.670   5.645   0.975
 7606TIP3    H122775   1.749   5.689   0.943
 7606TIP3    H222776   1.689   5.627   1.067
 7607TIP3   OH222777   6.249   7.353   0.659
 7607TIP3    H122778   6.283   7.341   0.570
 7607TIP3    H222779   6.155   7.340   0.651
 7608TIP3   OH222780   8.040   4.432   2.250
 7608TIP3    H122781   8.016   4.430   2.343
 7608TIP3    H222782   8.077   4.345   2.234
 7609TIP3   OH222783   6.370   5.254   2.360
 7609TIP3    H122784   6.387   5.327   2.301
 7609TIP3    H222785   6.425   5.271   2.436
 7610TIP3   OH222786   1.263   5.634   3.290
 7610TIP3    H122787   1.279   5.708   3.231
 7610TIP3    H222788   1.320   5.650   3.365
 7611TIP3   OH222789   7.454   5.092   3.566
 7611TIP3    H122790   7.438   5.052   3.480
 7611TIP3    H222791   7.452   5.019   3.627
 7612TIP3   OH222792   0.118   3.234   2.280
 7612TIP3    H122793   0.174   3.284   2.221
 7612TIP3    H222794   0.135   3.272   2.366
 7613TIP3   OH222795   4.575   1.505   5.780
 7613TIP3    H122796   4.576   1.414   5.753
 7613TIP3    H222797   4.560   1.554   5.699
 7614TIP3   OH222798   1.548   0.738   6.165
 7614TIP3    H122799   1.638   0.764   6.183
 7614TIP3    H222800   1.556   0.650   6.129
 7615TIP3   OH222801   2.465   6.274   0.483
 7615TIP3    H122802   2.553   6.237   0.483
 7615TIP3    H222803   2.455   6.314   0.396
 7616TIP3   OH222804   8.075   4.325   0.197
 7616TIP3    H122805   8.026   4.395   0.154
 7616TIP3    H222806   8.117   4.368   0.271
 7617TIP3   OH222807   4.617   3.818   0.965
 7617TIP3    H122808   4.587   3.908   0.978
 7617TIP3    H222809   4.550   3.764   1.007
 7618TIP3   OH222810   2.302   2.936   3.562
 7618TIP3    H122811   2.232   2.988   3.600
 7618TIP3    H222812   2.319   2.978   3.477
 7619TIP3   OH222813   6.067   6.273   6.124
 7619TIP3    H122814   6.129   6.200   6.124
 7619TIP3    H222815   6.063   6.300   6.032
 7620TIP3   OH222816   6.639   6.714   1.025
 7620TIP3    H122817   6.571   6.687   1.087
 7620TIP3    H222818   6.692   6.636   1.012
 7621TIP3   OH222819   8.266   4.911   5.291
 7621TIP3    H122820   8.246   4.922   5.199
 7621TIP3    H222821   8.351   4.866   5.293
 7622TIP3   OH222822   6.953   2.092   5.695
 7622TIP3    H122823   6.960   2.015   5.752
 7622TIP3    H222824   6.920   2.058   5.612
 7623TIP3   OH222825   8.118   0.119   3.939
 7623TIP3    H122826   8.080   0.111   3.851
 7623TIP3    H222827   8.124   0.029   3.971
 7624TIP3   OH222828   6.765   3.873   3.103
 7624TIP3    H122829   6.859   3.870   3.116
 7624TIP3    H222830   6.735   3.783   3.118
 7625TIP3   OH222831   7.556   5.811   2.027
 7625TIP3    H122832   7.650   5.792   2.031
 7625TIP3    H222833   7.524   5.759   1.953
 7626TIP3   OH222834   2.485   5.973   2.340
 7626TIP3    H122835   2.436   5.892   2.353
 7626TIP3    H222836   2.576   5.944   2.326
 7627TIP3   OH222837   5.731   7.136   1.371
 7627TIP3    H122838   5.740   7.057   1.317
 7627TIP3    H222839   5.801   7.193   1.341
 7628TIP3   OH222840   5.920   0.122   5.149
 7628TIP3    H122841   5.952   0.109   5.060
 7628TIP3    H222842   5.985   0.080   5.205
 7629TIP3   OH222843   0.330   7.824   6.319
 7629TIP3    H122844   0.366   7.852   6.234
 7629TIP3    H222845   0.400   7.770   6.357
 7630TIP3   OH222846   7.306   5.340   2.162
 7630TIP3    H122847   7.352   5.285   2.225
 7630TIP3    H222848   7.307   5.428   2.201
 7631TIP3   OH222849   3.591   2.514   6.519
 7631TIP3    H122850   3.681   2.488   6.539
 7631TIP3    H222851   3.588   2.522   6.424
 7632TIP3   OH222852   2.526   1.600   3.775
 7632TIP3    H122853   2.437   1.573   3.798
 7632TIP3    H222854   2.524   1.609   3.679
 7633TIP3   OH222855   7.328   0.143   4.358
 7633TIP3    H122856   7.269   0.070   4.375
 7633TIP3    H222857   7.287   0.219   4.401
 7634TIP3   OH222858   4.651   5.123   1.821
 7634TIP3    H122859   4.625   5.171   1.900
 7634TIP3    H222860   4.747   5.127   1.822
 7635TIP3   OH222861   2.851   6.881   0.646
 7635TIP3    H122862   2.813   6.941   0.582
 7635TIP3    H222863   2.796   6.893   0.724
 7636TIP3   OH222864   0.694   1.117   2.535
 7636TIP3    H122865   0.631   1.164   2.480
 7636TIP3    H222866   0.691   1.163   2.619
 7637TIP3   OH222867   5.586   6.553   1.376
 7637TIP3    H122868   5.493   6.527   1.374
 7637TIP3    H222869   5.629   6.492   1.317
 7638TIP3   OH222870   5.580   5.387   0.703
 7638TIP3    H122871   5.571   5.470   0.750
 7638TIP3    H222872   5.491   5.351   0.702
 7639TIP3   OH222873   5.568   5.855   0.240
 7639TIP3    H122874   5.593   5.936   0.283
 7639TIP3    H222875   5.476   5.867   0.218
 7640TIP3   OH222876   6.607   3.884   1.927
 7640TIP3    H122877   6.604   3.915   2.017
 7640TIP3    H222878   6.688   3.919   1.891
 7641TIP3   OH222879   2.019   3.197   4.790
 7641TIP3    H122880   2.114   3.204   4.798
 7641TIP3    H222881   1.987   3.195   4.881
 7642TIP3   OH222882   0.918   3.256   4.380
 7642TIP3    H122883   0.827   3.236   4.355
 7642TIP3    H222884   0.917   3.255   4.475
 7643TIP3   OH222885   7.131   2.837   0.605
 7643TIP3    H122886   7.160   2.747   0.621
 7643TIP3    H222887   7.044   2.842   0.643
 7644TIP3   OH222888   4.677   1.647   0.765
 7644TIP3    H122889   4.771   1.662   0.755
 7644TIP3    H222890   4.653   1.594   0.690
 7645TIP3   OH222891   5.122   4.502   0.044
 7645TIP3    H122892   5.070   4.553   0.106
 7645TIP3    H222893   5.062   4.484  -0.028
 7646TIP3   OH222894   2.889   4.661   0.985
 7646TIP3    H122895   2.927   4.748   0.998
 7646TIP3    H222896   2.957   4.611   0.941
 7647TIP3   OH222897   3.926   4.039   6.005
 7647TIP3    H122898   3.984   4.047   6.080
 7647TIP3    H222899   3.916   4.129   5.973
 7648TIP3   OH222900   4.286   3.938   0.310
 7648TIP3    H122901   4.219   4.005   0.320
 7648TIP3    H222902   4.239   3.855   0.319
 7649TIP3   OH222903   6.557   7.363   5.209
 7649TIP3    H122904   6.493   7.404   5.267
 7649TIP3    H222905   6.641   7.379   5.251
 7650TIP3   OH222906   5.399   3.400   5.132
 7650TIP3    H122907   5.321   3.367   5.177
 7650TIP3    H222908   5.365   3.457   5.063
 7651TIP3   OH222909   0.274   1.890   6.524
 7651TIP3    H122910   0.297   1.799   6.510
 7651TIP3    H222911   0.274   1.929   6.436
 7652TIP3   OH222912   2.059   4.753   1.550
 7652TIP3    H122913   2.051   4.767   1.456
 7652TIP3    H222914   2.153   4.757   1.567
 7653TIP3   OH222915   2.387   0.782   5.667
 7653TIP3    H122916   2.392   0.851   5.601
 7653TIP3    H222917   2.439   0.710   5.630
 7654TIP3   OH222918   3.980   6.103   5.037
 7654TIP3    H122919   4.027   6.174   4.993
 7654TIP3    H222920   3.938   6.145   5.112
 7655TIP3   OH222921   3.774   7.336   0.833
 7655TIP3    H122922   3.839   7.403   0.809
 7655TIP3    H222923   3.751   7.356   0.923
 7656TIP3   OH222924   1.495   0.972   3.213
 7656TIP3    H122925   1.497   0.980   3.117
 7656TIP3    H222926   1.568   0.914   3.233
 7657TIP3   OH222927   0.517   2.929   0.307
 7657TIP3    H122928   0.468   2.875   0.244
 7657TIP3    H222929   0.506   3.018   0.274
 7658TIP3   OH222930   4.221   0.971   0.448
 7658TIP3    H122931   4.161   0.905   0.412
 7658TIP3    H222932   4.304   0.924   0.460
 7659TIP3   OH222933   0.270   4.361   0.689
 7659TIP3    H122934   0.283   4.442   0.738
 7659TIP3    H222935   0.341   4.303   0.720
 7660TIP3   OH222936   6.651   5.024   1.885
 7660TIP3    H122937   6.562   5.014   1.853
 7660TIP3    H222938   6.706   5.000   1.811
 7661TIP3   OH222939   1.044   5.590   4.377
 7661TIP3    H122940   1.126   5.571   4.332
 7661TIP3    H222941   1.005   5.661   4.328
 7662TIP3   OH222942   4.637   1.135   3.425
 7662TIP3    H122943   4.619   1.050   3.385
 7662TIP3    H222944   4.732   1.144   3.420
 7663TIP3   OH222945   2.215   5.036   0.205
 7663TIP3    H122946   2.242   5.095   0.135
 7663TIP3    H222947   2.192   5.093   0.277
 7664TIP3   OH222948   6.430   0.137   2.598
 7664TIP3    H122949   6.490   0.212   2.593
 7664TIP3    H222950   6.344   0.175   2.583
 7665TIP3   OH222951   1.458   0.971   6.452
 7665TIP3    H122952   1.400   0.991   6.378
 7665TIP3    H222953   1.421   0.892   6.491
 7666TIP3   OH222954   1.170   3.514   3.910
 7666TIP3    H122955   1.147   3.550   3.825
 7666TIP3    H222956   1.263   3.533   3.920
 7667TIP3   OH222957   6.043   2.614   5.051
 7667TIP3    H122958   6.037   2.662   4.968
 7667TIP3    H222959   6.073   2.526   5.026
 7668TIP3   OH222960   1.911   6.466   2.420
 7668TIP3    H122961   1.850   6.521   2.468
 7668TIP3    H222962   1.933   6.394   2.480
 7669TIP3   OH222963   2.174   1.374   0.054
 7669TIP3    H122964   2.133   1.446   0.101
 7669TIP3    H222965   2.228   1.417  -0.013
 7670TIP3   OH222966   4.062   0.288   4.721
 7670TIP3    H122967   4.110   0.209   4.743
 7670TIP3    H222968   4.088   0.352   4.788
 7671TIP3   OH222969   2.092   7.036   4.226
 7671TIP3    H122970   2.180   7.051   4.194
 7671TIP3    H222971   2.060   6.960   4.176
 7672TIP3   OH222972   0.999   3.070   4.766
 7672TIP3    H122973   1.080   3.034   4.729
 7672TIP3    H222974   0.971   3.136   4.702
 7673TIP3   OH222975   5.671   1.726   3.820
 7673TIP3    H122976   5.606   1.797   3.824
 7673TIP3    H222977   5.727   1.749   3.746
 7674TIP3   OH222978   4.766   5.651   4.908
 7674TIP3    H122979   4.839   5.649   4.847
 7674TIP3    H222980   4.804   5.625   4.992
 7675TIP3   OH222981   7.438   2.887   1.495
 7675TIP3    H122982   7.351   2.857   1.470
 7675TIP3    H222983   7.494   2.864   1.421
 7676TIP3   OH222984   0.765   3.052   5.222
 7676TIP3    H122985   0.825   3.036   5.149
 7676TIP3    H222986   0.821   3.051   5.299
 7677TIP3   OH222987   2.126   4.545   5.166
 7677TIP3    H122988   2.123   4.458   5.205
 7677TIP3    H222989   2.201   4.543   5.106
 7678TIP3   OH222990   5.103   7.112   2.493
 7678TIP3    H122991   5.026   7.100   2.436
 7678TIP3    H222992   5.134   7.023   2.509
 7679TIP3   OH222993   8.033   6.457   4.389
 7679TIP3    H122994   8.071   6.369   4.390
 7679TIP3    H222995   8.008   6.471   4.298
 7680TIP3   OH222996   4.608   2.959   0.545
 7680TIP3    H122997   4.597   2.894   0.476
 7680TIP3    H222998   4.552   2.927   0.616
 7681TIP3   OH222999   2.195   2.061   2.088
 7681TIP3    H123000   2.102   2.056   2.065
 7681TIP3    H223001   2.203   2.145   2.133
 7682TIP3   OH223002   2.738   0.837   5.550
 7682TIP3    H123003   2.725   0.810   5.459
 7682TIP3    H223004   2.664   0.894   5.569
 7683TIP3   OH223005   7.734   6.526   0.455
 7683TIP3    H123006   7.772   6.597   0.508
 7683TIP3    H223007   7.669   6.486   0.513
 7684TIP3   OH223008   6.004   6.860   0.240
 7684TIP3    H123009   5.965   6.899   0.162
 7684TIP3    H223010   5.949   6.784   0.258
 7685TIP3   OH223011   4.571   2.722   2.380
 7685TIP3    H123012   4.597   2.666   2.453
 7685TIP3    H223013   4.488   2.685   2.350
 7686TIP3   OH223014   4.963   5.690   1.114
 7686TIP3    H123015   5.002   5.669   1.029
 7686TIP3    H223016   5.037   5.723   1.166
 7687TIP3   OH223017   5.514   5.940   0.897
 7687TIP3    H123018   5.541   6.025   0.862
 7687TIP3    H223019   5.455   5.961   0.969
 7688TIP3   OH223020   5.094   6.542   4.706
 7688TIP3    H123021   5.133   6.626   4.682
 7688TIP3    H223022   5.060   6.506   4.624
 7689TIP3   OH223023   4.824   3.087   6.674
 7689TIP3    H123024   4.750   3.027   6.665
 7689TIP3    H223025   4.878   3.068   6.597
 7690TIP3   OH223026   5.642   2.432   1.826
 7690TIP3    H123027   5.697   2.364   1.865
 7690TIP3    H223028   5.554   2.394   1.825
 7691TIP3   OH223029   4.739   6.711   1.516
 7691TIP3    H123030   4.780   6.796   1.500
 7691TIP3    H223031   4.813   6.651   1.530
 7692TIP3   OH223032   7.850   7.299   3.472
 7692TIP3    H123033   7.798   7.289   3.392
 7692TIP3    H223034   7.826   7.223   3.525
 7693TIP3   OH223035   0.273   6.341   2.034
 7693TIP3    H123036   0.231   6.279   2.094
 7693TIP3    H223037   0.203   6.369   1.975
 7694TIP3   OH223038   0.264   3.032   3.842
 7694TIP3    H123039   0.211   3.037   3.763
 7694TIP3    H223040   0.202   3.051   3.913
 7695TIP3   OH223041   1.262   2.611   5.079
 7695TIP3    H123042   1.327   2.664   5.126
 7695TIP3    H223043   1.311   2.540   5.040
 7696TIP3   OH223044   6.405   2.210   2.044
 7696TIP3    H123045   6.388   2.178   2.133
 7696TIP3    H223046   6.378   2.302   2.046
 7697TIP3   OH223047   7.810   2.252   4.220
 7697TIP3    H123048   7.813   2.289   4.309
 7697TIP3    H223049   7.869   2.177   4.223
 7698TIP3   OH223050   2.807   6.811   2.793
 7698TIP3    H123051   2.775   6.757   2.865
 7698TIP3    H223052   2.759   6.894   2.802
 7699TIP3   OH223053   8.003   3.402   5.811
 7699TIP3    H123054   7.965   3.452   5.883
 7699TIP3    H223055   7.928   3.369   5.762
 7700TIP3   OH223056   7.196   5.745   1.332
 7700TIP3    H123057   7.199   5.711   1.243
 7700TIP3    H223058   7.116   5.798   1.335
 7701TIP3   OH223059   7.052   0.184   4.917
 7701TIP3    H123060   7.103   0.209   4.840
 7701TIP3    H223061   7.025   0.267   4.956
 7702TIP3   OH223062   6.642   0.677   5.115
 7702TIP3    H123063   6.635   0.671   5.019
 7702TIP3    H223064   6.607   0.594   5.146
 7703TIP3   OH223065   0.996   0.773   0.040
 7703TIP3    H123066   1.019   0.684   0.068
 7703TIP3    H223067   0.911   0.790   0.081
 7704TIP3   OH223068   1.437   0.501   6.025
 7704TIP3    H123069   1.455   0.523   5.933
 7704TIP3    H223070   1.344   0.520   6.036
 7705TIP3   OH223071   7.800   5.651   1.088
 7705TIP3    H123072   7.819   5.724   1.029
 7705TIP3    H223073   7.857   5.666   1.164
 7706TIP3   OH223074   6.525   4.252   2.709
 7706TIP3    H123075   6.470   4.243   2.787
 7706TIP3    H223076   6.514   4.169   2.662
 7707TIP3   OH223077   4.168   0.739   3.303
 7707TIP3    H123078   4.252   0.704   3.275
 7707TIP3    H223079   4.108   0.665   3.298
 7708TIP3   OH223080   7.174   0.646   4.862
 7708TIP3    H123081   7.141   0.663   4.774
 7708TIP3    H223082   7.097   0.655   4.918
 7709TIP3   OH223083   0.996   5.160   5.281
 7709TIP3    H123084   1.033   5.090   5.336
 7709TIP3    H223085   0.924   5.118   5.234
 7710TIP3   OH223086   6.652   4.110   4.065
 7710TIP3    H123087   6.612   4.195   4.048
 7710TIP3    H223088   6.694   4.086   3.982
 7711TIP3   OH223089   0.957   0.550   3.514
 7711TIP3    H123090   0.985   0.623   3.570
 7711TIP3    H223091   0.987   0.574   3.426
 7712TIP3   OH223092   1.777   3.374   0.912
 7712TIP3    H123093   1.710   3.315   0.877
 7712TIP3    H223094   1.807   3.331   0.992
 7713TIP3   OH223095   7.737   1.303   4.164
 7713TIP3    H123096   7.738   1.208   4.156
 7713TIP3    H223097   7.689   1.333   4.087
 7714TIP3   OH223098   6.472   3.395   5.291
 7714TIP3    H123099   6.505   3.347   5.367
 7714TIP3    H223100   6.539   3.461   5.273
 7715TIP3   OH223101   2.751   0.710   2.353
 7715TIP3    H123102   2.681   0.754   2.401
 7715TIP3    H223103   2.730   0.724   2.261
 7716TIP3   OH223104   1.906   1.805   3.861
 7716TIP3    H123105   1.974   1.792   3.927
 7716TIP3    H223106   1.938   1.879   3.809
 7717TIP3   OH223107   6.210   1.168   3.415
 7717TIP3    H123108   6.149   1.233   3.452
 7717TIP3    H223109   6.296   1.205   3.430
 7718TIP3   OH223110   3.284   0.151   6.079
 7718TIP3    H123111   3.254   0.104   6.002
 7718TIP3    H223112   3.379   0.147   6.074
 7719TIP3   OH223113   3.885   3.363   0.779
 7719TIP3    H123114   3.971   3.406   0.785
 7719TIP3    H223115   3.903   3.281   0.733
 7720TIP3   OH223116   5.487   1.362   0.377
 7720TIP3    H123117   5.465   1.275   0.343
 7720TIP3    H223118   5.415   1.418   0.349
 7721TIP3   OH223119   7.087   7.759   4.932
 7721TIP3    H123120   7.063   7.670   4.956
 7721TIP3    H223121   7.016   7.814   4.966
 7722TIP3   OH223122   3.397   3.588   3.451
 7722TIP3    H123123   3.435   3.502   3.473
 7722TIP3    H223124   3.327   3.600   3.515
 7723TIP3   OH223125   3.435   6.597   6.561
 7723TIP3    H123126   3.449   6.561   6.474
 7723TIP3    H223127   3.501   6.554   6.616
 7724TIP3   OH223128   1.248   4.227   5.379
 7724TIP3    H123129   1.285   4.210   5.292
 7724TIP3    H223130   1.315   4.279   5.423
 7725TIP3   OH223131   0.812   3.673   3.162
 7725TIP3    H123132   0.869   3.699   3.090
 7725TIP3    H223133   0.813   3.749   3.221
 7726TIP3   OH223134   6.545   6.135   5.065
 7726TIP3    H123135   6.551   6.228   5.046
 7726TIP3    H223136   6.451   6.118   5.076
 7727TIP3   OH223137   5.045   6.379   3.458
 7727TIP3    H123138   4.995   6.351   3.381
 7727TIP3    H223139   5.135   6.384   3.427
 7728TIP3   OH223140   0.507   3.362   5.664
 7728TIP3    H123141   0.436   3.320   5.615
 7728TIP3    H223142   0.512   3.450   5.627
 7729TIP3   OH223143   6.139   1.960   2.148
 7729TIP3    H123144   6.110   1.870   2.132
 7729TIP3    H223145   6.217   1.951   2.202
 7730TIP3   OH223146   4.678   6.671   5.344
 7730TIP3    H123147   4.741   6.669   5.272
 7730TIP3    H223148   4.597   6.701   5.304
 7731TIP3   OH223149   2.941   1.242   0.939
 7731TIP3    H123150   2.903   1.253   1.027
 7731TIP3    H223151   2.879   1.185   0.893
 7732TIP3   OH223152   0.616   5.541   1.659
 7732TIP3    H123153   0.608   5.634   1.639
 7732TIP3    H223154   0.625   5.537   1.754
 7733TIP3   OH223155   6.873   0.288   5.720
 7733TIP3    H123156   6.880   0.235   5.641
 7733TIP3    H223157   6.838   0.372   5.689
 7734TIP3   OH223158   5.826   5.528   2.795
 7734TIP3    H123159   5.735   5.500   2.795
 7734TIP3    H223160   5.822   5.621   2.774
 7735TIP3   OH223161   1.830   3.197   1.420
 7735TIP3    H123162   1.859   3.268   1.478
 7735TIP3    H223163   1.753   3.161   1.464
 7736TIP3   OH223164   5.856   5.317   1.777
 7736TIP3    H123165   5.791   5.278   1.836
 7736TIP3    H223166   5.843   5.271   1.694
 7737TIP3   OH223167   2.134   1.482   2.052
 7737TIP3    H123168   2.199   1.553   2.051
 7737TIP3    H223169   2.117   1.464   1.959
 7738TIP3   OH223170   6.947   1.471   1.990
 7738TIP3    H123171   6.995   1.389   2.003
 7738TIP3    H223172   6.876   1.447   1.930
 7739TIP3   OH223173   8.180   5.756   5.224
 7739TIP3    H123174   8.229   5.732   5.302
 7739TIP3    H223175   8.203   5.848   5.209
 7740TIP3   OH223176   4.027   2.422   0.855
 7740TIP3    H123177   3.981   2.338   0.858
 7740TIP3    H223178   3.957   2.488   0.862
 7741TIP3   OH223179   4.794   7.203   2.628
 7741TIP3    H123180   4.775   7.115   2.662
 7741TIP3    H223181   4.889   7.208   2.626
 7742TIP3   OH223182   6.934   4.479   5.147
 7742TIP3    H123183   6.991   4.468   5.222
 7742TIP3    H223184   6.957   4.565   5.112
 7743TIP3   OH223185   1.648   4.767   6.733
 7743TIP3    H123186   1.572   4.759   6.676
 7743TIP3    H223187   1.712   4.707   6.696
 7744TIP3   OH223188   2.063   7.508   0.195
 7744TIP3    H123189   2.087   7.446   0.125
 7744TIP3    H223190   2.143   7.516   0.247
 7745TIP3   OH223191   1.546   5.693   2.182
 7745TIP3    H123192   1.542   5.788   2.191
 7745TIP3    H223193   1.529   5.678   2.089
 7746TIP3   OH223194   4.530   3.961   2.998
 7746TIP3    H123195   4.524   3.876   2.954
 7746TIP3    H223196   4.539   4.024   2.927
 7747TIP3   OH223197   3.979   0.274   3.339
 7747TIP3    H123198   4.025   0.264   3.256
 7747TIP3    H223199   3.887   0.282   3.314
 7748TIP3   OH223200   0.273   1.032   5.841
 7748TIP3    H123201   0.336   1.028   5.770
 7748TIP3    H223202   0.325   1.051   5.919
 7749TIP3   OH223203   1.351   6.730   5.774
 7749TIP3    H123204   1.310   6.646   5.794
 7749TIP3    H223205   1.300   6.794   5.824
 7750TIP3   OH223206   0.050   1.834   5.143
 7750TIP3    H123207   0.118   1.788   5.093
 7750TIP3    H223208   0.027   1.909   5.089
 7751TIP3   OH223209   3.874   5.698   0.153
 7751TIP3    H123210   3.823   5.767   0.195
 7751TIP3    H223211   3.814   5.623   0.149
 7752TIP3   OH223212   7.543   6.649   1.423
 7752TIP3    H123213   7.575   6.565   1.390
 7752TIP3    H223214   7.507   6.629   1.510
 7753TIP3   OH223215   5.352   3.945   1.634
 7753TIP3    H123216   5.314   4.026   1.598
 7753TIP3    H223217   5.435   3.973   1.673
 7754TIP3   OH223218   5.930   2.435   6.366
 7754TIP3    H123219   5.926   2.473   6.454
 7754TIP3    H223220   5.861   2.370   6.365
 7755TIP3   OH223221   1.023   2.495   0.607
 7755TIP3    H123222   1.022   2.481   0.702
 7755TIP3    H223223   1.084   2.429   0.573
 7756TIP3   OH223224   8.040   1.229   0.217
 7756TIP3    H123225   8.068   1.302   0.161
 7756TIP3    H223226   8.121   1.192   0.251
 7757TIP3   OH223227   0.480   5.774   3.953
 7757TIP3    H123228   0.557   5.826   3.927
 7757TIP3    H223229   0.420   5.838   3.992
 7758TIP3   OH223230   2.660   1.903   3.412
 7758TIP3    H123231   2.680   1.944   3.328
 7758TIP3    H223232   2.573   1.937   3.435
 7759TIP3   OH223233   1.953   5.119   4.785
 7759TIP3    H123234   1.928   5.187   4.722
 7759TIP3    H223235   1.939   5.160   4.871
 7760TIP3   OH223236   0.576   0.795   4.235
 7760TIP3    H123237   0.580   0.865   4.169
 7760TIP3    H223238   0.541   0.720   4.187
 7761TIP3   OH223239   4.764   3.431   3.048
 7761TIP3    H123240   4.683   3.466   3.085
 7761TIP3    H223241   4.827   3.502   3.057
 7762TIP3   OH223242   4.407   3.281   5.525
 7762TIP3    H123243   4.430   3.192   5.553
 7762TIP3    H223244   4.425   3.336   5.601
 7763TIP3   OH223245   3.380   1.960   2.392
 7763TIP3    H123246   3.445   2.013   2.346
 7763TIP3    H223247   3.322   2.024   2.433
 7764TIP3   OH223248   7.666   1.066   5.209
 7764TIP3    H123249   7.651   0.973   5.226
 7764TIP3    H223250   7.743   1.067   5.152
 7765TIP3   OH223251   4.484   2.584   6.536
 7765TIP3    H123252   4.533   2.516   6.490
 7765TIP3    H223253   4.470   2.549   6.624
 7766TIP3   OH223254   6.204   2.945   1.742
 7766TIP3    H123255   6.245   2.939   1.828
 7766TIP3    H223256   6.251   2.883   1.688
 7767TIP3   OH223257   5.783   6.124   4.439
 7767TIP3    H123258   5.867   6.170   4.436
 7767TIP3    H223259   5.799   6.047   4.494
 7768TIP3   OH223260   6.619   3.312   1.776
 7768TIP3    H123261   6.661   3.338   1.858
 7768TIP3    H223262   6.667   3.359   1.708
 7769TIP3   OH223263   3.635   4.859   4.294
 7769TIP3    H123264   3.570   4.795   4.322
 7769TIP3    H223265   3.624   4.864   4.199
 7770TIP3   OH223266   2.478   7.675   6.594
 7770TIP3    H123267   2.442   7.763   6.582
 7770TIP3    H223268   2.430   7.640   6.669
 7771TIP3   OH223269   3.440   0.014   3.718
 7771TIP3    H123270   3.408   0.077   3.783
 7771TIP3    H223271   3.505  -0.037   3.766
 7772TIP3   OH223272   1.728   0.079   1.851
 7772TIP3    H123273   1.679   0.010   1.806
 7772TIP3    H223274   1.820   0.058   1.834
 7773TIP3   OH223275   1.432   7.390   4.821
 7773TIP3    H123276   1.412   7.342   4.741
 7773TIP3    H223277   1.526   7.378   4.834
 7774TIP3   OH223278   6.791   5.525   6.226
 7774TIP3    H123279   6.704   5.486   6.233
 7774TIP3    H223280   6.850   5.462   6.267
 7775TIP3   OH223281   6.182   6.022   2.672
 7775TIP3    H123282   6.127   5.945   2.657
 7775TIP3    H223283   6.123   6.096   2.657
 7776TIP3   OH223284   1.408   2.097   6.716
 7776TIP3    H123285   1.494   2.070   6.747
 7776TIP3    H223286   1.410   2.080   6.622
 7777TIP3   OH223287   2.935   4.572   2.833
 7777TIP3    H123288   2.917   4.656   2.790
 7777TIP3    H223289   2.871   4.568   2.905
 7778TIP3   OH223290   1.270   6.602   0.847
 7778TIP3    H123291   1.215   6.567   0.778
 7778TIP3    H223292   1.354   6.556   0.837
 7779TIP3   OH223293   2.669   6.938   3.033
 7779TIP3    H123294   2.598   6.913   2.973
 7779TIP3    H223295   2.661   7.033   3.040
 7780TIP3   OH223296   3.655   5.308   4.685
 7780TIP3    H123297   3.602   5.229   4.672
 7780TIP3    H223298   3.700   5.321   4.601
 7781TIP3   OH223299   1.477   1.005   2.935
 7781TIP3    H123300   1.432   1.089   2.934
 7781TIP3    H223301   1.495   0.985   2.843
 7782TIP3   OH223302   4.295   2.275   6.323
 7782TIP3    H123303   4.344   2.213   6.269
 7782TIP3    H223304   4.236   2.318   6.261
 7783TIP3   OH223305   1.888   2.174   6.669
 7783TIP3    H123306   1.956   2.225   6.711
 7783TIP3    H223307   1.934   2.120   6.605
 7784TIP3   OH223308   6.588   6.446   2.160
 7784TIP3    H123309   6.533   6.469   2.234
 7784TIP3    H223310   6.560   6.357   2.136
 7785TIP3   OH223311   7.506   0.767   0.187
 7785TIP3    H123312   7.517   0.764   0.282
 7785TIP3    H223313   7.420   0.729   0.171
 7786TIP3   OH223314   0.219   0.340   5.567
 7786TIP3    H123315   0.231   0.377   5.655
 7786TIP3    H223316   0.304   0.350   5.525
 7787TIP3   OH223317   8.098   7.786   1.804
 7787TIP3    H123318   8.091   7.701   1.761
 7787TIP3    H223319   8.058   7.773   1.890
 7788TIP3   OH223320   6.437   2.239   0.706
 7788TIP3    H123321   6.527   2.227   0.738
 7788TIP3    H223322   6.440   2.322   0.658
 7789TIP3   OH223323   2.383   3.064   2.986
 7789TIP3    H123324   2.468   3.043   2.949
 7789TIP3    H223325   2.397   3.063   3.081
 7790TIP3   OH223326   1.478   6.902   2.007
 7790TIP3    H123327   1.458   6.842   1.935
 7790TIP3    H223328   1.405   6.963   2.008
 7791TIP3   OH223329   6.863   0.430   3.885
 7791TIP3    H123330   6.941   0.479   3.859
 7791TIP3    H223331   6.791   0.471   3.837
 7792TIP3   OH223332   4.084   5.458   1.650
 7792TIP3    H123333   4.142   5.420   1.585
 7792TIP3    H223334   4.093   5.403   1.727
 7793TIP3   OH223335   2.201   3.141   5.473
 7793TIP3    H123336   2.268   3.187   5.524
 7793TIP3    H223337   2.184   3.198   5.398
 7794TIP3   OH223338   5.809   5.390   4.993
 7794TIP3    H123339   5.787   5.410   5.084
 7794TIP3    H223340   5.770   5.304   4.977
 7795TIP3   OH223341   1.375   0.122   2.370
 7795TIP3    H123342   1.291   0.163   2.348
 7795TIP3    H223343   1.387   0.140   2.463
 7796TIP3   OH223344   6.853   4.244   0.050
 7796TIP3    H123345   6.930   4.207   0.006
 7796TIP3    H223346   6.781   4.225  -0.009
 7797TIP3   OH223347   5.734   0.135   2.084
 7797TIP3    H123348   5.708   0.198   2.017
 7797TIP3    H223349   5.741   0.052   2.037
 7798TIP3   OH223350   1.225   7.835   2.522
 7798TIP3    H123351   1.252   7.835   2.430
 7798TIP3    H223352   1.221   7.743   2.546
 7799TIP3   OH223353   0.565   4.690   1.628
 7799TIP3    H123354   0.551   4.722   1.717
 7799TIP3    H223355   0.655   4.714   1.606
 7800TIP3   OH223356   3.022   2.074   1.872
 7800TIP3    H123357   3.046   2.066   1.965
 7800TIP3    H223358   3.097   2.037   1.825
 7801TIP3   OH223359   2.654   6.322   4.067
 7801TIP3    H123360   2.663   6.338   3.973
 7801TIP3    H223361   2.743   6.304   4.096
 7802TIP3   OH223362   5.322   1.935   6.487
 7802TIP3    H123363   5.391   1.895   6.434
 7802TIP3    H223364   5.366   2.008   6.532
 7803TIP3   OH223365   6.276   6.886   1.704
 7803TIP3    H123366   6.240   6.797   1.708
 7803TIP3    H223367   6.200   6.941   1.683
 7804TIP3   OH223368   2.395   5.052   5.407
 7804TIP3    H123369   2.438   5.125   5.362
 7804TIP3    H223370   2.420   4.975   5.356
 7805TIP3   OH223371   1.032   1.500   5.527
 7805TIP3    H123372   0.973   1.440   5.571
 7805TIP3    H223373   1.046   1.461   5.441
 7806TIP3   OH223374   1.822   7.030   5.829
 7806TIP3    H123375   1.779   7.107   5.867
 7806TIP3    H223376   1.755   6.962   5.831
 7807TIP3   OH223377   1.806   3.840   5.225
 7807TIP3    H123378   1.800   3.932   5.200
 7807TIP3    H223379   1.838   3.796   5.147
 7808TIP3   OH223380   2.539   1.687   2.630
 7808TIP3    H123381   2.578   1.652   2.711
 7808TIP3    H223382   2.614   1.702   2.572
 7809TIP3   OH223383   7.600   4.148   5.491
 7809TIP3    H123384   7.551   4.188   5.562
 7809TIP3    H223385   7.620   4.220   5.432
 7810TIP3   OH223386   2.254   3.751   2.773
 7810TIP3    H123387   2.319   3.759   2.703
 7810TIP3    H223388   2.218   3.839   2.783
 7811TIP3   OH223389   5.999   0.850   4.402
 7811TIP3    H123390   5.940   0.871   4.475
 7811TIP3    H223391   5.965   0.903   4.329
 7812TIP3   OH223392   6.252   3.392   4.164
 7812TIP3    H123393   6.289   3.323   4.219
 7812TIP3    H223394   6.231   3.463   4.225
 7813TIP3   OH223395   1.473   7.185   6.434
 7813TIP3    H123396   1.443   7.227   6.353
 7813TIP3    H223397   1.414   7.218   6.502
 7814TIP3   OH223398   1.873   1.649   6.187
 7814TIP3    H123399   1.958   1.691   6.193
 7814TIP3    H223400   1.854   1.645   6.094
 7815TIP3   OH223401   5.997   1.554   3.013
 7815TIP3    H123402   6.023   1.566   2.922
 7815TIP3    H223403   6.055   1.611   3.063
 7816TIP3   OH223404   7.126   6.456   3.221
 7816TIP3    H123405   7.146   6.366   3.244
 7816TIP3    H223406   7.099   6.452   3.129
 7817TIP3   OH223407   7.993   0.409   2.793
 7817TIP3    H123408   7.943   0.329   2.805
 7817TIP3    H223409   8.030   0.402   2.705
 7818TIP3   OH223410   6.944   3.756   4.455
 7818TIP3    H123411   6.862   3.710   4.435
 7818TIP3    H223412   6.973   3.791   4.371
 7819TIP3   OH223413   3.288   4.286   2.956
 7819TIP3    H123414   3.256   4.377   2.954
 7819TIP3    H223415   3.307   4.270   3.049
 7820TIP3   OH223416   2.454   0.276   3.807
 7820TIP3    H123417   2.537   0.312   3.777
 7820TIP3    H223418   2.421   0.227   3.731
 7821TIP3   OH223419   1.893   3.350   0.118
 7821TIP3    H123420   1.919   3.425   0.170
 7821TIP3    H223421   1.829   3.303   0.172
 7822TIP3   OH223422   4.652   7.004   3.289
 7822TIP3    H123423   4.625   7.019   3.379
 7822TIP3    H223424   4.606   7.071   3.238
 7823TIP3   OH223425   7.598   4.347   2.768
 7823TIP3    H123426   7.530   4.404   2.734
 7823TIP3    H223427   7.679   4.380   2.729
 7824TIP3   OH223428   7.326   0.825   4.699
 7824TIP3    H123429   7.348   0.817   4.792
 7824TIP3    H223430   7.289   0.740   4.676
 7825TIP3   OH223431   5.830   0.678   1.381
 7825TIP3    H123432   5.902   0.622   1.407
 7825TIP3    H223433   5.793   0.636   1.303
 7826TIP3   OH223434   0.977   2.379   5.891
 7826TIP3    H123435   1.051   2.400   5.834
 7826TIP3    H223436   0.906   2.436   5.861
 7827TIP3   OH223437   6.685   3.967   2.527
 7827TIP3    H123438   6.728   3.989   2.610
 7827TIP3    H223439   6.746   3.995   2.460
 7828TIP3   OH223440   4.470   3.350   4.372
 7828TIP3    H123441   4.485   3.364   4.278
 7828TIP3    H223442   4.389   3.300   4.376
 7829TIP3   OH223443   2.096   1.826   4.053
 7829TIP3    H123444   2.075   1.844   4.145
 7829TIP3    H223445   2.135   1.739   4.054
 7830TIP3   OH223446   4.504   0.079   1.722
 7830TIP3    H123447   4.470   0.046   1.639
 7830TIP3    H223448   4.575   0.138   1.698
 7831TIP3   OH223449   1.627   0.543   5.437
 7831TIP3    H123450   1.644   0.614   5.376
 7831TIP3    H223451   1.684   0.562   5.512
 7832TIP3   OH223452   3.399   2.085   0.327
 7832TIP3    H123453   3.424   2.040   0.407
 7832TIP3    H223454   3.388   2.177   0.353
 7833TIP3   OH223455   4.956   1.353   3.460
 7833TIP3    H123456   5.033   1.387   3.414
 7833TIP3    H223457   4.882   1.374   3.403
 7834TIP3   OH223458   1.639   3.502   0.371
 7834TIP3    H123459   1.732   3.483   0.357
 7834TIP3    H223460   1.639   3.574   0.435
 7835TIP3   OH223461   2.570   1.745   6.434
 7835TIP3    H123462   2.666   1.745   6.433
 7835TIP3    H223463   2.545   1.813   6.372
 7836TIP3   OH223464   3.808   2.602   0.864
 7836TIP3    H123465   3.750   2.655   0.811
 7836TIP3    H223466   3.804   2.640   0.952
 7837TIP3   OH223467   3.212   3.137   2.717
 7837TIP3    H123468   3.306   3.157   2.713
 7837TIP3    H223469   3.209   3.041   2.721
 7838TIP3   OH223470   2.727   6.698   4.155
 7838TIP3    H123471   2.782   6.776   4.161
 7838TIP3    H223472   2.646   6.728   4.114
 7839TIP3   OH223473   3.129   4.922   3.937
 7839TIP3    H123474   3.162   4.996   3.887
 7839TIP3    H223475   3.130   4.848   3.875
 7840TIP3   OH223476   3.158   2.463   4.959
 7840TIP3    H123477   3.209   2.395   4.915
 7840TIP3    H223478   3.068   2.429   4.960
 7841TIP3   OH223479   0.297   1.870   2.125
 7841TIP3    H123480   0.266   1.906   2.042
 7841TIP3    H223481   0.391   1.861   2.113
 7842TIP3   OH223482   5.430   6.213   4.566
 7842TIP3    H123483   5.434   6.141   4.503
 7842TIP3    H223484   5.521   6.227   4.593
 7843TIP3   OH223485   0.065   5.004   3.767
 7843TIP3    H123486  -0.008   4.961   3.723
 7843TIP3    H223487   0.055   4.982   3.859
 7844TIP3   OH223488   4.703   4.128   6.665
 7844TIP3    H123489   4.625   4.183   6.669
 7844TIP3    H223490   4.705   4.094   6.576
 7845TIP3   OH223491   2.118   0.698   5.563
 7845TIP3    H123492   2.144   0.732   5.478
 7845TIP3    H223493   2.166   0.753   5.626
 7846TIP3   OH223494   2.781   3.803   5.616
 7846TIP3    H123495   2.701   3.799   5.563
 7846TIP3    H223496   2.807   3.712   5.627
 7847TIP3   OH223497   2.368   3.277   5.661
 7847TIP3    H123498   2.430   3.240   5.725
 7847TIP3    H223499   2.293   3.304   5.714
 7848TIP3   OH223500   2.381   0.951   3.710
 7848TIP3    H123501   2.389   0.898   3.790
 7848TIP3    H223502   2.305   0.914   3.665
 7849TIP3   OH223503   5.256   6.332   2.147
 7849TIP3    H123504   5.260   6.293   2.234
 7849TIP3    H223505   5.240   6.425   2.164
 7850TIP3   OH223506   1.941   1.169   2.303
 7850TIP3    H123507   1.919   1.112   2.377
 7850TIP3    H223508   1.932   1.258   2.337
 7851TIP3   OH223509   6.960   5.281   4.052
 7851TIP3    H123510   6.995   5.192   4.042
 7851TIP3    H223511   7.037   5.337   4.045
 7852TIP3   OH223512   0.163   7.081   2.124
 7852TIP3    H123513   0.235   7.141   2.104
 7852TIP3    H223514   0.171   7.065   2.218
 7853TIP3   OH223515   1.011   5.277   1.083
 7853TIP3    H123516   1.094   5.264   1.038
 7853TIP3    H223517   1.032   5.334   1.157
 7854TIP3   OH223518   1.856   5.381   5.824
 7854TIP3    H123519   1.768   5.415   5.809
 7854TIP3    H223520   1.858   5.357   5.917
 7855TIP3   OH223521   0.268   3.617   0.363
 7855TIP3    H123522   0.254   3.523   0.369
 7855TIP3    H223523   0.346   3.626   0.307
 7856TIP3   OH223524   2.744   6.439   1.672
 7856TIP3    H123525   2.782   6.525   1.689
 7856TIP3    H223526   2.691   6.452   1.593
 7857TIP3   OH223527   5.146   7.493   2.062
 7857TIP3    H123528   5.160   7.403   2.033
 7857TIP3    H223529   5.200   7.502   2.140
 7858TIP3   OH223530   1.854   5.255   4.102
 7858TIP3    H123531   1.888   5.166   4.103
 7858TIP3    H223532   1.879   5.290   4.017
 7859TIP3   OH223533   5.147   5.224   5.141
 7859TIP3    H123534   5.229   5.259   5.107
 7859TIP3    H223535   5.167   5.135   5.168
 7860TIP3   OH223536   2.011   6.501   0.684
 7860TIP3    H123537   2.105   6.484   0.674
 7860TIP3    H223538   1.968   6.424   0.645
 7861TIP3   OH223539   4.972   2.511   4.559
 7861TIP3    H123540   4.984   2.468   4.474
 7861TIP3    H223541   4.946   2.600   4.538
 7862TIP3   OH223542   1.982   3.371   3.742
 7862TIP3    H123543   1.987   3.296   3.683
 7862TIP3    H223544   1.933   3.338   3.818
 7863TIP3   OH223545   0.504   6.262   1.432
 7863TIP3    H123546   0.413   6.290   1.441
 7863TIP3    H223547   0.555   6.342   1.445
 7864TIP3   OH223548   7.038   5.788   0.926
 7864TIP3    H123549   7.061   5.879   0.905
 7864TIP3    H223550   6.945   5.792   0.948
 7865TIP3   OH223551   3.807   5.423   0.376
 7865TIP3    H123552   3.752   5.382   0.443
 7865TIP3    H223553   3.750   5.432   0.300
 7866TIP3   OH223554   6.812   1.182   6.246
 7866TIP3    H123555   6.878   1.236   6.291
 7866TIP3    H223556   6.734   1.189   6.301
 7867TIP3   OH223557   3.458   0.772   1.808
 7867TIP3    H123558   3.456   0.767   1.904
 7867TIP3    H223559   3.428   0.686   1.780
 7868TIP3   OH223560   4.400   1.637   5.009
 7868TIP3    H123561   4.453   1.625   4.931
 7868TIP3    H223562   4.404   1.552   5.053
 7869TIP3   OH223563   2.381   4.963   1.670
 7869TIP3    H123564   2.366   4.976   1.764
 7869TIP3    H223565   2.399   4.870   1.661
 7870TIP3   OH223566   0.608   4.493   6.095
 7870TIP3    H123567   0.657   4.452   6.024
 7870TIP3    H223568   0.592   4.582   6.065
 7871TIP3   OH223569   4.936   6.692   6.399
 7871TIP3    H123570   5.031   6.694   6.407
 7871TIP3    H223571   4.915   6.771   6.348
 7872TIP3   OH223572   7.962   3.022   5.977
 7872TIP3    H123573   8.004   2.945   6.014
 7872TIP3    H223574   8.027   3.092   5.987
 7873TIP3   OH223575   5.759   7.448   6.089
 7873TIP3    H123576   5.709   7.474   6.166
 7873TIP3    H223577   5.730   7.506   6.019
 7874TIP3   OH223578   1.676   7.666   6.086
 7874TIP3    H123579   1.632   7.585   6.059
 7874TIP3    H223580   1.702   7.651   6.176
 7875TIP3   OH223581   7.256   4.680   0.095
 7875TIP3    H123582   7.318   4.693   0.024
 7875TIP3    H223583   7.246   4.585   0.101
 7876TIP3   OH223584   1.791   7.634   6.320
 7876TIP3    H123585   1.750   7.688   6.388
 7876TIP3    H223586   1.809   7.550   6.364
 7877TIP3   OH223587   1.143   0.516   3.803
 7877TIP3    H123588   1.168   0.452   3.735
 7877TIP3    H223589   1.204   0.589   3.791
 7878TIP3   OH223590   0.345   7.092   4.670
 7878TIP3    H123591   0.260   7.064   4.636
 7878TIP3    H223592   0.396   7.114   4.592
 7879TIP3   OH223593   5.722   4.579   1.727
 7879TIP3    H123594   5.787   4.622   1.671
 7879TIP3    H223595   5.752   4.489   1.733
 7880TIP3   OH223596   6.030   7.391   5.122
 7880TIP3    H123597   5.982   7.433   5.194
 7880TIP3    H223598   6.119   7.425   5.129
 7881TIP3   OH223599   3.108   1.128   6.030
 7881TIP3    H123600   3.071   1.129   5.942
 7881TIP3    H223601   3.194   1.087   6.020
 7882TIP3   OH223602   5.529   7.646   2.359
 7882TIP3    H123603   5.452   7.638   2.414
 7882TIP3    H223604   5.565   7.558   2.354
 7883TIP3   OH223605   6.560   7.404   3.142
 7883TIP3    H123606   6.543   7.362   3.058
 7883TIP3    H223607   6.565   7.333   3.205
 7884TIP3   OH223608   7.929   2.847   3.195
 7884TIP3    H123609   7.953   2.777   3.134
 7884TIP3    H223610   7.834   2.844   3.198
 7885TIP3   OH223611   3.503   6.379   4.791
 7885TIP3    H123612   3.490   6.468   4.824
 7885TIP3    H223613   3.573   6.388   4.726
 7886TIP3   OH223614   4.386   0.942   3.855
 7886TIP3    H123615   4.392   0.998   3.777
 7886TIP3    H223616   4.325   0.988   3.913
 7887TIP3   OH223617   7.774   6.120   6.221
 7887TIP3    H123618   7.788   6.110   6.315
 7887TIP3    H223619   7.830   6.194   6.197
 7888TIP3   OH223620   7.540   4.442   4.934
 7888TIP3    H123621   7.606   4.466   4.869
 7888TIP3    H223622   7.588   4.387   4.997
 7889TIP3   OH223623   3.642   4.158   2.217
 7889TIP3    H123624   3.626   4.152   2.311
 7889TIP3    H223625   3.630   4.250   2.196
 7890TIP3   OH223626   7.924   0.865   5.713
 7890TIP3    H123627   7.908   0.895   5.624
 7890TIP3    H223628   7.880   0.780   5.718
 7891TIP3   OH223629   5.930   5.073   0.603
 7891TIP3    H123630   6.007   5.016   0.610
 7891TIP3    H223631   5.888   5.067   0.688
 7892TIP3   OH223632   6.009   2.773   1.298
 7892TIP3    H123633   5.939   2.714   1.271
 7892TIP3    H223634   5.982   2.806   1.383
 7893TIP3   OH223635   5.880   6.870   6.511
 7893TIP3    H123636   5.892   6.921   6.431
 7893TIP3    H223637   5.917   6.784   6.491
 7894TIP3   OH223638   3.604   3.531   2.065
 7894TIP3    H123639   3.652   3.510   2.145
 7894TIP3    H223640   3.595   3.627   2.067
 7895TIP3   OH223641   0.433   6.515   6.740
 7895TIP3    H123642   0.374   6.521   6.664
 7895TIP3    H223643   0.395   6.574   6.805
 7896TIP3   OH223644   2.397   7.054   6.597
 7896TIP3    H123645   2.390   6.986   6.664
 7896TIP3    H223646   2.307   7.071   6.571
 7897TIP3   OH223647   1.947   4.991   3.658
 7897TIP3    H123648   1.913   5.070   3.617
 7897TIP3    H223649   1.920   4.920   3.600
 7898TIP3   OH223650   2.452   4.040   1.661
 7898TIP3    H123651   2.510   4.092   1.716
 7898TIP3    H223652   2.392   3.997   1.722
 7899TIP3   OH223653   5.047   4.279   4.626
 7899TIP3    H123654   5.098   4.355   4.655
 7899TIP3    H223655   5.018   4.237   4.707
 7900TIP3   OH223656   7.220   7.560   6.665
 7900TIP3    H123657   7.262   7.645   6.671
 7900TIP3    H223658   7.272   7.503   6.722
 7901TIP3   OH223659   7.522   0.321   5.775
 7901TIP3    H123660   7.445   0.316   5.831
 7901TIP3    H223661   7.515   0.243   5.719
 7902TIP3   OH223662   0.150   0.116   6.417
 7902TIP3    H123663   0.154   0.082   6.507
 7902TIP3    H223664   0.111   0.202   6.426
 7903TIP3   OH223665   0.913   4.070   4.911
 7903TIP3    H123666   0.840   4.124   4.881
 7903TIP3    H223667   0.891   3.981   4.884
 7904TIP3   OH223668   1.278   7.273   1.629
 7904TIP3    H123669   1.267   7.178   1.622
 7904TIP3    H223670   1.257   7.306   1.541
 7905TIP3   OH223671   5.093   1.974   2.400
 7905TIP3    H123672   5.169   1.986   2.344
 7905TIP3    H223673   5.032   2.043   2.374
 7906TIP3   OH223674   4.660   4.742   0.191
 7906TIP3    H123675   4.663   4.825   0.145
 7906TIP3    H223676   4.752   4.713   0.195
 7907TIP3   OH223677   3.855   2.998   3.805
 7907TIP3    H123678   3.906   2.919   3.787
 7907TIP3    H223679   3.766   2.975   3.778
 7908TIP3   OH223680   5.643   4.001   3.737
 7908TIP3    H123681   5.703   4.070   3.765
 7908TIP3    H223682   5.658   3.993   3.643
 7909TIP3   OH223683   0.478   0.831   3.698
 7909TIP3    H123684   0.477   0.920   3.663
 7909TIP3    H223685   0.397   0.792   3.666
 7910TIP3   OH223686   6.221   1.830   0.228
 7910TIP3    H123687   6.172   1.909   0.205
 7910TIP3    H223688   6.239   1.788   0.145
 7911TIP3   OH223689   4.824   7.738   2.497
 7911TIP3    H123690   4.803   7.657   2.543
 7911TIP3    H223691   4.766   7.738   2.420
 7912TIP3   OH223692   8.097   1.619   6.036
 7912TIP3    H123693   8.096   1.705   6.077
 7912TIP3    H223694   8.165   1.625   5.968
 7913TIP3   OH223695   5.165   6.065   3.176
 7913TIP3    H123696   5.169   5.974   3.149
 7913TIP3    H223697   5.169   6.115   3.094
 7914TIP3   OH223698   4.520   6.779   5.144
 7914TIP3    H123699   4.546   6.717   5.076
 7914TIP3    H223700   4.586   6.848   5.141
 7915TIP3   OH223701   8.164   2.316   6.206
 7915TIP3    H123702   8.238   2.338   6.149
 7915TIP3    H223703   8.197   2.248   6.264
 7916TIP3   OH223704   3.499   7.738   3.893
 7916TIP3    H123705   3.585   7.756   3.857
 7916TIP3    H223706   3.513   7.735   3.988
 7917TIP3   OH223707   6.442   1.093   5.649
 7917TIP3    H123708   6.371   1.138   5.604
 7917TIP3    H223709   6.441   1.129   5.738
 7918TIP3   OH223710   7.285   2.804   4.349
 7918TIP3    H123711   7.192   2.825   4.343
 7918TIP3    H223712   7.293   2.750   4.428
 7919TIP3   OH223713   5.523   4.501   6.175
 7919TIP3    H123714   5.565   4.509   6.261
 7919TIP3    H223715   5.568   4.428   6.133
 7920TIP3   OH223716   5.106   1.890   5.316
 7920TIP3    H123717   5.117   1.803   5.354
 7920TIP3    H223718   5.029   1.882   5.259
 7921TIP3   OH223719   6.143   7.623   1.302
 7921TIP3    H123720   6.179   7.563   1.369
 7921TIP3    H223721   6.120   7.566   1.229
 7922TIP3   OH223722   7.026   2.773   2.981
 7922TIP3    H123723   7.038   2.688   3.024
 7922TIP3    H223724   7.016   2.835   3.053
 7923TIP3   OH223725   0.423   0.656   5.163
 7923TIP3    H123726   0.335   0.625   5.144
 7923TIP3    H223727   0.467   0.581   5.203
 7924TIP3   OH223728   0.020   0.784   2.024
 7924TIP3    H123729  -0.031   0.832   1.959
 7924TIP3    H223730   0.070   0.852   2.070
 7925TIP3   OH223731   2.638   3.392   5.881
 7925TIP3    H123732   2.712   3.428   5.832
 7925TIP3    H223733   2.577   3.466   5.889
 7926TIP3   OH223734   4.707   1.116   1.897
 7926TIP3    H123735   4.770   1.142   1.829
 7926TIP3    H223736   4.634   1.077   1.849
 7927TIP3   OH223737   0.199   4.761   0.345
 7927TIP3    H123738   0.174   4.670   0.362
 7927TIP3    H223739   0.116   4.804   0.321
 7928TIP3   OH223740   7.775   6.735   3.663
 7928TIP3    H123741   7.854   6.689   3.635
 7928TIP3    H223742   7.704   6.673   3.644
 7929TIP3   OH223743   6.595   2.945   0.579
 7929TIP3    H123744   6.643   3.010   0.528
 7929TIP3    H223745   6.527   2.913   0.519
 7930TIP3   OH223746   2.130   0.138   5.456
 7930TIP3    H123747   2.161   0.209   5.401
 7930TIP3    H223748   2.042   0.119   5.424
 7931TIP3   OH223749   3.644   2.431   1.855
 7931TIP3    H123750   3.574   2.370   1.832
 7931TIP3    H223751   3.717   2.406   1.798
 7932TIP3   OH223752   6.622   0.031   4.431
 7932TIP3    H123753   6.624   0.065   4.341
 7932TIP3    H223754   6.693   0.078   4.475
 7933TIP3   OH223755   2.760   7.008   4.984
 7933TIP3    H123756   2.730   6.918   4.976
 7933TIP3    H223757   2.698   7.048   5.046
 7934TIP3   OH223758   4.579   4.250   5.217
 7934TIP3    H123759   4.519   4.272   5.145
 7934TIP3    H223760   4.663   4.233   5.175
 7935TIP3   OH223761   0.960   3.041   3.445
 7935TIP3    H123762   0.978   3.027   3.538
 7935TIP3    H223763   0.937   3.134   3.440
 7936TIP3   OH223764   7.450   4.696   1.097
 7936TIP3    H123765   7.498   4.690   1.014
 7936TIP3    H223766   7.492   4.768   1.144
 7937TIP3   OH223767   0.903   4.024   2.637
 7937TIP3    H123768   0.974   4.074   2.596
 7937TIP3    H223769   0.884   4.070   2.718
 7938TIP3   OH223770   7.581   7.023   3.002
 7938TIP3    H123771   7.672   7.018   3.030
 7938TIP3    H223772   7.570   6.949   2.942
 7939TIP3   OH223773   3.709   0.949   3.294
 7939TIP3    H123774   3.663   0.873   3.330
 7939TIP3    H223775   3.796   0.946   3.334
 7940TIP3   OH223776   1.479   0.297   2.580
 7940TIP3    H123777   1.545   0.333   2.640
 7940TIP3    H223778   1.437   0.373   2.541
 7941TIP3   OH223779   2.365   7.628   5.268
 7941TIP3    H123780   2.434   7.646   5.204
 7941TIP3    H223781   2.376   7.695   5.335
 7942TIP3   OH223782   3.912   2.430   1.443
 7942TIP3    H123783   3.838   2.394   1.395
 7942TIP3    H223784   3.889   2.417   1.535
 7943TIP3   OH223785   6.755   0.564   5.708
 7943TIP3    H123786   6.709   0.582   5.790
 7943TIP3    H223787   6.743   0.643   5.656
 7944TIP3   OH223788   4.961   6.386   1.127
 7944TIP3    H123789   4.991   6.444   1.057
 7944TIP3    H223790   4.876   6.423   1.154
 7945TIP3   OH223791   7.247   3.568   0.903
 7945TIP3    H123792   7.183   3.633   0.874
 7945TIP3    H223793   7.225   3.489   0.852
 7946TIP3   OH223794   6.418   6.891   3.842
 7946TIP3    H123795   6.452   6.804   3.825
 7946TIP3    H223796   6.474   6.950   3.791
 7947TIP3   OH223797   2.513   6.638   2.255
 7947TIP3    H123798   2.433   6.601   2.216
 7947TIP3    H223799   2.532   6.716   2.202
 7948TIP3   OH223800   7.173   1.872   0.293
 7948TIP3    H123801   7.100   1.909   0.343
 7948TIP3    H223802   7.143   1.784   0.270
 7949TIP3   OH223803   0.199   3.751   5.271
 7949TIP3    H123804   0.208   3.846   5.271
 7949TIP3    H223805   0.131   3.733   5.207
 7950TIP3   OH223806   0.439   7.300   5.209
 7950TIP3    H123807   0.403   7.316   5.297
 7950TIP3    H223808   0.522   7.254   5.226
 7951TIP3   OH223809   4.714   1.500   3.323
 7951TIP3    H123810   4.724   1.541   3.409
 7951TIP3    H223811   4.629   1.457   3.327
 7952TIP3   OH223812   0.237   6.124   2.611
 7952TIP3    H123813   0.261   6.197   2.554
 7952TIP3    H223814   0.188   6.064   2.554
 7953TIP3   OH223815   3.166   4.772   2.689
 7953TIP3    H123816   3.179   4.749   2.597
 7953TIP3    H223817   3.118   4.855   2.687
 7954TIP3   OH223818   7.155   5.593   2.561
 7954TIP3    H123819   7.125   5.681   2.585
 7954TIP3    H223820   7.151   5.544   2.643
 7955TIP3   OH223821   6.577   3.302   4.635
 7955TIP3    H123822   6.538   3.386   4.611
 7955TIP3    H223823   6.582   3.304   4.731
 7956TIP3   OH223824   6.087   6.048   5.844
 7956TIP3    H123825   5.994   6.033   5.828
 7956TIP3    H223826   6.095   6.143   5.853
 7957TIP3   OH223827   0.266   5.082   0.178
 7957TIP3    H123828   0.235   5.062   0.266
 7957TIP3    H223829   0.211   5.028   0.121
 7958TIP3   OH223830   0.287   6.517   5.070
 7958TIP3    H123831   0.257   6.589   5.125
 7958TIP3    H223832   0.289   6.442   5.129
 7959TIP3   OH223833   7.941   2.899   4.147
 7959TIP3    H123834   7.864   2.949   4.174
 7959TIP3    H223835   8.006   2.916   4.216
 7960TIP3   OH223836   5.001   0.596   2.719
 7960TIP3    H123837   4.968   0.678   2.755
 7960TIP3    H223838   4.952   0.584   2.638
 7961TIP3   OH223839   5.124   4.725   1.705
 7961TIP3    H123840   5.173   4.645   1.687
 7961TIP3    H223841   5.040   4.695   1.741
 7962TIP3   OH223842   2.403   2.572   1.753
 7962TIP3    H123843   2.389   2.626   1.675
 7962TIP3    H223844   2.327   2.514   1.756
 7963TIP3   OH223845   1.956   6.877   4.926
 7963TIP3    H123846   1.994   6.957   4.962
 7963TIP3    H223847   1.872   6.867   4.971
 7964TIP3   OH223848   3.492   5.428   3.136
 7964TIP3    H123849   3.493   5.333   3.147
 7964TIP3    H223850   3.582   5.455   3.149
 7965TIP3   OH223851   1.311   1.597   4.202
 7965TIP3    H123852   1.371   1.535   4.243
 7965TIP3    H223853   1.261   1.634   4.274
 7966TIP3   OH223854   4.377   2.869   5.695
 7966TIP3    H123855   4.373   2.846   5.788
 7966TIP3    H223856   4.442   2.939   5.691
 7967TIP3   OH223857   1.782   0.137   5.930
 7967TIP3    H123858   1.802   0.179   5.846
 7967TIP3    H223859   1.749   0.209   5.985
 7968TIP3   OH223860   8.101   3.829   0.135
 7968TIP3    H123861   8.107   3.808   0.228
 7968TIP3    H223862   8.044   3.762   0.098
 7969TIP3   OH223863   6.881   6.719   1.701
 7969TIP3    H123864   6.859   6.769   1.623
 7969TIP3    H223865   6.803   6.667   1.720
 7970TIP3   OH223866   7.178   1.547   5.325
 7970TIP3    H123867   7.096   1.589   5.297
 7970TIP3    H223868   7.174   1.459   5.288
 7971TIP3   OH223869   4.919   4.726   3.419
 7971TIP3    H123870   4.885   4.763   3.337
 7971TIP3    H223871   4.955   4.641   3.394
 7972TIP3   OH223872   3.555   5.721   4.715
 7972TIP3    H123873   3.607   5.659   4.767
 7972TIP3    H223874   3.515   5.668   4.646
 7973TIP3   OH223875   2.505   1.535   4.035
 7973TIP3    H123876   2.561   1.508   4.108
 7973TIP3    H223877   2.563   1.533   3.959
 7974TIP3   OH223878   2.600   5.993   0.033
 7974TIP3    H123879   2.528   5.933   0.013
 7974TIP3    H223880   2.587   6.066  -0.028
 7975TIP3   OH223881   6.447   7.792   3.540
 7975TIP3    H123882   6.362   7.823   3.509
 7975TIP3    H223883   6.428   7.708   3.581
 7976TIP3   OH223884   4.524   4.683   1.659
 7976TIP3    H123885   4.548   4.750   1.595
 7976TIP3    H223886   4.438   4.710   1.691
 7977TIP3   OH223887   7.269   7.376   3.574
 7977TIP3    H123888   7.293   7.443   3.639
 7977TIP3    H223889   7.351   7.329   3.558
 7978TIP3   OH223890   3.722   6.150   2.385
 7978TIP3    H123891   3.671   6.182   2.311
 7978TIP3    H223892   3.680   6.067   2.409
 7979TIP3   OH223893   2.979   3.552   6.593
 7979TIP3    H123894   2.924   3.585   6.664
 7979TIP3    H223895   3.023   3.476   6.631
 7980TIP3   OH223896   7.314   4.943   1.639
 7980TIP3    H123897   7.303   5.027   1.595
 7980TIP3    H223898   7.405   4.919   1.622
 7981TIP3   OH223899   0.858   4.489   6.588
 7981TIP3    H123900   0.822   4.404   6.563
 7981TIP3    H223901   0.898   4.474   6.674
 7982TIP3   OH223902   1.916   6.247   0.624
 7982TIP3    H123903   1.965   6.208   0.697
 7982TIP3    H223904   1.939   6.194   0.548
 7983TIP3   OH223905   3.363   1.074   3.057
 7983TIP3    H123906   3.359   1.039   2.968
 7983TIP3    H223907   3.358   0.997   3.113
 7984TIP3   OH223908   6.547   1.381   1.134
 7984TIP3    H123909   6.548   1.475   1.115
 7984TIP3    H223910   6.503   1.375   1.219
 7985TIP3   OH223911   5.701   3.017   6.249
 7985TIP3    H123912   5.676   3.049   6.163
 7985TIP3    H223913   5.780   3.066   6.271
 7986TIP3   OH223914   8.114   4.718   0.221
 7986TIP3    H123915   8.037   4.698   0.168
 7986TIP3    H223916   8.164   4.780   0.168
 7987TIP3   OH223917   0.660   7.436   3.787
 7987TIP3    H123918   0.637   7.493   3.715
 7987TIP3    H223919   0.753   7.415   3.773
 7988TIP3   OH223920   5.630   6.479   6.720
 7988TIP3    H123921   5.587   6.394   6.723
 7988TIP3    H223922   5.721   6.461   6.744
 7989TIP3   OH223923   0.731   6.927   0.811
 7989TIP3    H123924   0.816   6.904   0.850
 7989TIP3    H223925   0.694   6.843   0.784
 7990TIP3   OH223926   8.179   2.083   1.919
 7990TIP3    H123927   8.212   2.045   1.838
 7990TIP3    H223928   8.109   2.142   1.890
 7991TIP3   OH223929   6.186   0.515   4.213
 7991TIP3    H123930   6.211   0.598   4.252
 7991TIP3    H223931   6.167   0.458   4.287
 7992TIP3   OH223932   1.926   0.690   4.062
 7992TIP3    H123933   1.860   0.634   4.102
 7992TIP3    H223934   2.009   0.644   4.075
 7993TIP3   OH223935   7.785   4.695   1.661
 7993TIP3    H123936   7.833   4.773   1.689
 7993TIP3    H223937   7.852   4.627   1.650
 7994TIP3   OH223938   0.658   1.128   1.371
 7994TIP3    H123939   0.651   1.045   1.418
 7994TIP3    H223940   0.591   1.122   1.303
 7995TIP3   OH223941   5.365   7.317   4.207
 7995TIP3    H123942   5.457   7.338   4.189
 7995TIP3    H223943   5.340   7.376   4.278
 7996TIP3   OH223944   2.924   4.864   6.504
 7996TIP3    H123945   2.884   4.890   6.587
 7996TIP3    H223946   2.879   4.783   6.481
 7997TIP3   OH223947   1.154   2.010   2.022
 7997TIP3    H123948   1.198   1.951   2.084
 7997TIP3    H223949   1.062   2.006   2.047
 7998TIP3   OH223950   0.515   6.474   4.211
 7998TIP3    H123951   0.450   6.412   4.243
 7998TIP3    H223952   0.593   6.456   4.263
 7999TIP3   OH223953   0.852   0.632   5.119
 7999TIP3    H123954   0.923   0.600   5.064
 7999TIP3    H223955   0.863   0.585   5.202
 8000TIP3   OH223956   0.392   5.952   4.761
 8000TIP3    H123957   0.480   5.915   4.763
 8000TIP3    H223958   0.334   5.877   4.780
 8001TIP3   OH223959   7.693   6.022   3.611
 8001TIP3    H123960   7.639   6.092   3.576
 8001TIP3    H223961   7.783   6.052   3.601
 8002TIP3   OH223962   1.706   1.016   0.189
 8002TIP3    H123963   1.687   0.968   0.270
 8002TIP3    H223964   1.648   0.977   0.124
 8003TIP3   OH223965   2.032   0.957   4.885
 8003TIP3    H123966   2.008   1.026   4.824
 8003TIP3    H223967   2.076   0.891   4.830
 8004TIP3   OH223968   1.220   0.698   4.231
 8004TIP3    H123969   1.171   0.655   4.161
 8004TIP3    H223970   1.194   0.790   4.226
 8005TIP3   OH223971   0.750   0.938   0.916
 8005TIP3    H123972   0.743   0.846   0.941
 8005TIP3    H223973   0.833   0.944   0.868
 8006TIP3   OH223974   7.362   2.700   5.988
 8006TIP3    H123975   7.360   2.785   5.944
 8006TIP3    H223976   7.357   2.721   6.081
 8007TIP3   OH223977   7.635   4.664   4.171
 8007TIP3    H123978   7.676   4.743   4.205
 8007TIP3    H223979   7.543   4.687   4.159
 8008TIP3   OH223980   0.709   3.819   5.460
 8008TIP3    H123981   0.653   3.852   5.531
 8008TIP3    H223982   0.710   3.724   5.471
 8009TIP3   OH223983   6.923   3.254   4.228
 8009TIP3    H123984   6.990   3.320   4.250
 8009TIP3    H223985   6.960   3.206   4.154
 8010TIP3   OH223986   5.776   7.662   0.732
 8010TIP3    H123987   5.739   7.598   0.793
 8010TIP3    H223988   5.700   7.711   0.699
 8011TIP3   OH223989   3.624   3.026   4.020
 8011TIP3    H123990   3.548   3.009   4.075
 8011TIP3    H223991   3.693   2.970   4.057
 8012TIP3   OH223992   1.157   6.845   1.964
 8012TIP3    H123993   1.093   6.774   1.955
 8012TIP3    H223994   1.188   6.837   2.054
 8013TIP3   OH223995   0.007   3.613   5.557
 8013TIP3    H123996   0.016   3.576   5.469
 8013TIP3    H223997   0.041   3.702   5.548
 8014TIP3   OH223998   0.447   1.129   0.940
 8014TIP3    H123999   0.508   1.086   0.880
 8014TIP3    H224000   0.364   1.130   0.892
 8015TIP3   OH224001   5.838   5.330   2.192
 8015TIP3    H124002   5.921   5.349   2.235
 8015TIP3    H224003   5.832   5.396   2.122
 8016TIP3   OH224004   6.152   3.936   3.078
 8016TIP3    H124005   6.190   3.935   2.991
 8016TIP3    H224006   6.220   3.976   3.133
 8017TIP3   OH224007   0.299   7.583   1.125
 8017TIP3    H124008   0.273   7.566   1.035
 8017TIP3    H224009   0.387   7.621   1.119
 8018TIP3   OH224010   2.576   4.054   0.760
 8018TIP3    H124011   2.483   4.069   0.747
 8018TIP3    H224012   2.617   4.082   0.678
 8019TIP3   OH224013   0.892   6.799   2.635
 8019TIP3    H124014   0.952   6.734   2.674
 8019TIP3    H224015   0.836   6.747   2.577
 8020TIP3   OH224016   1.152   4.410   3.065
 8020TIP3    H124017   1.165   4.504   3.070
 8020TIP3    H224018   1.084   4.391   3.130
 8021TIP3   OH224019   4.696   2.714   4.860
 8021TIP3    H124020   4.763   2.751   4.803
 8021TIP3    H224021   4.743   2.654   4.917
 8022TIP3   OH224022   3.874   1.628   3.304
 8022TIP3    H124023   3.963   1.613   3.270
 8022TIP3    H224024   3.829   1.545   3.289
 8023TIP3   OH224025   6.841   1.187   5.588
 8023TIP3    H124026   6.796   1.130   5.650
 8023TIP3    H224027   6.866   1.264   5.639
 8024TIP3   OH224028   3.851   2.132   4.213
 8024TIP3    H124029   3.897   2.151   4.131
 8024TIP3    H224030   3.920   2.111   4.275
 8025TIP3   OH224031   5.081   1.499   1.986
 8025TIP3    H124032   4.990   1.469   1.983
 8025TIP3    H224033   5.082   1.579   1.933
 8026TIP3   OH224034   1.777   5.585   2.423
 8026TIP3    H124035   1.797   5.495   2.397
 8026TIP3    H224036   1.682   5.592   2.419
 8027TIP3   OH224037   6.530   7.574   2.371
 8027TIP3    H124038   6.467   7.632   2.327
 8027TIP3    H224039   6.587   7.544   2.301
 8028TIP3   OH224040   5.334   6.221   5.199
 8028TIP3    H124041   5.374   6.195   5.282
 8028TIP3    H224042   5.241   6.228   5.219
 8029TIP3   OH224043   6.128   0.420   1.224
 8029TIP3    H124044   6.182   0.342   1.242
 8029TIP3    H224045   6.045   0.384   1.194
 8030TIP3   OH224046   6.754   6.483   2.438
 8030TIP3    H124047   6.812   6.554   2.464
 8030TIP3    H224048   6.669   6.525   2.425
 8031TIP3   OH224049   4.228   4.291   0.618
 8031TIP3    H124050   4.197   4.367   0.668
 8031TIP3    H224051   4.236   4.222   0.684
 8032TIP3   OH224052   6.871   1.950   1.985
 8032TIP3    H124053   6.853   1.856   1.989
 8032TIP3    H224054   6.818   1.982   1.912
 8033TIP3   OH224055   2.007   2.446   3.473
 8033TIP3    H124056   2.057   2.409   3.546
 8033TIP3    H224057   2.016   2.540   3.483
 8034TIP3   OH224058   6.196   1.207   3.052
 8034TIP3    H124059   6.190   1.271   2.981
 8034TIP3    H224060   6.105   1.186   3.073
 8035TIP3   OH224061   0.593   3.688   0.598
 8035TIP3    H124062   0.539   3.761   0.569
 8035TIP3    H224063   0.618   3.643   0.516
 8036TIP3   OH224064   7.541   2.776   2.509
 8036TIP3    H124065   7.467   2.736   2.555
 8036TIP3    H224066   7.609   2.709   2.507
 8037TIP3   OH224067   2.102   2.226   5.193
 8037TIP3    H124068   2.183   2.201   5.149
 8037TIP3    H224069   2.081   2.151   5.248
 8038TIP3   OH224070   2.439   1.251   1.526
 8038TIP3    H124071   2.345   1.250   1.508
 8038TIP3    H224072   2.447   1.301   1.607
 8039TIP3   OH224073   0.053   4.355   2.225
 8039TIP3    H124074   0.019   4.294   2.159
 8039TIP3    H224075   0.144   4.371   2.200
 8040TIP3   OH224076   4.176   6.429   3.353
 8040TIP3    H124077   4.213   6.392   3.433
 8040TIP3    H224078   4.087   6.455   3.378
 8041TIP3   OH224079   6.025   4.606   5.744
 8041TIP3    H124080   6.025   4.577   5.652
 8041TIP3    H224081   6.073   4.689   5.743
 8042TIP3   OH224082   7.434   7.421   1.002
 8042TIP3    H124083   7.516   7.451   1.042
 8042TIP3    H224084   7.443   7.441   0.909
 8043TIP3   OH224085   6.654   6.876   1.415
 8043TIP3    H124086   6.696   6.931   1.481
 8043TIP3    H224087   6.685   6.911   1.331
 8044TIP3   OH224088   7.740   6.800   1.133
 8044TIP3    H124089   7.651   6.781   1.161
 8044TIP3    H224090   7.734   6.810   1.038
 8045TIP3   OH224091   4.561   6.958   4.259
 8045TIP3    H124092   4.554   7.053   4.253
 8045TIP3    H224093   4.614   6.943   4.338
 8046TIP3   OH224094   7.185   1.023   6.441
 8046TIP3    H124095   7.180   1.088   6.371
 8046TIP3    H224096   7.101   0.978   6.438
 8047TIP3   OH224097   5.406   2.402   2.101
 8047TIP3    H124098   5.338   2.445   2.152
 8047TIP3    H224099   5.365   2.387   2.015
 8048TIP3   OH224100   5.765   6.715   5.608
 8048TIP3    H124101   5.764   6.753   5.696
 8048TIP3    H224102   5.677   6.679   5.597
 8049TIP3   OH224103   2.972   1.368   1.679
 8049TIP3    H124104   2.883   1.361   1.644
 8049TIP3    H224105   3.026   1.390   1.603
 8050TIP3   OH224106   4.167   5.470   3.508
 8050TIP3    H124107   4.189   5.531   3.579
 8050TIP3    H224108   4.112   5.522   3.449
 8051TIP3   OH224109   1.579   0.225   4.887
 8051TIP3    H124110   1.530   0.284   4.943
 8051TIP3    H224111   1.640   0.181   4.946
 8052TIP3   OH224112   7.425   6.545   1.756
 8052TIP3    H124113   7.396   6.619   1.810
 8052TIP3    H224114   7.514   6.527   1.787
 8053TIP3   OH224115   2.727   0.820   4.164
 8053TIP3    H124116   2.783   0.743   4.171
 8053TIP3    H224117   2.695   0.835   4.252
 8054TIP3   OH224118   7.359   3.359   0.251
 8054TIP3    H124119   7.345   3.453   0.244
 8054TIP3    H224120   7.433   3.341   0.193
 8055TIP3   OH224121   8.242   4.475   4.257
 8055TIP3    H124122   8.332   4.458   4.284
 8055TIP3    H224123   8.190   4.409   4.302
 8056TIP3   OH224124   3.110   7.427   4.420
 8056TIP3    H124125   3.098   7.347   4.470
 8056TIP3    H224126   3.156   7.399   4.340
 8057TIP3   OH224127   1.568   4.230   0.085
 8057TIP3    H124128   1.476   4.207   0.090
 8057TIP3    H224129   1.580   4.296   0.153
 8058TIP3   OH224130   7.330   0.790   3.226
 8058TIP3    H124131   7.387   0.827   3.294
 8058TIP3    H224132   7.313   0.862   3.166
 8059TIP3   OH224133   3.444   5.669   3.243
 8059TIP3    H124134   3.472   5.583   3.212
 8059TIP3    H224135   3.460   5.727   3.168
 8060TIP3   OH224136   2.932   4.161   3.094
 8060TIP3    H124137   2.862   4.225   3.111
 8060TIP3    H224138   2.982   4.158   3.175
 8061TIP3   OH224139   1.412   3.721   0.103
 8061TIP3    H124140   1.496   3.697   0.064
 8061TIP3    H224141   1.353   3.649   0.079
 8062TIP3   OH224142   6.310   6.230   5.579
 8062TIP3    H124143   6.237   6.183   5.539
 8062TIP3    H224144   6.352   6.165   5.636
 8063TIP3   OH224145   2.028   5.982   1.550
 8063TIP3    H124146   2.013   5.888   1.534
 8063TIP3    H224147   2.088   5.985   1.624
 8064TIP3   OH224148   5.554   4.763   5.324
 8064TIP3    H124149   5.513   4.728   5.402
 8064TIP3    H224150   5.647   4.742   5.335
 8065TIP3   OH224151   5.437   2.514   0.909
 8065TIP3    H124152   5.477   2.472   0.832
 8065TIP3    H224153   5.343   2.501   0.897
 8066TIP3   OH224154   1.726   4.760   1.954
 8066TIP3    H124155   1.753   4.715   1.874
 8066TIP3    H224156   1.673   4.833   1.924
 8067TIP3   OH224157   3.007   3.686   1.241
 8067TIP3    H124158   3.012   3.736   1.322
 8067TIP3    H224159   2.966   3.746   1.179
 8068TIP3   OH224160   0.015   1.864   6.656
 8068TIP3    H124161   0.091   1.900   6.611
 8068TIP3    H224162   0.041   1.862   6.748
 8069TIP3   OH224163   3.559   0.150   4.594
 8069TIP3    H124164   3.636   0.127   4.542
 8069TIP3    H224165   3.497   0.079   4.577
 8070TIP3   OH224166   2.187   0.944   4.655
 8070TIP3    H124167   2.165   0.857   4.621
 8070TIP3    H224168   2.209   0.995   4.577
 8071TIP3   OH224169   6.040   3.841   5.206
 8071TIP3    H124170   6.063   3.756   5.169
 8071TIP3    H224171   6.059   3.903   5.136
 8072TIP3   OH224172   7.958   1.596   3.550
 8072TIP3    H124173   7.958   1.646   3.469
 8072TIP3    H224174   7.874   1.616   3.591
 8073TIP3   OH224175   7.356   5.064   0.028
 8073TIP3    H124176   7.351   5.031   0.118
 8073TIP3    H224177   7.337   5.158   0.037
 8074TIP3   OH224178   1.113   7.348   6.314
 8074TIP3    H124179   1.049   7.405   6.357
 8074TIP3    H224180   1.065   7.266   6.298
 8075TIP3   OH224181   1.211   6.596   2.972
 8075TIP3    H124182   1.184   6.603   3.063
 8075TIP3    H224183   1.174   6.514   2.942
 8076TIP3   OH224184   4.528   5.619   1.428
 8076TIP3    H124185   4.578   5.594   1.506
 8076TIP3    H224186   4.594   5.659   1.370
 8077TIP3   OH224187   6.826   6.089   5.178
 8077TIP3    H124188   6.815   6.152   5.250
 8077TIP3    H224189   6.914   6.055   5.190
 8078TIP3   OH224190   3.083   2.765   3.950
 8078TIP3    H124191   3.024   2.815   3.894
 8078TIP3    H224192   3.026   2.714   4.007
 8079TIP3   OH224193   1.552   1.240   5.277
 8079TIP3    H124194   1.565   1.318   5.332
 8079TIP3    H224195   1.596   1.170   5.324
 8080TIP3   OH224196   5.970   6.820   2.682
 8080TIP3    H124197   5.988   6.734   2.721
 8080TIP3    H224198   6.052   6.868   2.691
 8081TIP3   OH224199   6.665   3.225   3.330
 8081TIP3    H124200   6.616   3.306   3.341
 8081TIP3    H224201   6.618   3.177   3.262
 8082TIP3   OH224202   1.352   3.008   0.684
 8082TIP3    H124203   1.355   2.986   0.777
 8082TIP3    H224204   1.431   2.968   0.648
 8083TIP3   OH224205   4.255   0.072   6.049
 8083TIP3    H124206   4.316   0.002   6.024
 8083TIP3    H224207   4.250   0.067   6.144
 8084TIP3   OH224208   6.200   4.369   2.624
 8084TIP3    H124209   6.140   4.405   2.559
 8084TIP3    H224210   6.287   4.383   2.588
 8085TIP3   OH224211   7.677   7.466   5.023
 8085TIP3    H124212   7.675   7.523   4.946
 8085TIP3    H224213   7.631   7.516   5.091
 8086TIP3   OH224214   3.651   2.054   5.016
 8086TIP3    H124215   3.631   2.143   5.047
 8086TIP3    H224216   3.613   2.050   4.929
 8087TIP3   OH224217   2.196   5.157   3.271
 8087TIP3    H124218   2.107   5.122   3.268
 8087TIP3    H224219   2.195   5.232   3.212
 8088TIP3   OH224220   2.213   0.564   2.387
 8088TIP3    H124221   2.207   0.478   2.428
 8088TIP3    H224222   2.275   0.613   2.441
 8089TIP3   OH224223   0.554   4.319   6.554
 8089TIP3    H124224   0.525   4.367   6.632
 8089TIP3    H224225   0.478   4.317   6.497
 8090TIP3   OH224226   3.922   6.977   4.095
 8090TIP3    H124227   3.910   6.900   4.039
 8090TIP3    H224228   3.961   6.941   4.176
 8091TIP3   OH224229   0.560   1.634   5.534
 8091TIP3    H124230   0.596   1.581   5.463
 8091TIP3    H224231   0.554   1.723   5.498
 8092TIP3   OH224232   7.715   0.934   2.471
 8092TIP3    H124233   7.735   0.986   2.394
 8092TIP3    H224234   7.638   0.883   2.447
 8093TIP3   OH224235   1.319   5.720   0.444
 8093TIP3    H124236   1.348   5.629   0.440
 8093TIP3    H224237   1.303   5.737   0.537
 8094TIP3   OH224238   7.397   0.690   5.438
 8094TIP3    H124239   7.349   0.635   5.376
 8094TIP3    H224240   7.453   0.745   5.383
 8095TIP3   OH224241   4.138   2.921   0.166
 8095TIP3    H124242   4.230   2.909   0.190
 8095TIP3    H224243   4.100   2.969   0.240
 8096TIP3   OH224244   7.983   1.517   4.783
 8096TIP3    H124245   7.919   1.512   4.853
 8096TIP3    H224246   8.068   1.514   4.828
 8097TIP3   OH224247   4.028   6.855   3.570
 8097TIP3    H124248   4.001   6.943   3.596
 8097TIP3    H224249   4.055   6.813   3.652
 8098TIP3   OH224250   3.966   4.829   4.272
 8098TIP3    H124251   3.989   4.854   4.362
 8098TIP3    H224252   3.871   4.817   4.274
 8099TIP3   OH224253   3.827   0.019   5.298
 8099TIP3    H124254   3.750  -0.007   5.248
 8099TIP3    H224255   3.792   0.052   5.381
 8100TIP3   OH224256   0.321   1.029   0.649
 8100TIP3    H124257   0.415   1.015   0.643
 8100TIP3    H224258   0.294   0.985   0.729
 8101TIP3   OH224259   1.722   2.538   2.222
 8101TIP3    H124260   1.811   2.502   2.222
 8101TIP3    H224261   1.675   2.486   2.287
 8102TIP3   OH224262   2.198   4.559   3.441
 8102TIP3    H124263   2.267   4.496   3.464
 8102TIP3    H224264   2.229   4.600   3.361
 8103TIP3   OH224265   2.057   0.288   6.539
 8103TIP3    H124266   2.088   0.198   6.544
 8103TIP3    H224267   2.033   0.299   6.447
 8104TIP3   OH224268   3.472   3.240   1.076
 8104TIP3    H124269   3.393   3.279   1.037
 8104TIP3    H224270   3.515   3.195   1.003
 8105TIP3   OH224271   5.675   2.036   4.086
 8105TIP3    H124272   5.678   2.126   4.053
 8105TIP3    H224273   5.710   2.042   4.175
 8106TIP3   OH224274   2.274   4.490   6.709
 8106TIP3    H124275   2.242   4.421   6.651
 8106TIP3    H224276   2.273   4.569   6.656
 8107TIP3   OH224277   2.533   0.278   4.827
 8107TIP3    H124278   2.446   0.246   4.802
 8107TIP3    H224279   2.518   0.326   4.909
 8108TIP3   OH224280   2.076   2.095   1.419
 8108TIP3    H124281   2.008   2.027   1.418
 8108TIP3    H224282   2.086   2.116   1.512
 8109TIP3   OH224283   2.604   6.585   2.724
 8109TIP3    H124284   2.580   6.505   2.677
 8109TIP3    H224285   2.639   6.643   2.656
 8110TIP3   OH224286   6.905   2.346   1.884
 8110TIP3    H124287   6.995   2.376   1.897
 8110TIP3    H224288   6.913   2.274   1.821
 8111TIP3   OH224289   8.034   7.743   4.803
 8111TIP3    H124290   8.058   7.746   4.896
 8111TIP3    H224291   8.103   7.791   4.758
 8112TIP3   OH224292   3.128   0.452   3.733
 8112TIP3    H124293   3.073   0.386   3.773
 8112TIP3    H224294   3.157   0.507   3.805
 8113TIP3   OH224295   4.208   1.203   3.458
 8113TIP3    H124296   4.266   1.186   3.383
 8113TIP3    H224297   4.120   1.197   3.422
 8114TIP3   OH224298   4.073   1.878   0.491
 8114TIP3    H124299   3.989   1.839   0.512
 8114TIP3    H224300   4.054   1.971   0.477
 8115TIP3   OH224301   3.311   4.315   5.585
 8115TIP3    H124302   3.238   4.290   5.642
 8115TIP3    H224303   3.350   4.390   5.629
 8116TIP3   OH224304   0.972   3.277   5.099
 8116TIP3    H124305   0.947   3.201   5.048
 8116TIP3    H224306   1.046   3.315   5.051
 8117TIP3   OH224307   0.545   3.444   1.361
 8117TIP3    H124308   0.480   3.435   1.292
 8117TIP3    H224309   0.496   3.479   1.436
 8118TIP3   OH224310   4.677   7.506   4.111
 8118TIP3    H124311   4.746   7.439   4.114
 8118TIP3    H224312   4.712   7.574   4.054
 8119TIP3   OH224313   6.958   5.226   0.789
 8119TIP3    H124314   6.959   5.311   0.834
 8119TIP3    H224315   6.869   5.218   0.755
 8120TIP3   OH224316   1.407   1.959   6.475
 8120TIP3    H124317   1.373   1.886   6.528
 8120TIP3    H224318   1.494   1.930   6.448
 8121TIP3   OH224319   5.968   3.226   4.978
 8121TIP3    H124320   5.901   3.289   4.951
 8121TIP3    H224321   6.047   3.279   4.991
 8122TIP3   OH224322   1.138   3.067   4.514
 8122TIP3    H124323   1.165   2.976   4.500
 8122TIP3    H224324   1.089   3.089   4.435
 8123TIP3   OH224325   1.510   3.459   3.668
 8123TIP3    H124326   1.599   3.493   3.679
 8123TIP3    H224327   1.522   3.365   3.652
 8124TIP3   OH224328   8.264   5.141   1.393
 8124TIP3    H124329   8.308   5.056   1.400
 8124TIP3    H224330   8.172   5.123   1.415
 8125TIP3   OH224331   5.368   0.245   0.430
 8125TIP3    H124332   5.355   0.200   0.347
 8125TIP3    H224333   5.339   0.182   0.496
 8126TIP3   OH224334   7.817   2.315   2.179
 8126TIP3    H124335   7.865   2.272   2.108
 8126TIP3    H224336   7.884   2.340   2.242
 8127TIP3   OH224337   2.580   5.978   1.296
 8127TIP3    H124338   2.551   5.955   1.208
 8127TIP3    H224339   2.533   5.917   1.354
 8128TIP3   OH224340   7.550   2.436   2.259
 8128TIP3    H124341   7.584   2.470   2.341
 8128TIP3    H224342   7.627   2.424   2.204
 8129TIP3   OH224343   5.208   6.971   1.725
 8129TIP3    H124344   5.262   7.045   1.699
 8129TIP3    H224345   5.252   6.935   1.802
 8130TIP3   OH224346   6.219   4.054   5.483
 8130TIP3    H124347   6.255   3.968   5.500
 8130TIP3    H224348   6.128   4.038   5.457
 8131TIP3   OH224349   7.986   2.945   1.360
 8131TIP3    H124350   7.944   3.030   1.344
 8131TIP3    H224351   8.018   2.918   1.274
 8132TIP3   OH224352   4.118   4.634   6.494
 8132TIP3    H124353   4.062   4.574   6.543
 8132TIP3    H224354   4.206   4.619   6.530
 8133TIP3   OH224355   8.036   4.734   3.034
 8133TIP3    H124356   8.079   4.667   2.980
 8133TIP3    H224357   7.986   4.787   2.972
 8134TIP3   OH224358   1.129   1.148   5.461
 8134TIP3    H124359   1.147   1.135   5.555
 8134TIP3    H224360   1.174   1.229   5.439
 8135TIP3   OH224361   7.560   4.422   4.245
 8135TIP3    H124362   7.487   4.416   4.183
 8135TIP3    H224363   7.614   4.493   4.212
 8136TIP3   OH224364   5.289   4.785   3.216
 8136TIP3    H124365   5.291   4.715   3.282
 8136TIP3    H224366   5.376   4.824   3.221
 8137TIP3   OH224367   4.605   1.612   4.003
 8137TIP3    H124368   4.515   1.580   3.999
 8137TIP3    H224369   4.597   1.700   4.040
 8138TIP3   OH224370   0.687   5.912   2.554
 8138TIP3    H124371   0.676   6.004   2.577
 8138TIP3    H224372   0.716   5.913   2.462
 8139TIP3   OH224373   1.349   3.732   1.849
 8139TIP3    H124374   1.337   3.793   1.922
 8139TIP3    H224375   1.421   3.676   1.877
 8140TIP3   OH224376   1.662   1.789   4.154
 8140TIP3    H124377   1.715   1.709   4.149
 8140TIP3    H224378   1.643   1.810   4.062
 8141TIP3   OH224379   2.259   0.634   4.887
 8141TIP3    H124380   2.323   0.622   4.818
 8141TIP3    H224381   2.174   0.626   4.843
 8142TIP3   OH224382   4.544   3.736   4.273
 8142TIP3    H124383   4.456   3.745   4.238
 8142TIP3    H224384   4.601   3.735   4.196
 8143TIP3   OH224385   7.036   5.166   3.331
 8143TIP3    H124386   7.058   5.258   3.319
 8143TIP3    H224387   7.114   5.119   3.302
 8144TIP3   OH224388   2.567   3.602   3.780
 8144TIP3    H124389   2.563   3.664   3.707
 8144TIP3    H224390   2.645   3.550   3.762
 8145TIP3   OH224391   5.434   6.750   6.117
 8145TIP3    H124392   5.354   6.785   6.154
 8145TIP3    H224393   5.496   6.747   6.190
 8146TIP3   OH224394   4.933   6.218   4.671
 8146TIP3    H124395   5.025   6.243   4.665
 8146TIP3    H224396   4.899   6.230   4.582
 8147TIP3   OH224397   6.893   1.802   2.981
 8147TIP3    H124398   6.809   1.755   2.980
 8147TIP3    H224399   6.918   1.808   2.888
 8148TIP3   OH224400   7.441   6.692   0.313
 8148TIP3    H124401   7.348   6.675   0.325
 8148TIP3    H224402   7.476   6.700   0.402
 8149TIP3   OH224403   0.812   7.261   0.406
 8149TIP3    H124404   0.775   7.264   0.317
 8149TIP3    H224405   0.737   7.277   0.463
 8150TIP3   OH224406   7.509   3.747   5.963
 8150TIP3    H124407   7.600   3.743   5.934
 8150TIP3    H224408   7.470   3.817   5.911
 8151TIP3   OH224409   2.424   3.477   2.543
 8151TIP3    H124410   2.336   3.514   2.543
 8151TIP3    H224411   2.473   3.533   2.482
 8152TIP3   OH224412   1.259   6.381   1.504
 8152TIP3    H124413   1.307   6.394   1.422
 8152TIP3    H224414   1.327   6.368   1.570
 8153TIP3   OH224415   4.792   0.343   3.977
 8153TIP3    H124416   4.870   0.289   3.990
 8153TIP3    H224417   4.779   0.341   3.882
 8154TIP3   OH224418   4.403   5.073   3.272
 8154TIP3    H124419   4.459   5.014   3.321
 8154TIP3    H224420   4.452   5.155   3.268
 8155TIP3   OH224421   5.114   5.839   3.369
 8155TIP3    H124422   5.165   5.882   3.300
 8155TIP3    H224423   5.043   5.795   3.322
 8156TIP3   OH224424   0.821   5.734   0.932
 8156TIP3    H124425   0.892   5.674   0.954
 8156TIP3    H224426   0.785   5.700   0.850
 8157TIP3   OH224427   6.542   1.157   0.973
 8157TIP3    H124428   6.631   1.137   1.002
 8157TIP3    H224429   6.518   1.235   1.023
 8158TIP3   OH224430   4.028   3.068   0.382
 8158TIP3    H124431   4.079   3.144   0.355
 8158TIP3    H224432   3.997   3.089   0.470
 8159TIP3   OH224433   2.450   6.059   3.680
 8159TIP3    H124434   2.418   6.062   3.590
 8159TIP3    H224435   2.371   6.067   3.734
 8160TIP3   OH224436   6.190   5.937   0.566
 8160TIP3    H124437   6.238   5.854   0.559
 8160TIP3    H224438   6.101   5.915   0.541
 8161TIP3   OH224439   0.754   3.423   3.118
 8161TIP3    H124440   0.762   3.517   3.133
 8161TIP3    H224441   0.699   3.392   3.190
 8162TIP3   OH224442   5.401   5.212  -0.012
 8162TIP3    H124443   5.426   5.200   0.079
 8162TIP3    H224444   5.445   5.142  -0.059
 8163TIP3   OH224445   4.157   2.412   6.123
 8163TIP3    H124446   4.090   2.467   6.164
 8163TIP3    H224447   4.227   2.473   6.100
 8164TIP3   OH224448   3.705   1.638   3.057
 8164TIP3    H124449   3.686   1.685   3.138
 8164TIP3    H224450   3.721   1.547   3.085
 8165TIP3   OH224451   3.470   0.256   3.224
 8165TIP3    H124452   3.451   0.298   3.141
 8165TIP3    H224453   3.387   0.216   3.250
 8166TIP3   OH224454   0.394   5.307   5.853
 8166TIP3    H124455   0.306   5.293   5.888
 8166TIP3    H224456   0.388   5.390   5.806
 8167TIP3   OH224457   4.898   3.391   5.626
 8167TIP3    H124458   4.832   3.330   5.658
 8167TIP3    H224459   4.898   3.462   5.690
 8168TIP3   OH224460   5.068   0.295   2.315
 8168TIP3    H124461   5.071   0.227   2.247
 8168TIP3    H224462   4.979   0.291   2.348
 8169TIP3   OH224463   4.565   5.251   3.464
 8169TIP3    H124464   4.487   5.256   3.519
 8169TIP3    H224465   4.555   5.322   3.401
 8170TIP3   OH224466   2.701   1.089   2.163
 8170TIP3    H124467   2.797   1.093   2.156
 8170TIP3    H224468   2.680   0.996   2.154
 8171TIP3   OH224469   5.848   3.641   1.493
 8171TIP3    H124470   5.816   3.709   1.434
 8171TIP3    H224471   5.770   3.605   1.534
 8172TIP3   OH224472   0.547   4.779   6.030
 8172TIP3    H124473   0.565   4.774   5.936
 8172TIP3    H224474   0.582   4.864   6.056
 8173TIP3   OH224475   7.449   5.515   5.283
 8173TIP3    H124476   7.471   5.584   5.220
 8173TIP3    H224477   7.435   5.437   5.229
 8174TIP3   OH224478   0.092   0.137   3.493
 8174TIP3    H124479   0.003   0.119   3.523
 8174TIP3    H224480   0.104   0.079   3.418
 8175TIP3   OH224481   0.012   6.868   5.141
 8175TIP3    H124482   0.067   6.945   5.156
 8175TIP3    H224483   0.051   6.800   5.194
 8176TIP3   OH224484   6.879   2.198   3.916
 8176TIP3    H124485   6.836   2.209   4.000
 8176TIP3    H224486   6.971   2.220   3.932
 8177TIP3   OH224487   6.424   5.793   2.894
 8177TIP3    H124488   6.432   5.781   2.988
 8177TIP3    H224489   6.394   5.708   2.861
 8178TIP3   OH224490   1.114   1.946   2.461
 8178TIP3    H124491   1.183   1.883   2.443
 8178TIP3    H224492   1.160   2.023   2.495
 8179TIP3   OH224493   4.138   1.222   6.260
 8179TIP3    H124494   4.208   1.161   6.284
 8179TIP3    H224495   4.061   1.187   6.304
 8180TIP3   OH224496   5.384   0.742   0.921
 8180TIP3    H124497   5.348   0.676   0.861
 8180TIP3    H224498   5.476   0.748   0.897
 8181TIP3   OH224499   5.238   1.048   5.951
 8181TIP3    H124500   5.290   0.985   5.901
 8181TIP3    H224501   5.270   1.039   6.041
 8182TIP3   OH224502   0.693   5.078   4.872
 8182TIP3    H124503   0.630   5.036   4.931
 8182TIP3    H224504   0.778   5.055   4.909
 8183TIP3   OH224505   3.482   1.450   1.718
 8183TIP3    H124506   3.388   1.446   1.737
 8183TIP3    H224507   3.487   1.476   1.626
 8184TIP3   OH224508   3.394   7.622   0.693
 8184TIP3    H124509   3.391   7.550   0.630
 8184TIP3    H224510   3.373   7.700   0.642
 8185TIP3   OH224511   0.437   5.451   6.139
 8185TIP3    H124512   0.423   5.358   6.156
 8185TIP3    H224513   0.399   5.465   6.052
 8186TIP3   OH224514   4.641   4.275   2.095
 8186TIP3    H124515   4.602   4.359   2.070
 8186TIP3    H224516   4.735   4.293   2.097
 8187TIP3   OH224517   0.163   6.415   0.996
 8187TIP3    H124518   0.077   6.417   1.038
 8187TIP3    H224519   0.207   6.494   1.026
 8188TIP3   OH224520   7.535   5.833   4.588
 8188TIP3    H124521   7.618   5.845   4.542
 8188TIP3    H224522   7.472   5.886   4.538
 8189TIP3   OH224523   7.097   5.923   4.437
 8189TIP3    H124524   7.190   5.901   4.426
 8189TIP3    H224525   7.090   5.954   4.527
 8190TIP3   OH224526   0.833   4.179   3.552
 8190TIP3    H124527   0.862   4.099   3.595
 8190TIP3    H224528   0.914   4.221   3.523
 8191TIP3   OH224529   7.074   1.717   6.100
 8191TIP3    H124530   7.099   1.809   6.103
 8191TIP3    H224531   6.998   1.712   6.158
 8192TIP3   OH224532   2.226   6.683   1.934
 8192TIP3    H124533   2.135   6.709   1.922
 8192TIP3    H224534   2.244   6.699   2.027
 8193TIP3   OH224535   0.557   2.136   6.428
 8193TIP3    H124536   0.482   2.175   6.383
 8193TIP3    H224537   0.634   2.176   6.387
 8194TIP3   OH224538   6.396   7.730   0.191
 8194TIP3    H124539   6.357   7.773   0.115
 8194TIP3    H224540   6.484   7.768   0.198
 8195TIP3   OH224541   5.858   2.555   3.777
 8195TIP3    H124542   5.810   2.488   3.729
 8195TIP3    H224543   5.936   2.511   3.809
 8196TIP3   OH224544   5.950   0.042   3.283
 8196TIP3    H124545   6.008  -0.012   3.336
 8196TIP3    H224546   5.862   0.026   3.319
 8197TIP3   OH224547   4.879   6.680   5.153
 8197TIP3    H124548   4.894   6.716   5.066
 8197TIP3    H224549   4.951   6.619   5.167
 8198TIP3   OH224550   0.855   5.922   3.111
 8198TIP3    H124551   0.840   5.833   3.081
 8198TIP3    H224552   0.794   5.934   3.184
 8199TIP3   OH224553   0.666   3.147   4.270
 8199TIP3    H124554   0.595   3.143   4.333
 8199TIP3    H224555   0.628   3.113   4.189
 8200TIP3   OH224556   4.982   6.837   0.980
 8200TIP3    H124557   5.052   6.813   1.041
 8200TIP3    H224558   4.985   6.933   0.978
 8201TIP3   OH224559   7.646   7.734   6.292
 8201TIP3    H124560   7.629   7.672   6.221
 8201TIP3    H224561   7.575   7.798   6.285
 8202TIP3   OH224562   3.242   5.976   3.117
 8202TIP3    H124563   3.160   5.948   3.158
 8202TIP3    H224564   3.267   5.903   3.060
 8203TIP3   OH224565   2.595   3.761   4.315
 8203TIP3    H124566   2.629   3.802   4.394
 8203TIP3    H224567   2.671   3.720   4.274
 8204TIP3   OH224568   5.781   4.381   2.474
 8204TIP3    H124569   5.769   4.295   2.434
 8204TIP3    H224570   5.756   4.369   2.566
 8205TIP3   OH224571   1.823   2.179   5.967
 8205TIP3    H124572   1.746   2.201   6.020
 8205TIP3    H224573   1.876   2.122   6.022
 8206TIP3   OH224574   6.691   0.257   2.134
 8206TIP3    H124575   6.719   0.291   2.049
 8206TIP3    H224576   6.603   0.224   2.119
 8207TIP3   OH224577   4.878   7.272   6.104
 8207TIP3    H124578   4.791   7.263   6.064
 8207TIP3    H224579   4.871   7.350   6.158
 8208TIP3   OH224580   2.738   4.077   3.980
 8208TIP3    H124581   2.669   4.123   3.932
 8208TIP3    H224582   2.721   3.984   3.964
 8209TIP3   OH224583   1.811   5.216   2.837
 8209TIP3    H124584   1.835   5.308   2.821
 8209TIP3    H224585   1.767   5.188   2.757
 8210TIP3   OH224586   3.399   3.374   5.196
 8210TIP3    H124587   3.310   3.408   5.185
 8210TIP3    H224588   3.404   3.351   5.289
 8211TIP3   OH224589   6.048   3.938   2.560
 8211TIP3    H124590   5.984   3.867   2.565
 8211TIP3    H224591   6.009   4.009   2.611
 8212TIP3   OH224592   6.841   7.134   4.854
 8212TIP3    H124593   6.880   7.047   4.844
 8212TIP3    H224594   6.916   7.193   4.859
 8213TIP3   OH224595   3.427   1.998   4.472
 8213TIP3    H124596   3.391   2.086   4.477
 8213TIP3    H224597   3.500   2.006   4.410
 8214TIP3   OH224598   0.450   3.816   3.981
 8214TIP3    H124599   0.469   3.795   4.073
 8214TIP3    H224600   0.511   3.762   3.931
 8215TIP3   OH224601   8.211   5.968   1.623
 8215TIP3    H124602   8.172   6.048   1.589
 8215TIP3    H224603   8.212   5.980   1.718
 8216TIP3   OH224604   5.359   3.854   1.123
 8216TIP3    H124605   5.369   3.807   1.205
 8216TIP3    H224606   5.264   3.857   1.109
 8217TIP3   OH224607   0.749   2.900   1.514
 8217TIP3    H124608   0.682   2.899   1.446
 8217TIP3    H224609   0.814   2.962   1.482
 8218TIP3   OH224610   5.395   5.962   4.446
 8218TIP3    H124611   5.321   5.901   4.447
 8218TIP3    H224612   5.471   5.907   4.429
 8219TIP3   OH224613   4.023   2.611   2.431
 8219TIP3    H124614   4.051   2.559   2.355
 8219TIP3    H224615   3.928   2.611   2.426
 8220TIP3   OH224616   2.722   4.532   1.393
 8220TIP3    H124617   2.637   4.491   1.408
 8220TIP3    H224618   2.761   4.539   1.480
 8221TIP3   OH224619   1.090   4.723   3.348
 8221TIP3    H124620   1.141   4.687   3.275
 8221TIP3    H224621   1.024   4.655   3.366
 8222TIP3   OH224622   8.282   7.430   6.355
 8222TIP3    H124623   8.287   7.523   6.377
 8222TIP3    H224624   8.192   7.416   6.325
 8223TIP3   OH224625   1.375   1.272   2.287
 8223TIP3    H124626   1.324   1.352   2.273
 8223TIP3    H224627   1.457   1.288   2.240
 8224TIP3   OH224628   6.346   7.585   0.411
 8224TIP3    H124629   6.399   7.606   0.487
 8224TIP3    H224630   6.354   7.662   0.354
 8225TIP3   OH224631   1.163   6.142   1.868
 8225TIP3    H124632   1.136   6.070   1.811
 8225TIP3    H224633   1.258   6.131   1.877
 8226TIP3   OH224634   0.819   2.090   5.625
 8226TIP3    H124635   0.897   2.110   5.676
 8226TIP3    H224636   0.790   2.004   5.659
 8227TIP3   OH224637   5.268   6.866   3.427
 8227TIP3    H124638   5.284   6.889   3.335
 8227TIP3    H224639   5.236   6.776   3.424
 8228TIP3   OH224640   0.385   7.222   2.071
 8228TIP3    H124641   0.423   7.136   2.053
 8228TIP3    H224642   0.455   7.271   2.115
 8229TIP3   OH224643   3.723   2.089   3.094
 8229TIP3    H124644   3.671   2.168   3.112
 8229TIP3    H224645   3.759   2.064   3.179
 8230TIP3   OH224646   5.261   4.871   0.683
 8230TIP3    H124647   5.166   4.859   0.687
 8230TIP3    H224648   5.295   4.813   0.750
 8231TIP3   OH224649   4.751   5.698   0.804
 8231TIP3    H124650   4.773   5.737   0.719
 8231TIP3    H224651   4.765   5.768   0.867
 8232TIP3   OH224652   5.827   5.538   1.284
 8232TIP3    H124653   5.853   5.614   1.233
 8232TIP3    H224654   5.794   5.574   1.366
 8233TIP3   OH224655   6.259   2.457   1.590
 8233TIP3    H124656   6.166   2.464   1.566
 8233TIP3    H224657   6.260   2.468   1.685
 8234TIP3   OH224658   4.107   3.858   6.792
 8234TIP3    H124659   4.049   3.783   6.803
 8234TIP3    H224660   4.190   3.820   6.764
 8235TIP3   OH224661   3.112   3.109   1.362
 8235TIP3    H124662   3.174   3.169   1.321
 8235TIP3    H224663   3.167   3.039   1.398
 8236TIP3   OH224664   2.050   4.938   0.005
 8236TIP3    H124665   1.968   4.971   0.041
 8236TIP3    H224666   2.116   4.960   0.072
 8237TIP3   OH224667   4.086   7.590   4.914
 8237TIP3    H124668   4.166   7.587   4.967
 8237TIP3    H224669   4.069   7.499   4.891
 8238TIP3   OH224670   7.040   5.118   3.746
 8238TIP3    H124671   6.948   5.096   3.760
 8238TIP3    H224672   7.089   5.045   3.784
 8239TIP3   OH224673   0.507   4.229   0.031
 8239TIP3    H124674   0.581   4.171   0.043
 8239TIP3    H224675   0.544   4.317   0.038
 8240TIP3   OH224676   5.249   4.167   3.391
 8240TIP3    H124677   5.157   4.169   3.364
 8240TIP3    H224678   5.254   4.090   3.448
 8241TIP3   OH224679   5.106   6.157   0.149
 8241TIP3    H124680   5.039   6.098   0.183
 8241TIP3    H224681   5.071   6.245   0.166
 8242TIP3   OH224682   6.431   7.458   1.734
 8242TIP3    H124683   6.367   7.403   1.779
 8242TIP3    H224684   6.397   7.547   1.743
 8243TIP3   OH224685   4.304   5.237   3.615
 8243TIP3    H124686   4.260   5.152   3.622
 8243TIP3    H224687   4.236   5.296   3.581
 8244TIP3   OH224688   1.650   1.091   4.159
 8244TIP3    H124689   1.575   1.071   4.215
 8244TIP3    H224690   1.611   1.126   4.079
 8245TIP3   OH224691   1.446   0.887   5.842
 8245TIP3    H124692   1.495   0.941   5.904
 8245TIP3    H224693   1.506   0.875   5.768
 8246TIP3   OH224694   0.773   4.328   0.665
 8246TIP3    H124695   0.851   4.292   0.622
 8246TIP3    H224696   0.800   4.414   0.696
 8247TIP3   OH224697   3.705   1.161   2.797
 8247TIP3    H124698   3.796   1.134   2.812
 8247TIP3    H224699   3.692   1.148   2.703
 8248TIP3   OH224700   2.109   0.721   4.479
 8248TIP3    H124701   2.186   0.665   4.473
 8248TIP3    H224702   2.037   0.661   4.501
 8249TIP3   OH224703   2.720   4.972   2.214
 8249TIP3    H124704   2.701   4.993   2.305
 8249TIP3    H224705   2.636   4.945   2.177
 8250TIP3   OH224706   5.173   6.330   4.521
 8250TIP3    H124707   5.258   6.317   4.563
 8250TIP3    H224708   5.191   6.389   4.447
 8251TIP3   OH224709   2.611   6.834   4.505
 8251TIP3    H124710   2.559   6.869   4.577
 8251TIP3    H224711   2.563   6.859   4.426
 8252TIP3   OH224712   5.149   6.733   6.054
 8252TIP3    H124713   5.118   6.818   6.024
 8252TIP3    H224714   5.147   6.738   6.149
 8253TIP3   OH224715   1.705   3.865   0.269
 8253TIP3    H124716   1.719   3.771   0.260
 8253TIP3    H224717   1.629   3.883   0.214
 8254TIP3   OH224718   1.049   4.953   6.534
 8254TIP3    H124719   0.977   4.913   6.486
 8254TIP3    H224720   1.096   4.878   6.573
 8255TIP3   OH224721   4.734   6.533   3.481
 8255TIP3    H124722   4.753   6.614   3.434
 8255TIP3    H224723   4.813   6.516   3.533
 8256TIP3   OH224724   7.569   3.699   2.565
 8256TIP3    H124725   7.598   3.608   2.558
 8256TIP3    H224726   7.520   3.715   2.484
 8257TIP3   OH224727   3.140   3.905   3.972
 8257TIP3    H124728   3.170   3.819   4.002
 8257TIP3    H224729   3.071   3.929   4.033
 8258TIP3   OH224730   1.921   0.356   2.443
 8258TIP3    H124731   1.840   0.304   2.447
 8258TIP3    H224732   1.974   0.312   2.377
 8259TIP3   OH224733   1.505   1.901   5.181
 8259TIP3    H124734   1.411   1.913   5.181
 8259TIP3    H224735   1.538   1.962   5.248
 8260TIP3   OH224736   7.090   5.363   1.752
 8260TIP3    H124737   7.015   5.315   1.716
 8260TIP3    H224738   7.152   5.368   1.679
 8261TIP3   OH224739   1.374   4.281   3.043
 8261TIP3    H124740   1.405   4.286   3.134
 8261TIP3    H224741   1.302   4.344   3.039
 8262TIP3   OH224742   7.870   4.954   0.250
 8262TIP3    H124743   7.940   5.002   0.293
 8262TIP3    H224744   7.851   4.880   0.308
 8263TIP3   OH224745   8.236   0.938   5.032
 8263TIP3    H124746   8.190   0.901   4.957
 8263TIP3    H224747   8.325   0.953   5.001
 8264TIP3   OH224748   5.738   0.487   6.196
 8264TIP3    H124749   5.698   0.491   6.109
 8264TIP3    H224750   5.830   0.468   6.180
 8265TIP3   OH224751   2.514   1.460   5.209
 8265TIP3    H124752   2.556   1.503   5.135
 8265TIP3    H224753   2.422   1.450   5.183
 8266TIP3   OH224754   6.190   0.802   1.939
 8266TIP3    H124755   6.274   0.786   1.895
 8266TIP3    H224756   6.202   0.764   2.026
 8267TIP3   OH224757   4.298   2.026   1.497
 8267TIP3    H124758   4.306   2.012   1.592
 8267TIP3    H224759   4.221   2.082   1.487
 8268TIP3   OH224760   1.630   0.283   6.713
 8268TIP3    H124761   1.668   0.291   6.800
 8268TIP3    H224762   1.543   0.322   6.721
 8269TIP3   OH224763   8.031   4.934   4.467
 8269TIP3    H124764   8.087   4.856   4.470
 8269TIP3    H224765   8.033   4.968   4.557
 8270TIP3   OH224766   2.413   0.868   3.186
 8270TIP3    H124767   2.328   0.901   3.155
 8270TIP3    H224768   2.390   0.801   3.251
 8271TIP3   OH224769   1.130   5.274   4.473
 8271TIP3    H124770   1.123   5.314   4.560
 8271TIP3    H224771   1.223   5.275   4.453
 8272TIP3   OH224772   1.245   3.338   4.452
 8272TIP3    H124773   1.171   3.279   4.463
 8272TIP3    H224774   1.224   3.387   4.372
 8273TIP3   OH224775   0.683   0.086   4.782
 8273TIP3    H124776   0.648   0.122   4.700
 8273TIP3    H224777   0.683  -0.009   4.768
 8274TIP3   OH224778   3.486   2.063   4.775
 8274TIP3    H124779   3.413   2.022   4.729
 8274TIP3    H224780   3.564   2.029   4.732
 8275TIP3   OH224781   2.306   3.957   0.640
 8275TIP3    H124782   2.255   3.928   0.564
 8275TIP3    H224783   2.285   4.050   0.649
 8276TIP3   OH224784   2.641   5.083   3.886
 8276TIP3    H124785   2.611   5.094   3.976
 8276TIP3    H224786   2.603   5.157   3.839
 8277TIP3   OH224787   4.762   1.971   5.614
 8277TIP3    H124788   4.770   2.060   5.582
 8277TIP3    H224789   4.769   1.916   5.535
 8278TIP3   OH224790   4.033   7.701   3.663
 8278TIP3    H124791   3.939   7.709   3.681
 8278TIP3    H224792   4.038   7.667   3.574
 8279TIP3   OH224793   2.031   0.052   4.527
 8279TIP3    H124794   1.958   0.005   4.565
 8279TIP3    H224795   2.067  -0.008   4.461
 8280TIP3   OH224796   5.743   3.573   3.038
 8280TIP3    H124797   5.825   3.613   3.007
 8280TIP3    H224798   5.745   3.484   3.002
 8281TIP3   OH224799   0.161   6.471   4.799
 8281TIP3    H124800   0.122   6.514   4.875
 8281TIP3    H224801   0.211   6.540   4.756
 8282TIP3   OH224802   4.110   4.311   2.554
 8282TIP3    H124803   4.192   4.275   2.587
 8282TIP3    H224804   4.121   4.315   2.459
 8283TIP3   OH224805   0.625   1.022   4.973
 8283TIP3    H124806   0.678   1.092   5.013
 8283TIP3    H224807   0.619   0.955   5.040
 8284TIP3   OH224808   6.005   3.215   3.363
 8284TIP3    H124809   5.935   3.151   3.360
 8284TIP3    H224810   5.991   3.262   3.445
 8285TIP3   OH224811   2.737   6.443   5.265
 8285TIP3    H124812   2.744   6.348   5.256
 8285TIP3    H224813   2.749   6.476   5.176
 8286TIP3   OH224814   5.955   7.300   1.303
 8286TIP3    H124815   6.001   7.341   1.230
 8286TIP3    H224816   6.003   7.329   1.381
 8287TIP3   OH224817   1.925   3.314   3.464
 8287TIP3    H124818   1.991   3.374   3.431
 8287TIP3    H224819   1.927   3.240   3.402
 8288TIP3   OH224820   0.444   5.514   3.824
 8288TIP3    H124821   0.535   5.517   3.852
 8288TIP3    H224822   0.414   5.605   3.831
 8289TIP3   OH224823   2.021   1.517   1.761
 8289TIP3    H124824   1.985   1.577   1.696
 8289TIP3    H224825   1.944   1.479   1.804
 8290TIP3   OH224826   6.003   4.543   2.492
 8290TIP3    H124827   5.947   4.481   2.445
 8290TIP3    H224828   5.941   4.607   2.529
 8291TIP3   OH224829   4.064   4.998   3.562
 8291TIP3    H124830   4.012   5.078   3.572
 8291TIP3    H224831   4.004   4.928   3.587
 8292TIP3   OH224832   1.648   1.414   5.457
 8292TIP3    H124833   1.738   1.381   5.453
 8292TIP3    H224834   1.654   1.502   5.420
 8293TIP3   OH224835   6.241   7.193   3.517
 8293TIP3    H124836   6.204   7.179   3.429
 8293TIP3    H224837   6.280   7.108   3.540
 8294TIP3   OH224838   6.233   6.782   4.116
 8294TIP3    H124839   6.297   6.808   4.050
 8294TIP3    H224840   6.276   6.802   4.199
 8295TIP3   OH224841   5.217   3.596   5.029
 8295TIP3    H124842   5.180   3.631   5.110
 8295TIP3    H224843   5.147   3.605   4.965
 8296TIP3   OH224844   3.207   5.671   4.317
 8296TIP3    H124845   3.128   5.673   4.263
 8296TIP3    H224846   3.243   5.583   4.303
 8297TIP3   OH224847   6.773   6.317   5.390
 8297TIP3    H124848   6.768   6.328   5.485
 8297TIP3    H224849   6.699   6.369   5.356
 8298TIP3   OH224850   3.438   2.881   0.245
 8298TIP3    H124851   3.420   2.805   0.301
 8298TIP3    H224852   3.421   2.850   0.156
 8299TIP3   OH224853   1.696   7.550   5.791
 8299TIP3    H124854   1.679   7.483   5.857
 8299TIP3    H224855   1.666   7.511   5.709
 8300TIP3   OH224856   7.270   1.110   5.927
 8300TIP3    H124857   7.306   1.095   5.840
 8300TIP3    H224858   7.310   1.042   5.981
 8301TIP3   OH224859   2.959   7.171   1.204
 8301TIP3    H124860   2.984   7.083   1.176
 8301TIP3    H224861   3.036   7.225   1.184
 8302TIP3   OH224862   1.092   5.149   2.208
 8302TIP3    H124863   1.000   5.171   2.193
 8302TIP3    H224864   1.138   5.185   2.133
 8303TIP3   OH224865   4.126   7.311   3.542
 8303TIP3    H124866   4.175   7.355   3.610
 8303TIP3    H224867   4.180   7.235   3.519
 8304TIP3   OH224868   7.589   0.473   6.064
 8304TIP3    H124869   7.514   0.432   6.107
 8304TIP3    H224870   7.617   0.409   5.999
 8305TIP3   OH224871   0.938   6.783   0.951
 8305TIP3    H124872   0.865   6.753   1.005
 8305TIP3    H224873   0.973   6.703   0.911
 8306TIP3   OH224874   6.266   6.592   0.774
 8306TIP3    H124875   6.262   6.607   0.868
 8306TIP3    H224876   6.348   6.544   0.761
 8307TIP3   OH224877   2.069   4.755   4.347
 8307TIP3    H124878   2.077   4.800   4.431
 8307TIP3    H224879   1.997   4.800   4.303
 8308TIP3   OH224880   4.274   2.108   2.501
 8308TIP3    H124881   4.277   2.190   2.450
 8308TIP3    H224882   4.333   2.123   2.574
 8309TIP3   OH224883   5.547   6.143   4.885
 8309TIP3    H124884   5.629   6.177   4.851
 8309TIP3    H224885   5.510   6.093   4.813
 8310TIP3   OH224886   4.364   3.120   0.048
 8310TIP3    H124887   4.367   3.150   0.138
 8310TIP3    H224888   4.403   3.033   0.050
 8311TIP3   OH224889   3.468   1.823   0.183
 8311TIP3    H124890   3.543   1.834   0.125
 8311TIP3    H224891   3.480   1.889   0.251
 8312TIP3   OH224892   6.017   5.020   2.167
 8312TIP3    H124893   5.929   5.034   2.131
 8312TIP3    H224894   6.003   5.007   2.261
 8313TIP3   OH224895   2.681   5.700   2.431
 8313TIP3    H124896   2.760   5.689   2.378
 8313TIP3    H224897   2.612   5.658   2.381
 8314TIP3   OH224898   1.085   6.122   4.733
 8314TIP3    H124899   1.016   6.085   4.788
 8314TIP3    H224900   1.154   6.147   4.795
 8315TIP3   OH224901   6.814   7.821   4.622
 8315TIP3    H124902   6.781   7.820   4.532
 8315TIP3    H224903   6.862   7.739   4.632
 8316TIP3   OH224904   0.092   2.433   1.834
 8316TIP3    H124905   0.121   2.366   1.896
 8316TIP3    H224906   0.068   2.507   1.889
 8317TIP3   OH224907   7.601   3.241   6.481
 8317TIP3    H124908   7.507   3.239   6.462
 8317TIP3    H224909   7.608   3.293   6.561
 8318TIP3   OH224910   3.571   0.760   3.417
 8318TIP3    H124911   3.560   0.782   3.509
 8318TIP3    H224912   3.543   0.669   3.411
 8319TIP3   OH224913   1.994   7.422   2.413
 8319TIP3    H124914   2.081   7.430   2.374
 8319TIP3    H224915   1.934   7.427   2.339
 8320TIP3   OH224916   7.827   2.872   4.942
 8320TIP3    H124917   7.740   2.892   4.907
 8320TIP3    H224918   7.879   2.850   4.865
 8321TIP3   OH224919   1.809   6.169   6.129
 8321TIP3    H124920   1.899   6.164   6.097
 8321TIP3    H224921   1.760   6.109   6.072
 8322TIP3   OH224922   7.472   0.768   5.053
 8322TIP3    H124923   7.415   0.803   5.121
 8322TIP3    H224924   7.435   0.682   5.033
 8323TIP3   OH224925   3.203   1.798   2.820
 8323TIP3    H124926   3.229   1.803   2.912
 8323TIP3    H224927   3.109   1.780   2.823
 8324TIP3   OH224928   1.631   6.937   0.818
 8324TIP3    H124929   1.633   6.948   0.723
 8324TIP3    H224930   1.540   6.916   0.838
 8325TIP3   OH224931   3.794   1.791   1.040
 8325TIP3    H124932   3.813   1.700   1.065
 8325TIP3    H224933   3.699   1.795   1.035
 8326TIP3   OH224934   1.514   3.932   6.557
 8326TIP3    H124935   1.458   4.009   6.552
 8326TIP3    H224936   1.454   3.861   6.581
 8327TIP3   OH224937   6.094   3.611   5.027
 8327TIP3    H124938   6.000   3.615   5.009
 8327TIP3    H224939   6.130   3.562   4.954
 8328TIP3   OH224940   0.632   3.103   6.329
 8328TIP3    H124941   0.682   3.167   6.277
 8328TIP3    H224942   0.559   3.079   6.273
 8329TIP3   OH224943   3.007   5.997   4.175
 8329TIP3    H124944   2.912   5.998   4.189
 8329TIP3    H224945   3.043   6.034   4.255
 8330TIP3   OH224946   1.930   4.764   0.258
 8330TIP3    H124947   2.023   4.743   0.261
 8330TIP3    H224948   1.926   4.859   0.260
 8331TIP3   OH224949   6.029   3.108   0.228
 8331TIP3    H124950   6.009   3.028   0.180
 8331TIP3    H224951   6.058   3.079   0.314
 8332TIP3   OH224952   4.472   4.314   0.503
 8332TIP3    H124953   4.504   4.403   0.513
 8332TIP3    H224954   4.381   4.318   0.534
 8333TIP3   OH224955   4.567   1.666   0.357
 8333TIP3    H124956   4.629   1.733   0.388
 8333TIP3    H224957   4.548   1.613   0.434
 8334TIP3   OH224958   5.085   7.696   1.884
 8334TIP3    H124959   5.085   7.639   1.806
 8334TIP3    H224960   5.112   7.638   1.955
 8335TIP3   OH224961   2.612   6.591   0.266
 8335TIP3    H124962   2.635   6.628   0.351
 8335TIP3    H224963   2.635   6.660   0.203
 8336TIP3   OH224964   6.374   3.807   6.123
 8336TIP3    H124965   6.307   3.859   6.080
 8336TIP3    H224966   6.331   3.724   6.142
 8337TIP3   OH224967   5.082   7.775   3.659
 8337TIP3    H124968   5.126   7.700   3.699
 8337TIP3    H224969   5.018   7.735   3.599
 8338TIP3   OH224970   7.673   0.421   3.050
 8338TIP3    H124971   7.597   0.474   3.027
 8338TIP3    H224972   7.706   0.460   3.131
 8339TIP3   OH224973   1.231   2.655   6.241
 8339TIP3    H124974   1.262   2.734   6.285
 8339TIP3    H224975   1.288   2.586   6.275
 8340TIP3   OH224976   5.110   0.781   0.096
 8340TIP3    H124977   5.069   0.698   0.119
 8340TIP3    H224978   5.049   0.848   0.128
 8341TIP3   OH224979   0.614   0.998   2.212
 8341TIP3    H124980   0.637   1.079   2.258
 8341TIP3    H224981   0.696   0.969   2.172
 8342TIP3   OH224982   1.855   5.781   0.279
 8342TIP3    H124983   1.863   5.828   0.362
 8342TIP3    H224984   1.774   5.814   0.240
 8343TIP3   OH224985   2.878   1.411   6.473
 8343TIP3    H124986   2.936   1.393   6.399
 8343TIP3    H224987   2.906   1.352   6.542
 8344TIP3   OH224988   0.272   5.709   0.598
 8344TIP3    H124989   0.340   5.694   0.663
 8344TIP3    H224990   0.197   5.741   0.649
 8345TIP3   OH224991   0.898   7.132   6.355
 8345TIP3    H124992   0.838   7.173   6.293
 8345TIP3    H224993   0.860   7.150   6.441
 8346TIP3   OH224994   0.554   1.768   2.088
 8346TIP3    H124995   0.636   1.719   2.081
 8346TIP3    H224996   0.541   1.807   2.001
 8347TIP3   OH224997   1.480   6.719   3.515
 8347TIP3    H124998   1.426   6.790   3.480
 8347TIP3    H224999   1.453   6.712   3.607
 8348TIP3   OH225000   6.522   0.234   6.676
 8348TIP3    H125001   6.519   0.326   6.650
 8348TIP3    H225002   6.614   0.209   6.667
 8349TIP3   OH225003   0.568   4.347   1.800
 8349TIP3    H125004   0.572   4.354   1.705
 8349TIP3    H225005   0.660   4.337   1.828
 8350TIP3   OH225006   5.296   1.088   6.239
 8350TIP3    H125007   5.366   1.051   6.293
 8350TIP3    H225008   5.215   1.065   6.286
 8351TIP3   OH225009   2.795   1.462   3.712
 8351TIP3    H125010   2.791   1.428   3.801
 8351TIP3    H225011   2.853   1.538   3.719
 8352TIP3   OH225012   1.200   6.076   0.871
 8352TIP3    H125013   1.174   6.168   0.874
 8352TIP3    H225014   1.200   6.048   0.962
 8353TIP3   OH225015   3.556   4.675   2.981
 8353TIP3    H125016   3.549   4.659   3.075
 8353TIP3    H225017   3.485   4.624   2.943
 8354TIP3   OH225018   1.052   0.462   0.840
 8354TIP3    H125019   1.028   0.383   0.888
 8354TIP3    H225020   1.013   0.451   0.754
 8355TIP3   OH225021   0.737   1.357   3.573
 8355TIP3    H125022   0.829   1.345   3.593
 8355TIP3    H225023   0.735   1.418   3.499
 8356TIP3   OH225024   1.437   6.172   0.322
 8356TIP3    H125025   1.531   6.182   0.335
 8356TIP3    H225026   1.429   6.140   0.232
 8357TIP3   OH225027   8.260   6.965   1.978
 8357TIP3    H125028   8.329   7.017   2.019
 8357TIP3    H225029   8.198   6.949   2.049
 8358TIP3   OH225030   2.446   7.750   4.549
 8358TIP3    H125031   2.430   7.777   4.639
 8358TIP3    H225032   2.495   7.823   4.510
 8359TIP3   OH225033   7.376   6.244   2.630
 8359TIP3    H125034   7.338   6.221   2.715
 8359TIP3    H225035   7.338   6.181   2.569
 8360TIP3   OH225036   2.853   3.220   0.788
 8360TIP3    H125037   2.901   3.137   0.795
 8360TIP3    H225038   2.794   3.220   0.863
 8361TIP3   OH225039   1.910   5.326   0.175
 8361TIP3    H125040   1.829   5.374   0.191
 8361TIP3    H225041   1.961   5.383   0.117
 8362TIP3   OH225042   2.336   3.662   4.673
 8362TIP3    H125043   2.296   3.729   4.618
 8362TIP3    H225044   2.267   3.597   4.687
 8363TIP3   OH225045   7.916   0.796   0.168
 8363TIP3    H125046   7.969   0.867   0.132
 8363TIP3    H225047   7.826   0.827   0.161
 8364TIP3   OH225048   0.138   3.133   0.921
 8364TIP3    H125049   0.228   3.165   0.908
 8364TIP3    H225050   0.100   3.132   0.833
 8365TIP3   OH225051   3.511   7.022   5.894
 8365TIP3    H125052   3.447   7.089   5.872
 8365TIP3    H225053   3.464   6.962   5.953
 8366TIP3   OH225054   6.530   6.304   5.834
 8366TIP3    H125055   6.454   6.268   5.878
 8366TIP3    H225056   6.588   6.228   5.821
 8367TIP3   OH225057   2.564   0.915   0.157
 8367TIP3    H125058   2.503   0.945   0.089
 8367TIP3    H225059   2.513   0.921   0.238
 8368TIP3   OH225060   0.697   6.539   3.174
 8368TIP3    H125061   0.628   6.594   3.137
 8368TIP3    H225062   0.672   6.450   3.150
 8369TIP3   OH225063   0.194   3.122   3.169
 8369TIP3    H125064   0.125   3.070   3.209
 8369TIP3    H225065   0.177   3.117   3.075
 8370TIP3   OH225066   6.668   4.530   3.174
 8370TIP3    H125067   6.663   4.447   3.220
 8370TIP3    H225068   6.659   4.507   3.081
 8371TIP3   OH225069   3.576   3.802   2.061
 8371TIP3    H125070   3.661   3.846   2.068
 8371TIP3    H225071   3.513   3.873   2.059
 8372TIP3   OH225072   4.965   7.340   0.853
 8372TIP3    H125073   5.054   7.343   0.887
 8372TIP3    H225074   4.959   7.416   0.795
 8373TIP3   OH225075   5.022   6.644   1.753
 8373TIP3    H125076   5.069   6.683   1.679
 8373TIP3    H225077   5.066   6.560   1.768
 8374TIP3   OH225078   7.753   7.122   4.638
 8374TIP3    H125079   7.772   7.167   4.720
 8374TIP3    H225080   7.809   7.166   4.574
 8375TIP3   OH225081   0.677   5.273   4.280
 8375TIP3    H125082   0.727   5.341   4.236
 8375TIP3    H225083   0.743   5.210   4.310
 8376TIP3   OH225084   7.046   4.136   6.623
 8376TIP3    H125085   7.036   4.043   6.603
 8376TIP3    H225086   6.993   4.149   6.702
 8377TIP3   OH225087   0.338   0.761   6.052
 8377TIP3    H125088   0.364   0.847   6.085
 8377TIP3    H225089   0.303   0.778   5.965
 8378TIP3   OH225090   3.016   1.043   5.471
 8378TIP3    H125091   3.100   1.087   5.481
 8378TIP3    H225092   3.033   0.952   5.494
 8379TIP3   OH225093   1.904   5.210   3.403
 8379TIP3    H125094   1.887   5.264   3.326
 8379TIP3    H225095   1.888   5.120   3.373
 8380TIP3   OH225096   2.669   4.074   6.130
 8380TIP3    H125097   2.649   4.151   6.076
 8380TIP3    H225098   2.677   4.109   6.219
 8381TIP3   OH225099   4.866   7.401   0.050
 8381TIP3    H125100   4.927   7.467   0.082
 8381TIP3    H225101   4.784   7.421   0.095
 8382TIP3   OH225102   7.300   5.104   1.325
 8382TIP3    H125103   7.376   5.117   1.380
 8382TIP3    H225104   7.256   5.189   1.323
 8383TIP3   OH225105   2.023   5.885   3.727
 8383TIP3    H125106   2.011   5.980   3.724
 8383TIP3    H225107   1.935   5.850   3.741
 8384TIP3   OH225108   3.447   7.454   3.974
 8384TIP3    H125109   3.486   7.537   3.946
 8384TIP3    H225110   3.451   7.457   4.070
 8385TIP3   OH225111   2.333   2.628   4.808
 8385TIP3    H125112   2.374   2.654   4.725
 8385TIP3    H225113   2.245   2.601   4.783
 8386TIP3   OH225114   0.371   7.320   0.466
 8386TIP3    H125115   0.389   7.231   0.435
 8386TIP3    H225116   0.354   7.370   0.386
 8387TIP3   OH225117   7.638   7.667   4.791
 8387TIP3    H125118   7.565   7.689   4.849
 8387TIP3    H225119   7.596   7.627   4.715
 8388TIP3   OH225120   3.134   4.831   3.446
 8388TIP3    H125121   3.127   4.921   3.415
 8388TIP3    H225122   3.105   4.836   3.538
 8389TIP3   OH225123   6.089   4.694   3.089
 8389TIP3    H125124   6.108   4.644   3.010
 8389TIP3    H225125   6.111   4.634   3.161
 8390TIP3   OH225126   5.450   7.207   3.931
 8390TIP3    H125127   5.527   7.263   3.922
 8390TIP3    H225128   5.420   7.223   4.021
 8391TIP3   OH225129   8.203   3.880   4.777
 8391TIP3    H125130   8.213   3.879   4.682
 8391TIP3    H225131   8.109   3.880   4.791
 8392TIP3   OH225132   2.415   2.258   2.328
 8392TIP3    H125133   2.331   2.227   2.363
 8392TIP3    H225134   2.456   2.302   2.403
 8393TIP3   OH225135   6.814   4.773   0.343
 8393TIP3    H125136   6.819   4.724   0.261
 8393TIP3    H225137   6.731   4.821   0.337
 8394TIP3   OH225138   6.659   2.403   4.365
 8394TIP3    H125139   6.593   2.467   4.391
 8394TIP3    H225140   6.728   2.455   4.323
 8395TIP3   OH225141   6.761   4.037   5.059
 8395TIP3    H125142   6.794   3.950   5.084
 8395TIP3    H225143   6.671   4.021   5.031
 8396TIP3   OH225144   6.234   6.126   0.773
 8396TIP3    H125145   6.215   6.054   0.713
 8396TIP3    H225146   6.163   6.189   0.759
 8397TIP3   OH225147   3.910   0.787   3.858
 8397TIP3    H125148   3.980   0.792   3.793
 8397TIP3    H225149   3.841   0.737   3.815
 8398TIP3   OH225150   4.323   6.312   2.142
 8398TIP3    H125151   4.230   6.303   2.121
 8398TIP3    H225152   4.349   6.225   2.171
 8399TIP3   OH225153   1.272   3.824   1.211
 8399TIP3    H125154   1.206   3.850   1.275
 8399TIP3    H225155   1.254   3.731   1.194
 8400TIP3   OH225156   4.038   6.243   4.177
 8400TIP3    H125157   4.117   6.261   4.125
 8400TIP3    H225158   4.006   6.160   4.144
 8401TIP3   OH225159   3.476   2.615   3.158
 8401TIP3    H125160   3.547   2.551   3.164
 8401TIP3    H225161   3.450   2.631   3.249
 8402TIP3   OH225162   1.471   6.698   0.571
 8402TIP3    H125163   1.400   6.656   0.522
 8402TIP3    H225164   1.550   6.680   0.520
 8403TIP3   OH225165   3.693   1.309   0.796
 8403TIP3    H125166   3.688   1.220   0.761
 8403TIP3    H225167   3.786   1.331   0.790
 8404TIP3   OH225168   1.417   2.418   5.249
 8404TIP3    H125169   1.475   2.492   5.231
 8404TIP3    H225170   1.447   2.349   5.189
 8405TIP3   OH225171   5.239   2.039   2.157
 8405TIP3    H125172   5.310   2.101   2.172
 8405TIP3    H225173   5.197   2.070   2.076
 8406TIP3   OH225174   7.407   0.812   2.116
 8406TIP3    H125175   7.476   0.774   2.062
 8406TIP3    H225176   7.445   0.816   2.204
 8407TIP3   OH225177   1.975   6.397   6.639
 8407TIP3    H125178   2.044   6.412   6.575
 8407TIP3    H225179   1.982   6.470   6.701
 8408TIP3   OH225180   4.572   5.458   0.623
 8408TIP3    H125181   4.580   5.499   0.709
 8408TIP3    H225182   4.493   5.403   0.630
 8409TIP3   OH225183   6.657   0.845   3.960
 8409TIP3    H125184   6.737   0.870   3.915
 8409TIP3    H225185   6.593   0.832   3.890
 8410TIP3   OH225186   7.060   0.175   0.799
 8410TIP3    H125187   7.028   0.146   0.713
 8410TIP3    H225188   6.986   0.222   0.837
 8411TIP3   OH225189   8.140   1.221   3.437
 8411TIP3    H125190   8.109   1.295   3.385
 8411TIP3    H225191   8.233   1.213   3.414
 8412TIP3   OH225192   0.154   5.064   2.540
 8412TIP3    H125193   0.240   5.069   2.583
 8412TIP3    H225194   0.141   4.971   2.521
 8413TIP3   OH225195   2.435   7.006   0.676
 8413TIP3    H125196   2.429   7.039   0.586
 8413TIP3    H225197   2.355   6.955   0.688
 8414TIP3   OH225198   8.277   0.286   4.060
 8414TIP3    H125199   8.244   0.370   4.029
 8414TIP3    H225200   8.216   0.221   4.025
 8415TIP3   OH225201   1.039   1.740   2.918
 8415TIP3    H125202   1.093   1.819   2.918
 8415TIP3    H225203   0.968   1.759   2.856
 8416TIP3   OH225204   0.034   6.953   4.846
 8416TIP3    H125205   0.076   7.022   4.796
 8416TIP3    H225206   0.081   6.953   4.930
 8417TIP3   OH225207   7.903   0.717   4.327
 8417TIP3    H125208   7.993   0.738   4.305
 8417TIP3    H225209   7.904   0.622   4.341
 8418TIP3   OH225210   0.762   0.514   1.638
 8418TIP3    H125211   0.727   0.535   1.552
 8418TIP3    H225212   0.856   0.500   1.623
 8419TIP3   OH225213   3.797   4.862   5.428
 8419TIP3    H125214   3.828   4.772   5.418
 8419TIP3    H225215   3.812   4.883   5.520
 8420TIP3   OH225216   8.086   3.908   1.261
 8420TIP3    H125217   8.069   3.999   1.236
 8420TIP3    H225218   8.002   3.876   1.293
 8421TIP3   OH225219   2.965   2.148   3.956
 8421TIP3    H125220   2.953   2.054   3.947
 8421TIP3    H225221   3.014   2.159   4.037
 8422TIP3   OH225222   7.784   4.895   4.197
 8422TIP3    H125223   7.794   4.944   4.279
 8422TIP3    H225224   7.871   4.894   4.158
 8423TIP3   OH225225   0.791   1.069   3.595
 8423TIP3    H125226   0.697   1.085   3.583
 8423TIP3    H225227   0.832   1.111   3.519
 8424TIP3   OH225228   3.291   1.082   5.270
 8424TIP3    H125229   3.238   1.139   5.213
 8424TIP3    H225230   3.304   1.003   5.218
 8425TIP3   OH225231   8.115   6.263   3.989
 8425TIP3    H125232   8.137   6.206   3.915
 8425TIP3    H225233   8.193   6.318   4.000
 8426TIP3   OH225234   0.882   5.999   2.008
 8426TIP3    H125235   0.960   6.055   2.009
 8426TIP3    H225236   0.912   5.915   2.041
 8427TIP3   OH225237   5.951   4.284   2.923
 8427TIP3    H125238   5.999   4.366   2.934
 8427TIP3    H225239   5.950   4.245   3.010
 8428TIP3   OH225240   6.647   2.329   1.470
 8428TIP3    H125241   6.636   2.372   1.385
 8428TIP3    H225242   6.661   2.237   1.449
 8429TIP3   OH225243   4.964   6.428   0.151
 8429TIP3    H125244   4.900   6.480   0.200
 8429TIP3    H225245   5.048   6.450   0.191
 8430TIP3   OH225246   0.625   5.053   2.458
 8430TIP3    H125247   0.571   5.132   2.453
 8430TIP3    H225248   0.714   5.084   2.438
 8431TIP3   OH225249   6.037   6.730   5.865
 8431TIP3    H125250   5.974   6.675   5.912
 8431TIP3    H225251   6.050   6.685   5.782
 8432TIP3   OH225252   4.958   3.047   0.961
 8432TIP3    H125253   4.873   3.082   0.984
 8432TIP3    H225254   4.976   3.083   0.874
 8433TIP3   OH225255   5.753   5.028   0.814
 8433TIP3    H125256   5.736   5.101   0.873
 8433TIP3    H225257   5.806   4.967   0.865
 8434TIP3   OH225258   0.944   0.784   2.764
 8434TIP3    H125259   0.942   0.861   2.706
 8434TIP3    H225260   0.897   0.716   2.716
 8435TIP3   OH225261   8.250   5.953   2.144
 8435TIP3    H125262   8.207   5.961   2.229
 8435TIP3    H225263   8.337   5.918   2.163
 8436TIP3   OH225264   5.999   1.651   2.736
 8436TIP3    H125265   5.952   1.619   2.658
 8436TIP3    H225266   6.091   1.656   2.708
 8437TIP3   OH225267   7.879   6.221   3.567
 8437TIP3    H125268   7.854   6.306   3.529
 8437TIP3    H225269   7.925   6.244   3.648
 8438TIP3   OH225270   6.239   2.191   4.819
 8438TIP3    H125271   6.259   2.267   4.873
 8438TIP3    H225272   6.208   2.228   4.736
 8439TIP3   OH225273   3.344   2.310   4.798
 8439TIP3    H125274   3.405   2.237   4.790
 8439TIP3    H225275   3.349   2.354   4.713
 8440TIP3   OH225276   7.539   6.833   2.361
 8440TIP3    H125277   7.518   6.890   2.287
 8440TIP3    H225278   7.491   6.871   2.434
 8441TIP3   OH225279   1.700   3.876   4.846
 8441TIP3    H125280   1.630   3.942   4.840
 8441TIP3    H225281   1.658   3.795   4.816
 8442TIP3   OH225282   6.963   6.028   0.652
 8442TIP3    H125283   6.888   6.065   0.699
 8442TIP3    H225284   6.927   5.954   0.604
 8443TIP3   OH225285   2.825   0.629   0.001
 8443TIP3    H125286   2.757   0.626   0.068
 8443TIP3    H225287   2.906   0.645   0.050
 8444TIP3   OH225288   5.926   6.866   3.034
 8444TIP3    H125289   5.975   6.839   3.112
 8444TIP3    H225290   5.882   6.946   3.060
 8445TIP3   OH225291   3.102   6.068   4.418
 8445TIP3    H125292   3.059   6.098   4.498
 8445TIP3    H225293   3.153   6.143   4.388
 8446TIP3   OH225294   5.946   3.708   4.299
 8446TIP3    H125295   5.904   3.644   4.241
 8446TIP3    H225296   5.874   3.741   4.353
 8447TIP3   OH225297   1.570   7.392   5.601
 8447TIP3    H125298   1.530   7.307   5.585
 8447TIP3    H225299   1.503   7.455   5.572
 8448TIP3   OH225300   2.497   2.767   5.957
 8448TIP3    H125301   2.417   2.727   5.924
 8448TIP3    H225302   2.565   2.702   5.940
 8449TIP3   OH225303   8.038   0.998   0.037
 8449TIP3    H125304   8.022   1.058  -0.036
 8449TIP3    H225305   8.051   1.055   0.112
 8450TIP3   OH225306   0.403   3.373   0.348
 8450TIP3    H125307   0.418   3.323   0.268
 8450TIP3    H225308   0.484   3.421   0.363
 8451TIP3   OH225309   1.790   2.863   6.719
 8451TIP3    H125310   1.834   2.935   6.674
 8451TIP3    H225311   1.707   2.900   6.749
 8452TIP3   OH225312   7.682   1.973   3.634
 8452TIP3    H125313   7.620   2.038   3.669
 8452TIP3    H225314   7.768   2.004   3.662
 8453TIP3   OH225315   1.480   3.151   5.064
 8453TIP3    H125316   1.469   3.170   5.157
 8453TIP3    H225317   1.404   3.098   5.041
 8454TIP3   OH225318   5.184   4.778   2.957
 8454TIP3    H125319   5.252   4.746   2.898
 8454TIP3    H225320   5.219   4.761   3.045
 8455TIP3   OH225321   1.307   2.039   1.027
 8455TIP3    H125322   1.312   1.966   1.089
 8455TIP3    H225323   1.250   2.007   0.957
 8456TIP3   OH225324   6.290   3.441   2.345
 8456TIP3    H125325   6.338   3.513   2.386
 8456TIP3    H225326   6.204   3.477   2.325
 8457TIP3   OH225327   6.503   4.739   0.779
 8457TIP3    H125328   6.598   4.750   0.780
 8457TIP3    H225329   6.471   4.797   0.848
 8458TIP3   OH225330   6.531   0.038   0.586
 8458TIP3    H125331   6.484   0.079   0.514
 8458TIP3    H225332   6.542   0.108   0.651
 8459TIP3   OH225333   2.288   1.107   0.293
 8459TIP3    H125334   2.285   1.186   0.347
 8459TIP3    H225335   2.208   1.110   0.241
 8460TIP3   OH225336   1.283   3.837   5.965
 8460TIP3    H125337   1.321   3.872   5.884
 8460TIP3    H225338   1.243   3.913   6.008
 8461TIP3   OH225339   3.258   0.516   5.627
 8461TIP3    H125340   3.235   0.500   5.536
 8461TIP3    H225341   3.181   0.488   5.676
 8462TIP3   OH225342   4.944   6.749   4.868
 8462TIP3    H125343   4.994   6.830   4.872
 8462TIP3    H225344   4.993   6.693   4.808
 8463TIP3   OH225345   4.350   7.434   0.586
 8463TIP3    H125346   4.308   7.374   0.647
 8463TIP3    H225347   4.289   7.507   0.578
 8464TIP3   OH225348   1.949   2.339   5.797
 8464TIP3    H125349   1.902   2.272   5.847
 8464TIP3    H225350   1.970   2.296   5.714
 8465TIP3   OH225351   3.535   4.902   6.220
 8465TIP3    H125352   3.520   4.847   6.296
 8465TIP3    H225353   3.527   4.991   6.253
 8466TIP3   OH225354   7.698   2.100   5.936
 8466TIP3    H125355   7.665   2.023   5.890
 8466TIP3    H225356   7.730   2.158   5.867
 8467TIP3   OH225357   2.946   6.939   0.152
 8467TIP3    H125358   2.954   7.024   0.109
 8467TIP3    H225359   2.982   6.952   0.239
 8468TIP3   OH225360   6.200   6.449   3.028
 8468TIP3    H125361   6.255   6.414   2.959
 8468TIP3    H225362   6.251   6.519   3.067
 8469TIP3   OH225363   5.023   5.580   6.274
 8469TIP3    H125364   5.028   5.595   6.179
 8469TIP3    H225365   5.058   5.492   6.287
 8470TIP3   OH225366   1.025   6.460   4.494
 8470TIP3    H125367   1.095   6.487   4.554
 8470TIP3    H225368   0.944   6.483   4.539
 8471TIP3   OH225369   4.066   5.156   6.719
 8471TIP3    H125370   4.098   5.141   6.630
 8471TIP3    H225371   3.979   5.116   6.720
 8472TIP3   OH225372   1.637   5.732   4.096
 8472TIP3    H125373   1.586   5.734   4.015
 8472TIP3    H225374   1.685   5.650   4.093
 8473TIP3   OH225375   6.577   0.208   1.686
 8473TIP3    H125376   6.515   0.275   1.714
 8473TIP3    H225377   6.522   0.136   1.655
 8474TIP3   OH225378   3.806   5.067   6.271
 8474TIP3    H125379   3.776   5.026   6.352
 8474TIP3    H225380   3.727   5.106   6.234
 8475TIP3   OH225381   3.073   1.456   0.366
 8475TIP3    H125382   3.050   1.387   0.428
 8475TIP3    H225383   3.023   1.435   0.288
 8476TIP3   OH225384   5.233   2.227   6.405
 8476TIP3    H125385   5.183   2.308   6.394
 8476TIP3    H225386   5.213   2.176   6.326
 8477TIP3   OH225387   0.253   6.938   1.300
 8477TIP3    H125388   0.332   6.908   1.254
 8477TIP3    H225389   0.249   7.032   1.282
 8478TIP3   OH225390   4.323   2.237   5.381
 8478TIP3    H125391   4.317   2.333   5.375
 8478TIP3    H225392   4.378   2.221   5.458
 8479TIP3   OH225393   4.405   2.430   0.453
 8479TIP3    H125394   4.456   2.388   0.522
 8479TIP3    H225395   4.471   2.469   0.395
 8480TIP3   OH225396   1.138   2.980   1.531
 8480TIP3    H125397   1.196   3.014   1.463
 8480TIP3    H225398   1.052   3.018   1.510
 8481TIP3   OH225399   7.937   6.784   6.397
 8481TIP3    H125400   7.890   6.861   6.426
 8481TIP3    H225401   7.878   6.711   6.417
 8482TIP3   OH225402   3.683   0.419   2.462
 8482TIP3    H125403   3.770   0.446   2.490
 8482TIP3    H225404   3.697   0.339   2.412
 8483TIP3   OH225405   6.394   3.378   0.053
 8483TIP3    H125406   6.309   3.350   0.085
 8483TIP3    H225407   6.375   3.443  -0.014
 8484TIP3   OH225408   1.401   1.694   5.394
 8484TIP3    H125409   1.315   1.714   5.356
 8484TIP3    H225410   1.438   1.780   5.412
 8485TIP3   OH225411   4.801   1.459   2.782
 8485TIP3    H125412   4.874   1.450   2.842
 8485TIP3    H225413   4.739   1.391   2.809
 8486TIP3   OH225414   4.282   3.413   3.581
 8486TIP3    H125415   4.237   3.451   3.506
 8486TIP3    H225416   4.293   3.487   3.641
 8487TIP3   OH225417   2.749   6.482   4.335
 8487TIP3    H125418   2.753   6.523   4.421
 8487TIP3    H225419   2.751   6.555   4.273
 8488TIP3   OH225420   6.058   1.912   6.619
 8488TIP3    H125421   6.001   1.847   6.661
 8488TIP3    H225422   6.107   1.952   6.691
 8489TIP3   OH225423   0.529   1.970   2.766
 8489TIP3    H125424   0.580   2.029   2.820
 8489TIP3    H225425   0.582   1.959   2.687
 8490TIP3   OH225426   1.345   6.030   2.572
 8490TIP3    H125427   1.312   6.066   2.490
 8490TIP3    H225428   1.339   5.935   2.562
 8491TIP3   OH225429   7.313   2.244   1.199
 8491TIP3    H125430   7.294   2.154   1.228
 8491TIP3    H225431   7.267   2.299   1.262
 8492TIP3   OH225432   2.735   1.062   6.245
 8492TIP3    H125433   2.774   1.014   6.319
 8492TIP3    H225434   2.715   0.993   6.181
 8493TIP3   OH225435   1.697   6.169   6.638
 8493TIP3    H125436   1.636   6.145   6.568
 8493TIP3    H225437   1.648   6.152   6.719
 8494TIP3   OH225438   2.743   7.478   5.515
 8494TIP3    H125439   2.680   7.544   5.544
 8494TIP3    H225440   2.704   7.394   5.542
 8495TIP3   OH225441   3.695   5.987   4.648
 8495TIP3    H125442   3.722   5.901   4.682
 8495TIP3    H225443   3.726   6.050   4.712
 8496TIP3   OH225444   8.037   6.008   4.169
 8496TIP3    H125445   8.022   6.009   4.075
 8496TIP3    H225446   8.062   6.098   4.191
 8497TIP3   OH225447   1.836   6.362   2.800
 8497TIP3    H125448   1.824   6.444   2.751
 8497TIP3    H225449   1.909   6.319   2.756
 8498TIP3   OH225450   5.144   5.207   5.859
 8498TIP3    H125451   5.114   5.290   5.822
 8498TIP3    H225452   5.064   5.156   5.873
 8499TIP3   OH225453   7.723   5.751   2.484
 8499TIP3    H125454   7.634   5.787   2.478
 8499TIP3    H225455   7.722   5.698   2.564
 8500TIP3   OH225456   7.652   7.600   3.831
 8500TIP3    H125457   7.592   7.621   3.903
 8500TIP3    H225458   7.604   7.536   3.778
 8501TIP3   OH225459   1.326   1.399   2.716
 8501TIP3    H125460   1.366   1.346   2.646
 8501TIP3    H225461   1.262   1.340   2.755
 8502TIP3   OH225462   5.019   4.417   2.856
 8502TIP3    H125463   5.061   4.331   2.846
 8502TIP3    H225464   5.042   4.464   2.776
 8503TIP3   OH225465   4.270   2.386   2.405
 8503TIP3    H125466   4.264   2.482   2.401
 8503TIP3    H225467   4.359   2.367   2.378
 8504TIP3   OH225468   3.028   7.004   4.686
 8504TIP3    H125469   3.094   6.935   4.697
 8504TIP3    H225470   2.945   6.959   4.696
 8505TIP3   OH225471   8.246   5.395   6.302
 8505TIP3    H125472   8.307   5.321   6.307
 8505TIP3    H225473   8.161   5.354   6.287
 8506TIP3   OH225474   6.590   0.534   2.004
 8506TIP3    H125475   6.536   0.458   2.025
 8506TIP3    H225476   6.554   0.568   1.922
 8507TIP3   OH225477   7.215   0.828   2.489
 8507TIP3    H125478   7.131   0.806   2.448
 8507TIP3    H225479   7.234   0.916   2.457
 8508TIP3   OH225480   1.804   4.073   1.661
 8508TIP3    H125481   1.773   4.093   1.573
 8508TIP3    H225482   1.733   4.023   1.701
 8509TIP3   OH225483   7.513   7.006   1.809
 8509TIP3    H125484   7.608   7.018   1.810
 8509TIP3    H225485   7.480   7.082   1.760
 8510TIP3   OH225486   2.188   0.287   5.215
 8510TIP3    H125487   2.222   0.372   5.188
 8510TIP3    H225488   2.121   0.266   5.150
 8511TIP3   OH225489   4.497   0.319   3.209
 8511TIP3    H125490   4.465   0.236   3.174
 8511TIP3    H225491   4.581   0.333   3.165
 8512TIP3   OH225492   2.796   6.201   0.590
 8512TIP3    H125493   2.828   6.111   0.578
 8512TIP3    H225494   2.851   6.254   0.533
 8513TIP3   OH225495   2.089   0.228   3.512
 8513TIP3    H125496   2.082   0.142   3.553
 8513TIP3    H225497   2.029   0.283   3.562
 8514TIP3   OH225498   6.789   1.172   2.929
 8514TIP3    H125499   6.706   1.219   2.925
 8514TIP3    H225500   6.804   1.140   2.840
 8515TIP3   OH225501   7.651   1.411   5.197
 8515TIP3    H125502   7.582   1.437   5.258
 8515TIP3    H225503   7.728   1.395   5.253
 8516TIP3   OH225504   7.368   7.738   2.096
 8516TIP3    H125505   7.310   7.803   2.056
 8516TIP3    H225506   7.311   7.665   2.118
 8517TIP3   OH225507   3.144   6.084   1.106
 8517TIP3    H125508   3.148   6.133   1.188
 8517TIP3    H225509   3.070   6.024   1.118
 8518TIP3   OH225510   4.476   3.296   6.587
 8518TIP3    H125511   4.540   3.367   6.577
 8518TIP3    H225512   4.417   3.326   6.656
 8519TIP3   OH225513   3.426   7.499   6.597
 8519TIP3    H125514   3.346   7.530   6.555
 8519TIP3    H225515   3.495   7.555   6.562
 8520TIP3   OH225516   4.552   7.220   0.097
 8520TIP3    H125517   4.560   7.220   0.002
 8520TIP3    H225518   4.585   7.135   0.125
 8521TIP3   OH225519   6.872   5.024   5.447
 8521TIP3    H125520   6.927   5.098   5.422
 8521TIP3    H225521   6.857   5.036   5.541
 8522TIP3   OH225522   2.494   6.656   3.159
 8522TIP3    H125523   2.546   6.733   3.137
 8522TIP3    H225524   2.558   6.588   3.180
 8523TIP3   OH225525   1.768   2.409   0.770
 8523TIP3    H125526   1.841   2.386   0.826
 8523TIP3    H225527   1.691   2.375   0.816
 8524TIP3   OH225528   5.064   3.145   0.477
 8524TIP3    H125529   5.121   3.076   0.443
 8524TIP3    H225530   5.062   3.130   0.571
 8525TIP3   OH225531   4.054   4.554   4.226
 8525TIP3    H125532   4.031   4.644   4.251
 8525TIP3    H225533   4.119   4.565   4.156
 8526TIP3   OH225534   5.441   3.743   1.373
 8526TIP3    H125535   5.415   3.657   1.406
 8526TIP3    H225536   5.446   3.798   1.452
 8527TIP3   OH225537   2.982   0.040   1.010
 8527TIP3    H125538   3.029  -0.041   0.992
 8527TIP3    H225539   2.913   0.043   0.943
 8528TIP3   OH225540   8.005   2.393   5.419
 8528TIP3    H125541   8.017   2.437   5.335
 8528TIP3    H225542   8.006   2.299   5.398
 8529TIP3   OH225543   3.552   3.713   6.009
 8529TIP3    H125544   3.643   3.742   6.008
 8529TIP3    H225545   3.522   3.725   5.919
 8530TIP3   OH225546   5.708   0.014   0.943
 8530TIP3    H125547   5.646   0.081   0.970
 8530TIP3    H225548   5.697  -0.056   1.007
 8531TIP3   OH225549   5.064   5.350   1.220
 8531TIP3    H125550   5.127   5.419   1.196
 8531TIP3    H225551   5.077   5.337   1.313
 8532TIP3   OH225552   6.469   6.440   3.272
 8532TIP3    H125553   6.398   6.402   3.324
 8532TIP3    H225554   6.496   6.371   3.212
 8533TIP3   OH225555   7.450   5.136   2.326
 8533TIP3    H125556   7.463   5.041   2.324
 8533TIP3    H225557   7.379   5.150   2.388
 8534TIP3   OH225558   0.240   5.135   4.219
 8534TIP3    H125559   0.279   5.175   4.141
 8534TIP3    H225560   0.169   5.081   4.185
 8535TIP3   OH225561   1.780   4.089   5.500
 8535TIP3    H125562   1.740   4.006   5.525
 8535TIP3    H225563   1.708   4.141   5.464
 8536TIP3   OH225564   0.121   0.995   0.449
 8536TIP3    H125565   0.071   1.037   0.518
 8536TIP3    H225566   0.207   0.977   0.489
 8537TIP3   OH225567   7.250   5.509   6.206
 8537TIP3    H125568   7.260   5.604   6.208
 8537TIP3    H225569   7.332   5.477   6.170
 8538TIP3   OH225570   2.071   4.999   2.649
 8538TIP3    H125571   2.042   5.031   2.735
 8538TIP3    H225572   2.166   4.992   2.657
 8539TIP3   OH225573   0.638   2.306   5.269
 8539TIP3    H125574   0.655   2.349   5.185
 8539TIP3    H225575   0.551   2.335   5.295
 8540TIP3   OH225576   1.319   3.138   3.664
 8540TIP3    H125577   1.303   3.095   3.580
 8540TIP3    H225578   1.269   3.220   3.659
 8541TIP3   OH225579   6.021   2.207   1.663
 8541TIP3    H125580   6.004   2.301   1.660
 8541TIP3    H225581   5.978   2.177   1.742
 8542TIP3   OH225582   2.741   5.262   2.715
 8542TIP3    H125583   2.738   5.182   2.767
 8542TIP3    H225584   2.835   5.276   2.700
 8543TIP3   OH225585   2.949   1.652   0.494
 8543TIP3    H125586   3.002   1.573   0.484
 8543TIP3    H225587   2.958   1.698   0.411
 8544TIP3   OH225588   1.633   2.775   6.219
 8544TIP3    H125589   1.649   2.865   6.193
 8544TIP3    H225590   1.666   2.769   6.309
 8545TIP3   OH225591   3.539   2.088   0.718
 8545TIP3    H125592   3.586   2.164   0.685
 8545TIP3    H225593   3.470   2.125   0.773
 8546TIP3   OH225594   0.221   6.639   5.751
 8546TIP3    H125595   0.315   6.657   5.757
 8546TIP3    H225596   0.185   6.668   5.835
 8547TIP3   OH225597   1.144   3.458   2.732
 8547TIP3    H125598   1.145   3.553   2.748
 8547TIP3    H225599   1.054   3.439   2.707
 8548TIP3   OH225600   2.413   3.096   0.297
 8548TIP3    H125601   2.430   3.111   0.389
 8548TIP3    H225602   2.323   3.126   0.284
 8549TIP3   OH225603   3.249   1.588   4.167
 8549TIP3    H125604   3.285   1.516   4.220
 8549TIP3    H225605   3.325   1.634   4.133
 8550TIP3   OH225606   4.761   5.061   5.151
 8550TIP3    H125607   4.813   5.128   5.196
 8550TIP3    H225608   4.816   5.033   5.078
 8551TIP3   OH225609   3.915   4.484   4.766
 8551TIP3    H125610   3.980   4.551   4.745
 8551TIP3    H225611   3.843   4.532   4.809
 8552TIP3   OH225612   4.943   2.683   2.436
 8552TIP3    H125613   5.038   2.686   2.420
 8552TIP3    H225614   4.910   2.761   2.393
 8553TIP3   OH225615   4.543   0.728   4.512
 8553TIP3    H125616   4.565   0.746   4.420
 8553TIP3    H225617   4.596   0.652   4.535
 8554TIP3   OH225618   1.633   0.637   6.578
 8554TIP3    H125619   1.551   0.663   6.620
 8554TIP3    H225620   1.606   0.586   6.502
 8555TIP3   OH225621   7.358   5.563   4.863
 8555TIP3    H125622   7.377   5.488   4.919
 8555TIP3    H225623   7.444   5.596   4.837
 8556TIP3   OH225624   8.168   2.306   0.601
 8556TIP3    H125625   8.103   2.276   0.664
 8556TIP3    H225626   8.231   2.234   0.595
 8557TIP3   OH225627   0.844   6.341   6.054
 8557TIP3    H125628   0.870   6.368   6.142
 8557TIP3    H225629   0.748   6.345   6.054
 8558TIP3   OH225630   5.629   7.130   6.567
 8558TIP3    H125631   5.558   7.121   6.631
 8558TIP3    H225632   5.585   7.139   6.483
 8559TIP3   OH225633   5.049   7.161   4.256
 8559TIP3    H125634   5.124   7.202   4.300
 8559TIP3    H225635   5.088   7.099   4.195
 8560TIP3   OH225636   6.526   3.052   3.742
 8560TIP3    H125637   6.609   3.038   3.698
 8560TIP3    H225638   6.467   3.083   3.674
 8561TIP3   OH225639   3.846   6.983   3.106
 8561TIP3    H125640   3.886   7.049   3.048
 8561TIP3    H225641   3.752   6.995   3.095
 8562TIP3   OH225642   0.607   5.145   3.586
 8562TIP3    H125643   0.604   5.073   3.649
 8562TIP3    H225644   0.627   5.103   3.503
 8563TIP3   OH225645   0.095   3.892   5.599
 8563TIP3    H125646   0.017   3.948   5.595
 8563TIP3    H225647   0.166   3.948   5.568
 8564TIP3   OH225648   2.375   0.172   1.497
 8564TIP3    H125649   2.382   0.100   1.434
 8564TIP3    H225650   2.345   0.129   1.578
 8565TIP3   OH225651   7.403   5.793   2.284
 8565TIP3    H125652   7.449   5.802   2.201
 8565TIP3    H225653   7.434   5.867   2.336
 8566TIP3   OH225654   2.132   5.689   5.064
 8566TIP3    H125655   2.120   5.737   5.146
 8566TIP3    H225656   2.176   5.751   5.006
 8567TIP3   OH225657   1.139   2.089   2.915
 8567TIP3    H125658   1.230   2.108   2.890
 8567TIP3    H225659   1.139   2.094   3.011
 8568TIP3   OH225660   4.249   4.737   1.224
 8568TIP3    H125661   4.204   4.690   1.153
 8568TIP3    H225662   4.185   4.740   1.295
 8569TIP3   OH225663   7.843   1.241   0.910
 8569TIP3    H125664   7.937   1.254   0.923
 8569TIP3    H225665   7.816   1.188   0.985
 8570TIP3   OH225666   0.704   5.338   2.425
 8570TIP3    H125667   0.635   5.401   2.404
 8570TIP3    H225668   0.720   5.349   2.518
 8571TIP3   OH225669   4.532   6.642   0.468
 8571TIP3    H125670   4.613   6.672   0.508
 8571TIP3    H225671   4.503   6.716   0.414
 8572TIP3   OH225672   4.491   1.528   4.363
 8572TIP3    H125673   4.400   1.551   4.348
 8572TIP3    H225674   4.488   1.442   4.406
 8573TIP3   OH225675   1.216   1.900   0.216
 8573TIP3    H125676   1.168   1.864   0.141
 8573TIP3    H225677   1.262   1.825   0.252
 8574TIP3   OH225678   6.953   3.041   5.359
 8574TIP3    H125679   6.962   3.127   5.318
 8574TIP3    H225680   7.043   3.008   5.367
 8575TIP3   OH225681   6.200   1.783   5.005
 8575TIP3    H125682   6.210   1.746   5.092
 8575TIP3    H225683   6.269   1.850   4.999
 8576TIP3   OH225684   1.938   0.661   1.684
 8576TIP3    H125685   1.976   0.748   1.669
 8576TIP3    H225686   1.985   0.628   1.761
 8577TIP3   OH225687   1.871   7.734   2.145
 8577TIP3    H125688   1.837   7.756   2.232
 8577TIP3    H225689   1.804   7.764   2.084
 8578TIP3   OH225690   3.138   0.207   2.502
 8578TIP3    H125691   3.200   0.243   2.565
 8578TIP3    H225692   3.119   0.119   2.536
 8579TIP3   OH225693   5.373   0.886   3.891
 8579TIP3    H125694   5.366   0.948   3.963
 8579TIP3    H225695   5.286   0.848   3.883
 8580TIP3   OH225696   2.458   7.664   5.868
 8580TIP3    H125697   2.492   7.575   5.871
 8580TIP3    H225698   2.364   7.654   5.851
 8581TIP3   OH225699   6.046   1.188   2.750
 8581TIP3    H125700   6.064   1.100   2.783
 8581TIP3    H225701   5.975   1.221   2.805
 8582TIP3   OH225702   0.577   3.424   6.606
 8582TIP3    H125703   0.543   3.343   6.569
 8582TIP3    H225704   0.625   3.397   6.684
 8583TIP3   OH225705   3.021   2.439   5.287
 8583TIP3    H125706   2.963   2.460   5.214
 8583TIP3    H225707   3.066   2.359   5.259
 8584TIP3   OH225708   0.774   3.271   5.623
 8584TIP3    H125709   0.784   3.223   5.541
 8584TIP3    H225710   0.680   3.275   5.637
 8585TIP3   OH225711   1.888   7.707   0.114
 8585TIP3    H125712   1.803   7.671   0.141
 8585TIP3    H225713   1.952   7.645   0.147
 8586TIP3   OH225714   3.633   1.389   0.075
 8586TIP3    H125715   3.593   1.380  -0.011
 8586TIP3    H225716   3.705   1.450   0.061
 8587TIP3   OH225717   5.328   5.319   5.431
 8587TIP3    H125718   5.374   5.284   5.354
 8587TIP3    H225719   5.372   5.278   5.506
 8588TIP3   OH225720   2.530   2.810   2.489
 8588TIP3    H125721   2.442   2.781   2.516
 8588TIP3    H225722   2.565   2.735   2.440
 8589TIP3   OH225723   1.560   1.496   6.205
 8589TIP3    H125724   1.481   1.473   6.158
 8589TIP3    H225725   1.577   1.421   6.263
 8590TIP3   OH225726   0.381   0.410   1.544
 8590TIP3    H125727   0.380   0.402   1.449
 8590TIP3    H225728   0.294   0.381   1.572
 8591TIP3   OH225729   0.888   1.506   6.443
 8591TIP3    H125730   0.865   1.556   6.365
 8591TIP3    H225731   0.861   1.416   6.423
 8592TIP3   OH225732   2.090   0.240   0.795
 8592TIP3    H125733   2.105   0.158   0.747
 8592TIP3    H225734   2.177   0.277   0.807
 8593TIP3   OH225735   1.049   5.112   1.934
 8593TIP3    H125736   0.976   5.084   1.879
 8593TIP3    H225737   1.119   5.049   1.915
 8594TIP3   OH225738   5.490   1.684   3.287
 8594TIP3    H125739   5.515   1.630   3.362
 8594TIP3    H225740   5.428   1.747   3.322
 8595TIP3   OH225741   5.262   5.650   5.787
 8595TIP3    H125742   5.287   5.718   5.850
 8595TIP3    H225743   5.169   5.667   5.769
 8596TIP3   OH225744   7.741   2.210   3.460
 8596TIP3    H125745   7.744   2.117   3.437
 8596TIP3    H225746   7.826   2.244   3.432
 8597TIP3   OH225747   4.707   5.850   2.299
 8597TIP3    H125748   4.682   5.865   2.391
 8597TIP3    H225749   4.763   5.925   2.278
 8598TIP3   OH225750   1.493   0.170   3.674
 8598TIP3    H125751   1.423   0.235   3.668
 8598TIP3    H225752   1.523   0.159   3.583
 8599TIP3   OH225753   2.752   2.322   0.597
 8599TIP3    H125754   2.755   2.229   0.619
 8599TIP3    H225755   2.834   2.357   0.631
 8600TIP3   OH225756   2.515   5.648   4.300
 8600TIP3    H125757   2.455   5.597   4.247
 8600TIP3    H225758   2.599   5.640   4.254
 8601TIP3   OH225759   6.740   4.744   1.341
 8601TIP3    H125760   6.693   4.666   1.372
 8601TIP3    H225761   6.829   4.732   1.372
 8602TIP3   OH225762   3.209   0.763   0.434
 8602TIP3    H125763   3.191   0.853   0.409
 8602TIP3    H225764   3.300   0.764   0.465
 8603TIP3   OH225765   4.572   0.998   6.180
 8603TIP3    H125766   4.631   1.022   6.109
 8603TIP3    H225767   4.561   1.079   6.230
 8604TIP3   OH225768   3.919   5.225   3.270
 8604TIP3    H125769   4.003   5.218   3.225
 8604TIP3    H225770   3.939   5.266   3.354
 8605TIP3   OH225771   6.918   3.772   5.800
 8605TIP3    H125772   6.988   3.831   5.829
 8605TIP3    H225773   6.840   3.827   5.798
 8606TIP3   OH225774   4.413   5.163   2.232
 8606TIP3    H125775   4.379   5.087   2.185
 8606TIP3    H225776   4.385   5.149   2.323
 8607TIP3   OH225777   1.124   1.144   2.257
 8607TIP3    H125778   1.208   1.103   2.274
 8607TIP3    H225779   1.138   1.237   2.275
 8608TIP3   OH225780   7.121   1.871   5.235
 8608TIP3    H125781   7.058   1.857   5.165
 8608TIP3    H225782   7.071   1.863   5.316
 8609TIP3   OH225783   7.870   0.382   3.743
 8609TIP3    H125784   7.898   0.426   3.823
 8609TIP3    H225785   7.935   0.409   3.677
 8610TIP3   OH225786   1.277   0.739   0.099
 8610TIP3    H125787   1.369   0.714   0.100
 8610TIP3    H225788   1.230   0.658   0.078
 8611TIP3   OH225789   4.167   2.458   4.175
 8611TIP3    H125790   4.194   2.411   4.096
 8611TIP3    H225791   4.214   2.415   4.246
 8612TIP3   OH225792   8.226   2.915   1.528
 8612TIP3    H125793   8.151   2.906   1.469
 8612TIP3    H225794   8.198   2.873   1.609
 8613TIP3   OH225795   6.801   3.172   4.976
 8613TIP3    H125796   6.761   3.095   4.935
 8613TIP3    H225797   6.893   3.149   4.988
 8614TIP3   OH225798   4.513   4.046   1.019
 8614TIP3    H125799   4.419   4.057   1.008
 8614TIP3    H225800   4.543   4.129   1.057
 8615TIP3   OH225801   4.327   0.552   2.930
 8615TIP3    H125802   4.362   0.466   2.907
 8615TIP3    H225803   4.233   0.546   2.911
 8616TIP3   OH225804   0.212   6.821   3.253
 8616TIP3    H125805   0.129   6.855   3.219
 8616TIP3    H225806   0.185   6.755   3.317
 8617TIP3   OH225807   6.182   0.108  -0.016
 8617TIP3    H125808   6.226   0.028   0.011
 8617TIP3    H225809   6.239   0.179   0.014
 8618TIP3   OH225810   3.479   5.867   3.412
 8618TIP3    H125811   3.396   5.911   3.393
 8618TIP3    H225812   3.480   5.792   3.353
 8619TIP3   OH225813   5.079   7.222   2.743
 8619TIP3    H125814   5.107   7.219   2.652
 8619TIP3    H225815   5.110   7.140   2.781
 8620TIP3   OH225816   6.951   2.585   5.350
 8620TIP3    H125817   6.902   2.666   5.338
 8620TIP3    H225818   6.885   2.516   5.349
 8621TIP3   OH225819   2.623   5.313   1.918
 8621TIP3    H125820   2.543   5.325   1.970
 8621TIP3    H225821   2.597   5.253   1.848
 8622TIP3   OH225822   6.967   5.930   1.306
 8622TIP3    H125823   6.989   5.974   1.388
 8622TIP3    H225824   6.871   5.932   1.303
 8623TIP3   OH225825   0.464   7.760   3.412
 8623TIP3    H125826   0.394   7.748   3.477
 8623TIP3    H225827   0.545   7.745   3.460
 8624TIP3   OH225828   2.093   0.166   1.356
 8624TIP3    H125829   2.081   0.105   1.283
 8624TIP3    H225830   2.043   0.128   1.428
 8625TIP3   OH225831   1.296   2.663   6.690
 8625TIP3    H125832   1.225   2.608   6.655
 8625TIP3    H225833   1.374   2.609   6.683
 8626TIP3   OH225834   6.638   0.274   5.846
 8626TIP3    H125835   6.731   0.267   5.826
 8626TIP3    H225836   6.595   0.280   5.761
 8627TIP3   OH225837   3.181   6.715   2.779
 8627TIP3    H125838   3.269   6.732   2.747
 8627TIP3    H225839   3.189   6.632   2.827
 8628TIP3   OH225840   3.171   5.853   5.062
 8628TIP3    H125841   3.132   5.800   4.993
 8628TIP3    H225842   3.253   5.886   5.025
 8629TIP3   OH225843   3.647   5.748   6.335
 8629TIP3    H125844   3.722   5.803   6.356
 8629TIP3    H225845   3.621   5.775   6.247
 8630TIP3   OH225846   3.354   5.910   4.258
 8630TIP3    H125847   3.318   5.834   4.304
 8630TIP3    H225848   3.332   5.895   4.166
 8631TIP3   OH225849   6.592   4.912   5.113
 8631TIP3    H125850   6.511   4.945   5.074
 8631TIP3    H225851   6.657   4.981   5.094
 8632TIP3   OH225852   6.090   0.523   5.481
 8632TIP3    H125853   6.179   0.557   5.471
 8632TIP3    H225854   6.051   0.530   5.394
 8633TIP3   OH225855   6.925   2.619   2.168
 8633TIP3    H125856   6.970   2.687   2.218
 8633TIP3    H225857   6.974   2.613   2.086
 8634TIP3   OH225858   6.338   2.111   0.438
 8634TIP3    H125859   6.415   2.121   0.495
 8634TIP3    H225860   6.277   2.178   0.468
 8635TIP3   OH225861   5.531   5.633   1.422
 8635TIP3    H125862   5.488   5.712   1.456
 8635TIP3    H225863   5.614   5.629   1.468
 8636TIP3   OH225864   7.742   1.865   3.942
 8636TIP3    H125865   7.652   1.866   3.911
 8636TIP3    H225866   7.750   1.783   3.990
 8637TIP3   OH225867   3.401   3.434   5.497
 8637TIP3    H125868   3.366   3.508   5.547
 8637TIP3    H225869   3.369   3.356   5.544
 8638TIP3   OH225870   8.016   2.498   0.306
 8638TIP3    H125871   8.109   2.479   0.321
 8638TIP3    H225872   7.973   2.413   0.311
 8639TIP3   OH225873   0.884   5.813   4.282
 8639TIP3    H125874   0.919   5.861   4.208
 8639TIP3    H225875   0.831   5.877   4.330
 8640TIP3   OH225876   2.737   5.995   4.571
 8640TIP3    H125877   2.751   5.993   4.666
 8640TIP3    H225878   2.753   6.086   4.547
 8641TIP3   OH225879   1.598   3.990   2.562
 8641TIP3    H125880   1.545   4.034   2.628
 8641TIP3    H225881   1.535   3.959   2.497
 8642TIP3   OH225882   6.952   0.270   1.371
 8642TIP3    H125883   6.872   0.233   1.333
 8642TIP3    H225884   6.991   0.320   1.299
 8643TIP3   OH225885   6.981   6.872   4.048
 8643TIP3    H125886   7.009   6.855   3.959
 8643TIP3    H225887   6.909   6.810   4.063
 8644TIP3   OH225888   7.620   0.068   4.102
 8644TIP3    H125889   7.675   0.091   4.027
 8644TIP3    H225890   7.625   0.143   4.161
 8645TIP3   OH225891   8.113   5.159   5.821
 8645TIP3    H125892   8.132   5.202   5.737
 8645TIP3    H225893   8.104   5.230   5.883
 8646TIP3   OH225894   0.143   4.570   1.142
 8646TIP3    H125895   0.071   4.567   1.205
 8646TIP3    H225896   0.222   4.566   1.196
 8647TIP3   OH225897   3.990   7.444   3.050
 8647TIP3    H125898   3.917   7.480   3.102
 8647TIP3    H225899   4.045   7.520   3.030
 8648TIP3   OH225900   6.972   5.703   5.708
 8648TIP3    H125901   7.027   5.748   5.771
 8648TIP3    H225902   6.905   5.659   5.760
 8649TIP3   OH225903   3.393   2.451   0.978
 8649TIP3    H125904   3.481   2.462   1.013
 8649TIP3    H225905   3.340   2.513   1.028
 8650TIP3   OH225906   8.109   4.174   3.035
 8650TIP3    H125907   8.104   4.215   2.948
 8650TIP3    H225908   8.036   4.112   3.037
 8651TIP3   OH225909   1.283   6.204   2.762
 8651TIP3    H125910   1.297   6.148   2.686
 8651TIP3    H225911   1.194   6.184   2.790
 8652TIP3   OH225912   1.301   7.184   3.606
 8652TIP3    H125913   1.310   7.152   3.696
 8652TIP3    H225914   1.359   7.260   3.602
 8653TIP3   OH225915   4.992   7.405   5.295
 8653TIP3    H125916   4.919   7.465   5.277
 8653TIP3    H225917   5.013   7.420   5.387
 8654TIP3   OH225918   7.051   7.089   1.071
 8654TIP3    H125919   6.961   7.109   1.045
 8654TIP3    H225920   7.090   7.174   1.092
 8655TIP3   OH225921   3.345   6.344   0.657
 8655TIP3    H125922   3.302   6.334   0.572
 8655TIP3    H225923   3.276   6.377   0.715
 8656TIP3   OH225924   6.217   7.577   4.415
 8656TIP3    H125925   6.149   7.618   4.361
 8656TIP3    H225926   6.256   7.650   4.463
 8657TIP3   OH225927   0.286   4.164   4.679
 8657TIP3    H125928   0.294   4.236   4.742
 8657TIP3    H225929   0.230   4.199   4.610
 8658TIP3   OH225930   1.281   2.979   3.409
 8658TIP3    H125931   1.360   2.975   3.355
 8658TIP3    H225932   1.236   3.058   3.379
 8659TIP3   OH225933   2.402   3.343   4.577
 8659TIP3    H125934   2.360   3.427   4.595
 8659TIP3    H225935   2.330   3.280   4.574
 8660TIP3   OH225936   4.258   5.806   2.043
 8660TIP3    H125937   4.349   5.778   2.044
 8660TIP3    H225938   4.209   5.731   2.008
 8661TIP3   OH225939   5.763   0.841   3.978
 8661TIP3    H125940   5.854   0.828   4.007
 8661TIP3    H225941   5.715   0.861   4.058
 8662TIP3   OH225942   6.964   2.891   1.231
 8662TIP3    H125943   6.926   2.810   1.264
 8662TIP3    H225944   7.054   2.869   1.209
 8663TIP3   OH225945   7.345   0.517   5.057
 8663TIP3    H125946   7.301   0.524   5.142
 8663TIP3    H225947   7.280   0.549   4.994
 8664TIP3   OH225948   2.013   1.721   5.370
 8664TIP3    H125949   2.036   1.671   5.449
 8664TIP3    H225950   1.918   1.715   5.364
 8665TIP3   OH225951   1.276   6.149   4.936
 8665TIP3    H125952   1.285   6.078   5.000
 8665TIP3    H225953   1.366   6.165   4.906
 8666TIP3   OH225954   6.610   6.843   3.193
 8666TIP3    H125955   6.675   6.778   3.220
 8666TIP3    H225956   6.622   6.851   3.098
 8667TIP3   OH225957   0.134   4.814   4.874
 8667TIP3    H125958   0.131   4.872   4.798
 8667TIP3    H225959   0.221   4.828   4.911
 8668TIP3   OH225960   8.166   4.795   4.969
 8668TIP3    H125961   8.254   4.770   4.941
 8668TIP3    H225962   8.166   4.890   4.966
 8669TIP3   OH225963   3.312   7.011   1.575
 8669TIP3    H125964   3.279   7.055   1.496
 8669TIP3    H225965   3.239   6.958   1.605
 8670TIP3   OH225966   2.429   0.232   5.343
 8670TIP3    H125967   2.352   0.239   5.286
 8670TIP3    H225968   2.419   0.303   5.406
 8671TIP3   OH225969   5.610   1.447   6.058
 8671TIP3    H125970   5.691   1.488   6.089
 8671TIP3    H225971   5.541   1.488   6.109
 8672TIP3   OH225972   3.986   6.612   2.543
 8672TIP3    H125973   3.999   6.612   2.448
 8672TIP3    H225974   3.917   6.677   2.558
 8673TIP3   OH225975   6.167   3.385   5.948
 8673TIP3    H125976   6.180   3.290   5.950
 8673TIP3    H225977   6.228   3.416   5.881
 8674TIP3   OH225978   0.078   2.448   4.494
 8674TIP3    H125979   0.061   2.381   4.428
 8674TIP3    H225980   0.173   2.456   4.497
 8675TIP3   OH225981   5.102   0.300   3.756
 8675TIP3    H125982   5.033   0.258   3.807
 8675TIP3    H225983   5.080   0.280   3.665
 8676TIP3   OH225984   4.386   3.030   6.506
 8676TIP3    H125985   4.296   3.030   6.474
 8676TIP3    H225986   4.409   3.122   6.517
 8677TIP3   OH225987   1.225   4.203   4.029
 8677TIP3    H125988   1.289   4.230   4.095
 8677TIP3    H225989   1.241   4.109   4.018
 8678TIP3   OH225990   5.609   4.134   1.435
 8678TIP3    H125991   5.700   4.107   1.439
 8678TIP3    H225992   5.597   4.166   1.346
 8679TIP3   OH225993   2.450   2.645   3.588
 8679TIP3    H125994   2.427   2.734   3.560
 8679TIP3    H225995   2.365   2.602   3.602
 8680TIP3   OH225996   3.035   6.688   0.588
 8680TIP3    H125997   2.979   6.631   0.536
 8680TIP3    H225998   2.977   6.759   0.617
 8681TIP3   OH225999   1.888   5.432   3.578
 8681TIP3    H126000   1.895   5.357   3.520
 8681TIP3    H226001   1.802   5.470   3.558
 8682TIP3   OH226002   3.805   0.142   1.322
 8682TIP3    H126003   3.854   0.121   1.401
 8682TIP3    H226004   3.816   0.065   1.266
 8683TIP3   OH226005   7.880   3.228   0.512
 8683TIP3    H126006   7.799   3.270   0.539
 8683TIP3    H226007   7.871   3.214   0.418
 8684TIP3   OH226008   2.759   0.644   0.751
 8684TIP3    H126009   2.825   0.576   0.741
 8684TIP3    H226010   2.808   0.723   0.774
 8685TIP3   OH226011   6.193   3.306   0.926
 8685TIP3    H126012   6.241   3.293   1.007
 8685TIP3    H226013   6.103   3.325   0.953
 8686TIP3   OH226014   0.783   6.848   6.452
 8686TIP3    H126015   0.793   6.767   6.401
 8686TIP3    H226016   0.742   6.909   6.391
 8687TIP3   OH226017   3.673   3.200   5.595
 8687TIP3    H126018   3.747   3.170   5.648
 8687TIP3    H226019   3.669   3.294   5.611
 8688TIP3   OH226020   6.239   5.251   0.304
 8688TIP3    H126021   6.248   5.190   0.231
 8688TIP3    H226022   6.150   5.237   0.337
 8689TIP3   OH226023   2.089   0.619   1.328
 8689TIP3    H126024   1.996   0.599   1.340
 8689TIP3    H226025   2.133   0.569   1.397
 8690TIP3   OH226026   6.508   0.696   4.583
 8690TIP3    H126027   6.504   0.744   4.665
 8690TIP3    H226028   6.543   0.759   4.520
 8691TIP3   OH226029   7.603   2.291   5.215
 8691TIP3    H126030   7.520   2.270   5.258
 8691TIP3    H226031   7.660   2.217   5.235
 8692TIP3   OH226032   2.647   7.242   1.147
 8692TIP3    H126033   2.633   7.202   1.061
 8692TIP3    H226034   2.741   7.231   1.164
 8693TIP3   OH226035   7.264   7.694   4.448
 8693TIP3    H126036   7.207   7.704   4.373
 8693TIP3    H226037   7.213   7.728   4.522
 8694TIP3   OH226038   3.793   6.375   0.530
 8694TIP3    H126039   3.844   6.366   0.449
 8694TIP3    H226040   3.707   6.403   0.501
 8695TIP3   OH226041   7.192   0.421   1.692
 8695TIP3    H126042   7.141   0.470   1.628
 8695TIP3    H226043   7.245   0.487   1.736
 8696TIP3   OH226044   0.388   5.255   1.588
 8696TIP3    H126045   0.457   5.277   1.525
 8696TIP3    H226046   0.342   5.181   1.549
 8697TIP3   OH226047   1.070   0.707   5.552
 8697TIP3    H126048   1.149   0.760   5.541
 8697TIP3    H226049   1.008   0.743   5.488
 8698TIP3   OH226050   7.656   2.819   3.225
 8698TIP3    H126051   7.609   2.827   3.308
 8698TIP3    H226052   7.592   2.782   3.164
 8699TIP3   OH226053   4.782   5.824   4.368
 8699TIP3    H126054   4.760   5.754   4.307
 8699TIP3    H226055   4.700   5.845   4.412
 8700TIP3   OH226056   3.918   6.814   5.955
 8700TIP3    H126057   3.843   6.859   5.994
 8700TIP3    H226058   3.879   6.750   5.896
 8701TIP3   OH226059   4.262   4.521   4.027
 8701TIP3    H126060   4.310   4.568   4.095
 8701TIP3    H226061   4.329   4.475   3.977
 8702TIP3   OH226062   5.608   5.078   2.813
 8702TIP3    H126063   5.622   4.993   2.854
 8702TIP3    H226064   5.676   5.134   2.851
 8703TIP3   OH226065   1.053   1.701   5.826
 8703TIP3    H126066   0.970   1.703   5.778
 8703TIP3    H226067   1.056   1.784   5.873
 8704TIP3   OH226068   5.751   7.420   1.961
 8704TIP3    H126069   5.729   7.491   1.901
 8704TIP3    H226070   5.691   7.350   1.937
 8705TIP3   OH226071   0.240   6.202   6.356
 8705TIP3    H126072   0.329   6.173   6.376
 8705TIP3    H226073   0.234   6.290   6.393
 8706TIP3   OH226074   6.221   2.549   4.194
 8706TIP3    H126075   6.316   2.539   4.194
 8706TIP3    H226076   6.206   2.636   4.233
 8707TIP3   OH226077   4.096   7.679   2.167
 8707TIP3    H126078   4.065   7.720   2.086
 8707TIP3    H226079   4.017   7.648   2.210
 8708TIP3   OH226080   2.982   5.401   6.081
 8708TIP3    H126081   3.047   5.421   6.014
 8708TIP3    H226082   2.904   5.450   6.054
 8709TIP3   OH226083   3.953   5.863   5.359
 8709TIP3    H126084   3.932   5.949   5.395
 8709TIP3    H226085   4.037   5.840   5.398
 8710TIP3   OH226086   2.454   7.300   3.629
 8710TIP3    H126087   2.536   7.346   3.611
 8710TIP3    H226088   2.441   7.309   3.724
 8711TIP3   OH226089   7.603   1.299   3.927
 8711TIP3    H126090   7.520   1.263   3.895
 8711TIP3    H226091   7.629   1.363   3.860
 8712TIP3   OH226092   8.232   0.730   6.230
 8712TIP3    H126093   8.316   0.748   6.272
 8712TIP3    H226094   8.189   0.815   6.224
 8713TIP3   OH226095   4.792   6.761   3.325
 8713TIP3    H126096   4.760   6.851   3.317
 8713TIP3    H226097   4.814   6.736   3.235
 8714TIP3   OH226098   1.758   5.929   4.770
 8714TIP3    H126099   1.798   5.845   4.746
 8714TIP3    H226100   1.832   5.981   4.802
 8715TIP3   OH226101   4.485   6.381   0.699
 8715TIP3    H126102   4.580   6.381   0.708
 8715TIP3    H226103   4.470   6.378   0.605
 8716TIP3   OH226104   3.569   3.017   6.124
 8716TIP3    H126105   3.512   2.986   6.054
 8716TIP3    H226106   3.524   2.992   6.204
 8717TIP3   OH226107   2.506   4.539   2.342
 8717TIP3    H126108   2.513   4.635   2.337
 8717TIP3    H226109   2.437   4.524   2.408
 8718TIP3   OH226110   4.420   2.928   0.748
 8718TIP3    H126111   4.363   2.853   0.763
 8718TIP3    H226112   4.362   2.996   0.714
 8719TIP3   OH226113   1.662   3.360   3.277
 8719TIP3    H126114   1.753   3.368   3.303
 8719TIP3    H226115   1.620   3.441   3.308
 8720TIP3   OH226116   2.393   1.294   2.885
 8720TIP3    H126117   2.366   1.382   2.913
 8720TIP3    H226118   2.311   1.246   2.873
 8721TIP3   OH226119   0.775   2.481   4.765
 8721TIP3    H126120   0.736   2.534   4.834
 8721TIP3    H226121   0.704   2.464   4.704
 8722TIP3   OH226122   0.616   0.729   2.971
 8722TIP3    H126123   0.580   0.801   3.023
 8722TIP3    H226124   0.662   0.771   2.899
 8723TIP3   OH226125   6.057   6.684   6.420
 8723TIP3    H126126   6.082   6.645   6.337
 8723TIP3    H226127   6.131   6.664   6.479
 8724TIP3   OH226128   5.717   6.833   4.606
 8724TIP3    H126129   5.720   6.797   4.694
 8724TIP3    H226130   5.740   6.760   4.549
 8725TIP3   OH226131   8.123   3.349   5.038
 8725TIP3    H126132   8.104   3.257   5.053
 8725TIP3    H226133   8.211   3.349   4.999
 8726TIP3   OH226134   2.604   1.769   0.068
 8726TIP3    H126135   2.655   1.700   0.026
 8726TIP3    H226136   2.531   1.785   0.007
 8727TIP3   OH226137   3.744   2.478   2.113
 8727TIP3    H126138   3.675   2.435   2.163
 8727TIP3    H226139   3.716   2.471   2.022
 8728TIP3   OH226140   0.669   0.983   4.700
 8728TIP3    H126141   0.663   0.889   4.717
 8728TIP3    H226142   0.669   1.024   4.786
 8729TIP3   OH226143   1.914   5.073   1.011
 8729TIP3    H126144   1.904   4.978   1.017
 8729TIP3    H226145   1.973   5.094   1.084
 8730TIP3   OH226146   5.108   3.108   5.628
 8730TIP3    H126147   5.142   3.118   5.539
 8730TIP3    H226148   5.100   3.198   5.661
 8731TIP3   OH226149   3.053   2.938   5.385
 8731TIP3    H126150   3.050   2.892   5.301
 8731TIP3    H226151   3.029   2.872   5.449
 8732TIP3   OH226152   5.081   7.113   5.526
 8732TIP3    H126153   5.078   7.196   5.573
 8732TIP3    H226154   5.015   7.059   5.569
 8733TIP3   OH226155   7.867   2.712   2.284
 8733TIP3    H126156   7.856   2.802   2.315
 8733TIP3    H226157   7.948   2.682   2.327
 8734TIP3   OH226158   0.731   1.867   4.211
 8734TIP3    H126159   0.650   1.915   4.225
 8734TIP3    H226160   0.762   1.897   4.126
 8735TIP3   OH226161   6.972   6.022   0.238
 8735TIP3    H126162   6.942   6.078   0.311
 8735TIP3    H226163   6.969   6.080   0.162
 8736TIP3   OH226164   1.238   4.630   5.703
 8736TIP3    H126165   1.249   4.658   5.612
 8736TIP3    H226166   1.247   4.711   5.754
 8737TIP3   OH226167   1.675   5.709   6.129
 8737TIP3    H126168   1.679   5.763   6.207
 8737TIP3    H226169   1.625   5.761   6.066
 8738TIP3   OH226170   0.040   4.532   4.718
 8738TIP3    H126171   0.072   4.583   4.793
 8738TIP3    H226172   0.116   4.527   4.659
 8739TIP3   OH226173   1.881   5.008   0.586
 8739TIP3    H126174   1.886   5.102   0.571
 8739TIP3    H226175   1.823   4.975   0.517
 8740TIP3   OH226176   7.315   1.742   4.359
 8740TIP3    H126177   7.326   1.659   4.405
 8740TIP3    H226178   7.404   1.773   4.342
 8741TIP3   OH226179   1.514   3.050   1.744
 8741TIP3    H126180   1.514   3.064   1.839
 8741TIP3    H226181   1.564   2.969   1.732
 8742TIP3   OH226182   5.432   5.277   5.680
 8742TIP3    H126183   5.504   5.331   5.714
 8742TIP3    H226184   5.391   5.240   5.757
 8743TIP3   OH226185   6.127   2.851   0.045
 8743TIP3    H126186   6.111   2.822   0.135
 8743TIP3    H226187   6.089   2.781  -0.010
 8744TIP3   OH226188   6.496   2.019   6.447
 8744TIP3    H126189   6.562   2.017   6.517
 8744TIP3    H226190   6.543   1.989   6.369
 8745TIP3   OH226191   7.231   1.811   2.086
 8745TIP3    H126192   7.298   1.743   2.082
 8745TIP3    H226193   7.228   1.837   2.177
 8746TIP3   OH226194   0.389   1.953   5.130
 8746TIP3    H126195   0.336   2.033   5.139
 8746TIP3    H226196   0.346   1.904   5.060
 8747TIP3   OH226197   4.070   5.935   2.248
 8747TIP3    H126198   4.002   5.959   2.186
 8747TIP3    H226199   4.145   5.910   2.193
 8748TIP3   OH226200   0.155   7.480   5.530
 8748TIP3    H126201   0.193   7.558   5.569
 8748TIP3    H226202   0.098   7.512   5.460
 8749TIP3   OH226203   0.347   0.986   4.798
 8749TIP3    H126204   0.429   1.026   4.769
 8749TIP3    H226205   0.375   0.914   4.856
 8750TIP3   OH226206   7.079   0.574   0.022
 8750TIP3    H126207   7.128   0.507  -0.026
 8750TIP3    H226208   7.135   0.595   0.097
 8751TIP3   OH226209   6.491   4.627   3.843
 8751TIP3    H126210   6.491   4.679   3.763
 8751TIP3    H226211   6.528   4.685   3.910
 8752TIP3   OH226212   5.392   2.220   3.074
 8752TIP3    H126213   5.415   2.296   3.128
 8752TIP3    H226214   5.415   2.145   3.128
 8753TIP3   OH226215   2.196   4.983   5.170
 8753TIP3    H126216   2.110   5.005   5.133
 8753TIP3    H226217   2.222   5.062   5.218
 8754TIP3   OH226218   2.393   6.574   3.561
 8754TIP3    H126219   2.377   6.617   3.644
 8754TIP3    H226220   2.488   6.583   3.546
 8755TIP3   OH226221   5.237   7.368   6.050
 8755TIP3    H126222   5.157   7.390   6.001
 8755TIP3    H226223   5.235   7.426   6.126
 8756TIP3   OH226224   2.519   6.535   5.761
 8756TIP3    H126225   2.561   6.616   5.789
 8756TIP3    H226226   2.583   6.493   5.704
 8757TIP3   OH226227   5.745   6.548   1.669
 8757TIP3    H126228   5.675   6.556   1.604
 8757TIP3    H226229   5.788   6.465   1.649
 8758TIP3   OH226230   0.798   3.397   1.505
 8758TIP3    H126231   0.793   3.421   1.597
 8758TIP3    H226232   0.706   3.398   1.475
 8759TIP3   OH226233   3.621   0.548   2.762
 8759TIP3    H126234   3.622   0.644   2.763
 8759TIP3    H226235   3.538   0.525   2.721
 8760TIP3   OH226236   3.164   3.210   2.021
 8760TIP3    H126237   3.176   3.119   1.997
 8760TIP3    H226238   3.094   3.242   1.964
 8761TIP3   OH226239   3.577   1.024   6.176
 8761TIP3    H126240   3.621   0.944   6.146
 8761TIP3    H226241   3.641   1.093   6.163
 8762TIP3   OH226242   1.364   5.718   6.373
 8762TIP3    H126243   1.283   5.668   6.386
 8762TIP3    H226244   1.363   5.784   6.442
 8763TIP3   OH226245   5.741   2.862   5.348
 8763TIP3    H126246   5.777   2.948   5.330
 8763TIP3    H226247   5.747   2.853   5.443
 8764TIP3   OH226248   3.878   0.447   0.902
 8764TIP3    H126249   3.823   0.371   0.882
 8764TIP3    H226250   3.918   0.426   0.987
 8765TIP3   OH226251   2.486   0.936   0.411
 8765TIP3    H126252   2.420   1.006   0.414
 8765TIP3    H226253   2.569   0.983   0.416
 8766TIP3   OH226254   7.634   1.600   2.414
 8766TIP3    H126255   7.618   1.629   2.324
 8766TIP3    H226256   7.591   1.514   2.419
 8767TIP3   OH226257   7.202   6.412   0.399
 8767TIP3    H126258   7.223   6.376   0.313
 8767TIP3    H226259   7.187   6.506   0.382
 8768TIP3   OH226260   3.252   3.288   3.804
 8768TIP3    H126261   3.204   3.370   3.820
 8768TIP3    H226262   3.217   3.227   3.869
 8769TIP3   OH226263   0.120   3.283   4.590
 8769TIP3    H126264   0.058   3.352   4.614
 8769TIP3    H226265   0.065   3.213   4.553
 8770TIP3   OH226266   3.832   7.376   6.489
 8770TIP3    H126267   3.926   7.359   6.484
 8770TIP3    H226268   3.795   7.298   6.531
 8771TIP3   OH226269   5.905   0.823   5.154
 8771TIP3    H126270   5.988   0.835   5.202
 8771TIP3    H226271   5.837   0.835   5.220
 8772TIP3   OH226272   6.751   6.125   0.766
 8772TIP3    H126273   6.659   6.114   0.742
 8772TIP3    H226274   6.748   6.164   0.853
 8773TIP3   OH226275   1.071   3.950   1.368
 8773TIP3    H126276   1.078   4.043   1.391
 8773TIP3    H226277   1.056   3.906   1.452
 8774TIP3   OH226278   1.148   4.001   2.887
 8774TIP3    H126279   1.137   4.092   2.857
 8774TIP3    H226280   1.144   4.006   2.982
 8775TIP3   OH226281   0.634   5.939   1.877
 8775TIP3    H126282   0.574   5.917   1.948
 8775TIP3    H226283   0.718   5.955   1.921
 8776TIP3   OH226284   4.749   1.423   0.983
 8776TIP3    H126285   4.682   1.356   0.968
 8776TIP3    H226286   4.733   1.488   0.915
 8777TIP3   OH226287   8.202   1.032   6.210
 8777TIP3    H126288   8.113   1.068   6.211
 8777TIP3    H226289   8.215   1.003   6.120
 8778TIP3   OH226290   7.239   3.748   5.687
 8778TIP3    H126291   7.224   3.813   5.755
 8778TIP3    H226292   7.317   3.779   5.641
 8779TIP3   OH226293   3.371   1.747   4.517
 8779TIP3    H126294   3.383   1.842   4.516
 8779TIP3    H226295   3.363   1.726   4.610
 8780TIP3   OH226296   7.062   2.897   6.353
 8780TIP3    H126297   7.078   2.992   6.350
 8780TIP3    H226298   7.063   2.876   6.446
 8781TIP3   OH226299   7.229   5.773   5.512
 8781TIP3    H126300   7.311   5.755   5.558
 8781TIP3    H226301   7.201   5.688   5.480
 8782TIP3   OH226302   1.444   0.966   0.772
 8782TIP3    H126303   1.382   0.903   0.807
 8782TIP3    H226304   1.393   1.020   0.712
 8783TIP3   OH226305   8.244   0.790   5.258
 8783TIP3    H126306   8.214   0.848   5.188
 8783TIP3    H226307   8.164   0.753   5.294
 8784TIP3   OH226308   0.024   6.097   3.369
 8784TIP3    H126309   0.114   6.080   3.395
 8784TIP3    H226310   0.028   6.182   3.323
 8785TIP3   OH226311   5.391   3.623   4.714
 8785TIP3    H126312   5.350   3.579   4.640
 8785TIP3    H226313   5.364   3.714   4.707
 8786TIP3   OH226314   7.048   5.243   0.483
 8786TIP3    H126315   7.026   5.151   0.470
 8786TIP3    H226316   7.013   5.264   0.570
 8787TIP3   OH226317   1.422   1.975   5.433
 8787TIP3    H126318   1.451   2.065   5.447
 8787TIP3    H226319   1.330   1.975   5.461
 8788TIP3   OH226320   8.167   2.953   4.826
 8788TIP3    H126321   8.237   2.892   4.806
 8788TIP3    H226322   8.103   2.941   4.756
 8789TIP3   OH226323   6.112   4.007   4.666
 8789TIP3    H126324   6.055   3.934   4.689
 8789TIP3    H226325   6.069   4.084   4.702
 8790TIP3   OH226326   6.925   2.030   2.492
 8790TIP3    H126327   6.862   2.102   2.479
 8790TIP3    H226328   6.961   2.014   2.405
 8791TIP3   OH226329   0.516   3.063   5.329
 8791TIP3    H126330   0.531   2.982   5.378
 8791TIP3    H226331   0.594   3.072   5.275
 8792TIP3   OH226332   2.054   4.629   3.654
 8792TIP3    H126333   1.965   4.609   3.627
 8792TIP3    H226334   2.107   4.611   3.576
 8793TIP3   OH226335   5.912   4.602   2.860
 8793TIP3    H126336   6.007   4.596   2.849
 8793TIP3    H226337   5.877   4.590   2.771
 8794TIP3   OH226338   0.885   6.444   4.039
 8794TIP3    H126339   0.872   6.356   4.004
 8794TIP3    H226340   0.907   6.497   3.963
 8795TIP3   OH226341   2.915   7.037   1.457
 8795TIP3    H126342   2.945   7.068   1.372
 8795TIP3    H226343   2.862   6.960   1.436
 8796TIP3   OH226344   7.981   2.248   3.309
 8796TIP3    H126345   7.993   2.338   3.278
 8796TIP3    H226346   8.063   2.227   3.353
 8797TIP3   OH226347   7.407   5.479   3.350
 8797TIP3    H126348   7.422   5.428   3.430
 8797TIP3    H226349   7.491   5.522   3.333
 8798TIP3   OH226350   8.029   3.396   4.618
 8798TIP3    H126351   7.980   3.314   4.624
 8798TIP3    H226352   8.049   3.405   4.525
 8799TIP3   OH226353   0.478   0.358   2.743
 8799TIP3    H126354   0.396   0.315   2.721
 8799TIP3    H226355   0.468   0.448   2.712
 8800TIP3   OH226356   4.738   1.865   3.385
 8800TIP3    H126357   4.754   1.794   3.448
 8800TIP3    H226358   4.759   1.826   3.300
 8801TIP3   OH226359   6.084   0.915   2.814
 8801TIP3    H126360   6.174   0.887   2.829
 8801TIP3    H226361   6.030   0.844   2.849
 8802TIP3   OH226362   4.429   0.626   6.427
 8802TIP3    H126363   4.392   0.698   6.478
 8802TIP3    H226364   4.507   0.663   6.386
 8803TIP3   OH226365   7.674   6.736   1.749
 8803TIP3    H126366   7.593   6.776   1.779
 8803TIP3    H226367   7.693   6.669   1.815
 8804TIP3   OH226368   5.621   0.572   0.645
 8804TIP3    H126369   5.570   0.652   0.637
 8804TIP3    H226370   5.623   0.536   0.556
 8805TIP3   OH226371   6.528   0.575   0.303
 8805TIP3    H126372   6.606   0.563   0.358
 8805TIP3    H226373   6.455   0.578   0.366
 8806TIP3   OH226374   7.955   7.377   3.059
 8806TIP3    H126375   7.972   7.336   2.974
 8806TIP3    H226376   7.878   7.432   3.044
 8807TIP3   OH226377   4.433   2.477   5.779
 8807TIP3    H126378   4.513   2.530   5.783
 8807TIP3    H226379   4.464   2.387   5.771
 8808TIP3   OH226380   0.624   3.723   4.633
 8808TIP3    H126381   0.602   3.775   4.710
 8808TIP3    H226382   0.619   3.632   4.663
 8809TIP3   OH226383   2.417   6.095   2.791
 8809TIP3    H126384   2.491   6.041   2.765
 8809TIP3    H226385   2.361   6.037   2.842
 8810TIP3   OH226386   5.287   0.283   6.451
 8810TIP3    H126387   5.299   0.342   6.377
 8810TIP3    H226388   5.371   0.237   6.459
 8811TIP3   OH226389   7.568   0.792   4.457
 8811TIP3    H126390   7.619   0.832   4.387
 8811TIP3    H226391   7.615   0.815   4.537
 8812TIP3   OH226392   6.462   5.247   6.029
 8812TIP3    H126393   6.405   5.171   6.037
 8812TIP3    H226394   6.496   5.262   6.117
 8813TIP3   OH226395   7.337   3.106   2.017
 8813TIP3    H126396   7.276   3.141   1.952
 8813TIP3    H226397   7.289   3.107   2.099
 8814TIP3   OH226398   7.142   5.688   3.217
 8814TIP3    H126399   7.202   5.688   3.142
 8814TIP3    H226400   7.151   5.776   3.254
 8815TIP3   OH226401   0.955   5.214   0.358
 8815TIP3    H126402   1.003   5.181   0.282
 8815TIP3    H226403   0.915   5.295   0.328
 8816TIP3   OH226404   3.572   4.798   2.634
 8816TIP3    H126405   3.660   4.811   2.669
 8816TIP3    H226406   3.531   4.884   2.639
 8817TIP3   OH226407   4.633   4.064   5.871
 8817TIP3    H126408   4.622   3.989   5.929
 8817TIP3    H226409   4.717   4.102   5.896
 8818TIP3   OH226410  -0.004   3.084   2.032
 8818TIP3    H126411   0.047   3.092   1.951
 8818TIP3    H226412   0.045   3.136   2.096
 8819TIP3   OH226413   4.315   7.188   6.502
 8819TIP3    H126414   4.407   7.162   6.499
 8819TIP3    H226415   4.271   7.126   6.444
 8820TIP3   OH226416   6.628   4.181   4.333
 8820TIP3    H126417   6.623   4.159   4.240
 8820TIP3    H226418   6.721   4.192   4.350
 8821TIP3   OH226419   4.701   7.225   6.410
 8821TIP3    H126420   4.751   7.272   6.476
 8821TIP3    H226421   4.675   7.143   6.453
 8822TIP3   OH226422   2.168   3.902   4.854
 8822TIP3    H126423   2.155   3.949   4.772
 8822TIP3    H226424   2.110   3.945   4.916
 8823TIP3   OH226425   7.120   5.583   1.097
 8823TIP3    H126426   7.046   5.576   1.157
 8823TIP3    H226427   7.087   5.636   1.025
 8824TIP3   OH226428   3.545   3.285   1.995
 8824TIP3    H126429   3.592   3.366   2.013
 8824TIP3    H226430   3.555   3.272   1.900
 8825TIP3   OH226431   5.624   0.613   3.316
 8825TIP3    H126432   5.584   0.692   3.353
 8825TIP3    H226433   5.696   0.646   3.261
 8826TIP3   OH226434   0.009   6.722   3.856
 8826TIP3    H126435   0.094   6.727   3.899
 8826TIP3    H226436   0.029   6.731   3.763
 8827TIP3   OH226437   2.190   5.811   2.648
 8827TIP3    H126438   2.107   5.774   2.676
 8827TIP3    H226439   2.235   5.834   2.730
 8828TIP3   OH226440   1.434   4.750   3.660
 8828TIP3    H126441   1.443   4.804   3.582
 8828TIP3    H226442   1.350   4.776   3.698
 8829TIP3   OH226443   5.668   0.514   1.160
 8829TIP3    H126444   5.716   0.502   1.078
 8829TIP3    H226445   5.614   0.436   1.169
 8830TIP3   OH226446   4.745   2.344   5.009
 8830TIP3    H126447   4.789   2.350   4.924
 8830TIP3    H226448   4.769   2.425   5.054
 8831TIP3   OH226449   6.529   5.000   4.373
 8831TIP3    H126450   6.475   5.077   4.359
 8831TIP3    H226451   6.607   5.016   4.320
 8832TIP3   OH226452   8.158   7.638   1.437
 8832TIP3    H126453   8.128   7.585   1.363
 8832TIP3    H226454   8.148   7.728   1.408
 8833TIP3   OH226455   8.217   2.627   2.695
 8833TIP3    H126456   8.179   2.642   2.782
 8833TIP3    H226457   8.206   2.533   2.681
 8834TIP3   OH226458   0.124   2.064   4.130
 8834TIP3    H126459   0.217   2.041   4.135
 8834TIP3    H226460   0.079   1.980   4.127
 8835TIP3   OH226461   4.633   6.824   3.049
 8835TIP3    H126462   4.606   6.870   3.129
 8835TIP3    H226463   4.554   6.820   2.995
 8836TIP3   OH226464   5.447   3.620   0.936
 8836TIP3    H126465   5.398   3.559   0.991
 8836TIP3    H226466   5.445   3.703   0.984
 8837TIP3   OH226467   5.086   4.761   1.411
 8837TIP3    H126468   5.087   4.800   1.498
 8837TIP3    H226469   5.108   4.833   1.352
 8838TIP3   OH226470   6.858   5.920   2.796
 8838TIP3    H126471   6.787   5.879   2.747
 8838TIP3    H226472   6.825   6.006   2.820
 8839TIP3   OH226473   6.468   1.909   3.561
 8839TIP3    H126474   6.426   1.839   3.510
 8839TIP3    H226475   6.509   1.965   3.496
 8840TIP3   OH226476   6.801   6.327   5.662
 8840TIP3    H126477   6.829   6.386   5.732
 8840TIP3    H226478   6.811   6.239   5.699
 8841TIP3   OH226479   3.574   2.787   2.160
 8841TIP3    H126480   3.535   2.754   2.241
 8841TIP3    H226481   3.567   2.882   2.166
 8842TIP3   OH226482   3.502   7.305   3.158
 8842TIP3    H126483   3.415   7.268   3.173
 8842TIP3    H226484   3.517   7.364   3.232
 8843TIP3   OH226485   6.695   2.669   5.648
 8843TIP3    H126486   6.781   2.712   5.652
 8843TIP3    H226487   6.678   2.642   5.738
 8844TIP3   OH226488   3.857   2.357   0.501
 8844TIP3    H126489   3.802   2.372   0.425
 8844TIP3    H226490   3.882   2.445   0.531
 8845TIP3   OH226491   2.441   5.428   0.429
 8845TIP3    H126492   2.532   5.459   0.429
 8845TIP3    H226493   2.392   5.495   0.476
 8846TIP3   OH226494   4.123   5.307   1.873
 8846TIP3    H126495   4.123   5.328   1.966
 8846TIP3    H226496   4.206   5.263   1.858
 8847TIP3   OH226497   3.828   3.696   5.560
 8847TIP3    H126498   3.892   3.631   5.530
 8847TIP3    H226499   3.879   3.754   5.617
 8848TIP3   OH226500   5.733   6.426   5.068
 8848TIP3    H126501   5.771   6.511   5.043
 8848TIP3    H226502   5.639   6.441   5.068
 8849TIP3   OH226503   0.908   0.508   1.232
 8849TIP3    H126504   0.882   0.468   1.149
 8849TIP3    H226505   0.982   0.455   1.261
 8850TIP3   OH226506  -0.038   5.246   3.429
 8850TIP3    H126507   0.020   5.233   3.354
 8850TIP3    H226508   0.017   5.229   3.506
 8851TIP3   OH226509   5.368   4.657   0.832
 8851TIP3    H126510   5.334   4.571   0.805
 8851TIP3    H226511   5.335   4.670   0.921
 8852TIP3   OH226512   5.211   2.678   2.343
 8852TIP3    H126513   5.291   2.698   2.391
 8852TIP3    H226514   5.222   2.721   2.258
 8853TIP3   OH226515   7.735   1.136   5.757
 8853TIP3    H126516   7.673   1.156   5.827
 8853TIP3    H226517   7.755   1.043   5.767
 8854TIP3   OH226518   0.995   3.621   5.329
 8854TIP3    H126519   1.052   3.638   5.404
 8854TIP3    H226520   0.921   3.572   5.366
 8855TIP3   OH226521   4.158   4.251   1.441
 8855TIP3    H126522   4.231   4.191   1.453
 8855TIP3    H226523   4.103   4.210   1.375
 8856TIP3   OH226524   3.521   3.539   6.217
 8856TIP3    H126525   3.453   3.482   6.181
 8856TIP3    H226526   3.537   3.604   6.149
 8857TIP3   OH226527   7.920   0.023   6.094
 8857TIP3    H126528   7.999   0.071   6.115
 8857TIP3    H226529   7.854   0.056   6.156
 8858TIP3   OH226530   4.823   5.379   3.528
 8858TIP3    H126531   4.791   5.414   3.445
 8858TIP3    H226532   4.772   5.300   3.542
 8859TIP3   OH226533   7.253   6.955   3.608
 8859TIP3    H126534   7.295   7.029   3.651
 8859TIP3    H226535   7.214   6.993   3.528
 8860TIP3   OH226536   4.405   2.886   5.420
 8860TIP3    H126537   4.478   2.906   5.478
 8860TIP3    H226538   4.327   2.915   5.467
 8861TIP3   OH226539   1.444   0.434   2.909
 8861TIP3    H126540   1.484   0.352   2.940
 8861TIP3    H226541   1.352   0.427   2.936
 8862TIP3   OH226542   7.191   7.409   5.970
 8862TIP3    H126543   7.240   7.441   6.045
 8862TIP3    H226544   7.256   7.399   5.900
 8863TIP3   OH226545   7.946   7.358   0.392
 8863TIP3    H126546   7.972   7.447   0.370
 8863TIP3    H226547   7.867   7.343   0.340
 8864TIP3   OH226548   4.968   3.631   3.043
 8864TIP3    H126549   4.915   3.681   3.106
 8864TIP3    H226550   5.030   3.694   3.007
 8865TIP3   OH226551   3.674   6.183   3.579
 8865TIP3    H126552   3.591   6.230   3.571
 8865TIP3    H226553   3.679   6.129   3.500
 8866TIP3   OH226554   5.469   5.614   0.380
 8866TIP3    H126555   5.520   5.675   0.328
 8866TIP3    H226556   5.535   5.557   0.421
 8867TIP3   OH226557   3.810   1.338   5.131
 8867TIP3    H126558   3.872   1.322   5.061
 8867TIP3    H226559   3.724   1.320   5.092
 8868TIP3   OH226560   7.965   1.161   4.812
 8868TIP3    H126561   7.966   1.152   4.716
 8868TIP3    H226562   7.892   1.221   4.829
 8869TIP3   OH226563   6.153   3.542   3.640
 8869TIP3    H126564   6.205   3.470   3.605
 8869TIP3    H226565   6.217   3.608   3.666
 8870TIP3   OH226566   5.199   4.717   4.146
 8870TIP3    H126567   5.230   4.637   4.189
 8870TIP3    H226568   5.104   4.705   4.141
 8871TIP3   OH226569   5.120   0.722   3.110
 8871TIP3    H126570   5.067   0.793   3.144
 8871TIP3    H226571   5.165   0.687   3.187
 8872TIP3   OH226572   2.724   2.249   0.968
 8872TIP3    H126573   2.692   2.169   0.926
 8872TIP3    H226574   2.686   2.247   1.056
 8873TIP3   OH226575   0.951   0.325   4.343
 8873TIP3    H126576   0.922   0.392   4.282
 8873TIP3    H226577   1.044   0.345   4.358
 8874TIP3   OH226578   5.542   1.115   4.298
 8874TIP3    H126579   5.481   1.053   4.260
 8874TIP3    H226580   5.532   1.194   4.245
 8875TIP3   OH226581   6.303   3.805   0.182
 8875TIP3    H126582   6.388   3.765   0.200
 8875TIP3    H226583   6.325   3.889   0.141
 8876TIP3   OH226584   7.369   6.856   5.901
 8876TIP3    H126585   7.421   6.777   5.916
 8876TIP3    H226586   7.432   6.928   5.913
 8877TIP3   OH226587   0.988   6.855   0.129
 8877TIP3    H126588   1.069   6.863   0.178
 8877TIP3    H226589   0.994   6.922   0.061
 8878TIP3   OH226590   1.374   5.362   3.304
 8878TIP3    H126591   1.351   5.454   3.311
 8878TIP3    H226592   1.399   5.351   3.212
 8879TIP3   OH226593   1.188   6.221   0.448
 8879TIP3    H126594   1.235   6.166   0.511
 8879TIP3    H226595   1.256   6.252   0.388
 8880TIP3   OH226596   0.969   4.825   3.060
 8880TIP3    H126597   1.047   4.796   3.013
 8880TIP3    H226598   0.983   4.918   3.075
 8881TIP3   OH226599   2.860   3.217   1.379
 8881TIP3    H126600   2.789   3.155   1.398
 8881TIP3    H226601   2.938   3.163   1.370
 8882TIP3   OH226602   3.930   3.334   6.710
 8882TIP3    H126603   3.911   3.385   6.631
 8882TIP3    H226604   3.946   3.400   6.778
 8883TIP3   OH226605   5.719   7.172   0.128
 8883TIP3    H126606   5.651   7.210   0.072
 8883TIP3    H226607   5.709   7.217   0.212
 8884TIP3   OH226608   7.454   2.762   3.051
 8884TIP3    H126609   7.508   2.815   2.993
 8884TIP3    H226610   7.364   2.775   3.020
 8885TIP3   OH226611   1.100   7.413   4.872
 8885TIP3    H126612   1.065   7.358   4.942
 8885TIP3    H226613   1.125   7.352   4.803
 8886TIP3   OH226614   3.303   2.410   1.541
 8886TIP3    H126615   3.231   2.426   1.602
 8886TIP3    H226616   3.373   2.373   1.595
 8887TIP3   OH226617   0.625   6.693   4.715
 8887TIP3    H126618   0.579   6.658   4.639
 8887TIP3    H226619   0.587   6.648   4.790
 8888TIP3   OH226620   3.485   5.362   4.923
 8888TIP3    H126621   3.420   5.431   4.935
 8888TIP3    H226622   3.565   5.409   4.897
 8889TIP3   OH226623   1.468   2.428   4.871
 8889TIP3    H126624   1.492   2.349   4.822
 8889TIP3    H226625   1.380   2.449   4.841
 8890TIP3   OH226626   3.378   4.308   4.946
 8890TIP3    H126627   3.286   4.285   4.958
 8890TIP3    H226628   3.417   4.301   5.034
 8891TIP3   OH226629   4.728   5.525   3.080
 8891TIP3    H126630   4.701   5.589   3.013
 8891TIP3    H226631   4.813   5.492   3.048
 8892TIP3   OH226632   1.747   0.479   3.077
 8892TIP3    H126633   1.661   0.510   3.047
 8892TIP3    H226634   1.739   0.384   3.080
 8893TIP3   OH226635   2.544   2.349   2.549
 8893TIP3    H126636   2.476   2.347   2.615
 8893TIP3    H226637   2.617   2.394   2.591
 8894TIP3   OH226638   7.257   5.439   4.366
 8894TIP3    H126639   7.206   5.384   4.426
 8894TIP3    H226640   7.285   5.379   4.297
 8895TIP3   OH226641   3.189   1.802   6.258
 8895TIP3    H126642   3.163   1.822   6.348
 8895TIP3    H226643   3.281   1.830   6.253
 8896TIP3   OH226644   2.014   2.756   5.738
 8896TIP3    H126645   2.032   2.846   5.711
 8896TIP3    H226646   2.016   2.758   5.833
 8897TIP3   OH226647   3.551   4.187   3.751
 8897TIP3    H126648   3.492   4.216   3.682
 8897TIP3    H226649   3.587   4.105   3.719
 8898TIP3   OH226650   7.182   1.286   5.298
 8898TIP3    H126651   7.123   1.222   5.338
 8898TIP3    H226652   7.269   1.257   5.325
 8899TIP3   OH226653   8.273   3.797   5.047
 8899TIP3    H126654   8.314   3.803   4.961
 8899TIP3    H226655   8.202   3.734   5.035
 8900TIP3   OH226656   6.855   4.099   2.010
 8900TIP3    H126657   6.911   4.038   1.963
 8900TIP3    H226658   6.913   4.143   2.071
 8901TIP3   OH226659   0.929   2.469   1.756
 8901TIP3    H126660   1.018   2.478   1.789
 8901TIP3    H226661   0.923   2.532   1.684
 8902TIP3   OH226662   7.382   7.153   1.022
 8902TIP3    H126663   7.418   7.158   1.110
 8902TIP3    H226664   7.388   7.242   0.988
 8903TIP3   OH226665   4.952   5.408   5.454
 8903TIP3    H126666   4.999   5.458   5.387
 8903TIP3    H226667   4.864   5.444   5.452
 8904TIP3   OH226668   4.757   6.147   2.917
 8904TIP3    H126669   4.734   6.069   2.967
 8904TIP3    H226670   4.703   6.142   2.838
 8905TIP3   OH226671   0.203   6.197   3.674
 8905TIP3    H126672   0.293   6.203   3.706
 8905TIP3    H226673   0.150   6.188   3.754
 8906TIP3   OH226674   4.553   5.732   2.096
 8906TIP3    H126675   4.624   5.764   2.152
 8906TIP3    H226676   4.531   5.646   2.132
 8907TIP3   OH226677   0.494   6.635   4.952
 8907TIP3    H126678   0.452   6.702   4.897
 8907TIP3    H226679   0.421   6.594   4.998
 8908TIP3   OH226680   0.677   3.842   0.892
 8908TIP3    H126681   0.695   3.878   0.806
 8908TIP3    H226682   0.611   3.774   0.877
 8909TIP3   OH226683   1.734   6.655   1.733
 8909TIP3    H126684   1.735   6.570   1.688
 8909TIP3    H226685   1.642   6.671   1.752
 8910TIP3   OH226686   1.540   5.011   0.828
 8910TIP3    H126687   1.535   5.084   0.766
 8910TIP3    H226688   1.479   4.946   0.794
 8911TIP3   OH226689   4.129   0.885   2.820
 8911TIP3    H126690   4.223   0.896   2.831
 8911TIP3    H226691   4.119   0.796   2.786
 8912TIP3   OH226692   2.408   7.274   5.010
 8912TIP3    H126693   2.359   7.238   5.084
 8912TIP3    H226694   2.350   7.342   4.974
 8913TIP3   OH226695   7.880   4.149   3.721
 8913TIP3    H126696   7.799   4.113   3.686
 8913TIP3    H226697   7.852   4.208   3.791
 8914TIP3   OH226698   0.590   5.624   2.193
 8914TIP3    H126699   0.589   5.603   2.099
 8914TIP3    H226700   0.681   5.649   2.211
 8915TIP3   OH226701   0.628   7.488   0.564
 8915TIP3    H126702   0.542   7.458   0.592
 8915TIP3    H226703   0.687   7.460   0.634
 8916TIP3   OH226704   3.347   4.942   2.282
 8916TIP3    H126705   3.310   5.018   2.238
 8916TIP3    H226706   3.335   4.870   2.220
 8917TIP3   OH226707   1.420   4.836   5.227
 8917TIP3    H126708   1.490   4.839   5.291
 8917TIP3    H226709   1.408   4.927   5.200
 8918TIP3   OH226710   8.098   3.567   3.227
 8918TIP3    H126711   8.177   3.615   3.202
 8918TIP3    H226712   8.111   3.479   3.191
 8919TIP3   OH226713   5.675   3.988   3.111
 8919TIP3    H126714   5.640   3.913   3.062
 8919TIP3    H226715   5.600   4.021   3.160
 8920TIP3   OH226716   5.254   6.982   2.749
 8920TIP3    H126717   5.321   7.036   2.707
 8920TIP3    H226718   5.302   6.930   2.813
 8921TIP3   OH226719   2.225   5.521   4.746
 8921TIP3    H126720   2.141   5.478   4.725
 8921TIP3    H226721   2.225   5.600   4.693
 8922TIP3   OH226722   4.911   2.368   0.522
 8922TIP3    H126723   4.843   2.429   0.494
 8922TIP3    H226724   4.973   2.422   0.571
 8923TIP3   OH226725   0.450   2.397   0.088
 8923TIP3    H126726   0.393   2.438   0.023
 8923TIP3    H226727   0.412   2.423   0.172
 8924TIP3   OH226728   6.387   5.846   6.492
 8924TIP3    H126729   6.294   5.851   6.471
 8924TIP3    H226730   6.417   5.937   6.489
 8925TIP3   OH226731   7.988   7.098   2.186
 8925TIP3    H126732   8.072   7.143   2.178
 8925TIP3    H226733   7.935   7.156   2.241
 8926TIP3   OH226734   3.034   7.358   0.620
 8926TIP3    H126735   3.076   7.436   0.584
 8926TIP3    H226736   3.040   7.369   0.715
 8927TIP3   OH226737   1.211   2.826   4.391
 8927TIP3    H126738   1.305   2.842   4.381
 8927TIP3    H226739   1.206   2.737   4.426
 8928TIP3   OH226740   8.235   5.757   1.188
 8928TIP3    H126741   8.216   5.779   1.096
 8928TIP3    H226742   8.188   5.824   1.238
 8929TIP3   OH226743   3.598   2.652   5.637
 8929TIP3    H126744   3.636   2.728   5.681
 8929TIP3    H226745   3.536   2.690   5.575
 8930TIP3   OH226746   6.962   3.506   1.727
 8930TIP3    H126747   6.994   3.593   1.705
 8930TIP3    H226748   6.901   3.484   1.657
 8931TIP3   OH226749   7.138   0.625   0.994
 8931TIP3    H126750   7.124   0.548   0.938
 8931TIP3    H226751   7.222   0.661   0.964
 8932TIP3   OH226752   7.965   5.782   6.353
 8932TIP3    H126753   8.010   5.740   6.426
 8932TIP3    H226754   8.007   5.868   6.345
 8933TIP3   OH226755   8.078   3.288   5.483
 8933TIP3    H126756   8.131   3.280   5.404
 8933TIP3    H226757   8.116   3.225   5.544
 8934TIP3   OH226758   7.434   7.524   4.272
 8934TIP3    H126759   7.363   7.471   4.237
 8934TIP3    H226760   7.393   7.577   4.340
 8935TIP3   OH226761   6.653   5.263   4.611
 8935TIP3    H126762   6.665   5.357   4.617
 8935TIP3    H226763   6.707   5.235   4.537
 8936TIP3   OH226764   7.155   7.734   0.736
 8936TIP3    H126765   7.214   7.797   0.778
 8936TIP3    H226766   7.176   7.740   0.643
 8937TIP3   OH226767   6.268   2.442   1.876
 8937TIP3    H126768   6.217   2.441   1.957
 8937TIP3    H226769   6.341   2.501   1.896
 8938TIP3   OH226770   5.169   3.000   3.781
 8938TIP3    H126771   5.172   3.096   3.780
 8938TIP3    H226772   5.143   2.978   3.871
 8939TIP3   OH226773   7.251   4.152   3.215
 8939TIP3    H126774   7.257   4.215   3.287
 8939TIP3    H226775   7.329   4.167   3.163
 8940TIP3   OH226776   8.100   1.244   5.382
 8940TIP3    H126777   8.086   1.190   5.304
 8940TIP3    H226778   8.193   1.265   5.380
 8941TIP3   OH226779   6.910   3.678   5.522
 8941TIP3    H126780   6.984   3.716   5.474
 8941TIP3    H226781   6.918   3.712   5.611
 8942TIP3   OH226782   0.357   2.607   2.014
 8942TIP3    H126783   0.299   2.683   2.024
 8942TIP3    H226784   0.355   2.587   1.921
 8943TIP3   OH226785   7.722   3.954   4.538
 8943TIP3    H126786   7.751   3.986   4.453
 8943TIP3    H226787   7.801   3.918   4.579
 8944TIP3   OH226788   0.714   6.586   2.534
 8944TIP3    H126789   0.712   6.504   2.485
 8944TIP3    H226790   0.665   6.568   2.613
 8945TIP3   OH226791   7.247   4.810   5.937
 8945TIP3    H126792   7.206   4.788   6.021
 8945TIP3    H226793   7.321   4.866   5.960
 8946TIP3   OH226794   6.729   5.472   2.648
 8946TIP3    H126795   6.771   5.538   2.593
 8946TIP3    H226796   6.770   5.483   2.734
 8947TIP3   OH226797   3.798   7.258   0.528
 8947TIP3    H126798   3.744   7.281   0.603
 8947TIP3    H226799   3.888   7.273   0.557
 8948TIP3   OH226800   7.633   2.622   4.680
 8948TIP3    H126801   7.712   2.650   4.632
 8948TIP3    H226802   7.613   2.535   4.644
 8949TIP3   OH226803   3.830   1.595   4.699
 8949TIP3    H126804   3.738   1.588   4.723
 8949TIP3    H226805   3.838   1.542   4.619
 8950TIP3   OH226806   7.557   7.092   4.326
 8950TIP3    H126807   7.636   7.062   4.370
 8950TIP3    H226808   7.588   7.148   4.254
 8951TIP3   OH226809   0.953   2.064   3.726
 8951TIP3    H126810   0.945   2.005   3.650
 8951TIP3    H226811   0.865   2.099   3.738
 8952TIP3   OH226812   0.177   0.325   5.093
 8952TIP3    H126813   0.151   0.416   5.111
 8952TIP3    H226814   0.188   0.286   5.180
 8953TIP3   OH226815   6.518   7.036   2.604
 8953TIP3    H126816   6.462   6.971   2.647
 8953TIP3    H226817   6.493   7.031   2.511
 8954TIP3   OH226818   7.192   2.037   0.557
 8954TIP3    H126819   7.192   1.945   0.585
 8954TIP3    H226820   7.117   2.045   0.499
 8955TIP3   OH226821   7.900   6.265   5.204
 8955TIP3    H126822   7.969   6.292   5.264
 8955TIP3    H226823   7.828   6.325   5.222
 8956TIP3   OH226824   2.195   3.349   4.242
 8956TIP3    H126825   2.204   3.254   4.234
 8956TIP3    H226826   2.285   3.381   4.250
 8957TIP3   OH226827   2.501   6.520   1.528
 8957TIP3    H126828   2.454   6.567   1.597
 8957TIP3    H226829   2.458   6.548   1.447
 8958TIP3   OH226830   7.574   6.089   0.919
 8958TIP3    H126831   7.633   6.071   0.992
 8958TIP3    H226832   7.489   6.105   0.959
 8959TIP3   OH226833   0.441   1.354   3.724
 8959TIP3    H126834   0.400   1.431   3.684
 8959TIP3    H226835   0.528   1.349   3.683
 8960TIP3   OH226836   0.513   0.891   1.543
 8960TIP3    H126837   0.529   0.934   1.628
 8960TIP3    H226838   0.423   0.860   1.549
 8961TIP3   OH226839   6.162   6.450   3.817
 8961TIP3    H126840   6.092   6.391   3.845
 8961TIP3    H226841   6.227   6.444   3.887
 8962TIP3   OH226842   5.247   1.278   3.150
 8962TIP3    H126843   5.210   1.243   3.069
 8962TIP3    H226844   5.340   1.288   3.132
 8963TIP3   OH226845   4.868   2.131   5.872
 8963TIP3    H126846   4.941   2.075   5.844
 8963TIP3    H226847   4.825   2.081   5.942
 8964TIP3   OH226848   5.486   0.804   0.572
 8964TIP3    H126849   5.545   0.876   0.554
 8964TIP3    H226850   5.413   0.844   0.620
 8965TIP3   OH226851   1.387   5.871   2.000
 8965TIP3    H126852   1.308   5.880   2.052
 8965TIP3    H226853   1.367   5.801   1.938
 8966TIP3   OH226854   7.833   6.703   0.646
 8966TIP3    H126855   7.916   6.751   0.649
 8966TIP3    H226856   7.791   6.722   0.730
 8967TIP3   OH226857   3.443   4.743   4.658
 8967TIP3    H126858   3.372   4.794   4.699
 8967TIP3    H226859   3.439   4.768   4.565
 8968TIP3   OH226860   7.439   7.675   5.573
 8968TIP3    H126861   7.441   7.695   5.667
 8968TIP3    H226862   7.530   7.684   5.545
 8969TIP3   OH226863   7.514   1.932   4.276
 8969TIP3    H126864   7.600   1.889   4.278
 8969TIP3    H226865   7.532   2.020   4.242
 8970TIP3   OH226866   6.728   1.829   5.803
 8970TIP3    H126867   6.723   1.775   5.724
 8970TIP3    H226868   6.645   1.877   5.805
 8971TIP3   OH226869   1.065   6.087   2.870
 8971TIP3    H126870   1.008   6.015   2.841
 8971TIP3    H226871   1.080   6.070   2.963
 8972TIP3   OH226872   6.234   4.122   5.762
 8972TIP3    H126873   6.138   4.113   5.763
 8972TIP3    H226874   6.258   4.112   5.670
 8973TIP3   OH226875   7.818   5.790   5.239
 8973TIP3    H126876   7.781   5.874   5.264
 8973TIP3    H226877   7.837   5.799   5.145
 8974TIP3   OH226878   5.219   3.632   6.670
 8974TIP3    H126879   5.159   3.606   6.741
 8974TIP3    H226880   5.226   3.554   6.615
 8975TIP3   OH226881   3.150   1.110   2.432
 8975TIP3    H126882   3.130   1.020   2.459
 8975TIP3    H226883   3.130   1.163   2.509
 8976TIP3   OH226884   1.669   1.630   3.735
 8976TIP3    H126885   1.593   1.590   3.692
 8976TIP3    H226886   1.733   1.559   3.741
 8977TIP3   OH226887   4.622   3.669   5.917
 8977TIP3    H126888   4.613   3.718   5.835
 8977TIP3    H226889   4.554   3.705   5.974
 8978TIP3   OH226890   1.803   1.923   4.822
 8978TIP3    H126891   1.883   1.886   4.786
 8978TIP3    H226892   1.792   1.879   4.907
 8979TIP3   OH226893   4.391   0.312   1.852
 8979TIP3    H126894   4.416   0.234   1.803
 8979TIP3    H226895   4.436   0.303   1.936
 8980TIP3   OH226896   1.133   5.189   3.301
 8980TIP3    H126897   1.070   5.251   3.336
 8980TIP3    H226898   1.218   5.229   3.318
 8981TIP3   OH226899   3.589   5.477   0.634
 8981TIP3    H126900   3.576   5.392   0.592
 8981TIP3    H226901   3.548   5.540   0.575
 8982TIP3   OH226902   3.699   6.143   4.132
 8982TIP3    H126903   3.781   6.131   4.084
 8982TIP3    H226904   3.716   6.104   4.218
 8983TIP3   OH226905   4.798   1.494   1.273
 8983TIP3    H126906   4.841   1.425   1.222
 8983TIP3    H226907   4.707   1.491   1.244
 8984TIP3   OH226908   6.047   0.024   3.758
 8984TIP3    H126909   5.973  -0.021   3.800
 8984TIP3    H226910   6.125  -0.016   3.798
 8985TIP3   OH226911   5.918   0.298   1.114
 8985TIP3    H126912   5.942   0.257   1.031
 8985TIP3    H226913   5.837   0.254   1.140
 8986TIP3   OH226914   7.965   6.497   1.114
 8986TIP3    H126915   7.883   6.453   1.089
 8986TIP3    H226916   7.938   6.569   1.170
 8987TIP3   OH226917   0.323   5.702   3.606
 8987TIP3    H126918   0.406   5.747   3.586
 8987TIP3    H226919   0.256   5.769   3.593
 8988TIP3   OH226920   3.928   0.495   4.504
 8988TIP3    H126921   3.833   0.493   4.516
 8988TIP3    H226922   3.963   0.445   4.577
 8989TIP3   OH226923   2.367   5.600   3.355
 8989TIP3    H126924   2.290   5.577   3.407
 8989TIP3    H226925   2.416   5.661   3.412
 8990TIP3   OH226926   7.251   5.900   4.740
 8990TIP3    H126927   7.268   5.993   4.724
 8990TIP3    H226928   7.301   5.854   4.672
 8991TIP3   OH226929   4.983   1.684   0.099
 8991TIP3    H126930   4.955   1.775   0.109
 8991TIP3    H226931   4.909   1.633   0.133
 8992TIP3   OH226932   4.213   2.685   2.058
 8992TIP3    H126933   4.173   2.764   2.022
 8992TIP3    H226934   4.201   2.619   1.990
 8993TIP3   OH226935   6.214   2.150   0.826
 8993TIP3    H126936   6.305   2.173   0.807
 8993TIP3    H226937   6.217   2.108   0.912
 8994TIP3   OH226938   7.590   0.131   4.385
 8994TIP3    H126939   7.497   0.135   4.361
 8994TIP3    H226940   7.607   0.213   4.431
 8995TIP3   OH226941   1.072   6.627   6.277
 8995TIP3    H126942   1.031   6.708   6.247
 8995TIP3    H226943   1.097   6.645   6.368
 8996TIP3   OH226944   0.687   7.187   0.671
 8996TIP3    H126945   0.605   7.162   0.713
 8996TIP3    H226946   0.723   7.105   0.637
 8997TIP3   OH226947   5.537   1.910   0.126
 8997TIP3    H126948   5.524   1.817   0.108
 8997TIP3    H226949   5.627   1.917   0.158
 8998TIP3   OH226950   2.836   7.465   2.066
 8998TIP3    H126951   2.745   7.442   2.084
 8998TIP3    H226952   2.879   7.457   2.151
 8999TIP3   OH226953   7.041   0.074   5.550
 8999TIP3    H126954   7.005  -0.010   5.523
 8999TIP3    H226955   7.114   0.052   5.608
 9000TIP3   OH226956   0.748   1.789   5.705
 9000TIP3    H126957   0.680   1.855   5.695
 9000TIP3    H226958   0.704   1.715   5.747
 9001TIP3   OH226959   3.112   3.388   1.747
 9001TIP3    H126960   3.135   3.478   1.725
 9001TIP3    H226961   3.165   3.334   1.688
 9002TIP3   OH226962   8.152   0.811   4.248
 9002TIP3    H126963   8.234   0.857   4.266
 9002TIP3    H226964   8.124   0.845   4.162
 9003TIP3   OH226965   5.968   2.823   6.257
 9003TIP3    H126966   5.933   2.843   6.170
 9003TIP3    H226967   5.896   2.781   6.303
 9004TIP3   OH226968   5.354   0.541   4.544
 9004TIP3    H126969   5.291   0.574   4.479
 9004TIP3    H226970   5.407   0.478   4.495
 9005TIP3   OH226971   2.917   2.948   4.816
 9005TIP3    H126972   2.901   3.020   4.755
 9005TIP3    H226973   2.999   2.972   4.860
 9006TIP3   OH226974   4.001   7.101   2.308
 9006TIP3    H126975   4.074   7.042   2.328
 9006TIP3    H226976   4.041   7.172   2.258
 9007TIP3   OH226977   6.450   0.504   5.727
 9007TIP3    H126978   6.540   0.537   5.719
 9007TIP3    H226979   6.396   0.583   5.735
 9008TIP3   OH226980   5.024   4.227   2.344
 9008TIP3    H126981   4.987   4.285   2.278
 9008TIP3    H226982   5.080   4.167   2.294
 9009TIP3   OH226983   1.141   0.245   0.393
 9009TIP3    H126984   1.168   0.186   0.323
 9009TIP3    H226985   1.174   0.331   0.366
 9010TIP3   OH226986   1.209   7.648   3.877
 9010TIP3    H126987   1.149   7.705   3.925
 9010TIP3    H226988   1.200   7.562   3.920
 9011TIP3   OH226989   0.075   2.832   5.437
 9011TIP3    H126990   0.100   2.915   5.398
 9011TIP3    H226991   0.021   2.856   5.512
 9012TIP3   OH226992   6.520   1.138   1.739
 9012TIP3    H126993   6.450   1.096   1.690
 9012TIP3    H226994   6.480   1.216   1.777
 9013TIP3   OH226995   2.720   3.820   0.763
 9013TIP3    H126996   2.645   3.765   0.742
 9013TIP3    H226997   2.683   3.908   0.776
 9014TIP3   OH226998   7.705   7.427   4.238
 9014TIP3    H126999   7.609   7.427   4.238
 9014TIP3    H227000   7.729   7.418   4.147
 9015TIP3   OH227001   3.405   4.928   2.935
 9015TIP3    H127002   3.444   5.010   2.967
 9015TIP3    H227003   3.475   4.864   2.941
 9016TIP3   OH227004   1.644   4.291   1.816
 9016TIP3    H127005   1.734   4.301   1.784
 9016TIP3    H227006   1.651   4.302   1.911
 9017TIP3   OH227007   2.277   4.340   0.146
 9017TIP3    H127008   2.242   4.385   0.069
 9017TIP3    H227009   2.349   4.395   0.175
 9018TIP3   OH227010   6.140   7.196   1.876
 9018TIP3    H127011   6.104   7.251   1.806
 9018TIP3    H227012   6.234   7.204   1.866
 9019TIP3   OH227013   7.224   1.520   0.750
 9019TIP3    H127014   7.197   1.430   0.765
 9019TIP3    H227015   7.297   1.515   0.689
 9020TIP3   OH227016   8.159   3.326   0.523
 9020TIP3    H127017   8.084   3.267   0.531
 9020TIP3    H227018   8.121   3.411   0.505
 9021TIP3   OH227019   7.706   2.440   6.294
 9021TIP3    H127020   7.697   2.470   6.204
 9021TIP3    H227021   7.634   2.482   6.341
 9022TIP3   OH227022   3.847   1.510   3.819
 9022TIP3    H127023   3.758   1.539   3.840
 9022TIP3    H227024   3.904   1.568   3.869
 9023TIP3   OH227025   4.552   3.333   0.690
 9023TIP3    H127026   4.631   3.279   0.678
 9023TIP3    H227027   4.582   3.407   0.744
 9024TIP3   OH227028   8.197   2.302   1.666
 9024TIP3    H127029   8.112   2.318   1.705
 9024TIP3    H227030   8.260   2.339   1.728
 9025TIP3   OH227031   6.630   7.279   4.735
 9025TIP3    H127032   6.679   7.359   4.753
 9025TIP3    H227033   6.697   7.213   4.717
 9026TIP3   OH227034   3.785   1.824   4.171
 9026TIP3    H127035   3.849   1.879   4.127
 9026TIP3    H227036   3.707   1.828   4.115
 9027TIP3   OH227037   7.256   2.310   0.935
 9027TIP3    H127038   7.282   2.257   1.010
 9027TIP3    H227039   7.296   2.267   0.859
 9028TIP3   OH227040   1.000   7.787   1.796
 9028TIP3    H127041   1.013   7.711   1.853
 9028TIP3    H227042   0.922   7.830   1.831
 9029TIP3   OH227043   3.161   5.511   3.076
 9029TIP3    H127044   3.068   5.536   3.073
 9029TIP3    H227045   3.162   5.422   3.041
 9030TIP3   OH227046   1.318   7.527   1.916
 9030TIP3    H127047   1.263   7.450   1.902
 9030TIP3    H227048   1.404   7.501   1.884
 9031TIP3   OH227049   5.071   6.018   4.863
 9031TIP3    H127050   4.994   6.059   4.822
 9031TIP3    H227051   5.130   6.091   4.880
 9032TIP3   OH227052   8.027   7.107   6.143
 9032TIP3    H127053   8.099   7.134   6.085
 9032TIP3    H227054   8.008   7.184   6.195
 9033TIP3   OH227055   7.373  -0.028   6.676
 9033TIP3    H127056   7.338   0.061   6.683
 9033TIP3    H227057   7.411  -0.032   6.588
 9034TIP3   OH227058   0.760   4.770   0.604
 9034TIP3    H127059   0.819   4.711   0.651
 9034TIP3    H227060   0.814   4.846   0.584
 9035TIP3   OH227061   7.171   0.510   0.418
 9035TIP3    H127062   7.199   0.566   0.346
 9035TIP3    H227063   7.129   0.569   0.480
 9036TIP3   OH227064   7.746   2.210   1.723
 9036TIP3    H127065   7.748   2.139   1.659
 9036TIP3    H227066   7.829   2.203   1.770
 9037TIP3   OH227067   4.528   4.039   0.459
 9037TIP3    H127068   4.439   4.004   0.465
 9037TIP3    H227069   4.518   4.132   0.477
 9038TIP3   OH227070   1.576   0.254   0.952
 9038TIP3    H127071   1.502   0.296   0.907
 9038TIP3    H227072   1.535   0.201   1.020
 9039TIP3   OH227073   6.193   4.363   6.599
 9039TIP3    H127074   6.114   4.381   6.651
 9039TIP3    H227075   6.220   4.275   6.625
 9040TIP3   OH227076   3.975   1.533   6.633
 9040TIP3    H127077   4.051   1.569   6.588
 9040TIP3    H227078   3.948   1.602   6.694
 9041TIP3   OH227079   0.726   1.867   2.949
 9041TIP3    H127080   0.668   1.942   2.946
 9041TIP3    H227081   0.784   1.879   2.874
 9042TIP3   OH227082   1.090   4.447   1.750
 9042TIP3    H127083   1.031   4.373   1.732
 9042TIP3    H227084   1.044   4.499   1.815
 9043TIP3   OH227085   5.364   6.591   0.753
 9043TIP3    H127086   5.269   6.589   0.750
 9043TIP3    H227087   5.392   6.571   0.664
 9044TIP3   OH227088   3.831   3.441   5.840
 9044TIP3    H127089   3.778   3.461   5.762
 9044TIP3    H227090   3.863   3.352   5.824
 9045TIP3   OH227091   7.295   1.208   6.605
 9045TIP3    H127092   7.376   1.257   6.621
 9045TIP3    H227093   7.315   1.153   6.529
 9046TIP3   OH227094   7.711   6.234   1.990
 9046TIP3    H127095   7.794   6.205   1.952
 9046TIP3    H227096   7.703   6.184   2.071
 9047TIP3   OH227097   8.101   2.903   4.366
 9047TIP3    H127098   8.016   2.922   4.407
 9047TIP3    H227099   8.135   2.829   4.416
 9048TIP3   OH227100   2.088   0.626   3.428
 9048TIP3    H127101   2.149   0.577   3.373
 9048TIP3    H227102   2.072   0.569   3.503
 9049TIP3   OH227103   1.420   2.884   6.004
 9049TIP3    H127104   1.356   2.814   6.011
 9049TIP3    H227105   1.382   2.957   6.054
 9050TIP3   OH227106   6.421   6.935   3.362
 9050TIP3    H127107   6.364   6.870   3.401
 9050TIP3    H227108   6.478   6.886   3.303
 9051TIP3   OH227109   1.148   6.859   2.872
 9051TIP3    H127110   1.153   6.768   2.902
 9051TIP3    H227111   1.208   6.907   2.929
 9052TIP3   OH227112   5.530   1.961   3.832
 9052TIP3    H127113   5.592   2.030   3.858
 9052TIP3    H227114   5.445   1.994   3.861
 9053TIP3   OH227115   3.226   0.027   4.799
 9053TIP3    H127116   3.149   0.026   4.855
 9053TIP3    H227117   3.284  -0.041   4.835
 9054TIP3   OH227118   3.687   4.695   0.590
 9054TIP3    H127119   3.667   4.719   0.680
 9054TIP3    H227120   3.603   4.667   0.553
 9055TIP3   OH227121   0.771   1.554   3.370
 9055TIP3    H127122   0.755   1.636   3.417
 9055TIP3    H227123   0.796   1.582   3.282
 9056TIP3   OH227124   1.485   3.634   2.809
 9056TIP3    H127125   1.548   3.612   2.741
 9056TIP3    H227126   1.402   3.644   2.763
 9057TIP3   OH227127   6.949   3.839   2.018
 9057TIP3    H127128   6.998   3.758   2.003
 9057TIP3    H227129   6.858   3.816   2.002
 9058TIP3   OH227130   7.283   2.739   6.246
 9058TIP3    H127131   7.236   2.819   6.270
 9058TIP3    H227132   7.251   2.673   6.307
 9059TIP3   OH227133   6.882   4.537   1.456
 9059TIP3    H127134   6.847   4.448   1.457
 9059TIP3    H227135   6.977   4.525   1.456
 9060TIP3   OH227136   0.991   2.984   6.134
 9060TIP3    H127137   0.911   3.026   6.102
 9060TIP3    H227138   0.994   2.900   6.089
 9061TIP3   OH227139   3.659   0.127   2.841
 9061TIP3    H127140   3.576   0.134   2.888
 9061TIP3    H227141   3.635   0.095   2.754
 9062TIP3   OH227142   5.175   4.651   0.313
 9062TIP3    H127143   5.223   4.569   0.326
 9062TIP3    H227144   5.243   4.717   0.302
 9063TIP3   OH227145   2.357   5.044   4.925
 9063TIP3    H127146   2.303   5.031   5.003
 9063TIP3    H227147   2.407   5.123   4.944
 9064TIP3   OH227148   2.309   4.715   3.171
 9064TIP3    H127149   2.239   4.765   3.131
 9064TIP3    H227150   2.363   4.780   3.215
 9065TIP3   OH227151   0.112   3.355   3.906
 9065TIP3    H127152   0.122   3.302   3.986
 9065TIP3    H227153   0.182   3.324   3.849
 9066TIP3   OH227154   6.767   4.900   2.192
 9066TIP3    H127155   6.852   4.856   2.203
 9066TIP3    H227156   6.729   4.900   2.280
 9067TIP3   OH227157   4.707   4.469   3.790
 9067TIP3    H127158   4.730   4.452   3.881
 9067TIP3    H227159   4.789   4.493   3.748
 9068TIP3   OH227160   7.061   5.837   4.914
 9068TIP3    H127161   7.133   5.870   4.861
 9068TIP3    H227162   7.103   5.782   4.981
 9069TIP3   OH227163   5.802   7.468   2.792
 9069TIP3    H127164   5.828   7.421   2.713
 9069TIP3    H227165   5.881   7.515   2.819
 9070TIP3   OH227166   4.226   4.899   3.377
 9070TIP3    H127167   4.268   4.977   3.341
 9070TIP3    H227168   4.170   4.932   3.447
 9071TIP3   OH227169   1.653   7.262   0.775
 9071TIP3    H127170   1.724   7.317   0.807
 9071TIP3    H227171   1.603   7.240   0.853
 9072TIP3   OH227172   1.252   7.176   6.604
 9072TIP3    H127173   1.256   7.091   6.558
 9072TIP3    H227174   1.250   7.153   6.697
 9073TIP3   OH227175   0.055   7.630   4.132
 9073TIP3    H127176  -0.030   7.654   4.095
 9073TIP3    H227177   0.097   7.578   4.064
 9074TIP3   OH227178   7.622   7.107   0.846
 9074TIP3    H127179   7.527   7.100   0.846
 9074TIP3    H227180   7.646   7.115   0.938
 9075TIP3   OH227181   1.290   5.384   4.780
 9075TIP3    H127182   1.382   5.389   4.806
 9075TIP3    H227183   1.282   5.443   4.705
 9076TIP3   OH227184   2.312   6.578   2.982
 9076TIP3    H127185   2.323   6.483   2.975
 9076TIP3    H227186   2.379   6.605   3.045
 9077TIP3   OH227187   2.361   2.050   1.555
 9077TIP3    H127188   2.376   1.978   1.493
 9077TIP3    H227189   2.431   2.041   1.619
 9078TIP3   OH227190   6.919   1.689   3.605
 9078TIP3    H127191   6.920   1.769   3.658
 9078TIP3    H227192   6.830   1.654   3.615
 9079TIP3   OH227193   8.089   7.535   5.797
 9079TIP3    H127194   8.007   7.496   5.826
 9079TIP3    H227195   8.066   7.586   5.720
 9080TIP3   OH227196   6.062   0.472   0.741
 9080TIP3    H127197   6.005   0.405   0.778
 9080TIP3    H227198   6.016   0.503   0.663
 9081TIP3   OH227199   1.768   0.414   3.900
 9081TIP3    H127200   1.691   0.359   3.913
 9081TIP3    H227201   1.841   0.363   3.936
 9082TIP3   OH227202   0.312   4.846   1.652
 9082TIP3    H127203   0.322   4.909   1.580
 9082TIP3    H227204   0.380   4.781   1.637
 9083TIP3   OH227205   4.193   0.132   1.529
 9083TIP3    H127206   4.244   0.121   1.448
 9083TIP3    H227207   4.140   0.210   1.513
 9084TIP3   OH227208   0.716   6.542   1.684
 9084TIP3    H127209   0.793   6.504   1.725
 9084TIP3    H227210   0.642   6.503   1.730
 9085TIP3   OH227211   2.367   0.927   4.229
 9085TIP3    H127212   2.289   0.965   4.269
 9085TIP3    H227213   2.437   0.988   4.250
 9086TIP3   OH227214   8.159   5.198   6.736
 9086TIP3    H127215   8.162   5.109   6.699
 9086TIP3    H227216   8.238   5.205   6.789
 9087TIP3   OH227217   5.944   0.506   0.481
 9087TIP3    H127218   5.873   0.444   0.463
 9087TIP3    H227219   5.997   0.506   0.401
 9088TIP3   OH227220   6.169   4.983   3.067
 9088TIP3    H127221   6.130   5.046   3.127
 9088TIP3    H227222   6.100   4.919   3.050
 9089TIP3   OH227223   2.902   2.211   5.616
 9089TIP3    H127224   2.965   2.221   5.545
 9089TIP3    H227225   2.942   2.148   5.676
 9090TIP3   OH227226   0.247   5.458   4.934
 9090TIP3    H127227   0.196   5.448   5.014
 9090TIP3    H227228   0.322   5.401   4.946
 9091TIP3   OH227229   1.412   5.865   6.139
 9091TIP3    H127230   1.386   5.956   6.139
 9091TIP3    H227231   1.376   5.829   6.220
 9092TIP3   OH227232   2.186   2.782   4.997
 9092TIP3    H127233   2.229   2.754   4.916
 9092TIP3    H227234   2.167   2.701   5.044
 9093TIP3   OH227235   2.920   6.327   0.362
 9093TIP3    H127236   2.945   6.416   0.340
 9093TIP3    H227237   2.880   6.292   0.283
 9094TIP3   OH227238   5.871   0.282   3.177
 9094TIP3    H127239   5.922   0.206   3.204
 9094TIP3    H227240   5.891   0.293   3.084
 9095TIP3   OH227241   2.669   7.201   3.014
 9095TIP3    H127242   2.749   7.229   2.969
 9095TIP3    H227243   2.646   7.275   3.070
 9096TIP3   OH227244   7.370   6.536   5.312
 9096TIP3    H127245   7.387   6.448   5.280
 9096TIP3    H227246   7.379   6.530   5.407
 9097TIP3   OH227247   0.487   4.915   2.935
 9097TIP3    H127248   0.533   4.878   3.010
 9097TIP3    H227249   0.414   4.965   2.973
 9098TIP3   OH227250   7.472   0.281   4.833
 9098TIP3    H127251   7.497   0.337   4.759
 9098TIP3    H227252   7.382   0.306   4.852
 9099TIP3   OH227253   1.911   5.933   1.272
 9099TIP3    H127254   1.981   5.895   1.220
 9099TIP3    H227255   1.951   6.007   1.317
 9100TIP3   OH227256   3.909   7.679   4.068
 9100TIP3    H127257   3.885   7.766   4.102
 9100TIP3    H227258   3.835   7.623   4.091
 9101TIP3   OH227259   1.740   7.066   2.696
 9101TIP3    H127260   1.730   6.981   2.740
 9101TIP3    H227261   1.781   7.045   2.613
 9102TIP3   OH227262   3.121   2.261   0.527
 9102TIP3    H127263   3.096   2.325   0.593
 9102TIP3    H227264   3.214   2.279   0.510
 9103TIP3   OH227265   0.790   3.372   2.061
 9103TIP3    H127266   0.697   3.363   2.082
 9103TIP3    H227267   0.824   3.283   2.064
 9104TIP3   OH227268   3.918   3.436   2.062
 9104TIP3    H127269   3.932   3.489   2.141
 9104TIP3    H227270   3.871   3.359   2.093
 9105TIP3   OH227271   6.830   1.523   0.563
 9105TIP3    H127272   6.784   1.591   0.514
 9105TIP3    H227273   6.921   1.528   0.533
 9106TIP3   OH227274   5.398   6.115   5.442
 9106TIP3    H127275   5.365   6.034   5.481
 9106TIP3    H227276   5.366   6.185   5.499
 9107TIP3   OH227277   3.399   2.561   3.523
 9107TIP3    H127278   3.309   2.554   3.490
 9107TIP3    H227279   3.427   2.649   3.498
 9108TIP3   OH227280   1.509   1.877   4.356
 9108TIP3    H127281   1.570   1.854   4.285
 9108TIP3    H227282   1.435   1.819   4.344
 9109TIP3   OH227283   7.231   6.355   0.002
 9109TIP3    H127284   7.156   6.318   0.049
 9109TIP3    H227285   7.291   6.282  -0.008
 9110TIP3   OH227286   7.253   6.076   4.064
 9110TIP3    H127287   7.192   6.008   4.091
 9110TIP3    H227288   7.338   6.047   4.098
 9111TIP3   OH227289   3.602   5.750   4.313
 9111TIP3    H127290   3.681   5.768   4.363
 9111TIP3    H227291   3.552   5.832   4.317
 9112TIP3   OH227292   2.760   1.990   1.471
 9112TIP3    H127293   2.832   2.014   1.412
 9112TIP3    H227294   2.697   2.061   1.461
 9113TIP3   OH227295   5.213   7.189   3.180
 9113TIP3    H127296   5.125   7.219   3.157
 9113TIP3    H227297   5.267   7.268   3.180
 9114TIP3   OH227298   4.075   1.979   5.599
 9114TIP3    H127299   4.110   2.065   5.623
 9114TIP3    H227300   3.985   1.997   5.573
 9115TIP3   OH227301   0.623   1.190   5.416
 9115TIP3    H127302   0.638   1.284   5.402
 9115TIP3    H227303   0.696   1.147   5.371
 9116TIP3   OH227304   4.561   4.398   6.783
 9116TIP3    H127305   4.523   4.362   6.703
 9116TIP3    H227306   4.655   4.404   6.765
 9117TIP3   OH227307   6.521   1.161   3.900
 9117TIP3    H127308   6.432   1.136   3.873
 9117TIP3    H227309   6.520   1.154   3.995
 9118TIP3   OH227310   6.332   0.019   2.869
 9118TIP3    H127311   6.348   0.113   2.855
 9118TIP3    H227312   6.372  -0.023   2.793
 9119TIP3   OH227313   2.436   0.068   3.615
 9119TIP3    H127314   2.343   0.060   3.593
 9119TIP3    H227315   2.480   0.071   3.530
 9120TIP3   OH227316   0.451   4.769   6.308
 9120TIP3    H127317   0.504   4.725   6.374
 9120TIP3    H227318   0.508   4.773   6.231
 9121TIP3   OH227319   4.549   1.461   0.567
 9121TIP3    H127320   4.596   1.385   0.599
 9121TIP3    H227321   4.476   1.425   0.516
 9122TIP3   OH227322   2.722   7.074   0.486
 9122TIP3    H127323   2.730   7.161   0.526
 9122TIP3    H227324   2.633   7.073   0.450
 9123TIP3   OH227325   5.643   4.455   4.561
 9123TIP3    H127326   5.557   4.490   4.539
 9123TIP3    H227327   5.664   4.394   4.490
 9124TIP3   OH227328   3.655   5.344   1.650
 9124TIP3    H127329   3.650   5.348   1.745
 9124TIP3    H227330   3.740   5.305   1.632
 9125TIP3   OH227331   1.164   5.936   2.135
 9125TIP3    H127332   1.159   6.019   2.183
 9125TIP3    H227333   1.101   5.879   2.177
 9126TIP3   OH227334   2.628   0.898   2.548
 9126TIP3    H127335   2.656   0.989   2.558
 9126TIP3    H227336   2.648   0.858   2.632
 9127TIP3   OH227337   6.369   1.994   3.826
 9127TIP3    H127338   6.363   1.900   3.840
 9127TIP3    H227339   6.417   2.003   3.743
 9128TIP3   OH227340   1.110   0.087   3.403
 9128TIP3    H127341   1.045   0.042   3.457
 9128TIP3    H227342   1.072   0.087   3.315
 9129TIP3   OH227343   2.674   2.448   5.287
 9129TIP3    H127344   2.690   2.394   5.364
 9129TIP3    H227345   2.626   2.392   5.227
 9130TIP3   OH227346   3.056   4.556   4.109
 9130TIP3    H127347   3.114   4.536   4.182
 9130TIP3    H227348   3.075   4.488   4.044
 9131TIP3   OH227349   6.567   2.654   5.074
 9131TIP3    H127350   6.519   2.715   5.019
 9131TIP3    H227351   6.568   2.695   5.161
 9132TIP3   OH227352   3.428   6.852   3.798
 9132TIP3    H127353   3.483   6.920   3.757
 9132TIP3    H227354   3.431   6.779   3.736
 9133TIP3   OH227355   0.888   1.921   2.051
 9133TIP3    H127356   0.848   1.837   2.076
 9133TIP3    H227357   0.861   1.934   1.960
 9134TIP3   OH227358   5.852   7.004   6.238
 9134TIP3    H127359   5.875   7.092   6.267
 9134TIP3    H227360   5.871   7.003   6.145
 9135TIP3   OH227361   5.266   7.556   5.435
 9135TIP3    H127362   5.234   7.627   5.379
 9135TIP3    H227363   5.304   7.493   5.374
 9136TIP3   OH227364   7.159   6.508   3.498
 9136TIP3    H127365   7.220   6.582   3.494
 9136TIP3    H227366   7.119   6.504   3.411
 9137TIP3   OH227367   0.275   2.140   4.751
 9137TIP3    H127368   0.270   2.045   4.741
 9137TIP3    H227369   0.278   2.173   4.661
 9138TIP3   OH227370   6.683   2.608   3.075
 9138TIP3    H127371   6.609   2.581   3.129
 9138TIP3    H227372   6.751   2.543   3.093
 9139TIP3   OH227373   0.329   1.440   4.776
 9139TIP3    H127374   0.367   1.369   4.724
 9139TIP3    H227375   0.403   1.497   4.795
 9140TIP3   OH227376   2.900   6.536   4.605
 9140TIP3    H127377   2.989   6.514   4.634
 9140TIP3    H227378   2.893   6.630   4.618
 9141TIP3   OH227379   2.207   7.816   0.721
 9141TIP3    H127380   2.151   7.744   0.691
 9141TIP3    H227381   2.151   7.894   0.716
 9142TIP3   OH227382   6.203   3.094   0.750
 9142TIP3    H127383   6.168   3.162   0.808
 9142TIP3    H227384   6.297   3.108   0.751
 9143TIP3   OH227385   2.015   1.141   0.193
 9143TIP3    H127386   1.996   1.232   0.218
 9143TIP3    H227387   1.934   1.094   0.211
 9144TIP3   OH227388   0.166   0.543   4.017
 9144TIP3    H127389   0.248   0.556   3.969
 9144TIP3    H227390   0.194   0.504   4.100
 9145TIP3   OH227391   1.978   6.169   5.414
 9145TIP3    H127392   1.916   6.219   5.467
 9145TIP3    H227393   2.063   6.207   5.434
 9146TIP3   OH227394   4.218   3.955   1.802
 9146TIP3    H127395   4.155   4.006   1.854
 9146TIP3    H227396   4.293   4.013   1.792
 9147TIP3   OH227397   4.341   4.579   5.779
 9147TIP3    H127398   4.325   4.578   5.685
 9147TIP3    H227399   4.413   4.640   5.791
 9148TIP3   OH227400   3.297   2.533   2.046
 9148TIP3    H127401   3.355   2.560   1.975
 9148TIP3    H227402   3.227   2.485   2.002
 9149TIP3   OH227403   5.414   6.232   4.227
 9149TIP3    H127404   5.402   6.140   4.250
 9149TIP3    H227405   5.330   6.273   4.244
 9150TIP3   OH227406   7.037   4.203   0.319
 9150TIP3    H127407   7.028   4.272   0.385
 9150TIP3    H227408   7.074   4.129   0.367
 9151TIP3   OH227409   5.156   5.079   0.407
 9151TIP3    H127410   5.247   5.058   0.424
 9151TIP3    H227411   5.136   5.034   0.324
 9152TIP3   OH227412   4.464   7.535   1.717
 9152TIP3    H127413   4.493   7.591   1.789
 9152TIP3    H227414   4.545   7.506   1.675
 9153TIP3   OH227415   5.974   1.276   0.167
 9153TIP3    H127416   6.044   1.236   0.115
 9153TIP3    H227417   6.014   1.353   0.206
 9154TIP3   OH227418   0.680   5.017   4.093
 9154TIP3    H127419   0.692   5.109   4.070
 9154TIP3    H227420   0.675   4.972   4.009
 9155TIP3   OH227421   4.410   6.324   4.442
 9155TIP3    H127422   4.321   6.306   4.412
 9155TIP3    H227423   4.464   6.312   4.363
 9156TIP3   OH227424   4.829   5.687   6.726
 9156TIP3    H127425   4.770   5.744   6.775
 9156TIP3    H227426   4.799   5.693   6.636
 9157TIP3   OH227427   5.803   1.890   2.105
 9157TIP3    H127428   5.732   1.930   2.056
 9157TIP3    H227429   5.870   1.871   2.039
 9158TIP3   OH227430   1.293   1.047   4.962
 9158TIP3    H127431   1.343   1.124   4.989
 9158TIP3    H227432   1.241   1.078   4.887
 9159TIP3   OH227433   6.463   3.098   0.190
 9159TIP3    H127434   6.449   3.151   0.112
 9159TIP3    H227435   6.417   3.145   0.260
 9160TIP3   OH227436   2.305   3.689   0.170
 9160TIP3    H127437   2.394   3.703   0.137
 9160TIP3    H227438   2.293   3.756   0.237
 9161TIP3   OH227439   4.804   3.234   0.479
 9161TIP3    H127440   4.898   3.220   0.470
 9161TIP3    H227441   4.783   3.203   0.567
 9162TIP3   OH227442   5.043   4.641   0.723
 9162TIP3    H127443   5.004   4.566   0.679
 9162TIP3    H227444   5.124   4.607   0.760
 9163TIP3   OH227445   4.296   1.362   5.031
 9163TIP3    H127446   4.240   1.337   4.958
 9163TIP3    H227447   4.354   1.287   5.043
 9164TIP3   OH227448   7.323   3.234   6.456
 9164TIP3    H127449   7.330   3.197   6.368
 9164TIP3    H227450   7.282   3.320   6.442
 9165TIP3   OH227451   1.468   2.509   6.556
 9165TIP3    H127452   1.399   2.463   6.507
 9165TIP3    H227453   1.534   2.443   6.573
 9166TIP3   OH227454   6.591   3.884   5.866
 9166TIP3    H127455   6.617   3.930   5.787
 9166TIP3    H227456   6.497   3.867   5.854
 9167TIP3   OH227457   0.941   2.611   5.497
 9167TIP3    H127458   0.989   2.691   5.516
 9167TIP3    H227459   1.005   2.552   5.458
 9168TIP3   OH227460   1.804   3.910   5.927
 9168TIP3    H127461   1.746   3.915   6.002
 9168TIP3    H227462   1.892   3.922   5.963
 9169TIP3   OH227463   1.418   2.202   3.273
 9169TIP3    H127464   1.430   2.163   3.360
 9169TIP3    H227465   1.378   2.133   3.221
 9170TIP3   OH227466   1.657   6.865   1.485
 9170TIP3    H127467   1.712   6.942   1.498
 9170TIP3    H227468   1.716   6.791   1.503
 9171TIP3   OH227469   6.002   2.745   4.802
 9171TIP3    H127470   5.927   2.777   4.753
 9171TIP3    H227471   6.071   2.811   4.787
 9172TIP3   OH227472   6.891   7.400   4.445
 9172TIP3    H127473   6.985   7.385   4.435
 9172TIP3    H227474   6.877   7.402   4.539
 9173TIP3   OH227475   5.101   1.538   3.165
 9173TIP3    H127476   5.138   1.480   3.231
 9173TIP3    H227477   5.172   1.555   3.104
 9174TIP3   OH227478   0.272   2.716   1.042
 9174TIP3    H127479   0.290   2.706   0.948
 9174TIP3    H227480   0.355   2.745   1.079
 9175TIP3   OH227481   0.979   7.377   2.333
 9175TIP3    H127482   1.023   7.382   2.418
 9175TIP3    H227483   1.046   7.404   2.269
 9176TIP3   OH227484   0.294   2.871   3.482
 9176TIP3    H127485   0.349   2.827   3.547
 9176TIP3    H227486   0.285   2.961   3.514
 9177TIP3   OH227487   7.632   6.363   2.754
 9177TIP3    H127488   7.607   6.311   2.830
 9177TIP3    H227489   7.556   6.359   2.696
 9178TIP3   OH227490   0.208   7.376   1.944
 9178TIP3    H127491   0.270   7.343   2.008
 9178TIP3    H227492   0.151   7.436   1.993
 9179TIP3   OH227493   8.271   6.362   1.411
 9179TIP3    H127494   8.238   6.435   1.464
 9179TIP3    H227495   8.299   6.297   1.475
 9180TIP3   OH227496   1.836   2.738   2.671
 9180TIP3    H127497   1.854   2.788   2.751
 9180TIP3    H227498   1.897   2.773   2.607
 9181TIP3   OH227499   8.034   6.607   5.892
 9181TIP3    H127500   7.991   6.690   5.912
 9181TIP3    H227501   8.060   6.615   5.801
 9182TIP3   OH227502   5.392   7.843   4.845
 9182TIP3    H127503   5.330   7.793   4.899
 9182TIP3    H227504   5.451   7.776   4.809
 9183TIP3   OH227505   0.086   7.122   0.146
 9183TIP3    H127506   0.178   7.127   0.172
 9183TIP3    H227507   0.047   7.202   0.181
 9184TIP3   OH227508   0.418   4.887   0.472
 9184TIP3    H127509   0.414   4.982   0.487
 9184TIP3    H227510   0.328   4.863   0.449
 9185TIP3   OH227511   3.290   5.249   5.076
 9185TIP3    H127512   3.356   5.287   5.019
 9185TIP3    H227513   3.209   5.294   5.053
 9186TIP3   OH227514   4.101   6.865   3.031
 9186TIP3    H127515   4.014   6.903   3.025
 9186TIP3    H227516   4.105   6.803   2.958
 9187TIP3   OH227517   1.516   7.569   6.530
 9187TIP3    H127518   1.495   7.653   6.569
 9187TIP3    H227519   1.435   7.519   6.534
 9188TIP3   OH227520   5.429   1.186   1.416
 9188TIP3    H127521   5.467   1.260   1.369
 9188TIP3    H227522   5.502   1.145   1.460
 9189TIP3   OH227523   0.470   5.946   4.287
 9189TIP3    H127524   0.520   5.993   4.354
 9189TIP3    H227525   0.411   5.889   4.336
 9190TIP3   OH227526   1.489   3.417   3.035
 9190TIP3    H127527   1.484   3.508   3.006
 9190TIP3    H227528   1.565   3.415   3.094
 9191TIP3   OH227529   7.442   3.383   5.426
 9191TIP3    H127530   7.425   3.405   5.517
 9191TIP3    H227531   7.508   3.446   5.397
 9192TIP3   OH227532   8.169   7.561   2.668
 9192TIP3    H127533   8.218   7.490   2.627
 9192TIP3    H227534   8.209   7.571   2.754
 9193TIP3   OH227535   2.019   3.488   1.244
 9193TIP3    H127536   2.054   3.460   1.160
 9193TIP3    H227537   1.934   3.526   1.223
 9194TIP3   OH227538   7.051   4.256   4.634
 9194TIP3    H127539   6.996   4.232   4.709
 9194TIP3    H227540   7.124   4.194   4.637
 9195TIP3   OH227541   6.857   1.105   6.776
 9195TIP3    H127542   6.949   1.097   6.752
 9195TIP3    H227543   6.822   1.171   6.716
 9196TIP3   OH227544   3.009   0.231   1.814
 9196TIP3    H127545   2.927   0.185   1.797
 9196TIP3    H227546   2.997   0.269   1.901
 9197TIP3   OH227547   4.314   3.726   6.677
 9197TIP3    H127548   4.292   3.684   6.594
 9197TIP3    H227549   4.404   3.757   6.666
 9198TIP3   OH227550   2.001   1.423   6.368
 9198TIP3    H127551   1.957   1.493   6.319
 9198TIP3    H227552   2.034   1.465   6.447
 9199TIP3   OH227553   7.877   6.234   1.248
 9199TIP3    H127554   7.880   6.313   1.195
 9199TIP3    H227555   7.795   6.191   1.222
 9200TIP3   OH227556   0.951   0.301   6.126
 9200TIP3    H127557   0.888   0.338   6.065
 9200TIP3    H227558   0.898   0.258   6.193
 9201TIP3   OH227559   3.989   0.037   5.068
 9201TIP3    H127560   4.007  -0.045   5.022
 9201TIP3    H227561   3.940   0.010   5.146
 9202TIP3   OH227562   0.456   1.134   6.587
 9202TIP3    H127563   0.413   1.053   6.561
 9202TIP3    H227564   0.543   1.107   6.615
 9203TIP3   OH227565   5.372   4.651   2.800
 9203TIP3    H127566   5.359   4.709   2.724
 9203TIP3    H227567   5.367   4.563   2.763
 9204TIP3   OH227568   5.076   4.054   5.758
 9204TIP3    H127569   5.021   3.996   5.706
 9204TIP3    H227570   5.028   4.068   5.839
 9205TIP3   OH227571   2.641   2.387   1.242
 9205TIP3    H127572   2.602   2.471   1.216
 9205TIP3    H227573   2.734   2.397   1.224
 9206TIP3   OH227574   7.241   3.782   1.351
 9206TIP3    H127575   7.202   3.704   1.312
 9206TIP3    H227576   7.233   3.849   1.283
 9207TIP3   OH227577   3.028   4.707   1.259
 9207TIP3    H127578   2.971   4.667   1.193
 9207TIP3    H227579   3.114   4.709   1.217
 9208TIP3   OH227580   6.308   4.719   2.340
 9208TIP3    H127581   6.315   4.813   2.329
 9208TIP3    H227582   6.369   4.698   2.411
 9209TIP3   OH227583   2.874   4.469   5.525
 9209TIP3    H127584   2.833   4.504   5.603
 9209TIP3    H227585   2.872   4.374   5.536
 9210TIP3   OH227586   2.656   6.729   0.506
 9210TIP3    H127587   2.594   6.740   0.578
 9210TIP3    H227588   2.730   6.785   0.530
 9211TIP3   OH227589   5.655   1.407   2.728
 9211TIP3    H127590   5.658   1.336   2.664
 9211TIP3    H227591   5.641   1.486   2.676
 9212TIP3   OH227592   6.687   2.468   5.467
 9212TIP3    H127593   6.640   2.513   5.396
 9212TIP3    H227594   6.701   2.536   5.533
 9213TIP3   OH227595   3.884   4.136   1.740
 9213TIP3    H127596   3.889   4.041   1.741
 9213TIP3    H227597   3.967   4.165   1.779
 9214TIP3   OH227598   0.058   0.351   2.157
 9214TIP3    H127599   0.006   0.421   2.119
 9214TIP3    H227600   0.010   0.326   2.236
 9215TIP3   OH227601   5.209   7.570   2.318
 9215TIP3    H127602   5.190   7.609   2.403
 9215TIP3    H227603   5.171   7.631   2.255
 9216TIP3   OH227604   5.232   3.826   2.374
 9216TIP3    H127605   5.186   3.851   2.293
 9216TIP3    H227606   5.225   3.731   2.377
 9217TIP3   OH227607   3.704   7.596   1.455
 9217TIP3    H127608   3.726   7.555   1.538
 9217TIP3    H227609   3.619   7.559   1.431
 9218TIP3   OH227610   4.787   0.708   5.755
 9218TIP3    H127611   4.827   0.750   5.831
 9218TIP3    H227612   4.708   0.667   5.789
 9219TIP3   OH227613   0.630   2.383   0.375
 9219TIP3    H127614   0.564   2.446   0.345
 9219TIP3    H227615   0.694   2.436   0.422
 9220TIP3   OH227616   3.131   3.279   6.572
 9220TIP3    H127617   3.097   3.262   6.484
 9220TIP3    H227618   3.226   3.288   6.559
 9221TIP3   OH227619   6.318   6.830   1.973
 9221TIP3    H127620   6.377   6.755   1.965
 9221TIP3    H227621   6.311   6.866   1.885
 9222TIP3   OH227622   3.638   2.241   6.399
 9222TIP3    H127623   3.660   2.233   6.491
 9222TIP3    H227624   3.545   2.217   6.394
 9223TIP3   OH227625   6.373   7.571   5.704
 9223TIP3    H127626   6.372   7.476   5.710
 9223TIP3    H227627   6.448   7.590   5.648
 9224TIP3   OH227628   7.496   6.937   3.321
 9224TIP3    H127629   7.498   6.956   3.227
 9224TIP3    H227630   7.584   6.907   3.341
 9225TIP3   OH227631   3.332   4.575   2.816
 9225TIP3    H127632   3.295   4.657   2.783
 9225TIP3    H227633   3.338   4.519   2.738
 9226TIP3   OH227634   6.622   7.520   0.566
 9226TIP3    H127635   6.715   7.502   0.582
 9226TIP3    H227636   6.584   7.434   0.550
 9227TIP3   OH227637   6.249   7.197   6.466
 9227TIP3    H127638   6.233   7.124   6.407
 9227TIP3    H227639   6.252   7.274   6.409
 9228TIP3   OH227640   0.494   4.562   5.137
 9228TIP3    H127641   0.529   4.646   5.106
 9228TIP3    H227642   0.572   4.511   5.160
 9229TIP3   OH227643   3.627   3.307   3.967
 9229TIP3    H127644   3.603   3.216   3.980
 9229TIP3    H227645   3.723   3.306   3.958
 9230TIP3   OH227646   5.804   2.085   5.895
 9230TIP3    H127647   5.738   2.151   5.916
 9230TIP3    H227648   5.769   2.004   5.933
 9231TIP3   OH227649   0.025   5.704   0.792
 9231TIP3    H127650  -0.018   5.634   0.744
 9231TIP3    H227651   0.081   5.659   0.855
 9232TIP3   OH227652   5.601   6.687   0.054
 9232TIP3    H127653   5.634   6.630  -0.015
 9232TIP3    H227654   5.583   6.770   0.011
 9233TIP3   OH227655   3.464   5.706   0.450
 9233TIP3    H127656   3.549   5.735   0.417
 9233TIP3    H227657   3.411   5.693   0.372
 9234TIP3   OH227658   1.511   2.428   0.346
 9234TIP3    H127659   1.538   2.455   0.258
 9234TIP3    H227660   1.592   2.425   0.396
 9235TIP3   OH227661   2.246   1.405   5.110
 9235TIP3    H127662   2.231   1.487   5.064
 9235TIP3    H227663   2.167   1.353   5.094
 9236TIP3   OH227664   7.994   5.669   5.026
 9236TIP3    H127665   8.054   5.596   5.011
 9236TIP3    H227666   8.015   5.700   5.115
 9237TIP3   OH227667   4.643   6.366   2.724
 9237TIP3    H127668   4.550   6.388   2.714
 9237TIP3    H227669   4.672   6.419   2.799
 9238TIP3   OH227670   6.868   5.306   2.971
 9238TIP3    H127671   6.864   5.398   2.943
 9238TIP3    H227672   6.953   5.276   2.940
 9239TIP3   OH227673   1.930   4.427   4.248
 9239TIP3    H127674   2.000   4.490   4.231
 9239TIP3    H227675   1.870   4.473   4.306
 9240TIP3   OH227676   6.558   1.782   1.255
 9240TIP3    H127677   6.479   1.740   1.222
 9240TIP3    H227678   6.628   1.718   1.242
 9241TIP3   OH227679   3.407   3.509   3.918
 9241TIP3    H127680   3.463   3.442   3.956
 9241TIP3    H227681   3.468   3.577   3.888
 9242TIP3   OH227682   5.401   5.832   5.538
 9242TIP3    H127683   5.400   5.736   5.532
 9242TIP3    H227684   5.315   5.855   5.571
 9243TIP3   OH227685   5.896   4.856   0.954
 9243TIP3    H127686   5.911   4.764   0.930
 9243TIP3    H227687   5.983   4.890   0.973
 9244TIP3   OH227688   1.961   0.244   6.260
 9244TIP3    H127689   1.897   0.314   6.251
 9244TIP3    H227690   1.918   0.166   6.225
 9245TIP3   OH227691   0.878   1.658   0.241
 9245TIP3    H127692   0.832   1.740   0.254
 9245TIP3    H227693   0.937   1.674   0.167
 9246TIP3   OH227694   4.190   4.292   2.975
 9246TIP3    H127695   4.272   4.335   2.949
 9246TIP3    H227696   4.219   4.208   3.012
 9247TIP3   OH227697   5.833   0.425   5.137
 9247TIP3    H127698   5.911   0.478   5.119
 9247TIP3    H227699   5.867   0.341   5.169
 9248TIP3   OH227700   2.859   4.636   4.338
 9248TIP3    H127701   2.876   4.614   4.247
 9248TIP3    H227702   2.797   4.570   4.368
 9249TIP3   OH227703   2.402   5.754   0.044
 9249TIP3    H127704   2.324   5.779  -0.006
 9249TIP3    H227705   2.460   5.711  -0.019
 9250TIP3   OH227706   0.269   7.143   3.468
 9250TIP3    H127707   0.277   7.209   3.537
 9250TIP3    H227708   0.176   7.121   3.468
 9251TIP3   OH227709   4.496   0.362   4.292
 9251TIP3    H127710   4.569   0.308   4.262
 9251TIP3    H227711   4.470   0.323   4.375
 9252TIP3   OH227712   5.681   1.637   0.067
 9252TIP3    H127713   5.631   1.620  -0.013
 9252TIP3    H227714   5.752   1.695   0.039
 9253TIP3   OH227715   7.805   0.225   1.551
 9253TIP3    H127716   7.727   0.249   1.601
 9253TIP3    H227717   7.869   0.199   1.618
 9254TIP3   OH227718   5.385   2.291   5.631
 9254TIP3    H127719   5.474   2.273   5.602
 9254TIP3    H227720   5.389   2.287   5.727
 9255TIP3   OH227721   4.693   2.487   1.421
 9255TIP3    H127722   4.682   2.561   1.480
 9255TIP3    H227723   4.611   2.482   1.373
 9256TIP3   OH227724   3.068   5.040   0.181
 9256TIP3    H127725   3.030   5.001   0.102
 9256TIP3    H227726   3.003   5.026   0.249
 9257TIP3   OH227727   5.993   7.534   0.109
 9257TIP3    H127728   5.985   7.629   0.108
 9257TIP3    H227729   6.080   7.517   0.145
 9258TIP3   OH227730   2.860   6.272   3.849
 9258TIP3    H127731   2.891   6.361   3.865
 9258TIP3    H227732   2.917   6.216   3.900
 9259TIP3   OH227733   2.111   1.967   5.279
 9259TIP3    H127734   2.095   1.877   5.307
 9259TIP3    H227735   2.167   1.959   5.202
 9260TIP3   OH227736   7.644   7.099   0.476
 9260TIP3    H127737   7.670   7.156   0.549
 9260TIP3    H227738   7.725   7.081   0.430
 9261TIP3   OH227739   8.011   7.354   6.285
 9261TIP3    H127740   7.941   7.334   6.348
 9261TIP3    H227741   7.979   7.430   6.237
 9262TIP3   OH227742   5.986   0.504   0.032
 9262TIP3    H127743   5.978   0.584   0.084
 9262TIP3    H227744   5.960   0.434   0.091
 9263TIP3   OH227745   5.473   5.928   4.731
 9263TIP3    H127746   5.459   5.850   4.785
 9263TIP3    H227747   5.439   5.903   4.645
 9264TIP3   OH227748   6.881   0.342   2.399
 9264TIP3    H127749   6.975   0.360   2.392
 9264TIP3    H227750   6.873   0.248   2.386
 9265TIP3   OH227751   7.618   3.426   1.888
 9265TIP3    H127752   7.660   3.341   1.880
 9265TIP3    H227753   7.547   3.424   1.824
 9266TIP3   OH227754   6.117   4.012   0.670
 9266TIP3    H127755   6.162   4.094   0.690
 9266TIP3    H227756   6.164   3.977   0.594
 9267TIP3   OH227757   5.328   6.921   1.956
 9267TIP3    H127758   5.354   6.994   2.012
 9267TIP3    H227759   5.375   6.846   1.992
 9268TIP3   OH227760   4.421   4.019   4.104
 9268TIP3    H127761   4.493   4.080   4.090
 9268TIP3    H227762   4.342   4.069   4.082
 9269TIP3   OH227763   0.857   4.580   0.792
 9269TIP3    H127764   0.827   4.632   0.867
 9269TIP3    H227765   0.940   4.542   0.820
 9270TIP3   OH227766   3.792   6.805   2.589
 9270TIP3    H127767   3.734   6.808   2.513
 9270TIP3    H227768   3.822   6.895   2.600
 9271TIP3   OH227769   5.456   5.023   3.125
 9271TIP3    H127770   5.517   5.087   3.162
 9271TIP3    H227771   5.504   4.940   3.128
 9272TIP3   OH227772   3.524   4.124   1.910
 9272TIP3    H127773   3.513   4.044   1.859
 9272TIP3    H227774   3.478   4.108   1.992
 9273TIP3   OH227775   0.016   7.528   4.390
 9273TIP3    H127776   0.108   7.514   4.410
 9273TIP3    H227777   0.016   7.575   4.306
 9274TIP3   OH227778   0.554   2.058   3.428
 9274TIP3    H127779   0.505   1.989   3.383
 9274TIP3    H227780   0.569   2.124   3.361
 9275TIP3   OH227781   3.121   2.116   6.391
 9275TIP3    H127782   3.026   2.114   6.398
 9275TIP3    H227783   3.138   2.119   6.297
 9276TIP3   OH227784   2.122   1.859   4.324
 9276TIP3    H127785   2.162   1.822   4.402
 9276TIP3    H227786   2.028   1.855   4.341
 9277TIP3   OH227787   4.567   6.755   6.175
 9277TIP3    H127788   4.622   6.717   6.106
 9277TIP3    H227789   4.561   6.685   6.240
 9278TIP3   OH227790   4.671   0.221   6.465
 9278TIP3    H127791   4.689   0.222   6.559
 9278TIP3    H227792   4.755   0.244   6.425
 9279TIP3   OH227793   3.869   6.508   6.248
 9279TIP3    H127794   3.931   6.579   6.265
 9279TIP3    H227795   3.783   6.550   6.256
 9280TIP3   OH227796   1.020   6.116   6.145
 9280TIP3    H127797   0.990   6.167   6.070
 9280TIP3    H227798   1.010   6.175   6.220
 9281TIP3   OH227799   4.955   1.765   1.569
 9281TIP3    H127800   4.975   1.859   1.568
 9281TIP3    H227801   4.888   1.754   1.502
 9282TIP3   OH227802   3.447   5.990   0.759
 9282TIP3    H127803   3.404   5.908   0.734
 9282TIP3    H227804   3.376   6.044   0.795
 9283TIP3   OH227805   6.905   7.268   2.100
 9283TIP3    H127806   6.987   7.239   2.141
 9283TIP3    H227807   6.862   7.187   2.073
 9284TIP3   OH227808   6.621   5.284   3.929
 9284TIP3    H127809   6.683   5.241   3.870
 9284TIP3    H227810   6.653   5.374   3.937
 9285TIP3   OH227811   6.284   0.654   5.158
 9285TIP3    H127812   6.279   0.749   5.158
 9285TIP3    H227813   6.304   0.631   5.067
 9286TIP3   OH227814   5.689   3.538   5.752
 9286TIP3    H127815   5.627   3.546   5.825
 9286TIP3    H227816   5.635   3.525   5.675
 9287TIP3   OH227817   4.782   0.502   0.765
 9287TIP3    H127818   4.796   0.460   0.850
 9287TIP3    H227819   4.719   0.571   0.783
 9288TIP3   OH227820   6.721   0.945   3.085
 9288TIP3    H127821   6.807   0.903   3.093
 9288TIP3    H227822   6.737   1.024   3.033
 9289TIP3   OH227823   5.927   3.874   5.960
 9289TIP3    H127824   5.949   3.791   5.918
 9289TIP3    H227825   5.876   3.850   6.037
 9290TIP3   OH227826   6.054   2.541   3.298
 9290TIP3    H127827   6.118   2.481   3.337
 9290TIP3    H227828   5.977   2.535   3.355
 9291TIP3   OH227829   1.189   2.477   0.284
 9291TIP3    H127830   1.263   2.457   0.227
 9291TIP3    H227831   1.212   2.439   0.368
 9292TIP3   OH227832   1.650   6.933   0.550
 9292TIP3    H127833   1.731   6.983   0.559
 9292TIP3    H227834   1.675   6.855   0.501
 9293TIP3   OH227835   3.826   5.565   4.019
 9293TIP3    H127836   3.784   5.577   3.934
 9293TIP3    H227837   3.754   5.542   4.079
 9294TIP3   OH227838   4.504   4.243   6.219
 9294TIP3    H127839   4.521   4.280   6.132
 9294TIP3    H227840   4.573   4.278   6.274
 9295TIP3   OH227841   3.468   2.942   5.890
 9295TIP3    H127842   3.553   2.916   5.856
 9295TIP3    H227843   3.407   2.880   5.850
 9296TIP3   OH227844   0.063   1.860   2.564
 9296TIP3    H127845   0.157   1.853   2.547
 9296TIP3    H227846   0.029   1.912   2.491
 9297TIP3   OH227847   0.211   2.458   3.044
 9297TIP3    H127848   0.155   2.511   3.101
 9297TIP3    H227849   0.266   2.522   2.999
 9298TIP3   OH227850   0.079   6.858   6.584
 9298TIP3    H127851   0.045   6.855   6.495
 9298TIP3    H227852   0.048   6.941   6.619
 9299TIP3   OH227853   0.375   1.559   4.174
 9299TIP3    H127854   0.294   1.552   4.224
 9299TIP3    H227855   0.371   1.486   4.112
 9300TIP3   OH227856   7.504   1.707   2.147
 9300TIP3    H127857   7.521   1.737   2.058
 9300TIP3    H227858   7.507   1.786   2.200
 9301TIP3   OH227859   3.070   4.158   2.852
 9301TIP3    H127860   3.006   4.158   2.924
 9301TIP3    H227861   3.151   4.190   2.893
 9302TIP3   OH227862   7.866   7.285   5.869
 9302TIP3    H127863   7.855   7.364   5.922
 9302TIP3    H227864   7.960   7.271   5.867
 9303TIP3   OH227865   3.630   2.801   2.875
 9303TIP3    H127866   3.599   2.842   2.795
 9303TIP3    H227867   3.551   2.784   2.926
 9304TIP3   OH227868   5.673   3.087   2.864
 9304TIP3    H127869   5.593   3.060   2.818
 9304TIP3    H227870   5.688   3.017   2.927
 9305TIP3   OH227871   6.436   2.919   1.324
 9305TIP3    H127872   6.510   2.971   1.357
 9305TIP3    H227873   6.378   2.983   1.284
 9306TIP3   OH227874   3.730   4.685   6.184
 9306TIP3    H127875   3.708   4.623   6.253
 9306TIP3    H227876   3.717   4.771   6.224
 9307TIP3   OH227877   0.399   6.480   2.240
 9307TIP3    H127878   0.399   6.568   2.203
 9307TIP3    H227879   0.381   6.422   2.166
 9308TIP3   OH227880   3.753   3.194   4.695
 9308TIP3    H127881   3.795   3.238   4.621
 9308TIP3    H227882   3.753   3.101   4.671
 9309TIP3   OH227883   4.265   2.262   0.019
 9309TIP3    H127884   4.208   2.337   0.001
 9309TIP3    H227885   4.258   2.248   0.113
 9310TIP3   OH227886   7.549   7.315   4.527
 9310TIP3    H127887   7.631   7.328   4.480
 9310TIP3    H227888   7.511   7.237   4.487
 9311TIP3   OH227889   7.511   7.752   0.917
 9311TIP3    H127890   7.451   7.810   0.872
 9311TIP3    H227891   7.524   7.679   0.857
 9312TIP3   OH227892   2.087   2.553   0.833
 9312TIP3    H127893   2.129   2.470   0.810
 9312TIP3    H227894   2.153   2.620   0.815
 9313TIP3   OH227895   0.049   3.642   0.553
 9313TIP3    H127896  -0.040   3.610   0.562
 9313TIP3    H227897   0.101   3.563   0.538
 9314TIP3   OH227898   2.121   3.155   0.236
 9314TIP3    H127899   2.075   3.134   0.155
 9314TIP3    H227900   2.137   3.249   0.230
 9315TIP3   OH227901   7.571   1.800   5.274
 9315TIP3    H127902   7.544   1.775   5.362
 9315TIP3    H227903   7.491   1.795   5.222
 9316TIP3   OH227904   4.224   6.901   0.462
 9316TIP3    H127905   4.316   6.879   0.447
 9316TIP3    H227906   4.205   6.864   0.548
 9317TIP3   OH227907   1.366   1.960   1.322
 9317TIP3    H127908   1.290   1.903   1.337
 9317TIP3    H227909   1.418   1.915   1.257
 9318TIP3   OH227910   1.701   1.723   5.373
 9318TIP3    H127911   1.737   1.808   5.399
 9318TIP3    H227912   1.688   1.730   5.279
 9319TIP3   OH227913   1.330   4.129   1.507
 9319TIP3    H127914   1.341   4.137   1.602
 9319TIP3    H227915   1.309   4.037   1.493
 9320TIP3   OH227916   3.907   6.519   0.766
 9320TIP3    H127917   3.836   6.551   0.822
 9320TIP3    H227918   3.862   6.477   0.692
 9321TIP3   OH227919   6.033   5.542   6.493
 9321TIP3    H127920   5.983   5.460   6.498
 9321TIP3    H227921   6.055   5.563   6.583
 9322TIP3   OH227922   3.270   6.171   6.231
 9322TIP3    H127923   3.189   6.196   6.275
 9322TIP3    H227924   3.246   6.162   6.139
 9323TIP3   OH227925   6.123   6.977   0.680
 9323TIP3    H127926   6.063   6.989   0.607
 9323TIP3    H227927   6.067   6.958   0.755
 9324TIP3   OH227928   3.533   0.848   3.704
 9324TIP3    H127929   3.561   0.906   3.775
 9324TIP3    H227930   3.601   0.781   3.699
 9325TIP3   OH227931   7.095   1.191   3.528
 9325TIP3    H127932   7.122   1.280   3.506
 9325TIP3    H227933   7.136   1.137   3.460
 9326TIP3   OH227934   1.761   4.696   4.580
 9326TIP3    H127935   1.849   4.733   4.571
 9326TIP3    H227936   1.702   4.766   4.550
 9327TIP3   OH227937   2.625   1.629   4.998
 9327TIP3    H127938   2.658   1.642   4.908
 9327TIP3    H227939   2.603   1.717   5.028
 9328TIP3   OH227940   0.559   6.442   1.010
 9328TIP3    H127941   0.560   6.368   1.070
 9328TIP3    H227942   0.594   6.407   0.928
 9329TIP3   OH227943   0.073   4.101   2.848
 9329TIP3    H127944   0.037   4.144   2.925
 9329TIP3    H227945   0.128   4.031   2.883
 9330TIP3   OH227946   4.003   3.150   0.666
 9330TIP3    H127947   4.094   3.179   0.673
 9330TIP3    H227948   4.000   3.071   0.721
 9331TIP3   OH227949   1.105   7.790   0.270
 9331TIP3    H127950   1.112   7.732   0.194
 9331TIP3    H227951   1.195   7.813   0.291
 9332TIP3   OH227952   0.558   7.390   5.461
 9332TIP3    H127953   0.643   7.349   5.475
 9332TIP3    H227954   0.548   7.450   5.535
 9333TIP3   OH227955   5.514   5.518   5.815
 9333TIP3    H127956   5.571   5.587   5.850
 9333TIP3    H227957   5.432   5.563   5.794
 9334TIP3   OH227958   5.261   3.239   1.058
 9334TIP3    H127959   5.244   3.201   1.144
 9334TIP3    H227960   5.264   3.164   0.999
 9335TIP3   OH227961   2.129   7.136   6.491
 9335TIP3    H127962   2.144   7.230   6.494
 9335TIP3    H227963   2.039   7.124   6.521
 9336TIP3   OH227964   2.229   1.018   2.632
 9336TIP3    H127965   2.248   1.035   2.725
 9336TIP3    H227966   2.272   0.935   2.613
 9337TIP3   OH227967   6.546   6.244   1.005
 9337TIP3    H127968   6.515   6.160   1.040
 9337TIP3    H227969   6.575   6.293   1.082
 9338TIP3   OH227970   0.051   0.620   0.639
 9338TIP3    H127971  -0.013   0.551   0.624
 9338TIP3    H227972   0.083   0.604   0.728
 9339TIP3   OH227973   4.952   0.199   0.396
 9339TIP3    H127974   5.007   0.135   0.351
 9339TIP3    H227975   4.870   0.201   0.347
 9340TIP3   OH227976   0.115   0.941   3.751
 9340TIP3    H127977   0.186   0.998   3.781
 9340TIP3    H227978   0.157   0.881   3.690
 9341TIP3   OH227979   6.757   2.568   2.460
 9341TIP3    H127980   6.795   2.539   2.543
 9341TIP3    H227981   6.825   2.550   2.395
 9342TIP3   OH227982   8.244   5.792   2.929
 9342TIP3    H127983   8.326   5.744   2.935
 9342TIP3    H227984   8.222   5.813   3.019
 9343TIP3   OH227985   2.913   5.122   2.465
 9343TIP3    H127986   2.892   5.196   2.408
 9343TIP3    H227987   2.964   5.160   2.536
 9344TIP3   OH227988   6.047   0.589   6.620
 9344TIP3    H127989   6.000   0.506   6.627
 9344TIP3    H227990   6.123   0.569   6.565
 9345TIP3   OH227991   4.482   5.726   5.947
 9345TIP3    H127992   4.534   5.651   5.917
 9345TIP3    H227993   4.446   5.765   5.867
 9346TIP3   OH227994   7.217   4.261   2.725
 9346TIP3    H127995   7.293   4.204   2.718
 9346TIP3    H227996   7.252   4.350   2.719
 9347TIP3   OH227997   1.303   6.565   6.541
 9347TIP3    H127998   1.390   6.592   6.510
 9347TIP3    H227999   1.275   6.636   6.599
 9348TIP3   OH228000   7.804   2.870   0.860
 9348TIP3    H128001   7.781   2.812   0.933
 9348TIP3    H228002   7.897   2.854   0.845
 9349TIP3   OH228003   3.623   6.668   4.259
 9349TIP3    H128004   3.711   6.690   4.291
 9349TIP3    H228005   3.592   6.601   4.319
 9350TIP3   OH228006   5.460   7.552   3.552
 9350TIP3    H128007   5.381   7.599   3.527
 9350TIP3    H228008   5.486   7.592   3.635
 9351TIP3   OH228009   6.784   5.954   4.926
 9351TIP3    H128010   6.853   6.005   4.882
 9351TIP3    H228011   6.812   5.863   4.915
 9352TIP3   OH228012   5.491   0.514   2.946
 9352TIP3    H128013   5.550   0.589   2.938
 9352TIP3    H228014   5.403   0.553   2.950
 9353TIP3   OH228015   7.693   6.379   0.223
 9353TIP3    H128016   7.723   6.422   0.303
 9353TIP3    H228017   7.678   6.288   0.249
 9354TIP3   OH228018   0.951   3.057   3.743
 9354TIP3    H128019   0.984   3.137   3.783
 9354TIP3    H228020   0.983   2.987   3.799
 9355TIP3   OH228021   3.875   3.162   6.420
 9355TIP3    H128022   3.803   3.171   6.357
 9355TIP3    H228023   3.850   3.088   6.475
 9356TIP3   OH228024   7.058   5.009   3.030
 9356TIP3    H128025   7.066   5.080   2.967
 9356TIP3    H228026   7.141   5.010   3.078
 9357TIP3   OH228027   0.489   0.524   0.856
 9357TIP3    H128028   0.499   0.444   0.907
 9357TIP3    H228029   0.396   0.546   0.865
 9358TIP3   OH228030   1.573   5.859   0.429
 9358TIP3    H128031   1.617   5.893   0.507
 9358TIP3    H228032   1.494   5.817   0.463
 9359TIP3   OH228033   6.615   7.348   3.572
 9359TIP3    H128034   6.685   7.286   3.593
 9359TIP3    H228035   6.538   7.293   3.559
 9360TIP3   OH228036   1.343   3.408   5.678
 9360TIP3    H128037   1.343   3.345   5.751
 9360TIP3    H228038   1.251   3.410   5.649
 9361TIP3   OH228039   2.684   5.585   1.971
 9361TIP3    H128040   2.666   5.622   2.057
 9361TIP3    H228041   2.681   5.490   1.984
 9362TIP3   OH228042   1.109   5.989   1.504
 9362TIP3    H128043   1.046   6.060   1.490
 9362TIP3    H228044   1.087   5.954   1.590
 9363TIP3   OH228045   5.781   0.433   2.293
 9363TIP3    H128046   5.851   0.398   2.237
 9363TIP3    H228047   5.820   0.438   2.380
 9364TIP3   OH228048   6.210   3.510   4.604
 9364TIP3    H128049   6.218   3.533   4.512
 9364TIP3    H228050   6.296   3.530   4.642
 9365TIP3   OH228051   5.914   7.274   6.247
 9365TIP3    H128052   5.967   7.315   6.315
 9365TIP3    H228053   5.875   7.347   6.200
 9366TIP3   OH228054   7.306   2.506   6.616
 9366TIP3    H128055   7.339   2.418   6.628
 9366TIP3    H228056   7.213   2.500   6.638
 9367TIP3   OH228057   3.984   4.550   0.590
 9367TIP3    H128058   4.023   4.512   0.669
 9367TIP3    H228059   3.901   4.588   0.620
 9368TIP3   OH228060   5.516   3.393   2.855
 9368TIP3    H128061   5.496   3.372   2.946
 9368TIP3    H228062   5.604   3.357   2.841
 9369TIP3   OH228063   0.978   1.301   6.656
 9369TIP3    H128064   0.946   1.373   6.603
 9369TIP3    H228065   1.050   1.338   6.707
 9370TIP3   OH228066   7.188   3.792   4.609
 9370TIP3    H128067   7.114   3.766   4.554
 9370TIP3    H228068   7.262   3.799   4.548
 9371TIP3   OH228069   3.218   5.399   1.122
 9371TIP3    H128070   3.153   5.441   1.065
 9371TIP3    H228071   3.288   5.372   1.062
 9372TIP3   OH228072   4.373   3.128   3.812
 9372TIP3    H128073   4.388   3.086   3.897
 9372TIP3    H228074   4.438   3.088   3.754
 9373TIP3   OH228075   0.745   1.536   0.464
 9373TIP3    H128076   0.834   1.567   0.482
 9373TIP3    H228077   0.702   1.610   0.421
 9374TIP3   OH228078   6.222   7.335   3.891
 9374TIP3    H128079   6.263   7.347   3.977
 9374TIP3    H228080   6.185   7.420   3.869
 9375TIP3   OH228081   4.261   6.523   6.658
 9375TIP3    H128082   4.286   6.440   6.617
 9375TIP3    H228083   4.217   6.571   6.588
 9376TIP3   OH228084   1.396   5.992   1.578
 9376TIP3    H128085   1.301   6.001   1.575
 9376TIP3    H228086   1.429   6.059   1.519
 9377TIP3   OH228087   6.059   3.474   5.532
 9377TIP3    H128088   6.128   3.500   5.593
 9377TIP3    H228089   6.105   3.453   5.451
 9378TIP3   OH228090   2.555  -0.023   4.108
 9378TIP3    H128091   2.584  -0.026   4.017
 9378TIP3    H228092   2.470  -0.068   4.108
 9379TIP3   OH228093   1.270   7.457   5.354
 9379TIP3    H128094   1.320   7.477   5.433
 9379TIP3    H228095   1.336   7.451   5.285
 9380TIP3   OH228096   2.698   0.030   4.960
 9380TIP3    H128097   2.701   0.101   5.024
 9380TIP3    H228098   2.721   0.072   4.877
 9381TIP3   OH228099   6.308   6.442   4.049
 9381TIP3    H128100   6.311   6.496   4.128
 9381TIP3    H228101   6.363   6.367   4.069
 9382TIP3   OH228102   4.324   6.512   0.168
 9382TIP3    H128103   4.308   6.554   0.252
 9382TIP3    H228104   4.302   6.420   0.183
 9383TIP3   OH228105   0.702   2.034   5.258
 9383TIP3    H128106   0.714   2.118   5.303
 9383TIP3    H228107   0.648   2.055   5.182
 9384TIP3   OH228108   6.773   6.451   1.098
 9384TIP3    H128109   6.783   6.523   1.160
 9384TIP3    H228110   6.829   6.381   1.133
 9385TIP3   OH228111   6.592   2.063   1.391
 9385TIP3    H128112   6.508   2.040   1.431
 9385TIP3    H228113   6.594   2.011   1.310
 9386TIP3   OH228114   7.555   0.534   3.311
 9386TIP3    H128115   7.507   0.545   3.229
 9386TIP3    H228116   7.495   0.566   3.378
 9387TIP3   OH228117   6.234   3.872   2.824
 9387TIP3    H128118   6.201   3.951   2.782
 9387TIP3    H228119   6.201   3.800   2.770
 9388TIP3   OH228120   6.501   0.237   3.190
 9388TIP3    H128121   6.525   0.317   3.144
 9388TIP3    H228122   6.406   0.238   3.194
 9389TIP3   OH228123   3.842   3.225   1.855
 9389TIP3    H128124   3.918   3.208   1.911
 9389TIP3    H228125   3.778   3.266   1.914
 9390TIP3   OH228126   5.032   2.616   5.289
 9390TIP3    H128127   5.104   2.611   5.352
 9390TIP3    H228128   5.067   2.578   5.209
 9391TIP3   OH228129   8.198   1.294   1.737
 9391TIP3    H128130   8.285   1.331   1.753
 9391TIP3    H228131   8.211   1.233   1.665
 9392TIP3   OH228132   0.862   6.963   2.387
 9392TIP3    H128133   0.885   6.925   2.471
 9392TIP3    H228134   0.841   6.888   2.331
 9393TIP3   OH228135   4.058   2.145   0.476
 9393TIP3    H128136   4.111   2.186   0.408
 9393TIP3    H228137   3.970   2.182   0.464
 9394TIP3   OH228138   4.502   2.320   2.287
 9394TIP3    H128139   4.595   2.306   2.301
 9394TIP3    H228140   4.489   2.305   2.193
 9395TIP3   OH228141   6.928   6.537   0.254
 9395TIP3    H128142   6.844   6.567   0.222
 9395TIP3    H228143   6.952   6.599   0.322
 9396TIP3   OH228144   8.002   5.988   3.485
 9396TIP3    H128145   8.090   6.022   3.466
 9396TIP3    H228146   7.953   6.064   3.517
 9397TIP3   OH228147   6.967   5.522   1.950
 9397TIP3    H128148   6.915   5.581   1.895
 9397TIP3    H228149   7.017   5.469   1.888
 9398TIP3   OH228150   6.546   5.396   5.582
 9398TIP3    H128151   6.584   5.446   5.655
 9398TIP3    H228152   6.526   5.310   5.620
 9399TIP3   OH228153   4.683   6.973   0.467
 9399TIP3    H128154   4.631   6.907   0.514
 9399TIP3    H228155   4.757   6.991   0.526
 9400TIP3   OH228156   3.413   3.429   2.545
 9400TIP3    H128157   3.347   3.426   2.476
 9400TIP3    H228158   3.363   3.443   2.625
 9401TIP3   OH228159   5.953   7.801   2.195
 9401TIP3    H128160   5.952   7.724   2.252
 9401TIP3    H228161   5.933   7.874   2.253
 9402TIP3   OH228162   2.944   1.342   0.650
 9402TIP3    H128163   2.970   1.250   0.662
 9402TIP3    H228164   2.917   1.370   0.738
 9403TIP3   OH228165   7.960   2.422   3.858
 9403TIP3    H128166   7.955   2.401   3.951
 9403TIP3    H228167   8.051   2.405   3.834
 9404TIP3   OH228168   1.015   7.206   5.015
 9404TIP3    H128169   0.920   7.204   5.031
 9404TIP3    H228170   1.053   7.202   5.103
 9405TIP3   OH228171   0.232   1.406   1.416
 9405TIP3    H128172   0.145   1.442   1.434
 9405TIP3    H228173   0.282   1.480   1.381
 9406TIP3   OH228174   3.020   6.482   3.582
 9406TIP3    H128175   3.020   6.555   3.520
 9406TIP3    H228176   2.928   6.461   3.594
 9407TIP3   OH228177   4.883   7.015   5.718
 9407TIP3    H128178   4.928   7.035   5.800
 9407TIP3    H228179   4.875   6.919   5.718
 9408TIP3   OH228180   6.104   0.225   6.022
 9408TIP3    H128181   6.180   0.238   5.967
 9408TIP3    H228182   6.105   0.298   6.084
 9409TIP3   OH228183   7.266   2.664   0.266
 9409TIP3    H128184   7.319   2.637   0.341
 9409TIP3    H228185   7.329   2.676   0.195
 9410TIP3   OH228186   2.737   0.471   2.800
 9410TIP3    H128187   2.793   0.533   2.754
 9410TIP3    H228188   2.739   0.500   2.891
 9411TIP3   OH228189   5.079   3.065   2.308
 9411TIP3    H128190   5.090   2.987   2.363
 9411TIP3    H228191   5.033   3.127   2.365
 9412TIP3   OH228192   0.385   6.874   2.390
 9412TIP3    H128193   0.327   6.947   2.407
 9412TIP3    H228194   0.463   6.913   2.351
 9413TIP3   OH228195   6.622   4.278   0.447
 9413TIP3    H128196   6.691   4.253   0.508
 9413TIP3    H228197   6.584   4.195   0.418
 9414TIP3   OH228198   2.046   1.330   4.550
 9414TIP3    H128199   2.032   1.406   4.606
 9414TIP3    H228200   1.998   1.259   4.593
 9415TIP3   OH228201   2.908   6.523   5.008
 9415TIP3    H128202   2.948   6.610   5.016
 9415TIP3    H228203   2.965   6.477   4.947
 9416TIP3   OH228204   3.247   6.405   5.537
 9416TIP3    H128205   3.183   6.389   5.468
 9416TIP3    H228206   3.286   6.319   5.554
 9417TIP3   OH228207   5.193   6.637   4.324
 9417TIP3    H128208   5.135   6.680   4.261
 9417TIP3    H228209   5.278   6.677   4.309
 9418TIP3   OH228210   4.890   4.626   1.829
 9418TIP3    H128211   4.843   4.675   1.761
 9418TIP3    H228212   4.824   4.609   1.896
 9419TIP3   OH228213   5.892   1.570   6.132
 9419TIP3    H128214   5.904   1.492   6.186
 9419TIP3    H228215   5.935   1.640   6.181
 9420TIP3   OH228216   1.766   7.657   0.570
 9420TIP3    H128217   1.806   7.723   0.514
 9420TIP3    H228218   1.713   7.603   0.510
 9421TIP3   OH228219   5.361   2.223   5.919
 9421TIP3    H128220   5.307   2.294   5.955
 9421TIP3    H228221   5.445   2.231   5.964
 9422TIP3   OH228222   1.760   3.117   4.921
 9422TIP3    H128223   1.840   3.133   4.971
 9422TIP3    H228224   1.689   3.119   4.986
 9423TIP3   OH228225   0.059   2.892   0.454
 9423TIP3    H128226   0.147   2.880   0.488
 9423TIP3    H228227   0.064   2.970   0.400
 9424TIP3   OH228228   2.850   0.542   4.191
 9424TIP3    H128229   2.913   0.480   4.229
 9424TIP3    H228230   2.895   0.577   4.113
 9425TIP3   OH228231   5.080   5.187   4.007
 9425TIP3    H128232   4.990   5.152   4.004
 9425TIP3    H228233   5.135   5.109   3.999
 9426TIP3   OH228234   0.312   0.361   0.634
 9426TIP3    H128235   0.238   0.309   0.604
 9426TIP3    H228236   0.312   0.438   0.577
 9427TIP3   OH228237   3.225   7.170   0.567
 9427TIP3    H128238   3.154   7.216   0.611
 9427TIP3    H228239   3.285   7.145   0.638
 9428TIP3   OH228240   6.125   7.645   5.435
 9428TIP3    H128241   6.196   7.666   5.374
 9428TIP3    H228242   6.118   7.722   5.491
 9429TIP3   OH228243   7.643   4.229   0.295
 9429TIP3    H128244   7.643   4.303   0.233
 9429TIP3    H228245   7.730   4.189   0.283
 9430TIP3   OH228246   4.843   2.629   3.748
 9430TIP3    H128247   4.915   2.567   3.759
 9430TIP3    H228248   4.887   2.712   3.729
 9431TIP3   OH228249   7.840   5.584   3.702
 9431TIP3    H128250   7.808   5.659   3.751
 9431TIP3    H228251   7.931   5.604   3.684
 9432TIP3   OH228252   4.723   7.470   1.616
 9432TIP3    H128253   4.777   7.487   1.693
 9432TIP3    H228254   4.762   7.524   1.547
 9433TIP3   OH228255   7.112   6.651   6.366
 9433TIP3    H128256   7.023   6.662   6.399
 9433TIP3    H228257   7.123   6.721   6.301
 9434TIP3   OH228258   1.752   5.542   3.916
 9434TIP3    H128259   1.676   5.485   3.919
 9434TIP3    H228260   1.819   5.491   3.870
 9435TIP3   OH228261   2.274   1.234   0.896
 9435TIP3    H128262   2.196   1.281   0.865
 9435TIP3    H228263   2.238   1.164   0.951
 9436TIP3   OH228264   6.932   2.428   0.565
 9436TIP3    H128265   6.973   2.425   0.478
 9436TIP3    H228266   6.895   2.341   0.577
 9437TIP3   OH228267   4.734   5.591   1.651
 9437TIP3    H128268   4.710   5.531   1.721
 9437TIP3    H228269   4.713   5.678   1.686
 9438TIP3   OH228270   1.704   2.101   5.233
 9438TIP3    H128271   1.700   2.093   5.328
 9438TIP3    H228272   1.729   2.192   5.218
 9439TIP3   OH228273   0.380   7.075   3.229
 9439TIP3    H128274   0.359   6.989   3.192
 9439TIP3    H228275   0.331   7.077   3.311
 9440TIP3   OH228276   2.075   2.638   3.828
 9440TIP3    H128277   2.149   2.577   3.818
 9440TIP3    H228278   2.081   2.667   3.918
 9441TIP3   OH228279   6.508   7.507   2.653
 9441TIP3    H128280   6.595   7.468   2.659
 9441TIP3    H228281   6.500   7.534   2.562
 9442TIP3   OH228282   2.929   6.333   4.194
 9442TIP3    H128283   3.017   6.319   4.227
 9442TIP3    H228284   2.887   6.391   4.258
 9443TIP3   OH228285   2.308   4.319   3.599
 9443TIP3    H128286   2.214   4.305   3.608
 9443TIP3    H228287   2.346   4.232   3.603
 9444TIP3   OH228288   4.548   1.922   2.724
 9444TIP3    H128289   4.493   1.995   2.752
 9444TIP3    H228290   4.497   1.844   2.746
 9445TIP3   OH228291   7.797   6.003   5.554
 9445TIP3    H128292   7.757   5.917   5.536
 9445TIP3    H228293   7.724   6.058   5.582
 9446TIP3   OH228294   6.878   1.938   6.104
 9446TIP3    H128295   6.915   1.982   6.028
 9446TIP3    H228296   6.938   1.958   6.176
 9447TIP3   OH228297   6.111   3.996   1.712
 9447TIP3    H128298   6.060   3.972   1.790
 9447TIP3    H228299   6.202   3.986   1.739
 9448TIP3   OH228300   2.140   5.392   2.499
 9448TIP3    H128301   2.236   5.398   2.502
 9448TIP3    H228302   2.115   5.439   2.420
 9449TIP3   OH228303   3.384   4.669   5.049
 9449TIP3    H128304   3.313   4.610   5.024
 9449TIP3    H228305   3.359   4.754   5.012
 9450TIP3   OH228306   7.811   3.379   4.007
 9450TIP3    H128307   7.907   3.377   4.011
 9450TIP3    H228308   7.791   3.371   3.914
 9451TIP3   OH228309   7.291   6.537   0.648
 9451TIP3    H128310   7.284   6.616   0.595
 9451TIP3    H228311   7.272   6.465   0.587
 9452TIP3   OH228312   3.629   4.240   3.195
 9452TIP3    H128313   3.691   4.194   3.252
 9452TIP3    H228314   3.675   4.251   3.112
 9453TIP3   OH228315   6.582   7.040   3.690
 9453TIP3    H128316   6.645   7.025   3.761
 9453TIP3    H228317   6.636   7.056   3.613
 9454TIP3   OH228318   3.386   1.565   5.789
 9454TIP3    H128319   3.315   1.615   5.749
 9454TIP3    H228320   3.363   1.474   5.772
 9455TIP3   OH228321   1.715   5.732   1.645
 9455TIP3    H128322   1.677   5.754   1.730
 9455TIP3    H228323   1.703   5.812   1.592
 9456TIP3   OH228324   6.886   2.438   6.504
 9456TIP3    H128325   6.792   2.422   6.497
 9456TIP3    H228326   6.913   2.391   6.583
 9457TIP3   OH228327   5.751   7.587   1.094
 9457TIP3    H128328   5.784   7.518   1.037
 9457TIP3    H228329   5.669   7.614   1.055
 9458TIP3   OH228330   6.844   0.393   6.222
 9458TIP3    H128331   6.861   0.465   6.282
 9458TIP3    H228332   6.856   0.314   6.275
 9459TIP3   OH228333   7.166   3.186   3.547
 9459TIP3    H128334   7.086   3.229   3.514
 9459TIP3    H228335   7.225   3.258   3.567
 9460TIP3   OH228336   3.767   4.203   3.509
 9460TIP3    H128337   3.840   4.263   3.522
 9460TIP3    H228338   3.689   4.256   3.524
 9461TIP3   OH228339   1.767   4.092   2.369
 9461TIP3    H128340   1.711   4.066   2.443
 9461TIP3    H228341   1.723   4.055   2.292
 9462TIP3   OH228342   2.852   7.323   1.511
 9462TIP3    H128343   2.867   7.244   1.460
 9462TIP3    H228344   2.928   7.329   1.570
 9463TIP3   OH228345   0.045   1.612   1.929
 9463TIP3    H128346  -0.018   1.561   1.879
 9463TIP3    H228347   0.130   1.574   1.907
 9464TIP3   OH228348   1.523   2.227   5.096
 9464TIP3    H128349   1.492   2.206   5.008
 9464TIP3    H228350   1.582   2.156   5.118
 9465TIP3   OH228351   7.328   5.708   4.341
 9465TIP3    H128352   7.423   5.718   4.343
 9465TIP3    H228353   7.312   5.616   4.365
 9466TIP3   OH228354   0.160   1.042   6.721
 9466TIP3    H128355   0.211   1.072   6.646
 9466TIP3    H228356   0.111   0.967   6.689
 9467TIP3   OH228357   4.737   6.396   4.865
 9467TIP3    H128358   4.832   6.395   4.878
 9467TIP3    H228359   4.722   6.333   4.794
 9468TIP3   OH228360   2.796   6.024   1.488
 9468TIP3    H128361   2.737   6.019   1.413
 9468TIP3    H228362   2.790   5.937   1.528
 9469TIP3   OH228363   2.330   4.967   2.691
 9469TIP3    H128364   2.375   5.017   2.759
 9469TIP3    H228365   2.344   4.875   2.716
 9470TIP3   OH228366   8.285   3.951   0.810
 9470TIP3    H128367   8.302   4.014   0.741
 9470TIP3    H228368   8.197   3.973   0.841
 9471TIP3   OH228369   6.874   7.724   3.940
 9471TIP3    H128370   6.822   7.798   3.909
 9471TIP3    H228371   6.810   7.665   3.980
 9472TIP3   OH228372   3.522   1.234   0.283
 9472TIP3    H128373   3.557   1.281   0.208
 9472TIP3    H228374   3.427   1.235   0.271
 9473TIP3   OH228375   5.151   6.299   3.955
 9473TIP3    H128376   5.172   6.207   3.972
 9473TIP3    H228377   5.095   6.296   3.877
 9474TIP3   OH228378   0.099   5.489   0.938
 9474TIP3    H128379   0.181   5.489   0.987
 9474TIP3    H228380   0.083   5.397   0.918
 9475TIP3   OH228381   6.124   1.236   0.848
 9475TIP3    H128382   6.029   1.242   0.859
 9475TIP3    H228383   6.151   1.166   0.907
 9476TIP3   OH228384   5.463   4.355   5.740
 9476TIP3    H128385   5.484   4.282   5.681
 9476TIP3    H228386   5.429   4.423   5.682
 9477TIP3   OH228387   6.997   2.085   1.748
 9477TIP3    H128388   6.974   2.009   1.694
 9477TIP3    H228389   7.067   2.053   1.805
 9478TIP3   OH228390   7.726   0.480   2.700
 9478TIP3    H128391   7.727   0.567   2.740
 9478TIP3    H228392   7.815   0.447   2.709
 9479TIP3   OH228393   0.348   1.493   5.257
 9479TIP3    H128394   0.382   1.410   5.224
 9479TIP3    H228395   0.405   1.559   5.220
 9480TIP3   OH228396   7.862   3.887   6.261
 9480TIP3    H128397   7.945   3.857   6.224
 9480TIP3    H228398   7.810   3.807   6.273
 9481TIP3   OH228399   5.731   6.213   1.931
 9481TIP3    H128400   5.808   6.187   1.881
 9481TIP3    H228401   5.738   6.166   2.014
 9482TIP3   OH228402   1.176   0.376   1.322
 9482TIP3    H128403   1.203   0.370   1.414
 9482TIP3    H228404   1.256   0.397   1.275
 9483TIP3   OH228405   2.475   6.840   2.828
 9483TIP3    H128406   2.496   6.747   2.817
 9483TIP3    H228407   2.465   6.873   2.739
 9484TIP3   OH228408   2.438   7.026   5.654
 9484TIP3    H128409   2.354   6.994   5.688
 9484TIP3    H228410   2.504   6.981   5.707
 9485TIP3   OH228411   3.072   6.670   5.457
 9485TIP3    H128412   3.152   6.714   5.428
 9485TIP3    H228413   3.009   6.683   5.386
 9486TIP3   OH228414   0.770   4.826   2.048
 9486TIP3    H128415   0.705   4.812   2.117
 9486TIP3    H228416   0.760   4.918   2.025
 9487TIP3   OH228417   4.859   4.939   0.412
 9487TIP3    H128418   4.892   5.027   0.394
 9487TIP3    H228419   4.900   4.915   0.495
 9488TIP3   OH228420   7.431   6.281   5.847
 9488TIP3    H128421   7.498   6.234   5.897
 9488TIP3    H228422   7.348   6.243   5.876
 9489TIP3   OH228423   8.169   2.317   5.649
 9489TIP3    H128424   8.117   2.362   5.582
 9489TIP3    H228425   8.220   2.387   5.690
 9490TIP3   OH228426   4.438   4.821   0.333
 9490TIP3    H128427   4.509   4.808   0.271
 9490TIP3    H228428   4.471   4.884   0.396
 9491TIP3   OH228429   2.542   7.795   1.548
 9491TIP3    H128430   2.576   7.710   1.517
 9491TIP3    H228431   2.572   7.857   1.482
 9492TIP3   OH228432   5.406   3.611   6.370
 9492TIP3    H128433   5.425   3.704   6.358
 9492TIP3    H228434   5.312   3.603   6.356
 9493TIP3   OH228435   5.563   0.453   1.702
 9493TIP3    H128436   5.528   0.540   1.682
 9493TIP3    H228437   5.560   0.447   1.797
 9494TIP3   OH228438   4.640   5.553   5.810
 9494TIP3    H128439   4.723   5.510   5.790
 9494TIP3    H228440   4.574   5.485   5.798
 9495TIP3   OH228441   2.217   1.281   2.212
 9495TIP3    H128442   2.175   1.340   2.150
 9495TIP3    H228443   2.149   1.216   2.232
 9496TIP3   OH228444   6.926   0.529   5.984
 9496TIP3    H128445   6.908   0.482   5.903
 9496TIP3    H228446   6.901   0.467   6.053
 9497TIP3   OH228447   6.093   6.556   2.492
 9497TIP3    H128448   6.088   6.583   2.401
 9497TIP3    H228449   6.015   6.503   2.506
 9498TIP3   OH228450   2.802   3.678   1.993
 9498TIP3    H128451   2.809   3.618   2.067
 9498TIP3    H228452   2.846   3.632   1.921
 9499TIP3   OH228453   4.336   7.715   0.663
 9499TIP3    H128454   4.264   7.774   0.642
 9499TIP3    H228455   4.311   7.676   0.747
 9500TIP3   OH228456   4.858   6.118   1.143
 9500TIP3    H128457   4.888   6.090   1.229
 9500TIP3    H228458   4.878   6.211   1.139
 9501TIP3   OH228459   2.312   2.226   6.442
 9501TIP3    H128460   2.312   2.144   6.491
 9501TIP3    H228461   2.273   2.290   6.503
 9502TIP3   OH228462   7.128   4.469   4.879
 9502TIP3    H128463   7.139   4.525   4.802
 9502TIP3    H228464   7.034   4.474   4.899
 9503TIP3   OH228465   8.082   5.821   5.536
 9503TIP3    H128466   8.044   5.893   5.485
 9503TIP3    H228467   8.176   5.829   5.521
 9504TIP3   OH228468   2.192   2.844   1.828
 9504TIP3    H128469   2.270   2.843   1.773
 9504TIP3    H228470   2.173   2.937   1.840
 9505TIP3   OH228471   2.372   3.689   6.239
 9505TIP3    H128472   2.334   3.651   6.318
 9505TIP3    H228473   2.464   3.704   6.262
 9506TIP3   OH228474   1.206   3.758   2.761
 9506TIP3    H128475   1.158   3.838   2.782
 9506TIP3    H228476   1.238   3.772   2.672
 9507TIP3   OH228477   5.648   2.829   0.533
 9507TIP3    H128478   5.683   2.894   0.471
 9507TIP3    H228479   5.726   2.789   0.572
 9508TIP3   OH228480   1.017   7.392   4.226
 9508TIP3    H128481   0.958   7.347   4.166
 9508TIP3    H228482   0.993   7.359   4.313
 9509TIP3   OH228483   2.619   2.735   3.962
 9509TIP3    H128484   2.561   2.800   3.924
 9509TIP3    H228485   2.579   2.651   3.939
 9510TIP3   OH228486   2.932   7.688   5.845
 9510TIP3    H128487   2.950   7.674   5.752
 9510TIP3    H228488   2.848   7.732   5.847
 9511TIP3   OH228489   3.558   7.239   0.698
 9511TIP3    H128490   3.601   7.292   0.765
 9511TIP3    H228491   3.571   7.148   0.726
 9512TIP3   OH228492   6.417   5.529   5.938
 9512TIP3    H128493   6.325   5.507   5.925
 9512TIP3    H228494   6.455   5.448   5.974
 9513TIP3   OH228495   2.697   2.578   0.474
 9513TIP3    H128496   2.714   2.599   0.382
 9513TIP3    H228497   2.731   2.489   0.485
 9514TIP3   OH228498   5.874   0.033   0.710
 9514TIP3    H128499   5.850  -0.001   0.796
 9514TIP3    H228500   5.790   0.060   0.671
 9515TIP3   OH228501   2.095   0.194   3.236
 9515TIP3    H128502   2.113   0.167   3.326
 9515TIP3    H228503   2.004   0.222   3.237
 9516TIP3   OH228504   6.613   5.208   3.022
 9516TIP3    H128505   6.544   5.224   2.958
 9516TIP3    H228506   6.683   5.268   2.997
 9517TIP3   OH228507   0.736   4.699   4.772
 9517TIP3    H128508   0.770   4.609   4.773
 9517TIP3    H228509   0.765   4.735   4.689
 9518TIP3   OH228510   7.794   5.190   0.732
 9518TIP3    H128511   7.867   5.239   0.694
 9518TIP3    H228512   7.749   5.253   0.788
 9519TIP3   OH228513   6.473   3.123   0.736
 9519TIP3    H128514   6.525   3.125   0.816
 9519TIP3    H228515   6.521   3.061   0.679
 9520TIP3   OH228516   0.328   5.964   0.874
 9520TIP3    H128517   0.398   5.932   0.817
 9520TIP3    H228518   0.314   5.893   0.937
 9521TIP3   OH228519   1.955   3.571   0.292
 9521TIP3    H128520   1.935   3.643   0.352
 9521TIP3    H228521   1.979   3.614   0.210
 9522TIP3   OH228522   8.211   0.115   1.785
 9522TIP3    H128523   8.284   0.080   1.733
 9522TIP3    H228524   8.235   0.096   1.875
 9523TIP3   OH228525   0.584   1.922   0.749
 9523TIP3    H128526   0.581   1.834   0.785
 9523TIP3    H228527   0.669   1.957   0.778
 9524TIP3   OH228528   7.877   0.626   6.577
 9524TIP3    H128529   7.799   0.594   6.623
 9524TIP3    H228530   7.843   0.662   6.495
 9525TIP3   OH228531   6.050   7.334   6.581
 9525TIP3    H128532   6.117   7.270   6.556
 9525TIP3    H228533   6.002   7.293   6.653
 9526TIP3   OH228534   3.928   5.500   5.879
 9526TIP3    H128535   3.866   5.432   5.907
 9526TIP3    H228536   4.013   5.470   5.911
 9527TIP3   OH228537   3.027   7.060   0.398
 9527TIP3    H128538   2.939   7.089   0.421
 9527TIP3    H228539   3.083   7.103   0.463
 9528TIP3   OH228540   0.667   2.275   5.739
 9528TIP3    H128541   0.699   2.217   5.670
 9528TIP3    H228542   0.571   2.271   5.732
 9529TIP3   OH228543   2.402   2.851   5.385
 9529TIP3    H128544   2.444   2.915   5.328
 9529TIP3    H228545   2.448   2.860   5.469
 9530TIP3   OH228546   3.549   2.074   2.185
 9530TIP3    H128547   3.591   2.042   2.265
 9530TIP3    H228548   3.597   2.031   2.114
 9531TIP3   OH228549   6.615   3.093   4.229
 9531TIP3    H128550   6.559   3.116   4.155
 9531TIP3    H228551   6.665   3.017   4.199
 9532TIP3   OH228552   6.083   1.243   1.939
 9532TIP3    H128553   5.997   1.252   1.897
 9532TIP3    H228554   6.141   1.298   1.887
 9533TIP3   OH228555   3.890   3.749   0.510
 9533TIP3    H128556   3.806   3.723   0.546
 9533TIP3    H228557   3.954   3.720   0.575
 9534TIP3   OH228558   6.331   4.584   5.838
 9534TIP3    H128559   6.308   4.492   5.852
 9534TIP3    H228560   6.350   4.590   5.744
 9535TIP3   OH228561   2.793   5.474   3.478
 9535TIP3    H128562   2.859   5.541   3.465
 9535TIP3    H228563   2.766   5.484   3.570
 9536TIP3   OH228564   2.199   2.444   0.141
 9536TIP3    H128565   2.263   2.417   0.074
 9536TIP3    H228566   2.214   2.383   0.213
 9537TIP3   OH228567   7.318   7.395   3.923
 9537TIP3    H128568   7.348   7.483   3.900
 9537TIP3    H228569   7.224   7.405   3.936
 9538TIP3   OH228570   6.221   4.572   0.680
 9538TIP3    H128571   6.285   4.621   0.629
 9538TIP3    H228572   6.269   4.546   0.759
 9539TIP3   OH228573   7.249   6.349   3.863
 9539TIP3    H128574   7.295   6.276   3.905
 9539TIP3    H228575   7.196   6.307   3.794
 9540TIP3   OH228576   3.849   1.147   1.397
 9540TIP3    H128577   3.803   1.118   1.475
 9540TIP3    H228578   3.818   1.089   1.327
 9541TIP3   OH228579   7.677   5.268   1.847
 9541TIP3    H128580   7.672   5.324   1.924
 9541TIP3    H228581   7.719   5.188   1.878
 9542TIP3   OH228582   0.393   0.027   6.698
 9542TIP3    H128583   0.369  -0.064   6.681
 9542TIP3    H228584   0.425   0.027   6.788
 9543TIP3   OH228585   0.925   6.033   5.783
 9543TIP3    H128586   0.877   6.112   5.755
 9543TIP3    H228587   0.856   5.970   5.804
 9544TIP3   OH228588   8.016   0.239   0.438
 9544TIP3    H128589   8.029   0.202   0.350
 9544TIP3    H228590   7.944   0.187   0.475
 9545TIP3   OH228591   1.327   3.748   4.218
 9545TIP3    H128592   1.417   3.743   4.251
 9545TIP3    H228593   1.279   3.793   4.287
 9546TIP3   OH228594   3.352   5.041   0.183
 9546TIP3    H128595   3.380   5.071   0.096
 9546TIP3    H228596   3.257   5.041   0.179
 9547TIP3   OH228597   1.035   3.323   6.462
 9547TIP3    H128598   1.037   3.231   6.437
 9547TIP3    H228599   1.043   3.323   6.557
 9548TIP3   OH228600   4.121   1.683   6.230
 9548TIP3    H128601   4.143   1.591   6.217
 9548TIP3    H228602   4.176   1.711   6.304
 9549TIP3   OH228603   0.327   5.320   3.671
 9549TIP3    H128604   0.238   5.304   3.704
 9549TIP3    H228605   0.370   5.368   3.742
 9550TIP3   OH228606   8.132   5.030   6.243
 9550TIP3    H128607   8.130   5.110   6.296
 9550TIP3    H228608   8.067   5.045   6.174
 9551TIP3   OH228609   2.181   6.814   1.583
 9551TIP3    H128610   2.223   6.732   1.610
 9551TIP3    H228611   2.252   6.863   1.540
 9552TIP3   OH228612   6.818   3.090   5.821
 9552TIP3    H128613   6.733   3.062   5.856
 9552TIP3    H228614   6.799   3.115   5.730
 9553TIP3   OH228615   0.649   5.355   6.729
 9553TIP3    H128616   0.670   5.359   6.636
 9553TIP3    H228617   0.673   5.265   6.754
 9554TIP3   OH228618   1.259   5.553   4.561
 9554TIP3    H128619   1.181   5.583   4.513
 9554TIP3    H228620   1.324   5.537   4.492
 9555TIP3   OH228621   2.757   4.010   2.239
 9555TIP3    H128622   2.795   3.987   2.154
 9555TIP3    H228623   2.663   4.005   2.227
 9556TIP3   OH228624   5.800   1.505   3.900
 9556TIP3    H128625   5.738   1.433   3.887
 9556TIP3    H228626   5.749   1.584   3.884
 9557TIP3   OH228627   1.407   5.125   5.187
 9557TIP3    H128628   1.320   5.155   5.161
 9557TIP3    H228629   1.441   5.198   5.240
 9558TIP3   OH228630   0.611   4.198   0.469
 9558TIP3    H128631   0.642   4.272   0.521
 9558TIP3    H228632   0.664   4.201   0.389
 9559TIP3   OH228633   2.324   5.077   1.016
 9559TIP3    H128634   2.288   5.055   1.102
 9559TIP3    H228635   2.343   5.170   1.021
 9560TIP3   OH228636   1.236   0.313   1.597
 9560TIP3    H128637   1.200   0.225   1.610
 9560TIP3    H228638   1.233   0.353   1.684
 9561TIP3   OH228639   7.684   4.679   2.050
 9561TIP3    H128640   7.653   4.666   2.139
 9561TIP3    H228641   7.604   4.680   1.997
 9562TIP3   OH228642   4.425   5.978   0.034
 9562TIP3    H128643   4.496   6.025  -0.008
 9562TIP3    H228644   4.426   5.891  -0.008
 9563TIP3   OH228645   3.820   6.277   1.592
 9563TIP3    H128646   3.887   6.259   1.658
 9563TIP3    H228647   3.836   6.213   1.523
 9564TIP3   OH228648   5.766   0.187   1.808
 9564TIP3    H128649   5.808   0.101   1.813
 9564TIP3    H228650   5.677   0.169   1.776
 9565TIP3   OH228651   2.154   5.341   3.050
 9565TIP3    H128652   2.117   5.361   2.964
 9565TIP3    H228653   2.228   5.402   3.059
 9566TIP3   OH228654   4.303   5.155   2.501
 9566TIP3    H128655   4.319   5.092   2.572
 9566TIP3    H228656   4.222   5.123   2.460
 9567TIP3   OH228657   1.218   0.559   3.086
 9567TIP3    H128658   1.250   0.625   3.147
 9567TIP3    H228659   1.201   0.482   3.140
 9568TIP3   OH228660   0.889   2.136   3.446
 9568TIP3    H128661   0.818   2.116   3.384
 9568TIP3    H228662   0.953   2.184   3.393
 9569TIP3   OH228663   0.850   1.908   6.073
 9569TIP3    H128664   0.940   1.930   6.050
 9569TIP3    H228665   0.801   1.989   6.057
 9570TIP3   OH228666   5.195   5.250   1.789
 9570TIP3    H128667   5.179   5.319   1.853
 9570TIP3    H228668   5.187   5.168   1.839
 9571TIP3   OH228669   3.706   3.771   5.320
 9571TIP3    H128670   3.740   3.771   5.409
 9571TIP3    H228671   3.712   3.679   5.292
 9572TIP3   OH228672   1.920   4.076   2.745
 9572TIP3    H128673   1.834   4.062   2.785
 9572TIP3    H228674   1.976   4.106   2.817
 9573TIP3   OH228675   0.473   1.500   0.385
 9573TIP3    H128676   0.442   1.587   0.361
 9573TIP3    H228677   0.564   1.512   0.409
 9574TIP3   OH228678   7.070   2.460   0.322
 9574TIP3    H128679   7.143   2.519   0.303
 9574TIP3    H228680   6.994   2.502   0.282
 9575TIP3   OH228681   4.305   2.655   2.322
 9575TIP3    H128682   4.237   2.694   2.378
 9575TIP3    H228683   4.278   2.676   2.233
 9576TIP3   OH228684   7.822   3.351   6.295
 9576TIP3    H128685   7.915   3.372   6.308
 9576TIP3    H228686   7.786   3.342   6.383
 9577TIP3   OH228687   7.958   2.579   1.221
 9577TIP3    H128688   7.996   2.588   1.309
 9577TIP3    H228689   8.032   2.555   1.165
 9578TIP3   OH228690   2.350   5.378   4.113
 9578TIP3    H128691   2.309   5.451   4.159
 9578TIP3    H228692   2.415   5.420   4.056
 9579TIP3   OH228693   0.127   7.432   6.625
 9579TIP3    H128694   0.159   7.446   6.536
 9579TIP3    H228695   0.198   7.462   6.681
 9580TIP3   OH228696   4.755   4.454   2.592
 9580TIP3    H128697   4.760   4.375   2.645
 9580TIP3    H228698   4.846   4.476   2.573
 9581TIP3   OH228699   2.496   4.490   3.439
 9581TIP3    H128700   2.530   4.416   3.489
 9581TIP3    H228701   2.477   4.557   3.504
 9582TIP3   OH228702   4.296   4.911   2.152
 9582TIP3    H128703   4.213   4.888   2.110
 9582TIP3    H228704   4.311   4.841   2.215
 9583TIP3   OH228705   3.529   2.553   2.687
 9583TIP3    H128706   3.561   2.517   2.770
 9583TIP3    H228707   3.482   2.479   2.646
 9584TIP3   OH228708   5.681   1.821   5.889
 9584TIP3    H128709   5.590   1.796   5.874
 9584TIP3    H228710   5.729   1.737   5.891
 9585TIP3   OH228711   2.526   5.890   1.574
 9585TIP3    H128712   2.572   5.851   1.648
 9585TIP3    H228713   2.461   5.824   1.549
 9586TIP3   OH228714   5.544   7.557   1.796
 9586TIP3    H128715   5.544   7.599   1.882
 9586TIP3    H228716   5.634   7.566   1.765
 9587TIP3   OH228717   1.176   6.658   1.327
 9587TIP3    H128718   1.230   6.581   1.343
 9587TIP3    H228719   1.233   6.732   1.345
 9588TIP3   OH228720   6.104   5.688   1.349
 9588TIP3    H128721   6.115   5.751   1.278
 9588TIP3    H228722   6.012   5.662   1.344
 9589TIP3   OH228723   1.496   1.879   2.097
 9589TIP3    H128724   1.577   1.905   2.142
 9589TIP3    H228725   1.480   1.790   2.126
 9590TIP3   OH228726   4.193   4.897   4.121
 9590TIP3    H128727   4.259   4.879   4.188
 9590TIP3    H228728   4.110   4.872   4.162
 9591TIP3   OH228729   3.828   5.455   1.094
 9591TIP3    H128730   3.805   5.433   1.004
 9591TIP3    H228731   3.825   5.550   1.098
 9592TIP3   OH228732   4.632   6.280   4.633
 9592TIP3    H128733   4.673   6.227   4.564
 9592TIP3    H228734   4.538   6.266   4.620
 9593TIP3   OH228735   7.422   6.022   4.436
 9593TIP3    H128736   7.367   6.094   4.468
 9593TIP3    H228737   7.465   6.058   4.359
 9594TIP3   OH228738   2.073   2.723   4.704
 9594TIP3    H128739   2.143   2.746   4.642
 9594TIP3    H228740   1.993   2.724   4.651
 9595TIP3   OH228741   3.159   5.251   2.990
 9595TIP3    H128742   3.174   5.169   2.943
 9595TIP3    H228743   3.065   5.251   3.009
 9596TIP3   OH228744   4.930   2.264   3.672
 9596TIP3    H128745   4.838   2.254   3.697
 9596TIP3    H228746   4.929   2.260   3.576
 9597TIP3   OH228747   8.324   5.925   4.174
 9597TIP3    H128748   8.289   5.837   4.160
 9597TIP3    H228749   8.257   5.983   4.139
 9598TIP3   OH228750   2.711   6.224   6.693
 9598TIP3    H128751   2.724   6.319   6.696
 9598TIP3    H228752   2.778   6.189   6.752
 9599TIP3   OH228753   3.516   4.277   5.187
 9599TIP3    H128754   3.488   4.350   5.242
 9599TIP3    H228755   3.518   4.202   5.247
 9600TIP3   OH228756   1.319   6.014   3.716
 9600TIP3    H128757   1.318   5.942   3.653
 9600TIP3    H228758   1.331   6.092   3.662
 9601TIP3   OH228759   3.683   3.928   5.800
 9601TIP3    H128760   3.621   3.879   5.747
 9601TIP3    H228761   3.665   4.020   5.779
 9602TIP3   OH228762   1.094   1.218   1.292
 9602TIP3    H128763   1.044   1.169   1.226
 9602TIP3    H228764   1.173   1.166   1.305
 9603TIP3   OH228765   0.476   4.873   3.854
 9603TIP3    H128766   0.571   4.883   3.855
 9603TIP3    H228767   0.443   4.962   3.865
 9604TIP3   OH228768   6.510   3.828   4.438
 9604TIP3    H128769   6.540   3.826   4.348
 9604TIP3    H228770   6.420   3.863   4.432
 9605TIP3   OH228771   5.366   0.790   3.458
 9605TIP3    H128772   5.460   0.787   3.477
 9605TIP3    H228773   5.325   0.760   3.539
 9606TIP3   OH228774   1.623   0.817   5.652
 9606TIP3    H128775   1.696   0.767   5.689
 9606TIP3    H228776   1.661   0.864   5.578
 9607TIP3   OH228777   7.423   2.946   4.181
 9607TIP3    H128778   7.406   3.034   4.215
 9607TIP3    H228779   7.362   2.890   4.229
 9608TIP3   OH228780   1.418   5.472   0.424
 9608TIP3    H128781   1.507   5.457   0.458
 9608TIP3    H228782   1.416   5.422   0.342
 9609TIP3   OH228783   6.212   5.794   3.331
 9609TIP3    H128784   6.154   5.726   3.297
 9609TIP3    H228785   6.157   5.871   3.339
 9610TIP3   OH228786   0.294   1.762   2.404
 9610TIP3    H128787   0.310   1.810   2.322
 9610TIP3    H228788   0.244   1.685   2.378
 9611TIP3   OH228789   0.038   1.822   0.083
 9611TIP3    H128790  -0.016   1.765   0.029
 9611TIP3    H228791   0.112   1.847   0.026
 9612TIP3   OH228792   6.719   0.547   2.230
 9612TIP3    H128793   6.683   0.502   2.153
 9612TIP3    H228794   6.743   0.476   2.290
 9613TIP3   OH228795   8.279   4.514   0.289
 9613TIP3    H128796   8.304   4.540   0.377
 9613TIP3    H228797   8.217   4.580   0.261
 9614TIP3   OH228798   6.547   5.389   6.282
 9614TIP3    H128799   6.501   5.471   6.295
 9614TIP3    H228800   6.530   5.339   6.362
 9615TIP3   OH228801   2.803   1.540   1.267
 9615TIP3    H128802   2.808   1.445   1.254
 9615TIP3    H228803   2.892   1.566   1.290
 9616TIP3   OH228804   8.249   4.546   3.585
 9616TIP3    H128805   8.201   4.468   3.559
 9616TIP3    H228806   8.333   4.513   3.618
 9617TIP3   OH228807   7.586   5.873   3.203
 9617TIP3    H128808   7.512   5.871   3.263
 9617TIP3    H228809   7.664   5.868   3.259
 9618TIP3   OH228810   0.070   5.220   0.385
 9618TIP3    H128811   0.095   5.153   0.448
 9618TIP3    H228812   0.108   5.300   0.419
 9619TIP3   OH228813   6.788   1.037   5.170
 9619TIP3    H128814   6.735   0.979   5.224
 9619TIP3    H228815   6.742   1.042   5.087
 9620TIP3   OH228816   0.663   4.785   5.085
 9620TIP3    H128817   0.691   4.876   5.079
 9620TIP3    H228818   0.701   4.742   5.008
 9621TIP3   OH228819   6.270   0.672   0.161
 9621TIP3    H128820   6.225   0.747   0.199
 9621TIP3    H228821   6.361   0.681   0.189
 9622TIP3   OH228822   1.827   2.493   1.939
 9622TIP3    H128823   1.898   2.444   1.981
 9622TIP3    H228824   1.815   2.449   1.855
 9623TIP3   OH228825   2.468   6.900   4.727
 9623TIP3    H128826   2.474   6.874   4.819
 9623TIP3    H228827   2.397   6.964   4.724
 9624TIP3   OH228828   1.207   7.577   2.587
 9624TIP3    H128829   1.209   7.491   2.545
 9624TIP3    H228830   1.180   7.560   2.677
 9625TIP3   OH228831   3.021   2.963   2.173
 9625TIP3    H128832   3.084   2.894   2.153
 9625TIP3    H228833   2.955   2.956   2.105
 9626TIP3   OH228834   4.148   2.989   5.452
 9626TIP3    H128835   4.054   2.992   5.436
 9626TIP3    H228836   4.188   2.993   5.365
 9627TIP3   OH228837   1.660   4.940   3.652
 9627TIP3    H128838   1.695   4.901   3.571
 9627TIP3    H228839   1.565   4.940   3.639
 9628TIP3   OH228840   6.553   5.408   0.843
 9628TIP3    H128841   6.508   5.485   0.808
 9628TIP3    H228842   6.577   5.432   0.933
 9629TIP3   OH228843   6.579   2.218   1.013
 9629TIP3    H128844   6.633   2.228   0.934
 9629TIP3    H228845   6.575   2.124   1.027
 9630TIP3   OH228846   6.899   1.169   4.641
 9630TIP3    H128847   6.984   1.124   4.650
 9630TIP3    H228848   6.886   1.213   4.724
 9631TIP3   OH228849   4.260   0.651   1.125
 9631TIP3    H128850   4.298   0.571   1.161
 9631TIP3    H228851   4.216   0.623   1.045
 9632TIP3   OH228852   1.542   1.293   2.924
 9632TIP3    H128853   1.512   1.360   2.863
 9632TIP3    H228854   1.638   1.300   2.922
 9633TIP3   OH228855   0.890   6.639   5.414
 9633TIP3    H128856   0.829   6.704   5.451
 9633TIP3    H228857   0.834   6.566   5.388
 9634TIP3   OH228858   1.322   1.351   3.086
 9634TIP3    H128859   1.342   1.386   3.173
 9634TIP3    H228860   1.407   1.327   3.050
 9635TIP3   OH228861   5.638   0.425   0.855
 9635TIP3    H128862   5.619   0.472   0.774
 9635TIP3    H228863   5.568   0.361   0.863
 9636TIP3   OH228864   3.832   4.534   2.026
 9636TIP3    H128865   3.787   4.453   2.003
 9636TIP3    H228866   3.830   4.536   2.122
 9637TIP3   OH228867   2.943   3.292   5.853
 9637TIP3    H128868   2.882   3.333   5.792
 9637TIP3    H228869   2.904   3.207   5.873
 9638TIP3   OH228870   2.291   6.277   2.360
 9638TIP3    H128871   2.212   6.332   2.367
 9638TIP3    H228872   2.289   6.222   2.438
 9639TIP3   OH228873   7.667   3.899   1.709
 9639TIP3    H128874   7.616   3.820   1.692
 9639TIP3    H228875   7.602   3.965   1.732
 9640TIP3   OH228876   4.114   3.088   6.738
 9640TIP3    H128877   4.048   3.152   6.764
 9640TIP3    H228878   4.190   3.107   6.794
 9641TIP3   OH228879   6.219   3.494   2.028
 9641TIP3    H128880   6.295   3.449   2.064
 9641TIP3    H228881   6.149   3.478   2.092
 9642TIP3   OH228882   6.227   4.267   0.735
 9642TIP3    H128883   6.304   4.281   0.790
 9642TIP3    H228884   6.153   4.279   0.794
 9643TIP3   OH228885   1.702   6.356   5.531
 9643TIP3    H128886   1.680   6.431   5.475
 9643TIP3    H228887   1.796   6.366   5.548
 9644TIP3   OH228888   4.129   0.756   0.294
 9644TIP3    H128889   4.089   0.706   0.223
 9644TIP3    H228890   4.222   0.759   0.273
 9645TIP3   OH228891   7.989   2.538   1.677
 9645TIP3    H128892   7.898   2.555   1.651
 9645TIP3    H228893   7.985   2.455   1.724
 9646TIP3   OH228894   1.516   7.183   0.552
 9646TIP3    H128895   1.523   7.223   0.639
 9646TIP3    H228896   1.563   7.100   0.560
 9647TIP3   OH228897   3.307   1.669   5.060
 9647TIP3    H128898   3.303   1.765   5.067
 9647TIP3    H228899   3.353   1.653   4.978
 9648TIP3   OH228900   7.157   4.528   2.440
 9648TIP3    H128901   7.131   4.447   2.484
 9648TIP3    H228902   7.239   4.553   2.483
 9649TIP3   OH228903   3.383   2.776   5.515
 9649TIP3    H128904   3.426   2.858   5.491
 9649TIP3    H228905   3.309   2.802   5.570
 9650TIP3   OH228906   5.531   0.433   1.416
 9650TIP3    H128907   5.595   0.369   1.385
 9650TIP3    H228908   5.548   0.441   1.510
 9651TIP3   OH228909   6.401   0.520   2.342
 9651TIP3    H128910   6.472   0.504   2.405
 9651TIP3    H228911   6.322   0.489   2.387
 9652TIP3   OH228912   4.666   7.437   4.907
 9652TIP3    H128913   4.724   7.361   4.918
 9652TIP3    H228914   4.712   7.492   4.844
 9653TIP3   OH228915   6.353   5.014   2.185
 9653TIP3    H128916   6.343   5.098   2.229
 9653TIP3    H228917   6.409   5.033   2.110
 9654TIP3   OH228918   3.162   3.526   5.258
 9654TIP3    H128919   3.191   3.569   5.339
 9654TIP3    H228920   3.073   3.560   5.244
 9655TIP3   OH228921   4.938   7.720   3.022
 9655TIP3    H128922   4.880   7.667   3.076
 9655TIP3    H228923   4.937   7.807   3.062
 9656TIP3   OH228924   6.515   4.359   3.801
 9656TIP3    H128925   6.455   4.313   3.859
 9656TIP3    H228926   6.513   4.450   3.830
 9657TIP3   OH228927   5.296   5.663   3.469
 9657TIP3    H128928   5.272   5.573   3.448
 9657TIP3    H228929   5.223   5.715   3.436
 9658TIP3   OH228930   1.210   2.182   3.737
 9658TIP3    H128931   1.119   2.155   3.729
 9658TIP3    H228932   1.256   2.102   3.763
 9659TIP3   OH228933   0.511   7.678   5.622
 9659TIP3    H128934   0.550   7.636   5.698
 9659TIP3    H228935   0.417   7.683   5.643
 9660TIP3   OH228936   7.295   3.193   2.709
 9660TIP3    H128937   7.257   3.107   2.726
 9660TIP3    H228938   7.332   3.220   2.793
 9661TIP3   OH228939   1.840   0.680   5.702
 9661TIP3    H128940   1.829   0.607   5.763
 9661TIP3    H228941   1.933   0.681   5.681
 9662TIP3   OH228942   5.481   0.165   1.045
 9662TIP3    H128943   5.404   0.139   0.994
 9662TIP3    H228944   5.464   0.256   1.070
 9663TIP3   OH228945   8.135   3.065   5.079
 9663TIP3    H128946   8.144   3.013   4.999
 9663TIP3    H228947   8.074   3.015   5.133
 9664TIP3   OH228948   0.802   1.448   4.957
 9664TIP3    H128949   0.843   1.430   4.872
 9664TIP3    H228950   0.862   1.509   5.000
 9665TIP3   OH228951   3.896   6.565   6.648
 9665TIP3    H128952   3.917   6.584   6.739
 9665TIP3    H228953   3.872   6.650   6.611
 9666TIP3   OH228954   7.528   0.832   0.457
 9666TIP3    H128955   7.483   0.890   0.518
 9666TIP3    H228956   7.617   0.825   0.491
 9667TIP3   OH228957   2.423   2.302   4.841
 9667TIP3    H128958   2.374   2.375   4.803
 9667TIP3    H228959   2.433   2.240   4.768
 9668TIP3   OH228960   7.216   2.585   5.441
 9668TIP3    H128961   7.218   2.660   5.500
 9668TIP3    H228962   7.133   2.593   5.395
 9669TIP3   OH228963   0.975   6.368   3.113
 9669TIP3    H128964   0.992   6.462   3.118
 9669TIP3    H228965   1.061   6.328   3.103
 9670TIP3   OH228966   2.029   1.579   5.922
 9670TIP3    H128967   2.119   1.549   5.932
 9670TIP3    H228968   1.976   1.510   5.961
 9671TIP3   OH228969   0.044   1.162   5.852
 9671TIP3    H128970   0.127   1.116   5.838
 9671TIP3    H228971   0.028   1.208   5.769
 9672TIP3   OH228972   4.517   5.460   1.191
 9672TIP3    H128973   4.603   5.424   1.170
 9672TIP3    H228974   4.533   5.521   1.263
 9673TIP3   OH228975   3.746   2.695   4.824
 9673TIP3    H128976   3.682   2.740   4.879
 9673TIP3    H228977   3.800   2.766   4.788
 9674TIP3   OH228978   0.720   0.727   4.859
 9674TIP3    H128979   0.776   0.752   4.931
 9674TIP3    H228980   0.776   0.675   4.801
 9675TIP3   OH228981   5.825   2.320   4.416
 9675TIP3    H128982   5.794   2.391   4.359
 9675TIP3    H228983   5.914   2.301   4.384
 9676TIP3   OH228984   7.476   6.454   2.468
 9676TIP3    H128985   7.428   6.401   2.532
 9676TIP3    H228986   7.491   6.395   2.394
 9677TIP3   OH228987   8.163   6.456   3.305
 9677TIP3    H128988   8.124   6.435   3.220
 9677TIP3    H228989   8.157   6.376   3.355
 9678TIP3   OH228990   7.093   3.686   3.671
 9678TIP3    H128991   7.084   3.777   3.646
 9678TIP3    H228992   7.016   3.668   3.725
 9679TIP3   OH228993   6.791   5.654   4.979
 9679TIP3    H128994   6.791   5.661   5.075
 9679TIP3    H228995   6.866   5.598   4.959
 9680TIP3   OH228996   5.512   3.295   2.260
 9680TIP3    H128997   5.554   3.238   2.196
 9680TIP3    H228998   5.470   3.363   2.209
 9681TIP3   OH228999   5.781   3.394   6.723
 9681TIP3    H129000   5.780   3.408   6.628
 9681TIP3    H229001   5.838   3.318   6.736
 9682TIP3   OH229002   7.275   1.001   2.003
 9682TIP3    H129003   7.317   0.926   2.047
 9682TIP3    H229004   7.207   0.961   1.949
 9683TIP3   OH229005   5.723   5.791   5.293
 9683TIP3    H129006   5.653   5.726   5.292
 9683TIP3    H229007   5.689   5.862   5.239
 9684TIP3   OH229008   4.094   3.531   3.418
 9684TIP3    H129009   4.065   3.475   3.345
 9684TIP3    H229010   4.019   3.587   3.437
 9685TIP3   OH229011   0.639   3.439   4.512
 9685TIP3    H129012   0.588   3.470   4.587
 9685TIP3    H229013   0.709   3.386   4.551
 9686TIP3   OH229014   1.497   4.328   6.347
 9686TIP3    H129015   1.434   4.341   6.419
 9686TIP3    H229016   1.457   4.373   6.273
 9687TIP3   OH229017   4.068   1.801   2.296
 9687TIP3    H129018   4.129   1.857   2.247
 9687TIP3    H229019   4.110   1.790   2.382
 9688TIP3   OH229020   3.002   1.056   0.689
 9688TIP3    H129021   3.097   1.064   0.693
 9688TIP3    H229022   2.986   0.986   0.626
 9689TIP3   OH229023   4.681   7.110   1.170
 9689TIP3    H129024   4.754   7.089   1.113
 9689TIP3    H229025   4.721   7.144   1.250
 9690TIP3   OH229026   1.289   2.621   0.887
 9690TIP3    H129027   1.293   2.717   0.888
 9690TIP3    H229028   1.297   2.596   0.980
 9691TIP3   OH229029   6.091   5.373   1.288
 9691TIP3    H129030   6.010   5.422   1.306
 9691TIP3    H229031   6.061   5.291   1.248
 9692TIP3   OH229032   0.414   7.710   2.832
 9692TIP3    H129033   0.495   7.760   2.825
 9692TIP3    H229034   0.378   7.710   2.743
 9693TIP3   OH229035   6.966   1.638   1.269
 9693TIP3    H129036   7.040   1.693   1.243
 9693TIP3    H229037   7.006   1.560   1.306
 9694TIP3   OH229038   8.194   7.110   6.611
 9694TIP3    H129039   8.140   7.033   6.628
 9694TIP3    H229040   8.134   7.174   6.574
 9695TIP3   OH229041   3.032   2.825   2.447
 9695TIP3    H129042   2.976   2.901   2.432
 9695TIP3    H229043   3.061   2.799   2.359
 9696TIP3   OH229044   1.292   3.981   6.393
 9696TIP3    H129045   1.210   3.941   6.363
 9696TIP3    H229046   1.350   3.977   6.318
 9697TIP3   OH229047   0.208   0.693   2.618
 9697TIP3    H129048   0.279   0.630   2.635
 9697TIP3    H229049   0.234   0.771   2.668
 9698TIP3   OH229050   5.045   0.846   1.783
 9698TIP3    H129051   5.115   0.882   1.729
 9698TIP3    H229052   4.964   0.870   1.737
 9699TIP3   OH229053   2.165   2.048   4.886
 9699TIP3    H129054   2.251   2.037   4.926
 9699TIP3    H229055   2.183   2.082   4.798
 9700TIP3   OH229056   0.542   0.677   0.038
 9700TIP3    H129057   0.528   0.588   0.005
 9700TIP3    H229058   0.476   0.730  -0.006
 9701TIP3   OH229059   2.974   0.548   1.742
 9701TIP3    H129060   2.991   0.547   1.647
 9701TIP3    H229061   2.953   0.639   1.761
 9702TIP3   OH229062   7.878   4.091   1.540
 9702TIP3    H129063   7.881   3.995   1.541
 9702TIP3    H229064   7.817   4.114   1.610
 9703TIP3   OH229065   3.016   3.966   0.745
 9703TIP3    H129066   3.031   4.053   0.782
 9703TIP3    H229067   2.990   3.913   0.820
 9704TIP3   OH229068   0.029   1.891   1.633
 9704TIP3    H129069   0.069   1.978   1.636
 9704TIP3    H229070   0.087   1.840   1.577
 9705TIP3   OH229071   5.567   7.718   5.758
 9705TIP3    H129072   5.634   7.776   5.795
 9705TIP3    H229073   5.495   7.721   5.821
 9706TIP3   OH229074   4.306   3.186   0.628
 9706TIP3    H129075   4.382   3.228   0.670
 9706TIP3    H229076   4.322   3.196   0.534
 9707TIP3   OH229077   0.119   2.226   0.229
 9707TIP3    H129078   0.177   2.219   0.153
 9707TIP3    H229079   0.036   2.190   0.200
 9708TIP3   OH229080   7.913   7.048   0.921
 9708TIP3    H129081   7.997   7.087   0.946
 9708TIP3    H229082   7.893   6.988   0.992
 9709TIP3   OH229083   4.904   7.562   0.684
 9709TIP3    H129084   4.864   7.637   0.729
 9709TIP3    H229085   4.851   7.551   0.605
 9710TIP3   OH229086   3.079   5.967   1.403
 9710TIP3    H129087   2.998   6.008   1.433
 9710TIP3    H229088   3.053   5.879   1.375
 9711TIP3   OH229089   3.564   2.924   6.689
 9711TIP3    H129090   3.560   3.012   6.728
 9711TIP3    H229091   3.473   2.901   6.674
 9712TIP3   OH229092   4.217   5.757   2.761
 9712TIP3    H129093   4.227   5.780   2.669
 9712TIP3    H229094   4.249   5.667   2.767
 9713TIP3   OH229095   7.085   2.015   1.079
 9713TIP3    H129096   7.063   1.963   1.002
 9713TIP3    H229097   7.117   1.951   1.143
 9714TIP3   OH229098   7.553   7.284   5.942
 9714TIP3    H129099   7.643   7.293   5.909
 9714TIP3    H229100   7.500   7.333   5.880
 9715TIP3   OH229101   3.523   1.619   1.477
 9715TIP3    H129102   3.463   1.567   1.423
 9715TIP3    H229103   3.499   1.710   1.457
 9716TIP3   OH229104   2.306   2.130   3.241
 9716TIP3    H129105   2.352   2.047   3.235
 9716TIP3    H229106   2.215   2.110   3.220
 9717TIP3   OH229107   0.164   0.034   3.844
 9717TIP3    H129108   0.134   0.122   3.819
 9717TIP3    H229109   0.085  -0.019   3.846
 9718TIP3   OH229110   4.876   0.265   5.397
 9718TIP3    H129111   4.855   0.306   5.481
 9718TIP3    H229112   4.969   0.282   5.384
 9719TIP3   OH229113   5.295   0.443   2.281
 9719TIP3    H129114   5.358   0.375   2.260
 9719TIP3    H229115   5.212   0.397   2.292
 9720TIP3   OH229116   3.442   4.575   1.697
 9720TIP3    H129117   3.454   4.484   1.670
 9720TIP3    H229118   3.523   4.618   1.671
 9721TIP3   OH229119   7.196   4.565   2.157
 9721TIP3    H129120   7.150   4.536   2.236
 9721TIP3    H229121   7.251   4.490   2.132
 9722TIP3   OH229122   2.528   1.334   0.988
 9722TIP3    H129123   2.455   1.382   0.950
 9722TIP3    H229124   2.498   1.244   0.993
 9723TIP3   OH229125   7.124   7.731   4.207
 9723TIP3    H129126   7.056   7.669   4.235
 9723TIP3    H229127   7.107   7.744   4.114
 9724TIP3   OH229128   5.676   0.990   0.113
 9724TIP3    H129129   5.742   0.942   0.065
 9724TIP3    H229130   5.599   0.933   0.113
 9725TIP3   OH229131   7.681   6.439   5.232
 9725TIP3    H129132   7.593   6.407   5.213
 9725TIP3    H229133   7.668   6.530   5.258
 9726TIP3   OH229134   5.133   3.678   0.860
 9726TIP3    H129135   5.043   3.683   0.891
 9726TIP3    H229136   5.149   3.584   0.850
 9727TIP3   OH229137   2.139   3.768   5.201
 9727TIP3    H129138   2.045   3.761   5.180
 9727TIP3    H229139   2.183   3.738   5.122
 9728TIP3   OH229140   3.175   7.802   1.744
 9728TIP3    H129141   3.131   7.808   1.660
 9728TIP3    H229142   3.261   7.842   1.730
 9729TIP3   OH229143   1.723   1.179   5.024
 9729TIP3    H129144   1.632   1.179   5.055
 9729TIP3    H229145   1.717   1.164   4.930
 9730TIP3   OH229146   6.808   1.255   6.536
 9730TIP3    H129147   6.840   1.339   6.501
 9730TIP3    H229148   6.713   1.261   6.528
 9731TIP3   OH229149   4.640   4.561   1.960
 9731TIP3    H129150   4.590   4.558   2.042
 9731TIP3    H229151   4.624   4.649   1.925
 9732TIP3   OH229152   1.044   3.275   3.896
 9732TIP3    H129153   1.085   3.356   3.928
 9732TIP3    H229154   0.977   3.255   3.960
 9733TIP3   OH229155   5.780   6.773   2.248
 9733TIP3    H129156   5.796   6.843   2.311
 9733TIP3    H229157   5.829   6.698   2.281
 9734TIP3   OH229158   7.394   3.668   4.115
 9734TIP3    H129159   7.426   3.739   4.170
 9734TIP3    H229160   7.324   3.708   4.063
 9735TIP3   OH229161   6.782   2.484   4.605
 9735TIP3    H129162   6.856   2.435   4.642
 9735TIP3    H229163   6.805   2.496   4.513
 9736TIP3   OH229164   0.270   3.580   2.483
 9736TIP3    H129165   0.185   3.568   2.525
 9736TIP3    H229166   0.304   3.661   2.522
 9737TIP3   OH229167   6.865   2.825   6.187
 9737TIP3    H129168   6.948   2.837   6.233
 9737TIP3    H229169   6.849   2.731   6.189
 9738TIP3   OH229170   0.371   4.065   2.742
 9738TIP3    H129171   0.423   4.094   2.817
 9738TIP3    H229172   0.289   4.114   2.750
 9739TIP3   OH229173   2.373   6.153   5.626
 9739TIP3    H129174   2.459   6.137   5.665
 9739TIP3    H229175   2.347   6.067   5.591
 9740TIP3   OH229176   1.836   4.869   6.277
 9740TIP3    H129177   1.750   4.910   6.285
 9740TIP3    H229178   1.822   4.778   6.305
 9741TIP3   OH229179   2.262   5.237  -0.005
 9741TIP3    H129180   2.248   5.329   0.017
 9741TIP3    H229181   2.345   5.235  -0.052
 9742TIP3   OH229182   7.112   6.066   5.768
 9742TIP3    H129183   7.193   6.050   5.816
 9742TIP3    H229184   7.044   6.023   5.820
 9743TIP3   OH229185   1.225   6.542   4.661
 9743TIP3    H129186   1.268   6.554   4.745
 9743TIP3    H229187   1.170   6.620   4.651
 9744TIP3   OH229188   4.963   5.212   3.056
 9744TIP3    H129189   5.037   5.159   3.025
 9744TIP3    H229190   5.002   5.271   3.121
 9745TIP3   OH229191   3.732   1.399   4.057
 9745TIP3    H129192   3.705   1.341   3.986
 9745TIP3    H229193   3.654   1.409   4.112
 9746TIP3   OH229194   3.450   0.404   2.978
 9746TIP3    H129195   3.371   0.459   2.973
 9746TIP3    H229196   3.513   0.449   2.922
 9747TIP3   OH229197   5.190   4.492   6.718
 9747TIP3    H129198   5.135   4.567   6.740
 9747TIP3    H229199   5.223   4.461   6.803
 9748TIP3   OH229200   0.415   1.622   2.605
 9748TIP3    H129201   0.364   1.541   2.603
 9748TIP3    H229202   0.379   1.676   2.535
 9749TIP3   OH229203   5.539   0.289   2.265
 9749TIP3    H129204   5.554   0.207   2.312
 9749TIP3    H229205   5.623   0.334   2.267
 9750TIP3   OH229206   3.097   2.521   4.634
 9750TIP3    H129207   3.025   2.577   4.661
 9750TIP3    H229208   3.055   2.443   4.598
 9751TIP3   OH229209   7.100   6.402   4.679
 9751TIP3    H129210   7.109   6.454   4.599
 9751TIP3    H229211   7.188   6.402   4.718
 9752TIP3   OH229212   2.952   1.952   0.870
 9752TIP3    H129213   2.968   1.896   0.945
 9752TIP3    H229214   2.999   2.033   0.890
 9753TIP3   OH229215   8.072   1.923   6.314
 9753TIP3    H129216   7.996   1.942   6.258
 9753TIP3    H229217   8.147   1.932   6.256
 9754TIP3   OH229218   2.621   6.895   1.720
 9754TIP3    H129219   2.694   6.834   1.719
 9754TIP3    H229220   2.599   6.907   1.628
 9755TIP3   OH229221   7.180   0.436   2.825
 9755TIP3    H129222   7.143   0.478   2.748
 9755TIP3    H229223   7.180   0.505   2.892
 9756TIP3   OH229224   3.706   6.745   6.365
 9756TIP3    H129225   3.672   6.776   6.449
 9756TIP3    H229226   3.791   6.789   6.357
 9757TIP3   OH229227   4.926   1.753   6.239
 9757TIP3    H129228   4.961   1.820   6.298
 9757TIP3    H229229   4.873   1.697   6.295
 9758TIP3   OH229230   2.183   2.545   5.553
 9758TIP3    H129231   2.220   2.480   5.613
 9758TIP3    H229232   2.252   2.560   5.489
 9759TIP3   OH229233   3.297   0.543   0.197
 9759TIP3    H129234   3.312   0.465   0.249
 9759TIP3    H229235   3.376   0.596   0.209
 9760TIP3   OH229236   2.522   1.699   6.063
 9760TIP3    H129237   2.578   1.630   6.097
 9760TIP3    H229238   2.481   1.661   5.986
 9761TIP3   OH229239   7.631   7.317   3.293
 9761TIP3    H129240   7.542   7.309   3.326
 9761TIP3    H229241   7.633   7.404   3.252
 9762TIP3   OH229242   2.118   6.330   3.584
 9762TIP3    H129243   2.080   6.344   3.497
 9762TIP3    H229244   2.042   6.316   3.641
 9763TIP3   OH229245   0.500   3.549   3.473
 9763TIP3    H129246   0.534   3.620   3.527
 9763TIP3    H229247   0.473   3.591   3.391
 9764TIP3   OH229248   0.615   4.333   1.518
 9764TIP3    H129249   0.589   4.310   1.429
 9764TIP3    H229250   0.690   4.392   1.507
 9765TIP3   OH229251   6.491   6.532   1.178
 9765TIP3    H129252   6.463   6.602   1.236
 9765TIP3    H229253   6.492   6.454   1.233
 9766TIP3   OH229254   4.513   5.801   3.567
 9766TIP3    H129255   4.441   5.739   3.578
 9766TIP3    H229256   4.565   5.792   3.647
 9767TIP3   OH229257   3.651   6.644   0.299
 9767TIP3    H129258   3.606   6.626   0.216
 9767TIP3    H229259   3.630   6.569   0.355
 9768TIP3   OH229260   1.353   7.771   6.679
 9768TIP3    H129261   1.275   7.722   6.653
 9768TIP3    H229262   1.380   7.733   6.762
 9769TIP3   OH229263   5.106   6.694   0.614
 9769TIP3    H129264   5.181   6.683   0.556
 9769TIP3    H229265   5.068   6.606   0.621
 9770TIP3   OH229266   7.869   3.490   6.040
 9770TIP3    H129267   7.804   3.559   6.032
 9770TIP3    H229268   7.846   3.445   6.122
 9771TIP3   OH229269   3.792   1.985   5.747
 9771TIP3    H129270   3.870   1.996   5.801
 9771TIP3    H229271   3.789   2.064   5.693
 9772TIP3   OH229272  -0.005   4.326   2.487
 9772TIP3    H129273   0.059   4.261   2.515
 9772TIP3    H229274   0.015   4.341   2.395
 9773TIP3   OH229275   2.512   4.528   3.167
 9773TIP3    H129276   2.428   4.565   3.139
 9773TIP3    H229277   2.515   4.543   3.261
 9774TIP3   OH229278   0.755   0.977   6.363
 9774TIP3    H129279   0.829   0.932   6.321
 9774TIP3    H229280   0.700   0.906   6.396
 9775TIP3   OH229281   0.744   6.616   0.542
 9775TIP3    H129282   0.726   6.681   0.473
 9775TIP3    H229283   0.735   6.532   0.498
 9776TIP3   OH229284   4.016   1.251   4.984
 9776TIP3    H129285   4.072   1.192   5.035
 9776TIP3    H229286   4.003   1.206   4.900
 9777TIP3   OH229287   6.458   7.252   6.069
 9777TIP3    H129288   6.501   7.190   6.010
 9777TIP3    H229289   6.375   7.210   6.091
 9778TIP3   OH229290   3.733   4.217   2.944
 9778TIP3    H129291   3.652   4.247   2.904
 9778TIP3    H229292   3.763   4.147   2.886
 9779TIP3   OH229293   7.489   7.424   2.588
 9779TIP3    H129294   7.522   7.506   2.624
 9779TIP3    H229295   7.423   7.395   2.651
 9780TIP3   OH229296   3.666   0.130   5.501
 9780TIP3    H129297   3.648   0.196   5.434
 9780TIP3    H229298   3.580   0.104   5.533
 9781TIP3   OH229299   3.830   2.729   1.814
 9781TIP3    H129300   3.820   2.730   1.909
 9781TIP3    H229301   3.741   2.745   1.781
 9782TIP3   OH229302   1.670   6.632   3.063
 9782TIP3    H129303   1.701   6.722   3.068
 9782TIP3    H229304   1.749   6.581   3.043
 9783TIP3   OH229305   1.686   2.366   4.503
 9783TIP3    H129306   1.747   2.342   4.574
 9783TIP3    H229307   1.722   2.323   4.426
 9784TIP3   OH229308   7.261   4.245   3.522
 9784TIP3    H129309   7.285   4.261   3.613
 9784TIP3    H229310   7.166   4.232   3.524
 9785TIP3   OH229311   7.405   4.543   1.322
 9785TIP3    H129312   7.380   4.612   1.260
 9785TIP3    H229313   7.496   4.564   1.344
 9786TIP3   OH229314   7.151   7.676   3.562
 9786TIP3    H129315   7.115   7.626   3.489
 9786TIP3    H229316   7.111   7.763   3.553
 9787TIP3   OH229317   5.118   0.430   3.128
 9787TIP3    H129318   5.202   0.387   3.119
 9787TIP3    H229319   5.129   0.487   3.204
 9788TIP3   OH229320   2.940   4.113   6.585
 9788TIP3    H129321   3.032   4.122   6.608
 9788TIP3    H229322   2.893   4.128   6.667
 9789TIP3   OH229323   5.296   0.146   5.173
 9789TIP3    H129324   5.351   0.068   5.161
 9789TIP3    H229325   5.310   0.198   5.094
 9790TIP3   OH229326   3.752   3.180   0.478
 9790TIP3    H129327   3.838   3.221   0.478
 9790TIP3    H229328   3.759   3.109   0.542
 9791TIP3   OH229329   0.443   2.312   0.948
 9791TIP3    H129330   0.469   2.363   1.025
 9791TIP3    H229331   0.482   2.358   0.874
 9792TIP3   OH229332   1.561   3.540   2.439
 9792TIP3    H129333   1.473   3.505   2.449
 9792TIP3    H229334   1.590   3.559   2.529
 9793TIP3   OH229335   6.953   4.200   2.679
 9793TIP3    H129336   6.923   4.284   2.645
 9793TIP3    H229337   7.046   4.211   2.694
 9794TIP3   OH229338   0.552   3.388   5.966
 9794TIP3    H129339   0.555   3.359   5.875
 9794TIP3    H229340   0.474   3.444   5.972
 9795TIP3   OH229341   6.630   3.049   4.545
 9795TIP3    H129342   6.719   3.060   4.514
 9795TIP3    H229343   6.598   3.138   4.560
 9796TIP3   OH229344   2.655   6.732   5.420
 9796TIP3    H129345   2.586   6.695   5.365
 9796TIP3    H229346   2.693   6.657   5.466
 9797TIP3   OH229347   8.225   3.235   1.144
 9797TIP3    H129348   8.174   3.289   1.084
 9797TIP3    H229349   8.259   3.164   1.090
 9798TIP3   OH229350   1.446   6.675   1.799
 9798TIP3    H129351   1.453   6.581   1.813
 9798TIP3    H229352   1.356   6.689   1.769
 9799TIP3   OH229353   1.502   1.200   6.606
 9799TIP3    H129354   1.519   1.160   6.692
 9799TIP3    H229355   1.469   1.128   6.552
 9800TIP3   OH229356   0.717   4.982   0.926
 9800TIP3    H129357   0.644   5.014   0.873
 9800TIP3    H229358   0.706   4.887   0.926
 9801TIP3   OH229359   4.215   6.578   0.417
 9801TIP3    H129360   4.216   6.505   0.479
 9801TIP3    H229361   4.193   6.655   0.470
 9802TIP3   OH229362   6.917   5.588   4.354
 9802TIP3    H129363   6.879   5.672   4.380
 9802TIP3    H229364   6.938   5.599   4.261
 9803TIP3   OH229365   7.534   1.906   0.105
 9803TIP3    H129366   7.526   1.929   0.198
 9803TIP3    H229367   7.600   1.967   0.071
 9804TIP3   OH229368   2.602   0.007   1.260
 9804TIP3    H129369   2.612   0.074   1.192
 9804TIP3    H229370   2.507  -0.004   1.269
 9805TIP3   OH229371   5.269   2.373   2.875
 9805TIP3    H129372   5.322   2.321   2.935
 9805TIP3    H229373   5.178   2.348   2.895
 9806TIP3   OH229374   2.413   3.026   4.633
 9806TIP3    H129375   2.331   3.063   4.599
 9806TIP3    H229376   2.394   3.010   4.726
 9807TIP3   OH229377   1.337   5.843   3.118
 9807TIP3    H129378   1.411   5.876   3.068
 9807TIP3    H229379   1.264   5.902   3.094
 9808TIP3   OH229380   6.145   4.518   4.551
 9808TIP3    H129381   6.178   4.459   4.484
 9808TIP3    H229382   6.052   4.498   4.557
 9809TIP3   OH229383   7.995   0.735   1.657
 9809TIP3    H129384   7.990   0.704   1.748
 9809TIP3    H229385   8.058   0.676   1.616
 9810TIP3   OH229386   5.885   1.765   5.266
 9810TIP3    H129387   5.867   1.708   5.191
 9810TIP3    H229388   5.847   1.849   5.242
 9811TIP3   OH229389   3.438   2.732   1.894
 9811TIP3    H129390   3.498   2.746   1.967
 9811TIP3    H229391   3.495   2.718   1.818
 9812TIP3   OH229392   1.164   6.868   0.376
 9812TIP3    H129393   1.246   6.905   0.343
 9812TIP3    H229394   1.178   6.773   0.374
 9813TIP3   OH229395   1.770   0.490   6.196
 9813TIP3    H129396   1.824   0.506   6.119
 9813TIP3    H229397   1.824   0.518   6.270
 9814TIP3   OH229398   0.905   1.587   1.093
 9814TIP3    H129399   0.931   1.624   1.009
 9814TIP3    H229400   0.969   1.517   1.109
 9815TIP3   OH229401   7.540   4.137   3.930
 9815TIP3    H129402   7.527   4.092   4.013
 9815TIP3    H229403   7.550   4.066   3.866
 9816TIP3   OH229404   2.858   6.702   0.921
 9816TIP3    H129405   2.817   6.696   0.835
 9816TIP3    H229406   2.791   6.670   0.982
 9817TIP3   OH229407   5.944   3.327   5.727
 9817TIP3    H129408   5.958   3.392   5.658
 9817TIP3    H229409   5.904   3.253   5.682
 9818TIP3   OH229410   4.293   5.938   1.332
 9818TIP3    H129411   4.357   5.896   1.274
 9818TIP3    H229412   4.327   5.922   1.420
 9819TIP3   OH229413   3.383   3.490   5.753
 9819TIP3    H129414   3.310   3.497   5.814
 9819TIP3    H229415   3.436   3.418   5.787
 9820TIP3   OH229416   5.665   7.822   1.640
 9820TIP3    H129417   5.715   7.743   1.660
 9820TIP3    H229418   5.728   7.893   1.649
 9821TIP3   OH229419   0.961   0.430   6.545
 9821TIP3    H129420   0.978   0.352   6.597
 9821TIP3    H229421   1.038   0.486   6.558
 9822TIP3   OH229422   2.874   2.017   1.203
 9822TIP3    H129423   2.919   2.074   1.265
 9822TIP3    H229424   2.943   1.960   1.168
 9823TIP3   OH229425   3.471   2.848   2.629
 9823TIP3    H129426   3.502   2.759   2.647
 9823TIP3    H229427   3.437   2.844   2.540
 9824TIP3   OH229428   3.295   6.788   3.284
 9824TIP3    H129429   3.375   6.832   3.312
 9824TIP3    H229430   3.276   6.825   3.198
 9825TIP3   OH229431   3.089   2.215   4.407
 9825TIP3    H129432   3.101   2.124   4.434
 9825TIP3    H229433   3.178   2.250   4.402
 9826TIP3   OH229434   1.736   4.555   1.510
 9826TIP3    H129435   1.811   4.531   1.455
 9826TIP3    H229436   1.681   4.477   1.511
 9827TIP3   OH229437   2.187   2.152   4.641
 9827TIP3    H129438   2.165   2.107   4.560
 9827TIP3    H229439   2.126   2.225   4.646
 9828TIP3   OH229440   0.423   6.895   4.872
 9828TIP3    H129441   0.414   6.942   4.955
 9828TIP3    H229442   0.418   6.964   4.805
 9829TIP3   OH229443   3.275   6.133   1.681
 9829TIP3    H129444   3.364   6.161   1.700
 9829TIP3    H229445   3.220   6.204   1.711
 9830TIP3   OH229446   0.371   0.461   2.273
 9830TIP3    H129447   0.424   0.540   2.259
 9830TIP3    H229448   0.365   0.422   2.186
 9831TIP3   OH229449   3.908   3.698   6.209
 9831TIP3    H129450   3.962   3.749   6.269
 9831TIP3    H229451   3.835   3.755   6.188
 9832TIP3   OH229452   4.362   2.893   4.585
 9832TIP3    H129453   4.305   2.891   4.508
 9832TIP3    H229454   4.336   2.973   4.631
 9833TIP3   OH229455   5.720   1.065   3.810
 9833TIP3    H129456   5.717   0.974   3.841
 9833TIP3    H229457   5.702   1.117   3.889
 9834TIP3   OH229458   3.294   6.632   0.941
 9834TIP3    H129459   3.348   6.558   0.966
 9834TIP3    H229460   3.230   6.596   0.880
 9835TIP3   OH229461   0.734   5.000   6.064
 9835TIP3    H129462   0.828   4.993   6.050
 9835TIP3    H229463   0.710   5.086   6.029
 9836TIP3   OH229464   0.511   3.922   1.568
 9836TIP3    H129465   0.568   3.845   1.567
 9836TIP3    H229466   0.475   3.927   1.480
 9837TIP3   OH229467   7.663   6.002   1.185
 9837TIP3    H129468   7.706   5.928   1.227
 9837TIP3    H229469   7.570   5.993   1.209
 9838TIP3   OH229470   6.981   3.796   3.317
 9838TIP3    H129471   6.906   3.748   3.352
 9838TIP3    H229472   7.046   3.729   3.298
 9839TIP3   OH229473   1.469   7.522   3.958
 9839TIP3    H129474   1.533   7.555   3.895
 9839TIP3    H229475   1.396   7.583   3.954
 9840TIP3   OH229476   5.929   0.829   0.156
 9840TIP3    H129477   6.000   0.872   0.202
 9840TIP3    H229478   5.957   0.827   0.065
 9841TIP3   OH229479   3.144   7.673   5.416
 9841TIP3    H129480   3.189   7.623   5.347
 9841TIP3    H229481   3.208   7.738   5.444
 9842TIP3   OH229482   4.923   3.717   0.672
 9842TIP3    H129483   4.988   3.695   0.605
 9842TIP3    H229484   4.930   3.812   0.683
 9843TIP3   OH229485   6.780   1.154   4.276
 9843TIP3    H129486   6.862   1.116   4.247
 9843TIP3    H229487   6.759   1.108   4.357
 9844TIP3   OH229488   3.008   5.676   1.778
 9844TIP3    H129489   3.058   5.750   1.744
 9844TIP3    H229490   2.950   5.651   1.706
 9845TIP3   OH229491   2.642   6.660   3.496
 9845TIP3    H129492   2.645   6.736   3.554
 9845TIP3    H229493   2.677   6.692   3.413
 9846TIP3   OH229494   0.195   3.102   6.253
 9846TIP3    H129495   0.226   3.182   6.211
 9846TIP3    H229496   0.137   3.132   6.323
 9847TIP3   OH229497   2.196   2.228   6.016
 9847TIP3    H129498   2.108   2.200   6.042
 9847TIP3    H229499   2.251   2.205   6.091
 9848TIP3   OH229500   2.744   1.067   6.631
 9848TIP3    H129501   2.831   1.106   6.641
 9848TIP3    H229502   2.753   0.979   6.666
 9849TIP3   OH229503   2.520   2.368   4.227
 9849TIP3    H129504   2.598   2.351   4.173
 9849TIP3    H229505   2.528   2.307   4.300
 9850TIP3   OH229506   6.090   3.724   1.548
 9850TIP3    H129507   6.002   3.699   1.520
 9850TIP3    H229508   6.076   3.801   1.603
 9851TIP3   OH229509   0.011   1.595   5.591
 9851TIP3    H129510   0.016   1.502   5.613
 9851TIP3    H229511   0.038   1.599   5.499
 9852TIP3   OH229512   5.652   6.336   3.263
 9852TIP3    H129513   5.612   6.276   3.200
 9852TIP3    H229514   5.695   6.402   3.209
 9853TIP3   OH229515   2.693   2.928   3.645
 9853TIP3    H129516   2.643   2.974   3.578
 9853TIP3    H229517   2.629   2.872   3.689
 9854TIP3   OH229518   2.230   6.341   4.653
 9854TIP3    H129519   2.218   6.402   4.725
 9854TIP3    H229520   2.324   6.325   4.650
 9855TIP3   OH229521   1.710   4.476   4.422
 9855TIP3    H129522   1.725   4.534   4.497
 9855TIP3    H229523   1.623   4.438   4.438
 9856TIP3   OH229524   4.514   5.726   5.458
 9856TIP3    H129525   4.455   5.673   5.405
 9856TIP3    H229526   4.548   5.792   5.397
 9857TIP3   OH229527   4.819   0.238   2.409
 9857TIP3    H129528   4.843   0.290   2.485
 9857TIP3    H229529   4.730   0.266   2.387
 9858TIP3   OH229530   3.918   0.895   2.618
 9858TIP3    H129531   3.976   0.919   2.690
 9858TIP3    H229532   3.977   0.871   2.546
 9859TIP3   OH229533   6.075   5.438   5.557
 9859TIP3    H129534   6.024   5.481   5.488
 9859TIP3    H229535   6.019   5.366   5.586
 9860TIP3   OH229536   6.942   1.954   0.015
 9860TIP3    H129537   6.967   2.017   0.082
 9860TIP3    H229538   6.852   1.977  -0.008
 9861TIP3   OH229539   3.201   4.405   5.957
 9861TIP3    H129540   3.153   4.486   5.942
 9861TIP3    H229541   3.187   4.354   5.877
 9862TIP3   OH229542   4.951   4.875   0.659
 9862TIP3    H129543   4.874   4.913   0.700
 9862TIP3    H229544   4.961   4.790   0.701
 9863TIP3   OH229545   7.898   7.375   3.722
 9863TIP3    H129546   7.883   7.398   3.631
 9863TIP3    H229547   7.992   7.387   3.734
 9864TIP3   OH229548   2.919   1.138   0.379
 9864TIP3    H129549   2.828   1.111   0.386
 9864TIP3    H229550   2.923   1.190   0.299
 9865TIP3   OH229551   7.296   3.270   3.249
 9865TIP3    H129552   7.247   3.342   3.289
 9865TIP3    H229553   7.290   3.199   3.312
 9866TIP3   OH229554   3.040   2.392   3.244
 9866TIP3    H129555   3.034   2.320   3.181
 9866TIP3    H229556   2.963   2.380   3.300
 9867TIP3   OH229557   5.746   5.774   4.090
 9867TIP3    H129558   5.672   5.740   4.140
 9867TIP3    H229559   5.720   5.761   3.998
 9868TIP3   OH229560   6.750   3.387   2.641
 9868TIP3    H129561   6.776   3.468   2.599
 9868TIP3    H229562   6.667   3.364   2.599
 9869TIP3   OH229563   7.350   1.629   0.281
 9869TIP3    H129564   7.406   1.551   0.284
 9869TIP3    H229565   7.410   1.702   0.294
 9870TIP3   OH229566   2.981   6.785   5.023
 9870TIP3    H129567   2.896   6.828   5.017
 9870TIP3    H229568   3.027   6.833   5.091
 9871TIP3   OH229569   8.044   6.713   4.175
 9871TIP3    H129570   8.019   6.622   4.158
 9871TIP3    H229571   8.071   6.746   4.090
 9872TIP3   OH229572   5.011   6.701   3.539
 9872TIP3    H129573   4.988   6.700   3.447
 9872TIP3    H229574   4.982   6.786   3.571
 9873TIP3   OH229575   3.908   7.391   5.141
 9873TIP3    H129576   3.832   7.347   5.103
 9873TIP3    H229577   3.904   7.480   5.107
 9874TIP3   OH229578   3.465   4.330   4.333
 9874TIP3    H129579   3.471   4.397   4.401
 9874TIP3    H229580   3.375   4.337   4.300
 9875TIP3   OH229581   7.822   0.906   6.717
 9875TIP3    H129582   7.735   0.931   6.748
 9875TIP3    H229583   7.804   0.842   6.648
 9876TIP3   OH229584   7.184   3.926   3.106
 9876TIP3    H129585   7.209   4.012   3.140
 9876TIP3    H229586   7.190   3.936   3.010
 9877TIP3   OH229587   4.348   5.517   2.455
 9877TIP3    H129588   4.253   5.517   2.466
 9877TIP3    H229589   4.379   5.585   2.515
 9878TIP3   OH229590   1.053   7.676   4.776
 9878TIP3    H129591   1.140   7.690   4.814
 9878TIP3    H229592   1.034   7.584   4.795
 9879TIP3   OH229593   2.589   5.056   6.473
 9879TIP3    H129594   2.564   4.965   6.490
 9879TIP3    H229595   2.685   5.053   6.467
 9880TIP3   OH229596   0.446   4.696   0.980
 9880TIP3    H129597   0.414   4.755   1.048
 9880TIP3    H229598   0.452   4.750   0.901
 9881TIP3   OH229599   3.738   3.914   6.159
 9881TIP3    H129600   3.664   3.974   6.167
 9881TIP3    H229601   3.791   3.951   6.089
 9882TIP3   OH229602   1.317   4.697   5.458
 9882TIP3    H129603   1.360   4.780   5.441
 9882TIP3    H229604   1.357   4.636   5.396
 9883TIP3   OH229605   0.669   1.315   2.156
 9883TIP3    H129606   0.710   1.276   2.078
 9883TIP3    H229607   0.734   1.379   2.187
 9884TIP3   OH229608   5.945   1.458   1.436
 9884TIP3    H129609   5.996   1.528   1.477
 9884TIP3    H229610   6.009   1.405   1.389
 9885TIP3   OH229611   6.996   1.305   4.403
 9885TIP3    H129612   6.924   1.267   4.454
 9885TIP3    H229613   7.023   1.235   4.344
 9886TIP3   OH229614   2.833   0.506   3.315
 9886TIP3    H129615   2.804   0.556   3.391
 9886TIP3    H229616   2.925   0.486   3.333
 9887TIP3   OH229617   5.166   2.111   3.750
 9887TIP3    H129618   5.112   2.178   3.709
 9887TIP3    H229619   5.118   2.088   3.830
 9888TIP3   OH229620   0.797   7.615   5.529
 9888TIP3    H129621   0.714   7.655   5.502
 9888TIP3    H229622   0.778   7.571   5.611
 9889TIP3   OH229623   2.611   0.993   1.620
 9889TIP3    H129624   2.559   1.072   1.633
 9889TIP3    H229625   2.582   0.933   1.689
 9890TIP3   OH229626   3.014   4.460   4.563
 9890TIP3    H129627   3.014   4.368   4.587
 9890TIP3    H229628   2.925   4.477   4.533
 9891TIP3   OH229629   2.601   3.553   0.692
 9891TIP3    H129630   2.539   3.609   0.738
 9891TIP3    H229631   2.549   3.505   0.628
 9892TIP3   OH229632   7.938   1.936   3.432
 9892TIP3    H129633   7.973   1.930   3.521
 9892TIP3    H229634   8.015   1.934   3.376
 9893TIP3   OH229635   5.954   1.929   3.982
 9893TIP3    H129636   5.863   1.950   3.960
 9893TIP3    H229637   5.969   1.844   3.940
 9894TIP3   OH229638   5.991   6.865   0.892
 9894TIP3    H129639   6.068   6.809   0.904
 9894TIP3    H229640   5.969   6.893   0.981
 9895TIP3   OH229641   6.259   1.103   6.384
 9895TIP3    H129642   6.286   1.124   6.295
 9895TIP3    H229643   6.337   1.066   6.425
 9896TIP3   OH229644   6.686   3.372   4.251
 9896TIP3    H129645   6.775   3.339   4.237
 9896TIP3    H229646   6.635   3.294   4.274
 9897TIP3   OH229647   1.051   1.363   2.565
 9897TIP3    H129648   1.027   1.453   2.588
 9897TIP3    H229649   1.099   1.371   2.482
 9898TIP3   OH229650   6.601   7.090   5.848
 9898TIP3    H129651   6.556   7.006   5.854
 9898TIP3    H229652   6.693   7.068   5.834
 9899TIP3   OH229653   1.963   0.255   1.033
 9899TIP3    H129654   2.039   0.262   0.974
 9899TIP3    H229655   1.977   0.324   1.098
 9900TIP3   OH229656   5.288   1.377   4.770
 9900TIP3    H129657   5.240   1.459   4.765
 9900TIP3    H229658   5.246   1.320   4.706
 9901TIP3   OH229659   3.451   5.104   2.629
 9901TIP3    H129660   3.462   5.156   2.550
 9901TIP3    H229661   3.357   5.104   2.647
 9902TIP3   OH229662   7.471   0.615   3.059
 9902TIP3    H129663   7.398   0.603   2.999
 9902TIP3    H229664   7.457   0.702   3.097
 9903TIP3   OH229665   6.846   5.588   5.240
 9903TIP3    H129666   6.777   5.523   5.257
 9903TIP3    H229667   6.894   5.594   5.323
 9904TIP3   OH229668   4.588   5.218   1.570
 9904TIP3    H129669   4.597   5.171   1.653
 9904TIP3    H229670   4.670   5.266   1.559
 9905TIP3   OH229671   6.524   7.549   3.379
 9905TIP3    H129672   6.544   7.492   3.304
 9905TIP3    H229673   6.542   7.495   3.456
 9906TIP3   OH229674   3.865   7.504   0.188
 9906TIP3    H129675   3.880   7.412   0.210
 9906TIP3    H229676   3.847   7.546   0.273
 9907TIP3   OH229677   2.738   4.570   0.094
 9907TIP3    H129678   2.742   4.475   0.106
 9907TIP3    H229679   2.816   4.592   0.044
 9908TIP3   OH229680   6.209   2.709   6.582
 9908TIP3    H129681   6.284   2.752   6.623
 9908TIP3    H229682   6.153   2.684   6.656
 9909TIP3   OH229683   6.949   5.252   5.306
 9909TIP3    H129684   6.875   5.308   5.330
 9909TIP3    H229685   7.008   5.309   5.257
 9910TIP3   OH229686   8.127   4.716   0.510
 9910TIP3    H129687   8.110   4.756   0.425
 9910TIP3    H229688   8.168   4.785   0.562
 9911TIP3   OH229689   2.443   7.645   6.334
 9911TIP3    H129690   2.483   7.726   6.303
 9911TIP3    H229691   2.463   7.643   6.428
 9912TIP3   OH229692   0.465   4.405   4.348
 9912TIP3    H129693   0.511   4.322   4.334
 9912TIP3    H229694   0.531   4.472   4.333
 9913TIP3   OH229695   6.859   2.559   4.279
 9913TIP3    H129696   6.919   2.531   4.210
 9913TIP3    H229697   6.891   2.645   4.305
 9914TIP3   OH229698   2.359   3.492   3.938
 9914TIP3    H129699   2.384   3.410   3.980
 9914TIP3    H229700   2.440   3.525   3.899
 9915TIP3   OH229701   3.142   3.494   5.899
 9915TIP3    H129702   3.086   3.570   5.910
 9915TIP3    H229703   3.081   3.420   5.898
 9916TIP3   OH229704   1.065   7.107   4.057
 9916TIP3    H129705   0.987   7.160   4.077
 9916TIP3    H229706   1.037   7.017   4.074
 9917TIP3   OH229707   3.533   1.829   6.435
 9917TIP3    H129708   3.498   1.886   6.366
 9917TIP3    H229709   3.586   1.765   6.388
 9918TIP3   OH229710   6.389   3.295   0.379
 9918TIP3    H129711   6.363   3.276   0.469
 9918TIP3    H229712   6.349   3.379   0.359
 9919TIP3   OH229713   7.086   4.345   0.860
 9919TIP3    H129714   6.999   4.363   0.897
 9919TIP3    H229715   7.119   4.431   0.834
 9920TIP3   OH229716   6.683   2.338   6.771
 9920TIP3    H129717   6.669   2.309   6.681
 9920TIP3    H229718   6.685   2.257   6.823
 9921TIP3   OH229719   0.253   2.062   2.314
 9921TIP3    H129720   0.279   1.982   2.268
 9921TIP3    H229721   0.324   2.077   2.377
 9922TIP3   OH229722   7.654   1.798   0.528
 9922TIP3    H129723   7.658   1.704   0.508
 9922TIP3    H229724   7.593   1.833   0.464
 9923TIP3   OH229725   3.335   5.581   4.924
 9923TIP3    H129726   3.356   5.673   4.938
 9923TIP3    H229727   3.250   5.583   4.880
 9924TIP3   OH229728   2.857   4.281   1.074
 9924TIP3    H129729   2.823   4.341   1.007
 9924TIP3    H229730   2.932   4.239   1.032
 9925TIP3   OH229731   7.427   3.364   5.947
 9925TIP3    H129732   7.416   3.410   6.030
 9925TIP3    H229733   7.502   3.306   5.962
 9926TIP3   OH229734   2.676   2.950   3.136
 9926TIP3    H129735   2.756   2.969   3.186
 9926TIP3    H229736   2.684   3.004   3.057
 9927TIP3   OH229737   2.989   2.731   5.627
 9927TIP3    H129738   3.047   2.801   5.656
 9927TIP3    H229739   3.046   2.655   5.616
 9928TIP3   OH229740   3.971   7.851   2.825
 9928TIP3    H129741   4.047   7.793   2.817
 9928TIP3    H229742   3.923   7.818   2.901
 9929TIP3   OH229743   7.282   3.526   1.802
 9929TIP3    H129744   7.308   3.612   1.837
 9929TIP3    H229745   7.225   3.489   1.870
 9930TIP3   OH229746   0.515   5.164   1.148
 9930TIP3    H129747   0.608   5.145   1.141
 9930TIP3    H229748   0.504   5.196   1.238
 9931TIP3   OH229749   3.324   4.835   1.721
 9931TIP3    H129750   3.254   4.872   1.668
 9931TIP3    H229751   3.328   4.743   1.695
 9932TIP3   OH229752   0.692   5.982   3.383
 9932TIP3    H129753   0.767   5.971   3.442
 9932TIP3    H229754   0.615   5.973   3.439
 9933TIP3   OH229755   1.972   0.667   4.796
 9933TIP3    H129756   1.936   0.738   4.743
 9933TIP3    H229757   2.006   0.604   4.733
 9934TIP3   OH229758   5.695   3.686   2.268
 9934TIP3    H129759   5.668   3.734   2.190
 9934TIP3    H229760   5.638   3.718   2.338
 9935TIP3   OH229761   1.831   1.966   2.651
 9935TIP3    H129762   1.808   2.052   2.686
 9935TIP3    H229763   1.921   1.976   2.621
 9936TIP3   OH229764   1.775   4.920   5.644
 9936TIP3    H129765   1.859   4.950   5.609
 9936TIP3    H229766   1.799   4.870   5.722
 9937TIP3   OH229767   4.310   2.113   0.628
 9937TIP3    H129768   4.232   2.084   0.582
 9937TIP3    H229769   4.295   2.206   0.647
 9938TIP3   OH229770   0.689   5.684   5.396
 9938TIP3    H129771   0.686   5.678   5.301
 9938TIP3    H229772   0.779   5.711   5.416
 9939TIP3   OH229773   5.715   1.017   6.289
 9939TIP3    H129774   5.808   1.038   6.279
 9939TIP3    H229775   5.670   1.080   6.231
 9940TIP3   OH229776   1.513   2.457   1.738
 9940TIP3    H129777   1.501   2.548   1.763
 9940TIP3    H229778   1.544   2.414   1.818
 9941TIP3   OH229779  -0.015   0.697   1.400
 9941TIP3    H129780   0.062   0.653   1.363
 9941TIP3    H229781   0.020   0.758   1.465
 9942TIP3   OH229782   3.736   1.089   5.531
 9942TIP3    H129783   3.737   1.021   5.598
 9942TIP3    H229784   3.683   1.052   5.460
 9943TIP3   OH229785   5.662   0.520   4.098
 9943TIP3    H129786   5.626   0.490   4.182
 9943TIP3    H229787   5.751   0.550   4.119
 9944TIP3   OH229788   3.119   4.307   2.320
 9944TIP3    H129789   3.095   4.221   2.285
 9944TIP3    H229790   3.052   4.325   2.386
 9945TIP3   OH229791   1.978   3.911   3.170
 9945TIP3    H129792   1.885   3.912   3.193
 9945TIP3    H229793   1.991   3.826   3.127
 9946TIP3   OH229794   1.709   4.111   3.173
 9946TIP3    H129795   1.676   4.200   3.190
 9946TIP3    H229796   1.700   4.100   3.078
 9947TIP3   OH229797   8.229   6.727   2.976
 9947TIP3    H129798   8.235   6.799   3.039
 9947TIP3    H229799   8.314   6.728   2.931
 9948TIP3   OH229800   0.159   4.706   4.334
 9948TIP3    H129801   0.214   4.764   4.387
 9948TIP3    H229802   0.134   4.759   4.259
 9949TIP3   OH229803   6.171   4.545   0.169
 9949TIP3    H129804   6.266   4.548   0.154
 9949TIP3    H229805   6.160   4.583   0.256
 9950TIP3   OH229806   6.787   5.967   3.410
 9950TIP3    H129807   6.700   6.005   3.395
 9950TIP3    H229808   6.777   5.874   3.392
 9951TIP3   OH229809   0.073   5.674   5.833
 9951TIP3    H129810   0.057   5.589   5.874
 9951TIP3    H229811   0.033   5.737   5.893
 9952TIP3   OH229812   5.684   0.124   5.704
 9952TIP3    H129813   5.652   0.051   5.650
 9952TIP3    H229814   5.769   0.096   5.735
 9953TIP3   OH229815   2.293   1.344   3.464
 9953TIP3    H129816   2.386   1.340   3.486
 9953TIP3    H229817   2.269   1.435   3.475
 9954TIP3   OH229818   6.058   6.003   3.243
 9954TIP3    H129819   6.053   6.079   3.184
 9954TIP3    H229820   6.010   6.030   3.321
 9955TIP3   OH229821   0.250   4.809   1.914
 9955TIP3    H129822   0.275   4.791   1.823
 9955TIP3    H229823   0.159   4.837   1.909
 9956TIP3   OH229824   1.873   2.925   5.228
 9956TIP3    H129825   1.967   2.942   5.237
 9956TIP3    H229826   1.862   2.902   5.136
 9957TIP3   OH229827   5.183   3.551   2.275
 9957TIP3    H129828   5.099   3.565   2.232
 9957TIP3    H229829   5.160   3.517   2.362
 9958TIP3   OH229830   4.118   4.475   1.591
 9958TIP3    H129831   4.152   4.445   1.675
 9958TIP3    H229832   4.140   4.405   1.530
 9959TIP3   OH229833   6.499   3.432   2.052
 9959TIP3    H129834   6.536   3.469   1.972
 9959TIP3    H229835   6.536   3.487   2.122
 9960TIP3   OH229836   0.801   6.139   1.396
 9960TIP3    H129837   0.875   6.182   1.438
 9960TIP3    H229838   0.732   6.205   1.394
 9961TIP3   OH229839   7.291   7.435   4.873
 9961TIP3    H129840   7.251   7.473   4.794
 9961TIP3    H229841   7.376   7.403   4.843
 9962TIP3   OH229842   2.951   4.953   4.162
 9962TIP3    H129843   2.893   4.880   4.140
 9962TIP3    H229844   3.018   4.952   4.094
 9963TIP3   OH229845   0.471   2.275   3.746
 9963TIP3    H129846   0.540   2.336   3.723
 9963TIP3    H229847   0.489   2.252   3.837
 9964TIP3   OH229848   0.956   2.779   1.850
 9964TIP3    H129849   1.003   2.743   1.774
 9964TIP3    H229850   0.974   2.873   1.847
 9965TIP3   OH229851   0.133   1.226   2.006
 9965TIP3    H129852   0.139   1.141   2.049
 9965TIP3    H229853   0.221   1.263   2.014
 9966TIP3   OH229854   7.519   4.916   1.256
 9966TIP3    H129855   7.457   4.987   1.271
 9966TIP3    H229856   7.594   4.937   1.312
 9967TIP3   OH229857   2.104   7.234   5.522
 9967TIP3    H129858   2.025   7.241   5.576
 9967TIP3    H229859   2.171   7.282   5.570
 9968TIP3   OH229860   5.845   5.213   0.152
 9968TIP3    H129861   5.915   5.151   0.172
 9968TIP3    H229862   5.890   5.295   0.131
 9969TIP3   OH229863   4.372   0.425   0.927
 9969TIP3    H129864   4.410   0.427   1.015
 9969TIP3    H229865   4.436   0.377   0.874
 9970TIP3   OH229866   2.895   3.911   6.377
 9970TIP3    H129867   2.867   3.841   6.436
 9970TIP3    H229868   2.894   3.990   6.432
 9971TIP3   OH229869   7.165   5.156   4.926
 9971TIP3    H129870   7.097   5.089   4.939
 9971TIP3    H229871   7.183   5.153   4.832
 9972TIP3   OH229872   1.737   7.465   0.117
 9972TIP3    H129873   1.752   7.393   0.179
 9972TIP3    H229874   1.642   7.479   0.119
 9973TIP3   OH229875   7.847   0.615   6.268
 9973TIP3    H129876   7.871   0.617   6.176
 9973TIP3    H229877   7.751   0.609   6.269
 9974TIP3   OH229878   5.249   2.953   0.361
 9974TIP3    H129879   5.291   2.889   0.419
 9974TIP3    H229880   5.179   2.904   0.319
 9975TIP3   OH229881   2.408   1.383   6.625
 9975TIP3    H129882   2.450   1.442   6.563
 9975TIP3    H229883   2.481   1.341   6.672
 9976TIP3   OH229884   6.042   1.337   2.227
 9976TIP3    H129885   6.117   1.298   2.182
 9976TIP3    H229886   6.055   1.316   2.319
 9977TIP3   OH229887   3.567   4.751   3.655
 9977TIP3    H129888   3.642   4.790   3.610
 9977TIP3    H229889   3.492   4.773   3.599
 9978TIP3   OH229890   1.829   6.414   0.255
 9978TIP3    H129891   1.792   6.399   0.342
 9978TIP3    H229892   1.917   6.449   0.273
 9979TIP3   OH229893   1.241   3.439   3.187
 9979TIP3    H129894   1.331   3.434   3.153
 9979TIP3    H229895   1.251   3.452   3.281
 9980TIP3   OH229896   2.543   4.446   6.535
 9980TIP3    H129897   2.468   4.452   6.475
 9980TIP3    H229898   2.594   4.373   6.501
 9981TIP3   OH229899   4.362   5.405   6.097
 9981TIP3    H129900   4.276   5.416   6.056
 9981TIP3    H229901   4.373   5.311   6.105
 9982TIP3   OH229902   8.138   5.134   0.962
 9982TIP3    H129903   8.140   5.059   0.903
 9982TIP3    H229904   8.228   5.166   0.964
 9983TIP3   OH229905   2.112   0.860   3.563
 9983TIP3    H129906   2.124   0.781   3.510
 9983TIP3    H229907   2.122   0.829   3.654
 9984TIP3   OH229908   5.207   3.317   3.077
 9984TIP3    H129909   5.300   3.296   3.078
 9984TIP3    H229910   5.164   3.233   3.062
 9985TIP3   OH229911   4.235   0.109   0.985
 9985TIP3    H129912   4.152   0.130   1.028
 9985TIP3    H229913   4.240   0.171   0.912
 9986TIP3   OH229914   6.158   6.639   1.476
 9986TIP3    H129915   6.127   6.550   1.461
 9986TIP3    H229916   6.091   6.679   1.532
 9987TIP3   OH229917   6.853   4.094   4.730
 9987TIP3    H129918   6.789   4.145   4.781
 9987TIP3    H229919   6.803   4.019   4.698
 9988TIP3   OH229920   6.221   2.290   3.307
 9988TIP3    H129921   6.246   2.283   3.215
 9988TIP3    H229922   6.221   2.200   3.340
 9989TIP3   OH229923   6.057   6.387   3.393
 9989TIP3    H129924   6.110   6.308   3.379
 9989TIP3    H229925   6.000   6.366   3.467
 9990TIP3   OH229926   0.172   5.666   1.300
 9990TIP3    H129927   0.207   5.733   1.360
 9990TIP3    H229928   0.082   5.695   1.282
 9991TIP3   OH229929   1.898   2.841   3.970
 9991TIP3    H129930   1.868   2.860   3.881
 9991TIP3    H229931   1.836   2.776   4.003
 9992TIP3   OH229932   4.254   3.104   3.528
 9992TIP3    H129933   4.258   3.195   3.557
 9992TIP3    H229934   4.310   3.101   3.450
 9993TIP3   OH229935   2.350   0.576   3.659
 9993TIP3    H129936   2.325   0.508   3.598
 9993TIP3    H229937   2.268   0.607   3.697
 9994TIP3   OH229938   1.399   1.972   3.796
 9994TIP3    H129939   1.465   1.926   3.847
 9994TIP3    H229940   1.356   1.904   3.744
 9995TIP3   OH229941   4.654   2.272   3.322
 9995TIP3    H129942   4.738   2.312   3.345
 9995TIP3    H229943   4.642   2.292   3.229
 9996TIP3   OH229944   6.728   2.594   3.415
 9996TIP3    H129945   6.679   2.520   3.377
 9996TIP3    H229946   6.788   2.553   3.478
 9997TIP3   OH229947   6.722   0.990   4.531
 9997TIP3    H129948   6.627   0.998   4.540
 9997TIP3    H229949   6.757   1.065   4.579
 9998TIP3   OH229950   2.278   6.132   1.972
 9998TIP3    H129951   2.317   6.082   1.901
 9998TIP3    H229952   2.289   6.224   1.946
 9999TIP3   OH229953   7.574   4.296   4.503
 9999TIP3    H129954   7.572   4.352   4.425
 9999TIP3    H229955   7.532   4.215   4.474
10000TIP3   OH229956   0.776   2.329   0.935
10000TIP3    H129957   0.737   2.369   0.858
10000TIP3    H229958   0.863   2.367   0.941
10001TIP3   OH229959   0.271   0.137   2.936
10001TIP3    H129960   0.287   0.187   3.016
10001TIP3    H229961   0.242   0.202   2.872
10002TIP3   OH229962   1.833   1.363   5.689
10002TIP3    H129963   1.882   1.347   5.769
10002TIP3    H229964   1.742   1.374   5.717
10003TIP3   OH229965   6.526   2.575   4.122
10003TIP3    H129966   6.532   2.508   4.054
10003TIP3    H229967   6.599   2.556   4.181
10004TIP3   OH229968   0.042   2.799   3.414
10004TIP3    H129969   0.126   2.827   3.450
10004TIP3    H229970   0.021   2.864   3.347
10005TIP3   OH229971   7.982   4.608   5.069
10005TIP3    H129972   8.018   4.519   5.069
10005TIP3    H229973   8.054   4.664   5.041
10006TIP3   OH229974   7.255   4.922   5.487
10006TIP3    H129975   7.222   4.856   5.548
10006TIP3    H229976   7.226   5.006   5.524
10007TIP3   OH229977   3.660   0.753   5.092
10007TIP3    H129978   3.735   0.695   5.106
10007TIP3    H229979   3.605   0.707   5.030
10008TIP3   OH229980   1.725   1.176   1.785
10008TIP3    H129981   1.804   1.170   1.838
10008TIP3    H229982   1.735   1.107   1.719
10009TIP3   OH229983   4.073   3.587   2.739
10009TIP3    H129984   4.015   3.616   2.810
10009TIP3    H229985   4.071   3.659   2.676
10010TIP3   OH229986   6.997   0.654   0.595
10010TIP3    H129987   6.927   0.645   0.530
10010TIP3    H229988   7.013   0.749   0.600
10011TIP3   OH229989   6.532   5.901   4.522
10011TIP3    H129990   6.607   5.889   4.465
10011TIP3    H229991   6.567   5.942   4.601
10012TIP3   OH229992   6.677   7.838   3.775
10012TIP3    H129993   6.631   7.803   3.851
10012TIP3    H229994   6.675   7.767   3.711
10013TIP3   OH229995   2.348   3.586   6.479
10013TIP3    H129996   2.403   3.615   6.552
10013TIP3    H229997   2.373   3.495   6.465
10014TIP3   OH229998   3.376   2.814   2.987
10014TIP3    H129999   3.391   2.750   3.057
10014TIP3    H230000   3.345   2.761   2.913
10015TIP3   OH230001   0.299   5.232   0.680
10015TIP3    H130002   0.360   5.285   0.730
10015TIP3    H230003   0.237   5.294   0.642
10016TIP3   OH230004   6.958   1.565   4.860
10016TIP3    H130005   6.979   1.573   4.767
10016TIP3    H230006   7.041   1.579   4.905
10017TIP3   OH230007   1.959   3.656   5.980
10017TIP3    H130008   1.881   3.649   6.035
10017TIP3    H230009   1.968   3.749   5.962
10018TIP3   OH230010   2.566   4.230   3.845
10018TIP3    H130011   2.505   4.237   3.771
10018TIP3    H230012   2.606   4.317   3.852
10019TIP3   OH230013   6.212   5.463   5.180
10019TIP3    H130014   6.294   5.467   5.229
10019TIP3    H230015   6.196   5.369   5.169
10020TIP3   OH230016   7.286   5.115   5.802
10020TIP3    H130017   7.322   5.036   5.761
10020TIP3    H230018   7.301   5.102   5.895
10021TIP3   OH230019   6.675   3.610   2.188
10021TIP3    H130020   6.749   3.605   2.249
10021TIP3    H230021   6.599   3.628   2.244
10022TIP3   OH230022   2.648   5.216   1.367
10022TIP3    H130023   2.682   5.185   1.283
10022TIP3    H230024   2.714   5.190   1.432
10023TIP3   OH230025   3.114   5.530   3.792
10023TIP3    H130026   3.106   5.461   3.727
10023TIP3    H230027   3.202   5.564   3.781
10024TIP3   OH230028   6.383   6.847   2.755
10024TIP3    H130029   6.313   6.896   2.798
10024TIP3    H230030   6.353   6.756   2.757
10025TIP3   OH230031   8.150   0.196   6.390
10025TIP3    H130032   8.140   0.292   6.391
10025TIP3    H230033   8.201   0.177   6.469
10026TIP3   OH230034   1.291   2.915   2.537
10026TIP3    H130035   1.378   2.955   2.541
10026TIP3    H230036   1.307   2.821   2.530
10027TIP3   OH230037   1.732   7.214   1.205
10027TIP3    H130038   1.771   7.147   1.149
10027TIP3    H230039   1.648   7.233   1.163
10028TIP3   OH230040   5.777   7.050   3.146
10028TIP3    H130041   5.695   7.098   3.135
10028TIP3    H230042   5.767   7.003   3.230
10029TIP3   OH230043   0.682   0.786   3.429
10029TIP3    H130044   0.649   0.828   3.350
10029TIP3    H230045   0.771   0.819   3.439
10030TIP3   OH230046   3.865   6.550   1.586
10030TIP3    H130047   3.776   6.539   1.555
10030TIP3    H230048   3.899   6.461   1.598
10031TIP3   OH230049   1.402   1.212   2.549
10031TIP3    H130050   1.348   1.211   2.470
10031TIP3    H230051   1.458   1.134   2.541
10032TIP3   OH230052   8.247   1.061   1.016
10032TIP3    H130053   8.238   1.068   1.111
10032TIP3    H230054   8.252   0.967   0.998
10033TIP3   OH230055   1.026   0.522   1.589
10033TIP3    H130056   1.096   0.573   1.630
10033TIP3    H230057   1.058   0.432   1.593
10034TIP3   OH230058   2.175   6.337   6.277
10034TIP3    H130059   2.160   6.362   6.186
10034TIP3    H230060   2.142   6.248   6.283
10035TIP3   OH230061   2.067   0.236   2.248
10035TIP3    H130062   2.148   0.285   2.262
10035TIP3    H230063   2.060   0.227   2.153
10036TIP3   OH230064   2.694   6.359   6.327
10036TIP3    H130065   2.736   6.382   6.245
10036TIP3    H230066   2.767   6.350   6.389
10037TIP3   OH230067   2.163   4.052   3.038
10037TIP3    H130068   2.096   3.991   3.070
10037TIP3    H230069   2.158   4.126   3.098
10038TIP3   OH230070   5.101   5.004   3.294
10038TIP3    H130071   5.127   4.920   3.255
10038TIP3    H230072   5.114   5.067   3.223
10039TIP3   OH230073   5.998   1.675   2.268
10039TIP3    H130074   5.957   1.759   2.245
10039TIP3    H230075   5.964   1.656   2.356
10040TIP3   OH230076   3.644   2.083   0.206
10040TIP3    H130077   3.559   2.106   0.243
10040TIP3    H230078   3.693   2.047   0.280
10041TIP3   OH230079   6.644   2.806   5.969
10041TIP3    H130080   6.675   2.716   5.962
10041TIP3    H230081   6.589   2.807   6.047
10042TIP3   OH230082   7.027   4.752   2.501
10042TIP3    H130083   7.057   4.663   2.483
10042TIP3    H230084   7.061   4.772   2.588
10043TIP3   OH230085   7.742   7.517   0.031
10043TIP3    H130086   7.742   7.463   0.110
10043TIP3    H230087   7.713   7.603   0.060
10044TIP3   OH230088   5.524   1.017   2.307
10044TIP3    H130089   5.587   0.957   2.347
10044TIP3    H230090   5.578   1.078   2.257
10045TIP3   OH230091   3.958   1.064   5.268
10045TIP3    H130092   3.951   1.159   5.261
10045TIP3    H230093   3.947   1.046   5.362
10046TIP3   OH230094   5.235   6.899   0.789
10046TIP3    H130095   5.175   6.832   0.755
10046TIP3    H230096   5.304   6.904   0.724
10047TIP3   OH230097   1.638   4.817   5.421
10047TIP3    H130098   1.637   4.846   5.512
10047TIP3    H230099   1.715   4.859   5.383
10048TIP3   OH230100   5.722   1.367   5.124
10048TIP3    H130101   5.704   1.279   5.092
10048TIP3    H230102   5.726   1.357   5.219
10049TIP3   OH230103   1.474   5.821   4.636
10049TIP3    H130104   1.554   5.868   4.613
10049TIP3    H230105   1.497   5.728   4.625
10050TIP3   OH230106   3.981   4.102   0.740
10050TIP3    H130107   4.039   4.164   0.785
10050TIP3    H230108   3.912   4.084   0.803
10051TIP3   OH230109  -0.014   7.582   0.835
10051TIP3    H130110  -0.034   7.578   0.928
10051TIP3    H230111   0.079   7.559   0.829
10052TIP3   OH230112   8.242   2.654   1.924
10052TIP3    H130113   8.170   2.621   1.977
10052TIP3    H230114   8.200   2.684   1.843
10053TIP3   OH230115   0.714   3.078   2.705
10053TIP3    H130116   0.798   3.114   2.675
10053TIP3    H230117   0.654   3.095   2.633
10054TIP3   OH230118   0.528   3.420   4.261
10054TIP3    H130119   0.439   3.401   4.290
10054TIP3    H230120   0.581   3.416   4.341
10055TIP3   OH230121   6.658   3.288   2.891
10055TIP3    H130122   6.618   3.362   2.937
10055TIP3    H230123   6.730   3.327   2.842
10056TIP3   OH230124   1.065   0.349   3.183
10056TIP3    H130125   1.090   0.324   3.272
10056TIP3    H230126   0.970   0.359   3.187
10057TIP3   OH230127   0.016   6.478   5.617
10057TIP3    H130128  -0.050   6.544   5.597
10057TIP3    H230129   0.094   6.529   5.641
10058TIP3   OH230130   5.611   7.178   4.435
10058TIP3    H130131   5.621   7.155   4.527
10058TIP3    H230132   5.697   7.161   4.396
10059TIP3   OH230133   4.391   5.168   1.154
10059TIP3    H130134   4.430   5.202   1.235
10059TIP3    H230135   4.347   5.244   1.115
10060TIP3   OH230136   2.674   0.181   5.921
10060TIP3    H130137   2.695   0.251   5.982
10060TIP3    H230138   2.656   0.105   5.976
10061TIP3   OH230139   0.189   5.073   6.603
10061TIP3    H130140   0.187   5.149   6.660
10061TIP3    H230141   0.151   5.002   6.655
10062TIP3   OH230142   5.202   4.484   1.861
10062TIP3    H130143   5.298   4.480   1.856
10062TIP3    H230144   5.172   4.425   1.792
10063TIP3   OH230145   6.533   2.820   0.153
10063TIP3    H130146   6.584   2.798   0.230
10063TIP3    H230147   6.512   2.913   0.164
10064TIP3   OH230148   2.023   1.488   1.169
10064TIP3    H130149   2.021   1.583   1.166
10064TIP3    H230150   1.994   1.461   1.082
10065TIP3   OH230151   0.768   3.712   6.067
10065TIP3    H130152   0.752   3.673   6.153
10065TIP3    H230153   0.745   3.804   6.078
10066TIP3   OH230154   2.557   6.687   0.839
10066TIP3    H130155   2.510   6.731   0.909
10066TIP3    H230156   2.500   6.695   0.763
10067TIP3   OH230157   1.389   6.437   5.212
10067TIP3    H130158   1.456   6.501   5.235
10067TIP3    H230159   1.429   6.352   5.232
10068TIP3   OH230160   3.376   4.190   0.493
10068TIP3    H130161   3.323   4.120   0.454
10068TIP3    H230162   3.449   4.144   0.535
10069TIP3   OH230163   6.416   6.198   6.302
10069TIP3    H130164   6.399   6.273   6.360
10069TIP3    H230165   6.329   6.165   6.280
10070TIP3   OH230166   6.914   0.820   1.522
10070TIP3    H130167   6.886   0.893   1.577
10070TIP3    H230168   6.957   0.861   1.447
10071TIP3   OH230169   1.995   6.832   3.787
10071TIP3    H130170   2.006   6.907   3.728
10071TIP3    H230171   2.042   6.760   3.744
10072TIP3   OH230172   2.104   6.733   2.906
10072TIP3    H130173   2.035   6.729   2.972
10072TIP3    H230174   2.173   6.676   2.941
10073TIP3   OH230175   6.338   0.428   3.566
10073TIP3    H130176   6.429   0.399   3.574
10073TIP3    H230177   6.307   0.386   3.486
10074TIP3   OH230178   0.426   2.650   2.352
10074TIP3    H130179   0.508   2.652   2.301
10074TIP3    H230180   0.427   2.731   2.403
10075TIP3   OH230181   6.936   2.066   5.258
10075TIP3    H130182   6.996   2.062   5.184
10075TIP3    H230183   6.901   2.155   5.255
10076TIP3   OH230184   0.441   4.516   0.199
10076TIP3    H130185   0.383   4.463   0.254
10076TIP3    H230186   0.500   4.559   0.260
10077TIP3   OH230187   4.764   0.034   3.267
10077TIP3    H130188   4.826   0.080   3.211
10077TIP3    H230189   4.799   0.042   3.356
10078TIP3   OH230190   6.759   6.778   2.137
10078TIP3    H130191   6.676   6.762   2.092
10078TIP3    H230192   6.810   6.699   2.121
10079TIP3   OH230193   0.439   0.366   5.178
10079TIP3    H130194   0.439   0.330   5.267
10079TIP3    H230195   0.371   0.317   5.132
10080TIP3   OH230196   3.056   5.535   5.252
10080TIP3    H130197   3.044   5.442   5.232
10080TIP3    H230198   3.147   5.542   5.280
10081TIP3   OH230199   5.931   2.049   2.291
10081TIP3    H130200   5.855   1.999   2.261
10081TIP3    H230201   5.994   2.041   2.219
10082TIP3   OH230202   2.080   5.489   5.537
10082TIP3    H130203   2.084   5.398   5.566
10082TIP3    H230204   2.057   5.484   5.444
10083TIP3   OH230205   6.227   0.670   3.676
10083TIP3    H130206   6.212   0.624   3.759
10083TIP3    H230207   6.274   0.607   3.621
10084TIP3   OH230208   7.443   1.380   4.972
10084TIP3    H130209   7.486   1.418   5.048
10084TIP3    H230210   7.463   1.286   4.977
10085TIP3   OH230211   5.691   2.750   6.186
10085TIP3    H130212   5.602   2.725   6.212
10085TIP3    H230213   5.700   2.841   6.215
10086TIP3   OH230214   5.105   5.997   2.722
10086TIP3    H130215   5.153   5.920   2.691
10086TIP3    H230216   5.050   6.023   2.648
10087TIP3   OH230217   7.798   0.665   3.294
10087TIP3    H130218   7.703   0.660   3.295
10087TIP3    H230219   7.820   0.706   3.378
10088TIP3   OH230220   3.977   1.114   2.765
10088TIP3    H130221   4.045   1.057   2.802
10088TIP3    H230222   4.020   1.199   2.754
10089TIP3   OH230223   1.855   6.576   1.305
10089TIP3    H130224   1.948   6.560   1.293
10089TIP3    H230225   1.819   6.490   1.328
10090TIP3   OH230226   7.637   1.543   4.673
10090TIP3    H130227   7.622   1.449   4.683
10090TIP3    H230228   7.705   1.564   4.738
10091TIP3   OH230229   2.612   5.234   6.101
10091TIP3    H130230   2.549   5.165   6.121
10091TIP3    H230231   2.573   5.314   6.138
10092TIP3   OH230232   1.598   5.473   2.712
10092TIP3    H130233   1.558   5.485   2.626
10092TIP3    H230234   1.551   5.398   2.749
10093TIP3   OH230235   5.147   1.122   3.882
10093TIP3    H130236   5.213   1.094   3.818
10093TIP3    H230237   5.064   1.117   3.835
10094TIP3   OH230238   2.980   3.883   1.436
10094TIP3    H130239   2.941   3.940   1.370
10094TIP3    H230240   2.920   3.888   1.511
10095TIP3   OH230241   2.162   4.231   1.865
10095TIP3    H130242   2.184   4.323   1.848
10095TIP3    H230243   2.244   4.184   1.846
10096TIP3   OH230244   3.161   4.509   1.860
10096TIP3    H130245   3.208   4.592   1.852
10096TIP3    H230246   3.151   4.495   1.954
10097TIP3   OH230247   5.226   1.210   2.855
10097TIP3    H130248   5.214   1.201   2.760
10097TIP3    H230249   5.317   1.185   2.870
10098TIP3   OH230250   4.002   2.659   4.254
10098TIP3    H130251   3.977   2.619   4.337
10098TIP3    H230252   4.066   2.599   4.216
10099TIP3   OH230253   2.357   2.187   5.111
10099TIP3    H130254   2.373   2.232   5.028
10099TIP3    H230255   2.441   2.145   5.132
10100TIP3   OH230256   6.039   7.039   2.297
10100TIP3    H130257   6.092   7.081   2.364
10100TIP3    H230258   6.101   6.985   2.247
10101TIP3   OH230259   2.135   5.526   3.524
10101TIP3    H130260   2.110   5.614   3.495
10101TIP3    H230261   2.052   5.483   3.545
10102TIP3   OH230262   3.871   6.097   5.511
10102TIP3    H130263   3.783   6.123   5.540
10102TIP3    H230264   3.930   6.152   5.563
10103TIP3   OH230265   4.613   2.581   6.242
10103TIP3    H130266   4.575   2.654   6.291
10103TIP3    H230267   4.628   2.513   6.308
10104TIP3   OH230268   4.590   0.395   2.397
10104TIP3    H130269   4.574   0.474   2.346
10104TIP3    H230270   4.527   0.331   2.365
10105TIP3   OH230271   8.031   7.208   0.639
10105TIP3    H130272   8.003   7.235   0.551
10105TIP3    H230273   8.025   7.288   0.691
10106TIP3   OH230274   1.102   1.945   4.991
10106TIP3    H130275   1.165   2.010   5.024
10106TIP3    H230276   1.030   1.996   4.957
10107TIP3   OH230277   7.440   5.335   5.678
10107TIP3    H130278   7.384   5.286   5.739
10107TIP3    H230279   7.450   5.421   5.718
10108TIP3   OH230280   7.350   3.249   2.979
10108TIP3    H130281   7.379   3.339   2.963
10108TIP3    H230282   7.357   3.238   3.073
10109TIP3   OH230283   7.234   6.850   5.342
10109TIP3    H130284   7.184   6.893   5.273
10109TIP3    H230285   7.321   6.891   5.336
10110TIP3   OH230286   4.165   4.341   5.856
10110TIP3    H130287   4.149   4.283   5.781
10110TIP3    H230288   4.245   4.387   5.834
10111TIP3   OH230289   5.321   4.222   0.923
10111TIP3    H130290   5.409   4.206   0.890
10111TIP3    H230291   5.335   4.259   1.011
10112TIP3   OH230292   7.282   2.244   0.378
10112TIP3    H130293   7.293   2.199   0.462
10112TIP3    H230294   7.192   2.277   0.380
10113TIP3   OH230295   7.386   0.449   2.231
10113TIP3    H130296   7.471   0.475   2.195
10113TIP3    H230297   7.353   0.385   2.168
10114TIP3   OH230298   5.097   3.460   0.240
10114TIP3    H130299   5.005   3.466   0.265
10114TIP3    H230300   5.110   3.534   0.180
10115TIP3   OH230301   6.844   7.697   2.620
10115TIP3    H130302   6.809   7.733   2.702
10115TIP3    H230303   6.808   7.609   2.616
10116TIP3   OH230304   3.975   7.859   0.223
10116TIP3    H130305   4.057   7.817   0.251
10116TIP3    H230306   3.911   7.788   0.222
10117TIP3   OH230307   0.711   4.851   6.682
10117TIP3    H130308   0.639   4.791   6.665
10117TIP3    H230309   0.773   4.800   6.733
10118TIP3   OH230310   2.634   4.238   4.702
10118TIP3    H130311   2.681   4.243   4.619
10118TIP3    H230312   2.568   4.170   4.687
10119TIP3   OH230313   5.137   7.678   0.416
10119TIP3    H130314   5.150   7.590   0.381
10119TIP3    H230315   5.203   7.687   0.484
10120TIP3   OH230316   5.102   4.076   2.142
10120TIP3    H130317   5.197   4.062   2.135
10120TIP3    H230318   5.072   4.078   2.051
10121TIP3   OH230319   6.324   2.169   5.791
10121TIP3    H130320   6.292   2.139   5.706
10121TIP3    H230321   6.245   2.182   5.844
10122TIP3   OH230322   2.375   7.703   3.374
10122TIP3    H130323   2.461   7.733   3.404
10122TIP3    H230324   2.317   7.719   3.449
10123TIP3   OH230325   6.813   0.034   5.286
10123TIP3    H130326   6.837  -0.044   5.338
10123TIP3    H230327   6.895   0.060   5.243
10124TIP3   OH230328   4.998   1.813   0.362
10124TIP3    H130329   5.078   1.857   0.393
10124TIP3    H230330   4.962   1.871   0.296
10125TIP3   OH230331   1.991   2.492   6.031
10125TIP3    H130332   1.977   2.419   5.971
10125TIP3    H230333   2.085   2.491   6.048
10126TIP3   OH230334   6.277   1.419   2.417
10126TIP3    H130335   6.275   1.420   2.321
10126TIP3    H230336   6.306   1.331   2.439
10127TIP3   OH230337   3.301   1.747   1.917
10127TIP3    H130338   3.303   1.758   2.012
10127TIP3    H230339   3.378   1.794   1.885
10128TIP3   OH230340   2.203   5.862   4.268
10128TIP3    H130341   2.223   5.925   4.337
10128TIP3    H230342   2.288   5.844   4.227
10129TIP3   OH230343   5.869   6.387   2.131
10129TIP3    H130344   5.809   6.323   2.094
10129TIP3    H230345   5.928   6.336   2.186
10130TIP3   OH230346   2.224   0.930   2.316
10130TIP3    H130347   2.205   1.024   2.317
10130TIP3    H230348   2.149   0.891   2.272
10131TIP3   OH230349   7.560   5.666   5.092
10131TIP3    H130350   7.529   5.704   5.010
10131TIP3    H230351   7.616   5.593   5.066
10132TIP3   OH230352   0.059   6.504   6.195
10132TIP3    H130353   0.054   6.426   6.139
10132TIP3    H230354   0.114   6.477   6.268
10133TIP3   OH230355   8.180   2.265   2.197
10133TIP3    H130356   8.175   2.221   2.112
10133TIP3    H230357   8.143   2.352   2.181
10134TIP3   OH230358   1.585   1.661   1.868
10134TIP3    H130359   1.660   1.605   1.845
10134TIP3    H230360   1.625   1.741   1.902
10135TIP3   OH230361   6.220   3.654   3.884
10135TIP3    H130362   6.169   3.676   3.963
10135TIP3    H230363   6.174   3.579   3.847
10136TIP3   OH230364   5.570   2.063   0.401
10136TIP3    H130365   5.535   1.998   0.462
10136TIP3    H230366   5.665   2.058   0.412
10137TIP3   OH230367   5.984   5.302   4.691
10137TIP3    H130368   5.948   5.369   4.749
10137TIP3    H230369   5.945   5.321   4.606
10138TIP3   OH230370   5.225   1.214   2.576
10138TIP3    H130371   5.141   1.246   2.545
10138TIP3    H230372   5.289   1.275   2.538
10139TIP3   OH230373   1.176   2.677   1.330
10139TIP3    H130374   1.260   2.721   1.342
10139TIP3    H230375   1.155   2.692   1.237
10140TIP3   OH230376   4.153   2.429   5.826
10140TIP3    H130377   4.125   2.424   5.917
10140TIP3    H230378   4.227   2.490   5.826
10141TIP3   OH230379   3.597   2.324   4.012
10141TIP3    H130380   3.513   2.294   3.978
10141TIP3    H230381   3.624   2.394   3.953
10142TIP3   OH230382   8.250   0.202   5.585
10142TIP3    H130383   8.340   0.235   5.587
10142TIP3    H230384   8.233   0.182   5.493
10143TIP3   OH230385   4.953   6.023   1.370
10143TIP3    H130386   4.989   6.084   1.434
10143TIP3    H230387   4.941   5.942   1.419
10144TIP3   OH230388   7.299   6.740   3.437
10144TIP3    H130389   7.281   6.806   3.504
10144TIP3    H230390   7.337   6.790   3.364
10145TIP3   OH230391   3.923   3.369   2.511
10145TIP3    H130392   3.850   3.329   2.559
10145TIP3    H230393   3.967   3.423   2.577
10146TIP3   OH230394   6.438   4.462   4.613
10146TIP3    H130395   6.366   4.502   4.662
10146TIP3    H230396   6.487   4.536   4.577
10147TIP3   OH230397   2.475   3.391   1.211
10147TIP3    H130398   2.441   3.405   1.123
10147TIP3    H230399   2.444   3.465   1.263
10148TIP3   OH230400   7.589   1.526   6.043
10148TIP3    H130401   7.638   1.471   5.982
10148TIP3    H230402   7.503   1.485   6.049
10149TIP3   OH230403   2.174   5.111   1.882
10149TIP3    H130404   2.104   5.054   1.851
10149TIP3    H230405   2.162   5.115   1.976
10150TIP3   OH230406   7.149   3.346   5.919
10150TIP3    H130407   7.150   3.438   5.943
10150TIP3    H230408   7.241   3.324   5.902
10151TIP3   OH230409   2.542   4.285   2.578
10151TIP3    H130410   2.449   4.265   2.562
10151TIP3    H230411   2.587   4.202   2.563
10152TIP3   OH230412   1.022   6.677   1.689
10152TIP3    H130413   0.958   6.712   1.752
10152TIP3    H230414   1.070   6.611   1.739
10153TIP3   OH230415   1.877   6.072   5.752
10153TIP3    H130416   1.837   6.019   5.821
10153TIP3    H230417   1.964   6.094   5.786
10154TIP3   OH230418   5.391   6.565   2.868
10154TIP3    H130419   5.347   6.540   2.950
10154TIP3    H230420   5.460   6.501   2.857
10155TIP3   OH230421   3.513   0.728   0.211
10155TIP3    H130422   3.560   0.703   0.291
10155TIP3    H230423   3.486   0.819   0.227
10156TIP3   OH230424   7.190   0.228   3.925
10156TIP3    H130425   7.157   0.318   3.931
10156TIP3    H230426   7.260   0.223   3.990
10157TIP3   OH230427   4.623   1.696   5.561
10157TIP3    H130428   4.528   1.697   5.565
10157TIP3    H230429   4.643   1.706   5.467
10158TIP3   OH230430   2.986   3.232   1.089
10158TIP3    H130431   2.988   3.236   1.185
10158TIP3    H230432   2.898   3.261   1.066
10159TIP3   OH230433   6.774   7.425   2.608
10159TIP3    H130434   6.797   7.341   2.647
10159TIP3    H230435   6.797   7.415   2.516
10160TIP3   OH230436   4.340   1.538   3.994
10160TIP3    H130437   4.318   1.502   4.079
10160TIP3    H230438   4.257   1.575   3.962
10161TIP3   OH230439   6.102   6.150   3.683
10161TIP3    H130440   6.034   6.208   3.649
10161TIP3    H230441   6.109   6.174   3.776
10162TIP3   OH230442   4.470   0.459   1.167
10162TIP3    H130443   4.515   0.538   1.139
10162TIP3    H230444   4.496   0.447   1.258
10163TIP3   OH230445   5.712   1.397   6.529
10163TIP3    H130446   5.632   1.345   6.540
10163TIP3    H230447   5.711   1.459   6.603
10164TIP3   OH230448   3.123   2.880   2.683
10164TIP3    H130449   3.144   2.797   2.724
10164TIP3    H230450   3.067   2.857   2.609
10165TIP3   OH230451   1.185   3.308   2.039
10165TIP3    H130452   1.219   3.269   1.959
10165TIP3    H230453   1.095   3.275   2.045
10166TIP3   OH230454   1.044   2.926   4.215
10166TIP3    H130455   0.972   2.920   4.277
10166TIP3    H230456   1.120   2.893   4.263
10167TIP3   OH230457   6.443   5.959   3.892
10167TIP3    H130458   6.454   6.019   3.818
10167TIP3    H230459   6.528   5.957   3.935
10168TIP3   OH230460   4.379   3.324   4.993
10168TIP3    H130461   4.298   3.329   4.942
10168TIP3    H230462   4.360   3.376   5.072
10169TIP3   OH230463   4.971   4.710   3.142
10169TIP3    H130464   4.878   4.731   3.136
10169TIP3    H230465   5.009   4.744   3.061
10170TIP3   OH230466   0.249   1.876   3.630
10170TIP3    H130467   0.318   1.939   3.654
10170TIP3    H230468   0.226   1.900   3.540
10171TIP3   OH230469   3.227   1.473   2.405
10171TIP3    H130470   3.152   1.442   2.454
10171TIP3    H230471   3.269   1.537   2.463
10172TIP3   OH230472   6.689   5.902   3.116
10172TIP3    H130473   6.772   5.854   3.117
10172TIP3    H230474   6.704   5.975   3.177
10173TIP3   OH230475   2.322   5.996   3.394
10173TIP3    H130476   2.230   6.021   3.398
10173TIP3    H230477   2.365   6.071   3.352
10174TIP3   OH230478   5.429   2.665   1.917
10174TIP3    H130479   5.458   2.586   1.962
10174TIP3    H230480   5.507   2.697   1.872
10175TIP3   OH230481   6.907   3.434   6.263
10175TIP3    H130482   6.826   3.465   6.305
10175TIP3    H230483   6.879   3.401   6.178
10176TIP3   OH230484   5.548   4.067   1.906
10176TIP3    H130485   5.627   4.117   1.922
10176TIP3    H230486   5.561   3.986   1.955
10177TIP3   OH230487   5.179   1.841   6.701
10177TIP3    H130488   5.225   1.891   6.633
10177TIP3    H230489   5.249   1.811   6.759
10178TIP3   OH230490   5.387   7.398   3.187
10178TIP3    H130491   5.429   7.474   3.226
10178TIP3    H230492   5.356   7.429   3.102
10179TIP3   OH230493   2.824   7.818   0.335
10179TIP3    H130494   2.754   7.849   0.277
10179TIP3    H230495   2.839   7.727   0.307
10180TIP3   OH230496   3.704   4.187   1.542
10180TIP3    H130497   3.623   4.218   1.581
10180TIP3    H230498   3.762   4.171   1.617
10181TIP3   OH230499   4.155   3.318   6.111
10181TIP3    H130500   4.082   3.378   6.126
10181TIP3    H230501   4.122   3.255   6.047
10182TIP3   OH230502   3.138   3.519   2.729
10182TIP3    H130503   3.151   3.592   2.667
10182TIP3    H230504   3.048   3.489   2.712
10183TIP3   OH230505   1.845   2.444   2.601
10183TIP3    H130506   1.764   2.423   2.554
10183TIP3    H230507   1.838   2.538   2.618
10184TIP3   OH230508   5.615   3.049   0.134
10184TIP3    H130509   5.524   3.062   0.107
10184TIP3    H230510   5.660   3.128   0.102
10185TIP3   OH230511   4.980   2.045   1.549
10185TIP3    H130512   5.048   2.086   1.601
10185TIP3    H230513   4.916   2.114   1.534
10186TIP3   OH230514   5.636   0.161   5.983
10186TIP3    H130515   5.714   0.157   5.928
10186TIP3    H230516   5.584   0.085   5.956
10187TIP3   OH230517   4.189   6.297   4.907
10187TIP3    H130518   4.259   6.309   4.971
10187TIP3    H230519   4.222   6.340   4.827
10188TIP3   OH230520   3.842   2.576   3.310
10188TIP3    H130521   3.780   2.578   3.384
10188TIP3    H230522   3.878   2.665   3.307
10189TIP3   OH230523   6.218   2.537   0.400
10189TIP3    H130524   6.296   2.489   0.428
10189TIP3    H230525   6.223   2.535   0.304
10190TIP3   OH230526   1.971   6.838   2.707
10190TIP3    H130527   2.021   6.917   2.689
10190TIP3    H230528   2.015   6.799   2.782
10191TIP3   OH230529   2.713   2.242   4.070
10191TIP3    H130530   2.767   2.207   4.000
10191TIP3    H230531   2.645   2.177   4.084
10192TIP3   OH230532   4.398   7.700   3.115
10192TIP3    H130533   4.435   7.730   3.198
10192TIP3    H230534   4.420   7.769   3.053
10193TIP3   OH230535   4.912   5.025   6.383
10193TIP3    H130536   4.840   4.985   6.431
10193TIP3    H230537   4.907   5.118   6.405
10194TIP3   OH230538   1.602   4.270   3.875
10194TIP3    H130539   1.552   4.189   3.887
10194TIP3    H230540   1.655   4.277   3.955
10195TIP3   OH230541   7.736   0.374   0.636
10195TIP3    H130542   7.804   0.435   0.665
10195TIP3    H230543   7.771   0.288   0.657
10196TIP3   OH230544   7.726   4.353   3.890
10196TIP3    H130545   7.660   4.284   3.897
10196TIP3    H230546   7.675   4.433   3.876
10197TIP3   OH230547   2.221   1.996   0.068
10197TIP3    H130548   2.264   1.928   0.016
10197TIP3    H230549   2.128   1.978   0.059
10198TIP3   OH230550   2.750   0.038   0.781
10198TIP3    H130551   2.745  -0.057   0.793
10198TIP3    H230552   2.774   0.049   0.689
10199TIP3   OH230553   1.519   4.505   3.563
10199TIP3    H130554   1.500   4.591   3.601
10199TIP3    H230555   1.520   4.521   3.468
10200TIP3   OH230556   5.089   1.270   0.381
10200TIP3    H130557   5.114   1.297   0.293
10200TIP3    H230558   5.006   1.316   0.397
10201TIP3   OH230559   3.664   6.588   2.737
10201TIP3    H130560   3.736   6.651   2.730
10201TIP3    H230561   3.631   6.580   2.647
10202TIP3   OH230562   2.774   5.754   1.606
10202TIP3    H130563   2.723   5.674   1.591
10202TIP3    H230564   2.743   5.786   1.691
10203TIP3   OH230565   4.936   6.911   6.212
10203TIP3    H130566   4.985   6.956   6.282
10203TIP3    H230567   4.959   6.959   6.133
10204TIP3   OH230568   2.376   1.175   3.174
10204TIP3    H130569   2.372   1.115   3.100
10204TIP3    H230570   2.378   1.262   3.134
10205TIP3   OH230571   0.817   3.446   1.789
10205TIP3    H130572   0.908   3.476   1.791
10205TIP3    H230573   0.789   3.444   1.880
10206TIP3   OH230574   7.321   0.780   3.711
10206TIP3    H130575   7.279   0.724   3.776
10206TIP3    H230576   7.270   0.861   3.713
10207TIP3   OH230577   3.483   1.428   4.201
10207TIP3    H130578   3.516   1.510   4.238
10207TIP3    H230579   3.498   1.362   4.269
10208TIP3   OH230580   6.010   4.325   0.907
10208TIP3    H130581   6.003   4.345   1.000
10208TIP3    H230582   5.922   4.342   0.872
10209TIP3   OH230583   8.027   6.551   2.404
10209TIP3    H130584   8.016   6.468   2.450
10209TIP3    H230585   8.022   6.617   2.473
10210TIP3   OH230586   0.988   1.800   5.538
10210TIP3    H130587   1.012   1.707   5.537
10210TIP3    H230588   0.908   1.803   5.590
10211TIP3   OH230589   5.069   3.430   2.848
10211TIP3    H130590   5.062   3.458   2.939
10211TIP3    H230591   5.046   3.507   2.797
10212TIP3   OH230592   3.077   2.129   4.933
10212TIP3    H130593   3.164   2.168   4.938
10212TIP3    H230594   3.024   2.195   4.888
10213TIP3   OH230595   7.742   2.678   0.144
10213TIP3    H130596   7.836   2.690   0.153
10213TIP3    H230597   7.704   2.746   0.200
10214TIP3   OH230598   2.807   3.827   6.127
10214TIP3    H130599   2.866   3.853   6.198
10214TIP3    H230600   2.759   3.907   6.105
10215TIP3   OH230601   8.069   6.901   1.461
10215TIP3    H130602   8.142   6.933   1.514
10215TIP3    H230603   8.010   6.860   1.525
10216TIP3   OH230604   7.572   4.638   6.452
10216TIP3    H130605   7.528   4.593   6.380
10216TIP3    H230606   7.609   4.717   6.412
10217TIP3   OH230607   7.101   3.831   6.639
10217TIP3    H130608   7.185   3.860   6.673
10217TIP3    H230609   7.105   3.848   6.545
10218TIP3   OH230610   7.764   5.071   2.854
10218TIP3    H130611   7.842   5.100   2.805
10218TIP3    H230612   7.691   5.110   2.807
10219TIP3   OH230613   5.205   0.095   0.603
10219TIP3    H130614   5.127   0.081   0.657
10219TIP3    H230615   5.204   0.023   0.540
10220TIP3   OH230616   6.559   5.273   2.544
10220TIP3    H130617   6.608   5.329   2.605
10220TIP3    H230618   6.624   5.213   2.508
10221TIP3   OH230619   7.541   5.999   2.750
10221TIP3    H130620   7.583   5.976   2.833
10221TIP3    H230621   7.455   6.033   2.775
10222TIP3   OH230622   0.713   7.671   4.252
10222TIP3    H130623   0.705   7.608   4.181
10222TIP3    H230624   0.722   7.756   4.208
10223TIP3   OH230625   2.275   1.774   2.114
10223TIP3    H130626   2.247   1.865   2.128
10223TIP3    H230627   2.370   1.779   2.104
10224TIP3   OH230628   4.723   6.444   1.299
10224TIP3    H130629   4.778   6.459   1.376
10224TIP3    H230630   4.665   6.521   1.296
10225TIP3   OH230631   8.134   2.608   0.981
10225TIP3    H130632   8.165   2.630   0.893
10225TIP3    H230633   8.128   2.692   1.026
10226TIP3   OH230634   1.293   5.338   5.505
10226TIP3    H130635   1.303   5.412   5.565
10226TIP3    H230636   1.296   5.261   5.562
10227TIP3   OH230637   5.693   0.023   4.479
10227TIP3    H130638   5.750   0.095   4.508
10227TIP3    H230639   5.668   0.047   4.390
10228TIP3   OH230640   6.095   4.360   1.774
10228TIP3    H130641   6.101   4.350   1.869
10228TIP3    H230642   6.128   4.277   1.739
10229TIP3   OH230643   5.882   4.370   1.237
10229TIP3    H130644   5.909   4.283   1.265
10229TIP3    H230645   5.819   4.398   1.303
10230TIP3   OH230646   2.714   6.810   0.141
10230TIP3    H130647   2.650   6.881   0.135
10230TIP3    H230648   2.796   6.854   0.162
10231TIP3   OH230649   5.312   6.543   1.552
10231TIP3    H130650   5.341   6.609   1.614
10231TIP3    H230651   5.267   6.477   1.605
10232TIP3   OH230652   4.136   7.641   5.445
10232TIP3    H130653   4.052   7.634   5.490
10232TIP3    H230654   4.187   7.567   5.477
10233TIP3   OH230655   2.666   3.722   2.872
10233TIP3    H130656   2.628   3.747   2.787
10233TIP3    H230657   2.755   3.694   2.851
10234TIP3   OH230658   1.891   7.631   1.776
10234TIP3    H130659   1.842   7.703   1.737
10234TIP3    H230660   1.878   7.558   1.714
10235TIP3   OH230661   5.102   6.472   0.893
10235TIP3    H130662   5.031   6.457   0.830
10235TIP3    H230663   5.174   6.418   0.861
10236TIP3   OH230664   4.376   7.781   4.399
10236TIP3    H130665   4.303   7.840   4.413
10236TIP3    H230666   4.338   7.693   4.408
10237TIP3   OH230667   6.138   4.845   5.734
10237TIP3    H130668   6.119   4.885   5.650
10237TIP3    H230669   6.118   4.913   5.799
10238TIP3   OH230670   0.272   0.942   2.737
10238TIP3    H130671   0.308   1.030   2.727
10238TIP3    H230672   0.297   0.915   2.825
10239TIP3   OH230673   7.776   0.859   0.584
10239TIP3    H130674   7.823   0.938   0.557
10239TIP3    H230675   7.743   0.880   0.671
10240TIP3   OH230676   3.045   2.138   1.375
10240TIP3    H130677   3.077   2.134   1.465
10240TIP3    H230678   3.118   2.173   1.325
10241TIP3   OH230679   8.212   2.161   6.430
10241TIP3    H130680   8.174   2.073   6.435
10241TIP3    H230681   8.214   2.191   6.521
10242TIP3   OH230682   4.060   7.205   1.223
10242TIP3    H130683   4.089   7.116   1.244
10242TIP3    H230684   4.052   7.248   1.308
10243TIP3   OH230685   3.616   5.504   4.196
10243TIP3    H130686   3.540   5.529   4.144
10243TIP3    H230687   3.637   5.582   4.247
10244TIP3   OH230688   5.877   4.404   2.157
10244TIP3    H130689   5.877   4.479   2.217
10244TIP3    H230690   5.969   4.384   2.142
10245TIP3   OH230691   7.016   1.929   4.802
10245TIP3    H130692   7.015   1.914   4.708
10245TIP3    H230693   7.099   1.975   4.819
10246TIP3   OH230694   1.820   4.737   1.690
10246TIP3    H130695   1.908   4.728   1.654
10246TIP3    H230696   1.769   4.669   1.646
10247TIP3   OH230697   1.974   4.220   6.350
10247TIP3    H130698   1.899   4.233   6.408
10247TIP3    H230699   2.049   4.253   6.400
10248TIP3   OH230700   7.626   6.922   0.181
10248TIP3    H130701   7.570   6.981   0.131
10248TIP3    H230702   7.568   6.886   0.249
10249TIP3   OH230703   5.223   4.949   3.988
10249TIP3    H130704   5.233   4.880   4.054
10249TIP3    H230705   5.202   4.902   3.908
10250TIP3   OH230706   1.167   6.529   1.875
10250TIP3    H130707   1.253   6.488   1.867
10250TIP3    H230708   1.160   6.552   1.968
10251TIP3   OH230709   6.053   0.897   3.744
10251TIP3    H130710   6.063   0.828   3.678
10251TIP3    H230711   6.025   0.851   3.823
10252TIP3   OH230712   3.175   1.254   2.921
10252TIP3    H130713   3.249   1.231   2.976
10252TIP3    H230714   3.101   1.206   2.959
10253TIP3   OH230715   3.880   6.372   4.768
10253TIP3    H130716   3.840   6.306   4.824
10253TIP3    H230717   3.870   6.454   4.818
10254TIP3   OH230718   2.863   7.173   5.947
10254TIP3    H130719   2.884   7.151   6.038
10254TIP3    H230720   2.842   7.266   5.950
10255TIP3   OH230721   6.383   0.298   5.553
10255TIP3    H130722   6.424   0.377   5.588
10255TIP3    H230723   6.336   0.327   5.475
10256TIP3   OH230724   5.572   7.097   6.273
10256TIP3    H130725   5.568   7.061   6.185
10256TIP3    H230726   5.652   7.059   6.311
10257TIP3   OH230727   5.374   5.066   5.890
10257TIP3    H130728   5.358   4.989   5.836
10257TIP3    H230729   5.297   5.122   5.875
10258TIP3   OH230730   2.121   4.732   6.029
10258TIP3    H130731   2.143   4.825   6.019
10258TIP3    H230732   2.032   4.725   5.995
10259TIP3   OH230733   7.557   5.337   4.269
10259TIP3    H130734   7.529   5.259   4.317
10259TIP3    H230735   7.627   5.306   4.211
10260TIP3   OH230736   4.312   7.117   0.130
10260TIP3    H130737   4.405   7.136   0.120
10260TIP3    H230738   4.279   7.190   0.183
10261TIP3   OH230739   3.235   5.207   4.726
10261TIP3    H130740   3.249   5.300   4.744
10261TIP3    H230741   3.197   5.171   4.806
10262TIP3   OH230742   2.046   7.592   0.647
10262TIP3    H130743   1.957   7.623   0.634
10262TIP3    H230744   2.052   7.511   0.597
10263TIP3   OH230745   4.255   0.264   4.451
10263TIP3    H130746   4.267   0.349   4.494
10263TIP3    H230747   4.238   0.203   4.522
10264TIP3   OH230748   7.564   4.501   3.669
10264TIP3    H130749   7.623   4.572   3.643
10264TIP3    H230750   7.558   4.446   3.591
10265TIP3   OH230751   5.911   1.078   4.278
10265TIP3    H130752   5.966   1.155   4.266
10265TIP3    H230753   5.882   1.055   4.190
10266TIP3   OH230754   4.672   6.960   3.591
10266TIP3    H130755   4.602   6.925   3.647
10266TIP3    H230756   4.753   6.937   3.637
10267TIP3   OH230757   0.858   1.579   2.638
10267TIP3    H130758   0.860   1.652   2.576
10267TIP3    H230759   0.786   1.524   2.609
10268TIP3   OH230760   4.281   0.895   0.915
10268TIP3    H130761   4.240   0.893   1.002
10268TIP3    H230762   4.245   0.819   0.870
10269TIP3   OH230763   3.975   2.543   0.170
10269TIP3    H130764   3.890   2.572   0.135
10269TIP3    H230765   3.994   2.464   0.120
10270TIP3   OH230766   8.157   1.557   2.597
10270TIP3    H130767   8.217   1.603   2.656
10270TIP3    H230768   8.170   1.600   2.512
10271TIP3   OH230769   5.838   4.128   3.864
10271TIP3    H130770   5.931   4.108   3.876
10271TIP3    H230771   5.820   4.196   3.928
10272TIP3   OH230772   0.966   5.724   5.262
10272TIP3    H130773   0.895   5.693   5.205
10272TIP3    H230774   1.045   5.682   5.226
10273TIP3   OH230775   1.684   5.487   1.862
10273TIP3    H130776   1.737   5.411   1.838
10273TIP3    H230777   1.712   5.508   1.952
10274TIP3   OH230778   4.873   5.609   5.142
10274TIP3    H130779   4.959   5.573   5.164
10274TIP3    H230780   4.813   5.564   5.202
10275TIP3   OH230781   0.719   5.684   0.199
10275TIP3    H130782   0.757   5.722   0.120
10275TIP3    H230783   0.738   5.748   0.268
10276TIP3   OH230784   6.365   4.878   2.661
10276TIP3    H130785   6.452   4.840   2.675
10276TIP3    H230786   6.323   4.872   2.747
10277TIP3   OH230787   7.059   7.020   1.780
10277TIP3    H130788   7.029   7.016   1.871
10277TIP3    H230789   7.124   7.090   1.780
10278TIP3   OH230790   1.658   6.117   5.622
10278TIP3    H130791   1.675   6.206   5.589
10278TIP3    H230792   1.743   6.086   5.654
10279TIP3   OH230793   2.569   7.008   5.421
10279TIP3    H130794   2.536   6.998   5.510
10279TIP3    H230795   2.633   6.937   5.411
10280TIP3   OH230796   4.415   0.098   5.158
10280TIP3    H130797   4.493   0.047   5.138
10280TIP3    H230798   4.446   0.188   5.165
10281TIP3   OH230799   3.241   1.936   1.293
10281TIP3    H130800   3.177   1.954   1.362
10281TIP3    H230801   3.289   2.018   1.283
10282TIP3   OH230802   2.807   1.202   3.607
10282TIP3    H130803   2.792   1.245   3.523
10282TIP3    H230804   2.808   1.272   3.672
10283TIP3   OH230805   6.057   2.767   5.575
10283TIP3    H130806   6.066   2.707   5.649
10283TIP3    H230807   5.991   2.726   5.519
10284TIP3   OH230808   1.332   1.750   6.649
10284TIP3    H130809   1.379   1.697   6.584
10284TIP3    H230810   1.362   1.717   6.733
10285TIP3   OH230811   7.405   5.662   1.842
10285TIP3    H130812   7.310   5.667   1.841
10285TIP3    H230813   7.424   5.579   1.887
10286TIP3   OH230814   2.996   0.603   2.806
10286TIP3    H130815   3.085   0.635   2.817
10286TIP3    H230816   2.997   0.559   2.721
10287TIP3   OH230817   5.531   6.283   1.755
10287TIP3    H130818   5.572   6.272   1.669
10287TIP3    H230819   5.601   6.266   1.818
10288TIP3   OH230820   5.547   4.410   4.018
10288TIP3    H130821   5.533   4.432   3.926
10288TIP3    H230822   5.640   4.390   4.024
10289TIP3   OH230823   7.963   6.311   6.163
10289TIP3    H130824   7.953   6.350   6.077
10289TIP3    H230825   8.003   6.380   6.216
10290TIP3   OH230826   4.093   5.985   1.752
10290TIP3    H130827   4.029   5.927   1.712
10290TIP3    H230828   4.118   6.045   1.682
10291TIP3   OH230829   4.464   5.197   3.834
10291TIP3    H130830   4.438   5.117   3.881
10291TIP3    H230831   4.391   5.215   3.775
10292TIP3   OH230832   3.196   4.053   6.642
10292TIP3    H130833   3.232   4.116   6.705
10292TIP3    H230834   3.256   4.058   6.567
10293TIP3   OH230835   1.512   3.784   6.306
10293TIP3    H130836   1.516   3.842   6.382
10293TIP3    H230837   1.474   3.703   6.339
10294TIP3   OH230838   8.039   2.164   1.175
10294TIP3    H130839   7.975   2.217   1.222
10294TIP3    H230840   8.079   2.108   1.242
10295TIP3   OH230841   0.611   2.752   4.565
10295TIP3    H130842   0.677   2.796   4.619
10295TIP3    H230843   0.567   2.693   4.626
10296TIP3   OH230844   7.646   7.742   1.155
10296TIP3    H130845   7.592   7.764   1.079
10296TIP3    H230846   7.624   7.651   1.174
10297TIP3   OH230847   5.238   1.805   2.008
10297TIP3    H130848   5.263   1.871   2.073
10297TIP3    H230849   5.143   1.817   1.998
10298TIP3   OH230850   1.189   3.234   3.394
10298TIP3    H130851   1.245   3.311   3.388
10298TIP3    H230852   1.100   3.267   3.376
10299TIP3   OH230853   4.321   7.114   3.430
10299TIP3    H130854   4.402   7.129   3.478
10299TIP3    H230855   4.346   7.124   3.338
10300TIP3   OH230856   7.272   7.485   5.148
10300TIP3    H130857   7.287   7.505   5.056
10300TIP3    H230858   7.213   7.409   5.146
10301TIP3   OH230859   4.062   1.338   3.815
10301TIP3    H130860   3.997   1.380   3.759
10301TIP3    H230861   4.146   1.369   3.781
10302TIP3   OH230862   0.252   4.165   2.430
10302TIP3    H130863   0.277   4.139   2.341
10302TIP3    H230864   0.302   4.246   2.445
10303TIP3   OH230865   1.595   2.224   2.940
10303TIP3    H130866   1.666   2.191   2.885
10303TIP3    H230867   1.633   2.299   2.986
10304TIP3   OH230868   2.956   4.491   3.767
10304TIP3    H130869   3.041   4.453   3.788
10304TIP3    H230870   2.911   4.423   3.717
10305TIP3   OH230871   0.886   1.294   5.622
10305TIP3    H130872   0.797   1.258   5.628
10305TIP3    H230873   0.906   1.322   5.712
10306TIP3   OH230874   5.681   0.783   2.314
10306TIP3    H130875   5.625   0.706   2.301
10306TIP3    H230876   5.729   0.792   2.232
10307TIP3   OH230877   3.144   2.077   4.165
10307TIP3    H130878   3.093   2.107   4.240
10307TIP3    H230879   3.177   1.992   4.191
10308TIP3   OH230880   5.295   3.296   2.738
10308TIP3    H130881   5.217   3.331   2.782
10308TIP3    H230882   5.366   3.354   2.766
10309TIP3   OH230883   1.307   3.972   0.067
10309TIP3    H130884   1.363   3.895   0.078
10309TIP3    H230885   1.261   3.981   0.151
10310TIP3   OH230886   2.039   3.158   6.052
10310TIP3    H130887   2.080   3.188   6.133
10310TIP3    H230888   1.960   3.113   6.081
10311TIP3   OH230889   2.902   4.868   3.597
10311TIP3    H130890   2.960   4.835   3.665
10311TIP3    H230891   2.814   4.860   3.634
10312TIP3   OH230892   7.197   0.361   4.764
10312TIP3    H130893   7.158   0.447   4.779
10312TIP3    H230894   7.217   0.360   4.670
10313TIP3   OH230895   2.081   6.982   5.854
10313TIP3    H130896   2.110   7.071   5.874
10313TIP3    H230897   1.992   6.992   5.820
10314TIP3   OH230898   3.806   0.347   5.638
10314TIP3    H130899   3.770   0.300   5.713
10314TIP3    H230900   3.802   0.284   5.566
10315TIP3   OH230901   5.310   0.237   4.913
10315TIP3    H130902   5.381   0.301   4.916
10315TIP3    H230903   5.257   0.264   4.837
10316TIP3   OH230904   4.524   4.712   3.672
10316TIP3    H130905   4.468   4.685   3.600
10316TIP3    H230906   4.578   4.635   3.690
10317TIP3   OH230907   0.982   5.666   2.784
10317TIP3    H130908   0.979   5.658   2.689
10317TIP3    H230909   0.927   5.743   2.803
10318TIP3   OH230910   1.952   5.299   0.472
10318TIP3    H130911   1.988   5.272   0.388
10318TIP3    H230912   2.008   5.371   0.501
10319TIP3   OH230913   5.442   5.796   6.311
10319TIP3    H130914   5.366   5.742   6.333
10319TIP3    H230915   5.517   5.744   6.341
10320TIP3   OH230916   4.169   7.769   3.331
10320TIP3    H130917   4.091   7.825   3.329
10320TIP3    H230918   4.236   7.820   3.285
10321TIP3   OH230919   5.495   5.883   3.460
10321TIP3    H130920   5.485   5.972   3.428
10321TIP3    H230921   5.408   5.844   3.450
10322TIP3   OH230922   0.507   3.109   3.609
10322TIP3    H130923   0.430   3.153   3.645
10322TIP3    H230924   0.482   3.088   3.519
10323TIP3   OH230925   2.752   6.229   2.903
10323TIP3    H130926   2.785   6.217   2.992
10323TIP3    H230927   2.759   6.142   2.863
10324TIP3   OH230928   8.312   3.392   3.534
10324TIP3    H130929   8.296   3.298   3.535
10324TIP3    H230930   8.226   3.432   3.523
10325TIP3   OH230931   4.100   4.450   1.882
10325TIP3    H130932   4.185   4.478   1.917
10325TIP3    H230933   4.043   4.525   1.896
10326TIP3   OH230934   2.274   6.017   6.579
10326TIP3    H130935   2.241   5.978   6.498
10326TIP3    H230936   2.354   6.062   6.553
10327TIP3   OH230937   6.816   0.514   4.623
10327TIP3    H130938   6.827   0.495   4.529
10327TIP3    H230939   6.805   0.429   4.664
10328TIP3   OH230940   2.366   6.063   5.083
10328TIP3    H130941   2.360   6.045   4.989
10328TIP3    H230942   2.341   5.980   5.124
10329TIP3   OH230943   2.808   7.675   6.404
10329TIP3    H130944   2.754   7.641   6.333
10329TIP3    H230945   2.794   7.770   6.401
10330TIP3   OH230946   5.149   6.432   6.655
10330TIP3    H130947   5.110   6.345   6.664
10330TIP3    H230948   5.234   6.424   6.699
10331TIP3   OH230949   6.949   5.848   6.429
10331TIP3    H130950   6.859   5.882   6.430
10331TIP3    H230951   6.976   5.850   6.521
10332TIP3   OH230952   3.443   3.976   2.837
10332TIP3    H130953   3.532   3.979   2.801
10332TIP3    H230954   3.437   4.053   2.894
10333TIP3   OH230955   3.931   0.484   2.302
10333TIP3    H130956   3.971   0.411   2.350
10333TIP3    H230957   3.906   0.446   2.218
10334TIP3   OH230958   5.507   6.701   5.158
10334TIP3    H130959   5.438   6.661   5.211
10334TIP3    H230960   5.466   6.716   5.073
10335TIP3   OH230961   1.558   0.990   2.574
10335TIP3    H130962   1.483   0.935   2.599
10335TIP3    H230963   1.611   0.934   2.518
10336TIP3   OH230964   4.438   6.263   6.418
10336TIP3    H130965   4.473   6.276   6.506
10336TIP3    H230966   4.427   6.168   6.410
10337TIP3   OH230967   2.558   7.658   5.612
10337TIP3    H130968   2.500   7.722   5.572
10337TIP3    H230969   2.573   7.690   5.701
10338TIP3   OH230970   0.765   0.760   0.205
10338TIP3    H130971   0.689   0.717   0.167
10338TIP3    H230972   0.732   0.842   0.240
10339TIP3   OH230973   6.426   7.797   0.913
10339TIP3    H130974   6.404   7.705   0.898
10339TIP3    H230975   6.395   7.815   1.002
10340TIP3   OH230976   6.222   7.389   4.617
10340TIP3    H130977   6.210   7.443   4.539
10340TIP3    H230978   6.241   7.301   4.582
10341TIP3   OH230979   3.505   2.680   4.235
10341TIP3    H130980   3.414   2.707   4.221
10341TIP3    H230981   3.534   2.734   4.309
10342TIP3   OH230982   3.504   3.299   3.723
10342TIP3    H130983   3.419   3.337   3.747
10342TIP3    H230984   3.560   3.318   3.799
10343TIP3   OH230985   4.467   5.478   2.194
10343TIP3    H130986   4.444   5.386   2.183
10343TIP3    H230987   4.454   5.495   2.287
10344TIP3   OH230988   1.312   6.025   0.619
10344TIP3    H130989   1.264   6.061   0.693
10344TIP3    H230990   1.337   5.937   0.647
10345TIP3   OH230991   5.046   5.838   4.512
10345TIP3    H130992   5.053   5.933   4.507
10345TIP3    H230993   4.962   5.817   4.471
10346TIP3   OH230994   0.365   0.692   5.476
10346TIP3    H130995   0.292   0.726   5.424
10346TIP3    H230996   0.330   0.688   5.566
10347TIP3   OH230997   6.526   4.635   2.495
10347TIP3    H130998   6.593   4.679   2.443
10347TIP3    H230999   6.529   4.680   2.580
10348TIP3   OH231000   1.884   7.662   3.632
10348TIP3    H131001   1.932   7.630   3.709
10348TIP3    H231002   1.953   7.682   3.568
10349TIP3   OH231003   2.609   3.628   4.642
10349TIP3    H131004   2.515   3.643   4.630
10349TIP3    H231005   2.615   3.583   4.727
10350TIP3   OH231006   3.960   4.540   2.615
10350TIP3    H131007   4.003   4.467   2.660
10350TIP3    H231008   3.866   4.522   2.626
10351TIP3   OH231009   6.854   3.288   1.014
10351TIP3    H131010   6.935   3.241   1.036
10351TIP3    H231011   6.855   3.365   1.070
10352TIP3   OH231012   2.987   4.289   6.241
10352TIP3    H131013   2.981   4.339   6.159
10352TIP3    H231014   3.080   4.266   6.249
10353TIP3   OH231015   7.361   4.963   4.686
10353TIP3    H131016   7.329   4.966   4.776
10353TIP3    H231017   7.290   5.002   4.635
10354TIP3   OH231018   3.413   1.763   5.965
10354TIP3    H131019   3.486   1.823   5.955
10354TIP3    H231020   3.428   1.695   5.898
10355TIP3   OH231021   4.081   6.342   4.432
10355TIP3    H131022   4.073   6.329   4.338
10355TIP3    H231023   4.001   6.389   4.457
10356TIP3   OH231024   7.108   7.598   2.673
10356TIP3    H131025   7.021   7.637   2.664
10356TIP3    H231026   7.165   7.654   2.620
10357TIP3   OH231027   6.783   1.579   0.848
10357TIP3    H131028   6.704   1.632   0.836
10357TIP3    H231029   6.799   1.539   0.762
10358TIP3   OH231030   3.370   1.753   2.203
10358TIP3    H131031   3.352   1.826   2.262
10358TIP3    H231032   3.455   1.720   2.231
10359TIP3   OH231033   5.086   7.381   4.700
10359TIP3    H131034   5.151   7.450   4.684
10359TIP3    H231035   5.003   7.419   4.672
10360TIP3   OH231036   7.917   7.723   2.293
10360TIP3    H131037   7.951   7.717   2.383
10360TIP3    H231038   7.862   7.801   2.293
10361TIP3   OH231039   6.657   3.808   1.172
10361TIP3    H131040   6.585   3.778   1.117
10361TIP3    H231041   6.681   3.893   1.137
10362TIP3   OH231042   4.056   0.511   3.465
10362TIP3    H131043   4.017   0.447   3.405
10362TIP3    H231044   4.149   0.488   3.468
10363TIP3   OH231045   2.288   5.546   0.734
10363TIP3    H131046   2.344   5.586   0.668
10363TIP3    H231047   2.298   5.602   0.811
10364TIP3   OH231048   0.522   6.584   5.431
10364TIP3    H131049   0.575   6.519   5.384
10364TIP3    H231050   0.446   6.534   5.463
10365TIP3   OH231051   6.700   0.744   6.490
10365TIP3    H131052   6.738   0.681   6.429
10365TIP3    H231053   6.764   0.749   6.562
10366TIP3   OH231054   1.578   7.509   2.526
10366TIP3    H131055   1.525   7.430   2.520
10366TIP3    H231056   1.580   7.544   2.437
10367TIP3   OH231057   3.758   5.873   5.638
10367TIP3    H131058   3.806   5.884   5.720
10367TIP3    H231059   3.813   5.916   5.572
10368TIP3   OH231060   2.583   3.817   1.946
10368TIP3    H131061   2.663   3.774   1.974
10368TIP3    H231062   2.610   3.907   1.926
10369TIP3   OH231063   4.892   1.871   2.976
10369TIP3    H131064   4.878   1.800   3.039
10369TIP3    H231065   4.862   1.950   3.021
10370TIP3   OH231066   5.525   1.325   4.130
10370TIP3    H131067   5.529   1.362   4.041
10370TIP3    H231068   5.432   1.324   4.152
10371TIP3   OH231069   0.640   1.709   2.374
10371TIP3    H131070   0.622   1.704   2.280
10371TIP3    H231071   0.626   1.620   2.406
10372TIP3   OH231072   4.417   0.507   5.444
10372TIP3    H131073   4.335   0.553   5.459
10372TIP3    H231074   4.431   0.456   5.524
10373TIP3   OH231075   2.264   0.597   6.077
10373TIP3    H131076   2.335   0.656   6.051
10373TIP3    H231077   2.253   0.540   6.001
10374TIP3   OH231078   4.352   1.895   3.918
10374TIP3    H131079   4.284   1.962   3.923
10374TIP3    H231080   4.334   1.835   3.990
10375TIP3   OH231081   7.277   2.447   5.057
10375TIP3    H131082   7.343   2.474   5.121
10375TIP3    H231083   7.207   2.407   5.108
10376TIP3   OH231084   5.688   0.644   4.466
10376TIP3    H131085   5.617   0.698   4.430
10376TIP3    H231086   5.663   0.554   4.442
10377TIP3   OH231087   2.971   3.246   3.852
10377TIP3    H131088   3.004   3.335   3.841
10377TIP3    H231089   2.887   3.246   3.805
10378TIP3   OH231090   2.913   0.958   4.574
10378TIP3    H131091   2.973   0.893   4.610
10378TIP3    H231092   2.895   1.017   4.648
10379TIP3   OH231093   3.636   5.810   6.726
10379TIP3    H131094   3.656   5.896   6.688
10379TIP3    H231095   3.721   5.765   6.727
10380TIP3   OH231096   5.350   1.822   1.055
10380TIP3    H131097   5.389   1.775   0.982
10380TIP3    H231098   5.416   1.887   1.081
10381TIP3   OH231099   2.538   0.596   3.869
10381TIP3    H131100   2.513   0.673   3.919
10381TIP3    H231101   2.461   0.575   3.815
10382TIP3   OH231102   7.097   4.842   4.866
10382TIP3    H131103   7.113   4.776   4.799
10382TIP3    H231104   7.172   4.835   4.925
10383TIP3   OH231105   3.783   6.731   4.489
10383TIP3    H131106   3.844   6.799   4.460
10383TIP3    H231107   3.744   6.767   4.568
10384TIP3   OH231108   7.541   1.846   1.379
10384TIP3    H131109   7.507   1.892   1.302
10384TIP3    H231110   7.465   1.832   1.434
10385TIP3   OH231111   6.645   5.496   1.070
10385TIP3    H131112   6.671   5.432   1.136
10385TIP3    H231113   6.639   5.579   1.118
10386TIP3   OH231114   5.836   2.476   3.444
10386TIP3    H131115   5.795   2.415   3.504
10386TIP3    H231116   5.774   2.548   3.436
10387TIP3   OH231117   2.738   5.995   2.791
10387TIP3    H131118   2.683   5.917   2.798
10387TIP3    H231119   2.828   5.961   2.789
10388TIP3   OH231120   2.008   3.859   0.730
10388TIP3    H131121   2.055   3.826   0.807
10388TIP3    H231122   2.045   3.945   0.715
10389TIP3   OH231123   0.822   2.253   2.710
10389TIP3    H131124   0.811   2.167   2.669
10389TIP3    H231125   0.799   2.316   2.641
10390TIP3   OH231126   2.088   3.131   1.600
10390TIP3    H131127   2.134   3.213   1.617
10390TIP3    H231128   1.998   3.148   1.627
10391TIP3   OH231129   4.461   4.898   1.266
10391TIP3    H131130   4.389   4.839   1.243
10391TIP3    H231131   4.488   4.936   1.182
10392TIP3   OH231132   4.164   0.477   3.994
10392TIP3    H131133   4.224   0.542   3.956
10392TIP3    H231134   4.100   0.459   3.925
10393TIP3   OH231135   3.900   4.566   3.416
10393TIP3    H131136   3.906   4.631   3.346
10393TIP3    H231137   3.918   4.482   3.374
10394TIP3   OH231138   7.244   2.425   2.189
10394TIP3    H131139   7.338   2.433   2.202
10394TIP3    H231140   7.206   2.483   2.256
10395TIP3   OH231141   1.545   0.547   3.467
10395TIP3    H131142   1.618   0.521   3.410
10395TIP3    H231143   1.586   0.565   3.552
10396TIP3   OH231144   3.415   4.337   0.116
10396TIP3    H131145   3.414   4.374   0.028
10396TIP3    H231146   3.507   4.339   0.141
10397TIP3   OH231147   1.989   4.315   4.532
10397TIP3    H131148   1.901   4.282   4.545
10397TIP3    H231149   1.977   4.410   4.520
10398TIP3   OH231150   4.890   6.426   5.822
10398TIP3    H131151   4.944   6.391   5.751
10398TIP3    H231152   4.953   6.460   5.886
10399TIP3   OH231153   2.073   0.592   1.946
10399TIP3    H131154   2.126   0.633   2.014
10399TIP3    H231155   1.986   0.583   1.985
10400TIP3   OH231156   7.600   1.339   1.798
10400TIP3    H131157   7.671   1.366   1.856
10400TIP3    H231158   7.601   1.243   1.802
10401TIP3   OH231159   1.847   2.786   0.817
10401TIP3    H131160   1.861   2.732   0.740
10401TIP3    H231161   1.753   2.785   0.831
10402TIP3   OH231162   4.501   0.998   0.773
10402TIP3    H131163   4.449   0.933   0.820
10402TIP3    H231164   4.437   1.046   0.720
10403TIP3   OH231165   7.537   4.847   5.137
10403TIP3    H131166   7.542   4.926   5.084
10403TIP3    H231167   7.611   4.795   5.109
10404TIP3   OH231168   6.517   3.743   5.578
10404TIP3    H131169   6.583   3.675   5.570
10404TIP3    H231170   6.513   3.762   5.672
10405TIP3   OH231171   0.189   5.650   1.916
10405TIP3    H131172   0.213   5.606   1.834
10405TIP3    H231173   0.106   5.692   1.897
10406TIP3   OH231174   5.417   2.585   5.616
10406TIP3    H131175   5.379   2.589   5.528
10406TIP3    H231176   5.403   2.495   5.645
10407TIP3   OH231177   7.333   1.217   4.586
10407TIP3    H131178   7.394   1.225   4.513
10407TIP3    H231179   7.247   1.206   4.545
10408TIP3   OH231180   8.096   7.018   2.937
10408TIP3    H131181   8.133   7.016   2.849
10408TIP3    H231182   8.026   6.952   2.935
10409TIP3   OH231183   0.532   3.660   3.197
10409TIP3    H131184   0.624   3.672   3.219
10409TIP3    H231185   0.513   3.731   3.134
10410TIP3   OH231186   0.607   0.079   1.442
10410TIP3    H131187   0.644  -0.010   1.448
10410TIP3    H231188   0.666   0.125   1.383
10411TIP3   OH231189   1.669   4.525   5.501
10411TIP3    H131190   1.708   4.520   5.589
10411TIP3    H231191   1.675   4.618   5.478
10412TIP3   OH231192   8.277   1.783   4.619
10412TIP3    H131193   8.203   1.777   4.681
10412TIP3    H231194   8.284   1.696   4.582
10413TIP3   OH231195   7.655   3.134   6.192
10413TIP3    H131196   7.716   3.189   6.241
10413TIP3    H231197   7.660   3.166   6.102
10414TIP3   OH231198   0.753   3.156   0.794
10414TIP3    H131199   0.680   3.102   0.762
10414TIP3    H231200   0.720   3.245   0.791
10415TIP3   OH231201   7.977   7.518   1.231
10415TIP3    H131202   7.898   7.545   1.185
10415TIP3    H231203   7.946   7.461   1.301
10416TIP3   OH231204   6.466   5.846   3.599
10416TIP3    H131205   6.549   5.889   3.621
10416TIP3    H231206   6.443   5.882   3.513
10417TIP3   OH231207   4.488   5.864   1.138
10417TIP3    H131208   4.563   5.843   1.193
10417TIP3    H231209   4.522   5.929   1.076
10418TIP3   OH231210   0.953   3.686   4.044
10418TIP3    H131211   1.013   3.616   4.070
10418TIP3    H231212   0.874   3.670   4.095
10419TIP3   OH231213   3.603   2.785   1.650
10419TIP3    H131214   3.629   2.878   1.650
10419TIP3    H231215   3.623   2.755   1.562
10420TIP3   OH231216   4.942   6.022   0.309
10420TIP3    H131217   4.932   6.032   0.403
10420TIP3    H231218   4.853   6.007   0.276
10421TIP3   OH231219   2.902   4.427   0.410
10421TIP3    H131220   2.879   4.359   0.346
10421TIP3    H231221   2.987   4.460   0.379
10422TIP3   OH231222   3.186   1.915   5.294
10422TIP3    H131223   3.124   1.843   5.300
10422TIP3    H231224   3.194   1.947   5.385
10423TIP3   OH231225   6.703   4.463   0.713
10423TIP3    H131226   6.660   4.528   0.657
10423TIP3    H231227   6.786   4.503   0.738
10424TIP3   OH231228   5.815   4.963   4.450
10424TIP3    H131229   5.723   4.990   4.451
10424TIP3    H231230   5.863   5.046   4.450
10425TIP3   OH231231   0.879   7.159   1.699
10425TIP3    H131232   0.907   7.139   1.789
10425TIP3    H231233   0.930   7.100   1.644
10426TIP3   OH231234   5.949   3.149   6.750
10426TIP3    H131235   6.028   3.180   6.705
10426TIP3    H231236   5.932   3.063   6.712
10427TIP3   OH231237   6.851   4.038   6.330
10427TIP3    H131238   6.814   4.120   6.365
10427TIP3    H231239   6.931   4.065   6.285
10428TIP3   OH231240   7.903   4.995   5.501
10428TIP3    H131241   7.816   4.963   5.477
10428TIP3    H231242   7.888   5.057   5.572
10429TIP3   OH231243   3.394   4.965   4.035
10429TIP3    H131244   3.381   5.057   4.059
10429TIP3    H231245   3.313   4.941   3.990
10430TIP3   OH231246   3.862   6.182   2.981
10430TIP3    H131247   3.866   6.097   2.936
10430TIP3    H231248   3.814   6.239   2.920
10431TIP3   OH231249   6.412   4.893   1.866
10431TIP3    H131250   6.451   4.821   1.915
10431TIP3    H231251   6.322   4.898   1.897
10432TIP3   OH231252   2.121   3.520   1.492
10432TIP3    H131253   2.172   3.600   1.482
10432TIP3    H231254   2.116   3.483   1.404
10433TIP3   OH231255   4.125   4.004   4.329
10433TIP3    H131256   4.213   3.991   4.366
10433TIP3    H231257   4.133   3.981   4.237
10434TIP3   OH231258   2.405   3.000   4.901
10434TIP3    H131259   2.327   2.971   4.949
10434TIP3    H231260   2.476   2.996   4.965
10435TIP3   OH231261   7.203   0.265   3.623
10435TIP3    H131262   7.176   0.356   3.613
10435TIP3    H231263   7.171   0.241   3.711
10436TIP3   OH231264   3.611   2.836   5.281
10436TIP3    H131265   3.534   2.871   5.236
10436TIP3    H231266   3.611   2.878   5.367
10437TIP3   OH231267   0.300   2.108   2.666
10437TIP3    H131268   0.315   2.199   2.691
10437TIP3    H231269   0.378   2.062   2.695
10438TIP3   OH231270   3.712   0.924   0.070
10438TIP3    H131271   3.672   0.863   0.008
10438TIP3    H231272   3.742   0.997   0.015
10439TIP3   OH231273   1.062   5.373   4.951
10439TIP3    H131274   1.078   5.300   5.011
10439TIP3    H231275   1.141   5.379   4.899
10440TIP3   OH231276   5.541   4.987   4.459
10440TIP3    H131277   5.498   5.065   4.424
10440TIP3    H231278   5.477   4.916   4.444
10441TIP3   OH231279   7.023   5.956   5.513
10441TIP3    H131280   7.048   6.000   5.594
10441TIP3    H231281   7.075   5.875   5.512
10442TIP3   OH231282   1.315   6.265   3.586
10442TIP3    H131283   1.372   6.221   3.523
10442TIP3    H231284   1.321   6.358   3.564
10443TIP3   OH231285   8.185   3.285   6.053
10443TIP3    H131286   8.217   3.195   6.054
10443TIP3    H231287   8.177   3.306   5.960
10444TIP3   OH231288   3.002   0.360   5.924
10444TIP3    H131289   3.076   0.310   5.889
10444TIP3    H231290   2.947   0.378   5.848
10445TIP3   OH231291   1.938   5.042   5.084
10445TIP3    H131292   1.896   5.128   5.085
10445TIP3    H231293   1.873   4.984   5.045
10446TIP3   OH231294   6.372   3.495   4.872
10446TIP3    H131295   6.443   3.434   4.891
10446TIP3    H231296   6.411   3.559   4.812
10447TIP3   OH231297   1.253   1.788   3.653
10447TIP3    H131298   1.286   1.757   3.568
10447TIP3    H231299   1.158   1.780   3.646
10448TIP3   OH231300   0.556   6.296   6.701
10448TIP3    H131301   0.625   6.306   6.635
10448TIP3    H231302   0.517   6.384   6.709
10449TIP3   OH231303   5.638   1.190   4.924
10449TIP3    H131304   5.610   1.245   4.851
10449TIP3    H231305   5.644   1.102   4.886
10450TIP3   OH231306   4.409   2.217   4.179
10450TIP3    H131307   4.479   2.277   4.157
10450TIP3    H231308   4.367   2.256   4.256
10451TIP3   OH231309   1.809   4.785   3.472
10451TIP3    H131310   1.814   4.811   3.381
10451TIP3    H231311   1.786   4.692   3.469
10452TIP3   OH231312   5.618   4.242   1.167
10452TIP3    H131313   5.572   4.323   1.190
10452TIP3    H231314   5.691   4.270   1.112
10453TIP3   OH231315   5.901   0.516   3.749
10453TIP3    H131316   5.949   0.547   3.672
10453TIP3    H231317   5.872   0.596   3.793
10454TIP3   OH231318   0.780   0.571   2.636
10454TIP3    H131319   0.758   0.511   2.566
10454TIP3    H231320   0.696   0.600   2.671
10455TIP3   OH231321   6.440   0.825   1.796
10455TIP3    H131322   6.403   0.907   1.765
10455TIP3    H231323   6.492   0.792   1.722
10456TIP3   OH231324   0.084   7.222   6.788
10456TIP3    H131325   0.002   7.194   6.747
10456TIP3    H231326   0.112   7.298   6.737
10457TIP3   OH231327   0.188   1.135   1.365
10457TIP3    H131328   0.214   1.227   1.375
10457TIP3    H231329   0.152   1.111   1.450
10458TIP3   OH231330   1.975   3.403   4.097
10458TIP3    H131331   2.054   3.365   4.134
10458TIP3    H231332   1.913   3.331   4.093
10459TIP3   OH231333   5.819   2.669   5.800
10459TIP3    H131334   5.744   2.629   5.844
10459TIP3    H231335   5.839   2.747   5.853
10460TIP3   OH231336   7.004   2.814   2.341
10460TIP3    H131337   7.058   2.869   2.284
10460TIP3    H231338   6.928   2.869   2.362
10461TIP3   OH231339   7.572   4.984   5.720
10461TIP3    H131340   7.558   4.956   5.630
10461TIP3    H231341   7.612   5.070   5.712
10462TIP3   OH231342   4.449   0.638   3.256
10462TIP3    H131343   4.402   0.571   3.206
10462TIP3    H231344   4.516   0.589   3.305
10463TIP3   OH231345   4.791   6.541   6.565
10463TIP3    H131346   4.853   6.577   6.501
10463TIP3    H231347   4.836   6.549   6.649
10464TIP3   OH231348   7.586   7.021   5.931
10464TIP3    H131349   7.610   7.002   6.022
10464TIP3    H231350   7.574   7.116   5.928
10465TIP3   OH231351   4.187   2.896   4.843
10465TIP3    H131352   4.243   2.886   4.767
10465TIP3    H231353   4.236   2.954   4.901
10466TIP3   OH231354   7.641   1.639   6.383
10466TIP3    H131355   7.697   1.639   6.305
10466TIP3    H231356   7.694   1.597   6.450
10467TIP3   OH231357   2.979   1.541   2.933
10467TIP3    H131358   3.037   1.470   2.905
10467TIP3    H231359   2.891   1.512   2.908
10468TIP3   OH231360   3.482   6.901   0.673
10468TIP3    H131361   3.556   6.843   0.692
10468TIP3    H231362   3.443   6.864   0.594
10469TIP3   OH231363   7.680   2.146   6.186
10469TIP3    H131364   7.771   2.157   6.215
10469TIP3    H231365   7.685   2.157   6.091
10470TIP3   OH231366   0.525   3.225   1.140
10470TIP3    H131367   0.441   3.271   1.150
10470TIP3    H231368   0.587   3.294   1.115
10471TIP3   OH231369   1.356   4.261   4.721
10471TIP3    H131370   1.349   4.349   4.758
10471TIP3    H231371   1.285   4.212   4.762
10472TIP3   OH231372   5.602   0.340   3.231
10472TIP3    H131373   5.598   0.433   3.255
10472TIP3    H231374   5.694   0.325   3.211
10473TIP3   OH231375   7.725   0.472   4.974
10473TIP3    H131376   7.660   0.424   5.024
10473TIP3    H231377   7.800   0.478   5.032
10474TIP3   OH231378   4.542   2.055   3.461
10474TIP3    H131379   4.562   2.129   3.404
10474TIP3    H231380   4.610   1.991   3.443
10475TIP3   OH231381   1.566   4.950   6.271
10475TIP3    H131382   1.513   4.870   6.272
10475TIP3    H231383   1.521   5.006   6.207
10476TIP3   OH231384   4.365   5.505   3.323
10476TIP3    H131385   4.320   5.574   3.275
10476TIP3    H231386   4.308   5.486   3.398
10477TIP3   OH231387   0.721   6.270   3.100
10477TIP3    H131388   0.722   6.223   3.184
10477TIP3    H231389   0.811   6.303   3.091
10478TIP3   OH231390   4.949   6.670   3.863
10478TIP3    H131391   4.858   6.687   3.838
10478TIP3    H231392   4.974   6.593   3.812
10479TIP3   OH231393   1.968   6.970   2.243
10479TIP3    H131394   1.962   6.887   2.196
10479TIP3    H231395   2.031   7.022   2.193
10480TIP3   OH231396   5.697   7.205   5.182
10480TIP3    H131397   5.733   7.226   5.268
10480TIP3    H231398   5.609   7.173   5.200
10481TIP3   OH231399   8.161   4.940   6.637
10481TIP3    H131400   8.154   4.883   6.561
10481TIP3    H231401   8.125   4.888   6.709
10482TIP3   OH231402   6.852   0.346   6.500
10482TIP3    H131403   6.922   0.387   6.550
10482TIP3    H231404   6.850   0.255   6.530
10483TIP3   OH231405   0.665   4.644   0.040
10483TIP3    H131406   0.582   4.599   0.021
10483TIP3    H231407   0.638   4.725   0.083
10484TIP3   OH231408   4.166   0.487   1.930
10484TIP3    H131409   4.225   0.439   1.872
10484TIP3    H231410   4.210   0.486   2.015
10485TIP3   OH231411   7.640   4.013   3.679
10485TIP3    H131412   7.616   3.920   3.673
10485TIP3    H231413   7.601   4.052   3.601
10486TIP3   OH231414   5.126   6.383   4.231
10486TIP3    H131415   5.158   6.473   4.231
10486TIP3    H231416   5.117   6.361   4.138
10487TIP3   OH231417   5.749   4.791   3.362
10487TIP3    H131418   5.821   4.728   3.366
10487TIP3    H231419   5.746   4.830   3.449
10488TIP3   OH231420   1.683   0.211   2.408
10488TIP3    H131421   1.707   0.127   2.448
10488TIP3    H231422   1.605   0.240   2.456
10489TIP3   OH231423   3.275   6.150   0.882
10489TIP3    H131424   3.234   6.227   0.842
10489TIP3    H231425   3.211   6.121   0.947
10490TIP3   OH231426   1.297   5.074   1.601
10490TIP3    H131427   1.331   5.129   1.531
10490TIP3    H231428   1.346   5.102   1.679
10491TIP3   OH231429   5.154   3.512   2.540
10491TIP3    H131430   5.095   3.546   2.607
10491TIP3    H231431   5.238   3.500   2.585
10492TIP3   OH231432   4.629   0.739   5.504
10492TIP3    H131433   4.559   0.781   5.554
10492TIP3    H231434   4.696   0.718   5.570
10493TIP3   OH231435   4.434   7.071   5.605
10493TIP3    H131436   4.480   7.101   5.527
10493TIP3    H231437   4.487   7.101   5.678
10494TIP3   OH231438   4.027   4.226   0.329
10494TIP3    H131439   4.087   4.262   0.394
10494TIP3    H231440   4.002   4.140   0.365
10495TIP3   OH231441   0.596   1.580   5.818
10495TIP3    H131442   0.549   1.507   5.858
10495TIP3    H231443   0.581   1.570   5.724
10496TIP3   OH231444   8.109   5.331   0.235
10496TIP3    H131445   8.174   5.320   0.166
10496TIP3    H231446   8.079   5.242   0.254
10497TIP3   OH231447   8.071   3.524   3.494
10497TIP3    H131448   8.083   3.547   3.402
10497TIP3    H231449   7.976   3.522   3.506
10498TIP3   OH231450   4.897   7.701   2.142
10498TIP3    H131451   4.848   7.746   2.072
10498TIP3    H231452   4.838   7.633   2.172
10499TIP3   OH231453   3.799   4.524   2.313
10499TIP3    H131454   3.820   4.552   2.402
10499TIP3    H231455   3.707   4.498   2.318
10500TIP3   OH231456   4.343   1.635   5.542
10500TIP3    H131457   4.338   1.613   5.449
10500TIP3    H231458   4.289   1.569   5.585
10501TIP3   OH231459   4.758   0.137   0.235
10501TIP3    H131460   4.737   0.048   0.205
10501TIP3    H231461   4.714   0.194   0.172
10502TIP3   OH231462   2.089   3.094   0.601
10502TIP3    H131463   2.134   3.175   0.578
10502TIP3    H231464   2.141   3.025   0.562
10503TIP3   OH231465   2.569   3.285   0.194
10503TIP3    H131466   2.559   3.290   0.099
10503TIP3    H231467   2.505   3.219   0.222
10504TIP3   OH231468   5.584   7.650  -0.001
10504TIP3    H131469   5.538   7.726  -0.037
10504TIP3    H231470   5.559   7.649   0.091
10505TIP3   OH231471   7.977   5.806   4.342
10505TIP3    H131472   7.969   5.877   4.277
10505TIP3    H231473   8.021   5.736   4.295
10506TIP3   OH231474   4.595   6.763   2.608
10506TIP3    H131475   4.621   6.737   2.520
10506TIP3    H231476   4.512   6.718   2.624
10507TIP3   OH231477   0.079   3.012   4.085
10507TIP3    H131478   0.081   2.916   4.092
10507TIP3    H231479  -0.013   3.035   4.099
10508TIP3   OH231480   8.057   6.547   6.311
10508TIP3    H131481   8.032   6.640   6.316
10508TIP3    H231482   8.152   6.548   6.301
10509TIP3   OH231483   7.651   0.559   0.862
10509TIP3    H131484   7.712   0.566   0.935
10509TIP3    H231485   7.687   0.489   0.807
10510TIP3   OH231486   3.225   2.628   5.153
10510TIP3    H131487   3.139   2.647   5.190
10510TIP3    H231488   3.207   2.592   5.067
10511TIP3   OH231489   5.441   0.665   2.124
10511TIP3    H131490   5.424   0.668   2.218
10511TIP3    H231491   5.489   0.745   2.105
10512TIP3   OH231492   4.495   7.571   1.288
10512TIP3    H131493   4.504   7.590   1.195
10512TIP3    H231494   4.577   7.601   1.327
10513TIP3   OH231495   6.128   4.867   6.639
10513TIP3    H131496   6.123   4.960   6.620
10513TIP3    H231497   6.221   4.845   6.629
10514TIP3   OH231498   1.902   6.599   6.191
10514TIP3    H131499   1.919   6.685   6.154
10514TIP3    H231500   1.867   6.547   6.119
10515TIP3   OH231501   5.492   4.245   0.215
10515TIP3    H131502   5.465   4.336   0.206
10515TIP3    H231503   5.584   4.244   0.186
10516TIP3   OH231504   7.433   5.897   1.288
10516TIP3    H131505   7.509   5.855   1.329
10516TIP3    H231506   7.358   5.850   1.323
10517TIP3   OH231507   1.748   4.848   0.828
10517TIP3    H131508   1.811   4.891   0.770
10517TIP3    H231509   1.669   4.903   0.823
10518TIP3   OH231510   5.756   3.730   6.603
10518TIP3    H131511   5.800   3.731   6.688
10518TIP3    H231512   5.663   3.721   6.623
10519TIP3   OH231513   5.311   7.820   4.203
10519TIP3    H131514   5.357   7.789   4.281
10519TIP3    H231515   5.220   7.831   4.231
10520TIP3   OH231516   1.408   3.845   0.352
10520TIP3    H131517   1.382   3.776   0.290
10520TIP3    H231518   1.328   3.895   0.367
10521TIP3   OH231519   0.129   0.311   4.279
10521TIP3    H131520   0.091   0.290   4.194
10521TIP3    H231521   0.193   0.242   4.295
10522TIP3   OH231522   0.047   3.183   1.433
10522TIP3    H131523   0.041   3.090   1.455
10522TIP3    H231524   0.081   3.184   1.344
10523TIP3   OH231525   1.678   4.620   0.699
10523TIP3    H131526   1.712   4.700   0.739
10523TIP3    H231527   1.733   4.607   0.621
10524TIP3   OH231528   5.152   0.589   2.065
10524TIP3    H131529   5.178   0.514   2.011
10524TIP3    H231530   5.213   0.587   2.139
10525TIP3   OH231531   7.509   6.548   0.067
10525TIP3    H131532   7.459   6.625   0.094
10525TIP3    H231533   7.567   6.530   0.141
10526TIP3   OH231534   2.850   4.549   1.932
10526TIP3    H131535   2.898   4.609   1.989
10526TIP3    H231536   2.919   4.496   1.890
10527TIP3   OH231537   3.919   6.507   3.358
10527TIP3    H131538   3.895   6.452   3.283
10527TIP3    H231539   3.849   6.493   3.422
10528TIP3   OH231540   7.171   0.148   2.556
10528TIP3    H131541   7.135   0.078   2.502
10528TIP3    H231542   7.205   0.104   2.634
10529TIP3   OH231543   6.781   5.650   3.664
10529TIP3    H131544   6.840   5.584   3.701
10529TIP3    H231545   6.798   5.647   3.569
10530TIP3   OH231546   2.898   6.602   0.369
10530TIP3    H131547   2.905   6.638   0.281
10530TIP3    H231548   2.804   6.589   0.382
10531TIP3   OH231549   5.653   3.973   6.524
10531TIP3    H131550   5.727   3.918   6.545
10531TIP3    H231551   5.616   3.997   6.609
10532TIP3   OH231552   1.064   5.130   3.022
10532TIP3    H131553   1.064   5.214   2.977
10532TIP3    H231554   1.086   5.151   3.113
10533TIP3   OH231555   7.013   5.714   6.182
10533TIP3    H131556   6.930   5.691   6.224
10533TIP3    H231557   7.063   5.758   6.251
10534TIP3   OH231558   2.575   0.657   6.379
10534TIP3    H131559   2.629   0.607   6.440
10534TIP3    H231560   2.522   0.714   6.436
10535TIP3   OH231561   3.574   3.042   3.633
10535TIP3    H131562   3.563   3.085   3.718
10535TIP3    H231563   3.496   3.067   3.584
10536TIP3   OH231564   0.386   7.185   4.393
10536TIP3    H131565   0.422   7.269   4.364
10536TIP3    H231566   0.293   7.189   4.371
10537TIP3   OH231567   3.505   1.496   5.248
10537TIP3    H131568   3.472   1.550   5.176
10537TIP3    H231569   3.456   1.414   5.241
10538TIP3   OH231570   1.161   3.596   6.701
10538TIP3    H131571   1.146   3.577   6.794
10538TIP3    H231572   1.202   3.517   6.667
10539TIP3   OH231573   0.658   0.517   5.620
10539TIP3    H131574   0.749   0.496   5.638
10539TIP3    H231575   0.631   0.571   5.694
10540TIP3   OH231576   6.605   0.285   6.134
10540TIP3    H131577   6.692   0.312   6.165
10540TIP3    H231578   6.617   0.270   6.040
10541TIP3   OH231579   1.568   1.663   2.831
10541TIP3    H131580   1.580   1.625   2.744
10541TIP3    H231581   1.490   1.718   2.823
10542TIP3   OH231582   0.765   5.461   1.294
10542TIP3    H131583   0.760   5.521   1.368
10542TIP3    H231584   0.837   5.495   1.240
10543TIP3   OH231585   3.353   1.710   1.176
10543TIP3    H131586   3.323   1.794   1.212
10543TIP3    H231587   3.415   1.734   1.107
10544TIP3   OH231588   1.943   0.140   1.614
10544TIP3    H131589   1.861   0.135   1.564
10544TIP3    H231590   1.947   0.231   1.644
10545TIP3   OH231591   7.514   5.568   6.631
10545TIP3    H131592   7.590   5.541   6.579
10545TIP3    H231593   7.545   5.562   6.722
10546TIP3   OH231594   6.276   5.060   6.128
10546TIP3    H131595   6.191   5.037   6.166
10546TIP3    H231596   6.298   4.984   6.073
10547TIP3   OH231597   4.920   7.111   3.315
10547TIP3    H131598   4.844   7.067   3.276
10547TIP3    H231599   4.905   7.204   3.298
10548TIP3   OH231600   2.556   5.521   3.985
10548TIP3    H131601   2.628   5.530   4.048
10548TIP3    H231602   2.574   5.588   3.919
10549TIP3   OH231603   3.070   7.467   3.715
10549TIP3    H131604   3.001   7.507   3.768
10549TIP3    H231605   3.030   7.389   3.678
10550TIP3   OH231606   5.722   7.093   4.664
10550TIP3    H131607   5.770   7.011   4.652
10550TIP3    H231608   5.753   7.127   4.748
10551TIP3   OH231609   4.003   2.928   4.052
10551TIP3    H131610   3.913   2.911   4.080
10551TIP3    H231611   3.993   2.960   3.962
10552TIP3   OH231612   6.767   2.934   1.969
10552TIP3    H131613   6.709   2.875   2.017
10552TIP3    H231614   6.740   3.022   1.996
10553TIP3   OH231615   5.966   5.023   4.754
10553TIP3    H131616   5.956   5.022   4.849
10553TIP3    H231617   5.954   5.115   4.729
10554TIP3   OH231618   5.915   4.587   5.150
10554TIP3    H131619   5.978   4.523   5.184
10554TIP3    H231620   5.830   4.547   5.164
10555TIP3   OH231621   2.534   1.608   2.330
10555TIP3    H131622   2.580   1.531   2.297
10555TIP3    H231623   2.599   1.653   2.383
10556TIP3   OH231624   2.125   7.740   4.133
10556TIP3    H131625   2.143   7.737   4.227
10556TIP3    H231626   2.034   7.767   4.127
10557TIP3   OH231627   4.484   7.047   2.634
10557TIP3    H131628   4.479   6.954   2.611
10557TIP3    H231629   4.560   7.053   2.692
10558TIP3   OH231630   0.170   3.875   2.963
10558TIP3    H131631   0.244   3.844   3.015
10558TIP3    H231632   0.144   3.799   2.910
10559TIP3   OH231633   5.581   6.173   0.798
10559TIP3    H131634   5.565   6.261   0.833
10559TIP3    H231635   5.576   6.183   0.703
10560TIP3   OH231636   6.530   3.874   6.352
10560TIP3    H131637   6.465   3.851   6.285
10560TIP3    H231638   6.513   3.966   6.371
10561TIP3   OH231639   0.104   0.124   4.923
10561TIP3    H131640   0.066   0.167   4.846
10561TIP3    H231641   0.136   0.197   4.977
10562TIP3   OH231642   0.986   5.703   5.833
10562TIP3    H131643   0.986   5.706   5.737
10562TIP3    H231644   0.950   5.787   5.861
10563TIP3   OH231645   5.136   1.267   4.341
10563TIP3    H131646   5.171   1.356   4.350
10563TIP3    H231647   5.063   1.277   4.280
10564TIP3   OH231648   4.799   0.607   1.403
10564TIP3    H131649   4.884   0.565   1.415
10564TIP3    H231650   4.819   0.688   1.356
10565TIP3   OH231651   2.903   6.794   6.156
10565TIP3    H131652   2.816   6.754   6.158
10565TIP3    H231653   2.932   6.784   6.065
10566TIP3   OH231654   3.852   4.342   0.148
10566TIP3    H131655   3.774   4.286   0.155
10566TIP3    H231656   3.915   4.303   0.208
10567TIP3   OH231657   0.578   3.038   4.043
10567TIP3    H131658   0.495   2.992   4.051
10567TIP3    H231659   0.598   3.036   3.950
10568TIP3   OH231660   3.519   7.557   3.328
10568TIP3    H131661   3.446   7.617   3.341
10568TIP3    H231662   3.498   7.482   3.383
10569TIP3   OH231663   0.500   0.650   2.672
10569TIP3    H131664   0.510   0.710   2.745
10569TIP3    H231665   0.519   0.703   2.594
10570TIP3   OH231666   1.332   4.809   1.482
10570TIP3    H131667   1.320   4.903   1.476
10570TIP3    H231668   1.385   4.786   1.405
10571TIP3   OH231669   3.611   0.161   0.506
10571TIP3    H131670   3.631   0.179   0.598
10571TIP3    H231671   3.534   0.105   0.509
10572TIP3   OH231672   7.968   6.456   4.112
10572TIP3    H131673   8.022   6.385   4.078
10572TIP3    H231674   7.904   6.472   4.043
10573TIP3   OH231675   0.589   7.467   1.525
10573TIP3    H131676   0.516   7.450   1.584
10573TIP3    H231677   0.614   7.381   1.493
10574TIP3   OH231678   4.603   4.486   5.586
10574TIP3    H131679   4.651   4.493   5.503
10574TIP3    H231680   4.542   4.413   5.572
10575TIP3   OH231681   3.074   6.838   4.048
10575TIP3    H131682   3.101   6.850   3.957
10575TIP3    H231683   3.088   6.923   4.089
10576TIP3   OH231684   4.636   5.044   5.420
10576TIP3    H131685   4.603   5.006   5.339
10576TIP3    H231686   4.729   5.057   5.405
10577TIP3   OH231687   4.660   0.865   2.920
10577TIP3    H131688   4.714   0.822   2.855
10577TIP3    H231689   4.657   0.804   2.993
10578TIP3   OH231690   7.339   2.268   4.597
10578TIP3    H131691   7.377   2.342   4.644
10578TIP3    H231692   7.413   2.210   4.578
10579TIP3   OH231693   6.651   6.016   4.239
10579TIP3    H131694   6.742   6.026   4.269
10579TIP3    H231695   6.658   6.000   4.145
10580TIP3   OH231696   6.004   6.306   4.482
10580TIP3    H131697   6.030   6.361   4.556
10580TIP3    H231698   6.051   6.223   4.497
10581TIP3   OH231699   6.878   3.296   5.998
10581TIP3    H131700   6.970   3.320   6.011
10581TIP3    H231701   6.882   3.218   5.942
10582TIP3   OH231702   0.554   4.232   5.545
10582TIP3    H131703   0.527   4.188   5.465
10582TIP3    H231704   0.522   4.322   5.535
10583TIP3   OH231705   2.753   2.940   0.989
10583TIP3    H131706   2.675   2.893   0.959
10583TIP3    H231707   2.719   3.019   1.031
10584TIP3   OH231708   6.647   5.626   5.754
10584TIP3    H131709   6.705   5.683   5.804
10584TIP3    H231710   6.572   5.611   5.812
10585TIP3   OH231711   5.789   6.075   4.164
10585TIP3    H131712   5.752   5.995   4.128
10585TIP3    H231713   5.800   6.056   4.257
10586TIP3   OH231714   2.206   1.594   5.626
10586TIP3    H131715   2.246   1.570   5.709
10586TIP3    H231716   2.114   1.569   5.635
10587TIP3   OH231717   6.524   1.294   2.944
10587TIP3    H131718   6.474   1.287   2.863
10587TIP3    H231719   6.466   1.258   3.012
10588TIP3   OH231720   3.388   2.842   5.133
10588TIP3    H131721   3.316   2.903   5.119
10588TIP3    H231722   3.345   2.758   5.151
10589TIP3   OH231723   3.956   2.810   3.291
10589TIP3    H131724   3.876   2.832   3.243
10589TIP3    H231725   3.947   2.854   3.375
10590TIP3   OH231726   1.546   0.466   6.381
10590TIP3    H131727   1.598   0.493   6.306
10590TIP3    H231728   1.498   0.388   6.351
10591TIP3   OH231729   8.266   5.070   2.978
10591TIP3    H131730   8.196   5.068   3.043
10591TIP3    H231731   8.223   5.100   2.898
10592TIP3   OH231732   4.160   6.829   5.760
10592TIP3    H131733   4.092   6.822   5.827
10592TIP3    H231734   4.220   6.757   5.779
10593TIP3   OH231735   1.405   5.998   4.227
10593TIP3    H131736   1.443   6.086   4.232
10593TIP3    H231737   1.357   5.997   4.144
10594TIP3   OH231738   7.775   1.031   2.216
10594TIP3    H131739   7.847   1.073   2.263
10594TIP3    H231740   7.715   1.103   2.195
10595TIP3   OH231741   4.728   5.447   4.483
10595TIP3    H131742   4.781   5.393   4.541
10595TIP3    H231743   4.693   5.516   4.539
10596TIP3   OH231744   2.399   7.175   4.421
10596TIP3    H131745   2.486   7.212   4.435
10596TIP3    H231746   2.411   7.113   4.349
10597TIP3   OH231747   2.782   0.263   4.171
10597TIP3    H131748   2.821   0.337   4.217
10597TIP3    H231749   2.703   0.298   4.130
10598TIP3   OH231750   3.248   1.149   1.879
10598TIP3    H131751   3.294   1.140   1.795
10598TIP3    H231752   3.232   1.242   1.887
10599TIP3   OH231753   2.645   4.904   6.077
10599TIP3    H131754   2.628   4.852   6.156
10599TIP3    H231755   2.735   4.935   6.088
10600TIP3   OH231756   1.120   2.837   5.556
10600TIP3    H131757   1.192   2.839   5.493
10600TIP3    H231758   1.140   2.908   5.617
10601TIP3   OH231759   4.578   1.821   1.880
10601TIP3    H131760   4.557   1.882   1.951
10601TIP3    H231761   4.635   1.756   1.920
10602TIP3   OH231762   0.082   5.519   2.161
10602TIP3    H131763   0.129   5.549   2.083
10602TIP3    H231764   0.141   5.457   2.203
10603TIP3   OH231765   5.400   2.015   4.483
10603TIP3    H131766   5.479   2.063   4.509
10603TIP3    H231767   5.403   1.934   4.533
10604TIP3   OH231768   6.325   6.358   2.362
10604TIP3    H131769   6.387   6.429   2.378
10604TIP3    H231770   6.306   6.323   2.449
10605TIP3   OH231771   0.916   2.795   6.606
10605TIP3    H131772   0.850   2.864   6.616
10605TIP3    H231773   0.916   2.775   6.513
10606TIP3   OH231774   1.255   4.648   3.148
10606TIP3    H131775   1.279   4.718   3.088
10606TIP3    H231776   1.338   4.607   3.172
10607TIP3   OH231777   2.961   3.202   5.095
10607TIP3    H131778   2.871   3.231   5.085
10607TIP3    H231779   3.013   3.270   5.053
10608TIP3   OH231780   4.984   2.189   0.853
10608TIP3    H131781   5.058   2.156   0.905
10608TIP3    H231782   4.948   2.260   0.906
10609TIP3   OH231783   4.271   3.017   2.291
10609TIP3    H131784   4.213   2.946   2.263
10609TIP3    H231785   4.223   3.097   2.270
10610TIP3   OH231786   6.705   2.866   4.096
10610TIP3    H131787   6.649   2.789   4.090
10610TIP3    H231788   6.774   2.851   4.031
10611TIP3   OH231789   1.950   1.980   0.114
10611TIP3    H131790   1.877   2.042   0.110
10611TIP3    H231791   1.995   2.001   0.196
10612TIP3   OH231792   4.533   3.074   3.115
10612TIP3    H131793   4.514   3.071   3.209
10612TIP3    H231794   4.494   3.156   3.085
10613TIP3   OH231795   5.785   5.601   1.543
10613TIP3    H131796   5.779   5.697   1.550
10613TIP3    H231797   5.821   5.573   1.628
10614TIP3   OH231798   3.589   6.983   0.031
10614TIP3    H131799   3.678   6.977   0.065
10614TIP3    H231800   3.596   7.039  -0.047
10615TIP3   OH231801   7.168   0.643   2.139
10615TIP3    H131802   7.121   0.686   2.211
10615TIP3    H231803   7.260   0.659   2.157
10616TIP3   OH231804   5.924   2.010   2.965
10616TIP3    H131805   5.892   1.923   2.987
10616TIP3    H231806   6.006   1.994   2.918
10617TIP3   OH231807   5.011   3.752   3.643
10617TIP3    H131808   5.085   3.694   3.626
10617TIP3    H231809   5.029   3.788   3.729
10618TIP3   OH231810   3.082   4.437   3.502
10618TIP3    H131811   3.156   4.497   3.502
10618TIP3    H231812   3.019   4.476   3.442
10619TIP3   OH231813   0.426   1.180   6.292
10619TIP3    H131814   0.331   1.174   6.287
10619TIP3    H231815   0.445   1.173   6.386
10620TIP3   OH231816   7.166   7.084   1.482
10620TIP3    H131817   7.236   7.150   1.484
10620TIP3    H231818   7.087   7.133   1.505
10621TIP3   OH231819   0.120   6.417   3.884
10621TIP3    H131820   0.100   6.326   3.906
10621TIP3    H231821   0.212   6.428   3.906
10622TIP3   OH231822   5.306   4.231   4.004
10622TIP3    H131823   5.271   4.235   3.915
10622TIP3    H231824   5.387   4.283   4.001
10623TIP3   OH231825   4.703   0.781   4.279
10623TIP3    H131826   4.751   0.726   4.217
10623TIP3    H231827   4.771   0.830   4.325
10624TIP3   OH231828   4.227   0.920   4.898
10624TIP3    H131829   4.238   0.949   4.989
10624TIP3    H231830   4.133   0.903   4.889
10625TIP3   OH231831   0.799   4.211   6.575
10625TIP3    H131832   0.710   4.247   6.574
10625TIP3    H231833   0.786   4.116   6.572
10626TIP3   OH231834   3.096   7.076   0.909
10626TIP3    H131835   3.189   7.057   0.898
10626TIP3    H231836   3.059   6.996   0.946
10627TIP3   OH231837   3.292   7.011   6.302
10627TIP3    H131838   3.376   7.056   6.296
10627TIP3    H231839   3.232   7.062   6.248
10628TIP3   OH231840   7.267   2.304   5.504
10628TIP3    H131841   7.209   2.359   5.558
10628TIP3    H231842   7.340   2.361   5.482
10629TIP3   OH231843   3.899   6.220   6.282
10629TIP3    H131844   3.868   6.286   6.344
10629TIP3    H231845   3.839   6.227   6.208
10630TIP3   OH231846   7.416   2.562   0.994
10630TIP3    H131847   7.383   2.473   0.979
10630TIP3    H231848   7.447   2.561   1.085
10631TIP3   OH231849   6.084   2.146   5.986
10631TIP3    H131850   6.067   2.223   6.040
10631TIP3    H231851   5.999   2.121   5.951
10632TIP3   OH231852   5.323   4.011   2.975
10632TIP3    H131853   5.380   3.989   3.049
10632TIP3    H231854   5.280   4.092   3.001
10633TIP3   OH231855   2.050   6.670   4.491
10633TIP3    H131856   1.986   6.662   4.561
10633TIP3    H231857   2.092   6.754   4.505
10634TIP3   OH231858   6.973   3.072   4.712
10634TIP3    H131859   7.031   3.064   4.636
10634TIP3    H231860   6.885   3.074   4.676
10635TIP3   OH231861   1.732   6.599   2.015
10635TIP3    H131862   1.771   6.627   1.933
10635TIP3    H231863   1.750   6.505   2.020
10636TIP3   OH231864   6.154   6.835   4.789
10636TIP3    H131865   6.156   6.850   4.695
10636TIP3    H231866   6.239   6.864   4.820
10637TIP3   OH231867   4.578   0.649   4.002
10637TIP3    H131868   4.642   0.599   4.052
10637TIP3    H231869   4.504   0.658   4.062
10638TIP3   OH231870   6.034   4.571   6.063
10638TIP3    H131871   6.119   4.527   6.057
10638TIP3    H231872   6.019   4.606   5.975
10639TIP3   OH231873   8.303   7.654   0.018
10639TIP3    H131874   8.341   7.660   0.105
10639TIP3    H231875   8.218   7.611   0.031
10640TIP3   OH231876   2.482   5.755   6.596
10640TIP3    H131877   2.455   5.683   6.652
10640TIP3    H231878   2.401   5.787   6.557
10641TIP3   OH231879   2.384   6.364   2.849
10641TIP3    H131880   2.414   6.279   2.818
10641TIP3    H231881   2.458   6.423   2.832
10642TIP3   OH231882   5.020   6.323   5.581
10642TIP3    H131883   4.974   6.396   5.538
10642TIP3    H231884   4.961   6.248   5.570
10643TIP3   OH231885   6.648   7.374   1.513
10643TIP3    H131886   6.710   7.309   1.483
10643TIP3    H231887   6.587   7.325   1.568
10644TIP3   OH231888   4.227   1.082   5.463
10644TIP3    H131889   4.306   1.091   5.517
10644TIP3    H231890   4.164   1.140   5.505
10645TIP3   OH231891   5.318   0.648   6.415
10645TIP3    H131892   5.301   0.605   6.499
10645TIP3    H231893   5.233   0.653   6.372
10646TIP3   OH231894   1.130   1.510   3.802
10646TIP3    H131895   1.051   1.541   3.848
10646TIP3    H231896   1.097   1.476   3.719
10647TIP3   OH231897   7.537   1.341   2.413
10647TIP3    H131898   7.532   1.260   2.464
10647TIP3    H231899   7.579   1.315   2.331
10648TIP3   OH231900   2.718   6.499   6.693
10648TIP3    H131901   2.633   6.504   6.650
10648TIP3    H231902   2.743   6.591   6.706
10649TIP3   OH231903   5.233   7.613   5.699
10649TIP3    H131904   5.322   7.589   5.728
10649TIP3    H231905   5.235   7.602   5.604
10650TIP3   OH231906   3.197   7.623   0.919
10650TIP3    H131907   3.275   7.639   0.865
10650TIP3    H231908   3.173   7.532   0.899
10651TIP3   OH231909   5.962   4.661   6.364
10651TIP3    H131910   6.046   4.627   6.333
10651TIP3    H231911   5.958   4.636   6.456
10652TIP3   OH231912   8.028   5.661   5.993
10652TIP3    H131913   8.070   5.692   6.073
10652TIP3    H231914   7.939   5.641   6.019
10653TIP3   OH231915   5.917   4.565   0.536
10653TIP3    H131916   6.008   4.536   0.537
10653TIP3    H231917   5.919   4.649   0.583
10654TIP3   OH231918   4.762   5.019   4.054
10654TIP3    H131919   4.709   4.984   3.982
10654TIP3    H231920   4.699   5.042   4.121
10655TIP3   OH231921   4.504   5.283   4.500
10655TIP3    H131922   4.470   5.210   4.448
10655TIP3    H231923   4.577   5.317   4.449
10656TIP3   OH231924   5.212   3.663   3.967
10656TIP3    H131925   5.217   3.669   3.872
10656TIP3    H231926   5.169   3.744   3.994
10657TIP3   OH231927   5.649   5.140   1.892
10657TIP3    H131928   5.670   5.096   1.975
10657TIP3    H231929   5.675   5.077   1.825
10658TIP3   OH231930   1.646   2.740   0.261
10658TIP3    H131931   1.714   2.798   0.295
10658TIP3    H231932   1.638   2.671   0.327
10659TIP3   OH231933   6.277   0.780   1.149
10659TIP3    H131934   6.258   0.738   1.232
10659TIP3    H231935   6.278   0.708   1.085
10660TIP3   OH231936   4.151   4.567   6.044
10660TIP3    H131937   4.133   4.496   5.982
10660TIP3    H231938   4.232   4.608   6.011
10661TIP3   OH231939   5.401   2.298   0.200
10661TIP3    H131940   5.352   2.218   0.179
10661TIP3    H231941   5.485   2.286   0.156
10662TIP3   OH231942   2.680   2.694   3.031
10662TIP3    H131943   2.707   2.677   2.940
10662TIP3    H231944   2.723   2.776   3.053
10663TIP3   OH231945   6.529   1.886   4.969
10663TIP3    H131946   6.511   1.950   5.038
10663TIP3    H231947   6.509   1.932   4.888
10664TIP3   OH231948   0.339   1.871   2.907
10664TIP3    H131949   0.406   1.905   2.847
10664TIP3    H231950   0.350   1.775   2.903
10665TIP3   OH231951   2.633   2.446   3.123
10665TIP3    H131952   2.622   2.454   3.217
10665TIP3    H231953   2.649   2.535   3.092
10666TIP3   OH231954   5.767   5.246   2.540
10666TIP3    H131955   5.693   5.253   2.479
10666TIP3    H231956   5.827   5.316   2.514
10667TIP3   OH231957   0.932   1.294   5.890
10667TIP3    H131958   0.963   1.219   5.941
10667TIP3    H231959   0.955   1.370   5.942
10668TIP3   OH231960   1.619   2.760   5.837
10668TIP3    H131961   1.681   2.827   5.808
10668TIP3    H231962   1.569   2.802   5.906
10669TIP3   OH231963   2.292   4.272   5.631
10669TIP3    H131964   2.201   4.243   5.633
10669TIP3    H231965   2.291   4.359   5.671
10670TIP3   OH231966   3.214   0.646   2.468
10670TIP3    H131967   3.154   0.703   2.516
10670TIP3    H231968   3.259   0.704   2.407
10671TIP3   OH231969   7.602   4.107   6.655
10671TIP3    H131970   7.521   4.120   6.705
10671TIP3    H231971   7.664   4.168   6.694
10672TIP3   OH231972   0.520   5.964   6.115
10672TIP3    H131973   0.514   5.870   6.132
10672TIP3    H231974   0.567   5.999   6.191
10673TIP3   OH231975   2.075   2.029   0.984
10673TIP3    H131976   2.129   2.020   1.062
10673TIP3    H231977   1.986   2.013   1.015
10674TIP3   OH231978   4.681   6.043   0.767
10674TIP3    H131979   4.717   6.010   0.849
10674TIP3    H231980   4.590   6.014   0.767
10675TIP3   OH231981   7.853   7.027   0.314
10675TIP3    H131982   7.850   6.934   0.291
10675TIP3    H231983   7.946   7.045   0.328
10676TIP3   OH231984   6.757   3.927   5.629
10676TIP3    H131985   6.711   3.902   5.550
10676TIP3    H231986   6.842   3.959   5.598
10677TIP3   OH231987   0.751   3.024   1.778
10677TIP3    H131988   0.740   2.965   1.703
10677TIP3    H231989   0.678   3.003   1.837
10678TIP3   OH231990   6.758   0.226   4.994
10678TIP3    H131991   6.669   0.262   4.998
10678TIP3    H231992   6.813   0.294   5.033
10679TIP3   OH231993   3.376   2.150   6.433
10679TIP3    H131994   3.283   2.134   6.420
10679TIP3    H231995   3.400   2.095   6.508
10680TIP3   OH231996   5.687   3.900   5.829
10680TIP3    H131997   5.709   3.823   5.776
10680TIP3    H231998   5.763   3.915   5.884
10681TIP3   OH231999   3.157   6.745   4.819
10681TIP3    H132000   3.087   6.766   4.881
10681TIP3    H232001   3.115   6.686   4.756
10682TIP3   OH232002   1.466   6.360   5.680
10682TIP3    H132003   1.554   6.357   5.644
10682TIP3    H232004   1.438   6.451   5.669
10683TIP3   OH232005   1.303   7.007   5.396
10683TIP3    H132006   1.291   7.033   5.487
10683TIP3    H232007   1.241   7.061   5.347
10684TIP3   OH232008   0.952   7.100   3.107
10684TIP3    H132009   0.918   7.186   3.132
10684TIP3    H232010   1.029   7.119   3.054
10685TIP3   OH232011   1.860   3.404   5.415
10685TIP3    H132012   1.800   3.335   5.446
10685TIP3    H232013   1.866   3.465   5.488
10686TIP3   OH232014   7.818   1.899   2.142
10686TIP3    H132015   7.799   1.916   2.235
10686TIP3    H232016   7.754   1.953   2.094
10687TIP3   OH232017   5.732   4.909   3.608
10687TIP3    H132018   5.646   4.950   3.613
10687TIP3    H232019   5.785   4.958   3.671
10688TIP3   OH232020   8.069   5.641   4.693
10688TIP3    H132021   8.055   5.572   4.758
10688TIP3    H232022   8.114   5.710   4.742
10689TIP3   OH232023   6.138   2.631   2.921
10689TIP3    H132024   6.185   2.657   3.000
10689TIP3    H232025   6.088   2.553   2.947
10690TIP3   OH232026   2.270   4.197   2.570
10690TIP3    H132027   2.246   4.209   2.662
10690TIP3    H232028   2.238   4.110   2.549
10691TIP3   OH232029   1.838   2.271   0.536
10691TIP3    H132030   1.807   2.324   0.609
10691TIP3    H232031   1.831   2.328   0.460
10692TIP3   OH232032   5.040   0.505   0.669
10692TIP3    H132033   5.020   0.522   0.577
10692TIP3    H232034   4.955   0.504   0.713
10693TIP3   OH232035   5.919   4.848   4.229
10693TIP3    H132036   5.858   4.776   4.208
10693TIP3    H232037   5.886   4.884   4.311
10694TIP3   OH232038   1.864   6.846   5.593
10694TIP3    H132039   1.776   6.876   5.569
10694TIP3    H232040   1.919   6.870   5.517
10695TIP3   OH232041   3.645   1.249   1.812
10695TIP3    H132042   3.573   1.307   1.790
10695TIP3    H232043   3.696   1.297   1.877
10696TIP3   OH232044   3.371   0.762   5.618
10696TIP3    H132045   3.371   0.667   5.615
10696TIP3    H232046   3.408   0.783   5.704
10697TIP3   OH232047   5.435   6.768   4.271
10697TIP3    H132048   5.432   6.860   4.246
10697TIP3    H232049   5.435   6.721   4.188
10698TIP3   OH232050   3.551   4.333   3.979
10698TIP3    H132051   3.643   4.347   4.002
10698TIP3    H232052   3.552   4.304   3.888
10699TIP3   OH232053   4.374   4.877   5.488
10699TIP3    H132054   4.332   4.793   5.505
10699TIP3    H232055   4.369   4.888   5.393
10700TIP3   OH232056   4.166   0.566   5.938
10700TIP3    H132057   4.122   0.522   5.866
10700TIP3    H232058   4.220   0.497   5.979
10701TIP3   OH232059   2.772   5.106   4.888
10701TIP3    H132060   2.809   5.036   4.835
10701TIP3    H232061   2.769   5.071   4.977
10702TIP3   OH232062   2.884   2.860   6.263
10702TIP3    H132063   2.862   2.794   6.330
10702TIP3    H232064   2.840   2.829   6.184
10703TIP3   OH232065   6.289   7.122   0.836
10703TIP3    H132066   6.247   7.066   0.770
10703TIP3    H232067   6.276   7.211   0.804
10704TIP3   OH232068   2.420   4.340   5.308
10704TIP3    H132069   2.438   4.247   5.299
10704TIP3    H232070   2.418   4.373   5.218
10705TIP3   OH232071   4.557   3.060   6.240
10705TIP3    H132072   4.495   2.990   6.261
10705TIP3    H232073   4.547   3.073   6.146
10706TIP3   OH232074   0.569   1.313   1.745
10706TIP3    H132075   0.573   1.337   1.652
10706TIP3    H232076   0.611   1.386   1.791
10707TIP3   OH232077   5.964   1.270   0.525
10707TIP3    H132078   5.989   1.179   0.511
10707TIP3    H232079   6.024   1.301   0.593
10708TIP3   OH232080   3.972   5.752   1.643
10708TIP3    H132081   3.908   5.758   1.572
10708TIP3    H232082   4.024   5.674   1.622
10709TIP3   OH232083   2.761   1.443   0.477
10709TIP3    H132084   2.818   1.395   0.537
10709TIP3    H232085   2.783   1.535   0.491
10710TIP3   OH232086   4.078   0.594   6.195
10710TIP3    H132087   4.099   0.599   6.101
10710TIP3    H232088   4.053   0.683   6.219
10711TIP3   OH232089   4.563   2.705   4.605
10711TIP3    H132090   4.615   2.745   4.675
10711TIP3    H232091   4.496   2.770   4.584
10712TIP3   OH232092   5.794   1.145   3.335
10712TIP3    H132093   5.852   1.127   3.409
10712TIP3    H232094   5.708   1.115   3.365
10713TIP3   OH232095   6.334   3.199   4.345
10713TIP3    H132096   6.377   3.130   4.294
10713TIP3    H232097   6.378   3.197   4.430
10714TIP3   OH232098   6.282   0.505   6.463
10714TIP3    H132099   6.315   0.556   6.389
10714TIP3    H232100   6.255   0.422   6.424
10715TIP3   OH232101   6.047   6.241   3.110
10715TIP3    H132102   5.967   6.277   3.150
10715TIP3    H232103   6.094   6.319   3.079
10716TIP3   OH232104   4.347   1.525   1.837
10716TIP3    H132105   4.257   1.516   1.808
10716TIP3    H232106   4.399   1.511   1.758
10717TIP3   OH232107   2.629   2.960   6.147
10717TIP3    H132108   2.647   2.946   6.240
10717TIP3    H232109   2.579   2.883   6.121
10718TIP3   OH232110   8.184   6.533   5.171
10718TIP3    H132111   8.168   6.467   5.238
10718TIP3    H232112   8.098   6.545   5.129
10719TIP3   OH232113   1.020   1.464   3.571
10719TIP3    H132114   1.006   1.553   3.540
10719TIP3    H232115   1.094   1.432   3.519
10720TIP3   OH232116   0.545   5.321   4.809
10720TIP3    H132117   0.520   5.328   4.901
10720TIP3    H232118   0.530   5.409   4.773
10721TIP3   OH232119   6.628   5.507   1.923
10721TIP3    H132120   6.654   5.421   1.889
10721TIP3    H232121   6.639   5.500   2.018
10722TIP3   OH232122   1.965   6.912   5.299
10722TIP3    H132123   1.981   6.967   5.223
10722TIP3    H232124   2.014   6.832   5.281
10723TIP3   OH232125   1.838   2.353   1.680
10723TIP3    H132126   1.933   2.353   1.670
10723TIP3    H232127   1.806   2.402   1.605
10724TIP3   OH232128   7.678   7.672   2.517
10724TIP3    H132129   7.609   7.717   2.468
10724TIP3    H232130   7.751   7.733   2.518
10725TIP3   OH232131   2.942   2.424   0.333
10725TIP3    H132132   3.018   2.381   0.373
10725TIP3    H232133   2.894   2.353   0.290
10726TIP3   OH232134   4.597   3.981   3.298
10726TIP3    H132135   4.605   3.958   3.206
10726TIP3    H232136   4.535   4.054   3.299
10727TIP3   OH232137   6.631   7.623   4.040
10727TIP3    H132138   6.639   7.535   4.076
10727TIP3    H232139   6.540   7.647   4.057
10728TIP3   OH232140   4.619   5.635   4.657
10728TIP3    H132141   4.671   5.629   4.737
10728TIP3    H232142   4.570   5.716   4.665
10729TIP3   OH232143   7.104   3.109   0.678
10729TIP3    H132144   7.057   3.135   0.598
10729TIP3    H232145   7.142   3.024   0.657
10730TIP3   OH232146   1.645   2.087   2.375
10730TIP3    H132147   1.574   2.042   2.420
10730TIP3    H232148   1.703   2.018   2.344
10731TIP3   OH232149   6.738   6.111   5.834
10731TIP3    H132150   6.751   6.058   5.913
10731TIP3    H232151   6.737   6.048   5.763
10732TIP3   OH232152   1.902   0.495   6.439
10732TIP3    H132153   1.968   0.453   6.494
10732TIP3    H232154   1.820   0.481   6.486
10733TIP3   OH232155   1.703   0.391   2.721
10733TIP3    H132156   1.718   0.441   2.801
10733TIP3    H232157   1.787   0.349   2.703
10734TIP3   OH232158   2.612   2.132   2.799
10734TIP3    H132159   2.671   2.186   2.851
10734TIP3    H232160   2.603   2.051   2.849
10735TIP3   OH232161   2.047   4.732   5.579
10735TIP3    H132162   2.053   4.820   5.616
10735TIP3    H232163   2.074   4.743   5.487
10736TIP3   OH232164   1.034   5.840   6.185
10736TIP3    H132165   1.055   5.933   6.176
10736TIP3    H232166   0.952   5.838   6.235
10737TIP3   OH232167   2.634   4.037   2.887
10737TIP3    H132168   2.703   4.104   2.888
10737TIP3    H232169   2.662   3.975   2.820
10738TIP3   OH232170   3.405   2.387   3.740
10738TIP3    H132171   3.404   2.456   3.674
10738TIP3    H232172   3.315   2.357   3.744
10739TIP3   OH232173   3.297   5.415   4.275
10739TIP3    H132174   3.294   5.384   4.185
10739TIP3    H232175   3.294   5.335   4.328
10740TIP3   OH232176   5.695   7.351   3.872
10740TIP3    H132177   5.742   7.283   3.920
10740TIP3    H232178   5.722   7.340   3.781
10741TIP3   OH232179   5.371   0.092   0.183
10741TIP3    H132180   5.374   0.114   0.090
10741TIP3    H232181   5.303   0.026   0.190
10742TIP3   OH232182   6.584   5.482   0.192
10742TIP3    H132183   6.561   5.391   0.214
10742TIP3    H232184   6.678   5.487   0.205
10743TIP3   OH232185   6.284   6.775   0.532
10743TIP3    H132186   6.256   6.839   0.598
10743TIP3    H232187   6.261   6.690   0.571
10744TIP3   OH232188   5.739   6.348   1.263
10744TIP3    H132189   5.733   6.290   1.187
10744TIP3    H232190   5.748   6.289   1.338
10745TIP3   OH232191   4.534   6.268   0.177
10745TIP3    H132192   4.440   6.250   0.172
10745TIP3    H232193   4.551   6.334   0.111
10746TIP3   OH232194   3.396   7.216   0.328
10746TIP3    H132195   3.341   7.195   0.403
10746TIP3    H232196   3.448   7.137   0.314
10747TIP3   OH232197   1.246   5.019   2.753
10747TIP3    H132198   1.301   5.093   2.780
10747TIP3    H232199   1.246   4.960   2.828
10748TIP3   OH232200   1.405   2.186   5.675
10748TIP3    H132201   1.365   2.102   5.653
10748TIP3    H232202   1.458   2.208   5.598
10749TIP3   OH232203   0.892   6.844   3.192
10749TIP3    H132204   0.811   6.868   3.237
10749TIP3    H232205   0.927   6.928   3.161
10750TIP3   OH232206   1.954   4.940   1.828
10750TIP3    H132207   1.994   4.888   1.898
10750TIP3    H232208   1.898   4.878   1.781
10751TIP3   OH232209   4.017   3.434   3.173
10751TIP3    H132210   3.943   3.416   3.231
10751TIP3    H232211   4.042   3.348   3.138
10752TIP3   OH232212   3.724   6.335   2.776
10752TIP3    H132213   3.698   6.427   2.782
10752TIP3    H232214   3.708   6.311   2.685
10753TIP3   OH232215   5.348   0.837   2.719
10753TIP3    H132216   5.354   0.889   2.800
10753TIP3    H232217   5.337   0.747   2.750
10754TIP3   OH232218   6.433   5.501   2.272
10754TIP3    H132219   6.361   5.555   2.240
10754TIP3    H232220   6.459   5.543   2.355
10755TIP3   OH232221   6.640   4.259   5.198
10755TIP3    H132222   6.705   4.204   5.154
10755TIP3    H232223   6.556   4.219   5.177
10756TIP3   OH232224   6.001   2.965   4.973
10756TIP3    H132225   6.057   2.966   4.896
10756TIP3    H232226   5.989   3.057   4.996
10757TIP3   OH232227   6.510   7.139   0.509
10757TIP3    H132228   6.443   7.197   0.471
10757TIP3    H232229   6.526   7.074   0.441
10758TIP3   OH232230   6.339   5.531   0.055
10758TIP3    H132231   6.413   5.559   0.109
10758TIP3    H232232   6.355   5.438   0.039
10759TIP3   OH232233   4.003   2.250   2.434
10759TIP3    H132234   3.979   2.317   2.370
10759TIP3    H232235   4.099   2.251   2.435
10760TIP3   OH232236   4.776   3.116   0.709
10760TIP3    H132237   4.724   3.051   0.661
10760TIP3    H232238   4.740   3.116   0.797
10761TIP3   OH232239   1.758   6.490   6.385
10761TIP3    H132240   1.789   6.534   6.306
10761TIP3    H232241   1.764   6.557   6.453
10762TIP3   OH232242   1.942   3.725   3.799
10762TIP3    H132243   1.959   3.819   3.798
10762TIP3    H232244   1.998   3.691   3.870
10763TIP3   OH232245   7.570   1.333   6.588
10763TIP3    H132246   7.625   1.302   6.516
10763TIP3    H232247   7.624   1.321   6.667
10764TIP3   OH232248   1.307   4.311   0.812
10764TIP3    H132249   1.382   4.363   0.839
10764TIP3    H232250   1.291   4.251   0.885
10765TIP3   OH232251   3.380   4.025   0.919
10765TIP3    H132252   3.307   3.969   0.947
10765TIP3    H232253   3.452   4.000   0.977
10766TIP3   OH232254   0.935   2.147   1.272
10766TIP3    H132255   0.924   2.060   1.309
10766TIP3    H232256   1.029   2.163   1.274
10767TIP3   OH232257   3.380   6.368   0.174
10767TIP3    H132258   3.471   6.362   0.143
10767TIP3    H232259   3.330   6.318   0.109
10768TIP3   OH232260   4.146   5.042   1.163
10768TIP3    H132261   4.104   5.120   1.128
10768TIP3    H232262   4.240   5.062   1.163
10769TIP3   OH232263   3.075   1.671   1.304
10769TIP3    H132264   3.022   1.703   1.377
10769TIP3    H232265   3.165   1.675   1.336
10770TIP3   OH232266   1.665   6.501   4.246
10770TIP3    H132267   1.724   6.427   4.261
10770TIP3    H232268   1.723   6.574   4.226
10771TIP3   OH232269   1.362   0.013   5.106
10771TIP3    H132270   1.374  -0.005   5.200
10771TIP3    H232271   1.328   0.102   5.103
10772TIP3   OH232272   0.125   3.852   4.497
10772TIP3    H132273   0.034   3.871   4.519
10772TIP3    H232274   0.140   3.898   4.415
10773TIP3   OH232275   2.374   6.651   6.102
10773TIP3    H132276   2.452   6.606   6.134
10773TIP3    H232277   2.380   6.739   6.138
10774TIP3   OH232278   6.625   4.485   2.115
10774TIP3    H132279   6.620   4.575   2.083
10774TIP3    H232280   6.667   4.437   2.044
10775TIP3   OH232281   4.400   1.176   4.790
10775TIP3    H132282   4.340   1.244   4.759
10775TIP3    H232283   4.360   1.094   4.762
10776TIP3   OH232284   2.343   0.118   4.331
10776TIP3    H132285   2.424   0.138   4.283
10776TIP3    H232286   2.368   0.051   4.394
10777TIP3   OH232287   1.440   4.400   5.560
10777TIP3    H132288   1.521   4.431   5.520
10777TIP3    H232289   1.389   4.480   5.575
10778TIP3   OH232290   2.449   7.410   6.697
10778TIP3    H132291   2.534   7.436   6.662
10778TIP3    H232292   2.465   7.392   6.789
10779TIP3   OH232293   4.689   0.534   6.156
10779TIP3    H132294   4.740   0.478   6.098
10779TIP3    H232295   4.621   0.477   6.193
10780TIP3   OH232296   4.708   3.730   3.164
10780TIP3    H132297   4.625   3.685   3.144
10780TIP3    H232298   4.703   3.749   3.258
10781TIP3   OH232299   2.299   6.650   0.355
10781TIP3    H132300   2.333   6.683   0.271
10781TIP3    H232301   2.262   6.564   0.333
10782TIP3   OH232302   8.123   2.788   6.056
10782TIP3    H132303   8.099   2.757   6.143
10782TIP3    H232304   8.109   2.712   5.999
10783TIP3   OH232305   5.770   6.061   2.704
10783TIP3    H132306   5.705   6.058   2.774
10783TIP3    H232307   5.854   6.049   2.749
10784TIP3   OH232308   4.898   4.941   5.908
10784TIP3    H132309   4.927   4.855   5.878
10784TIP3    H232310   4.863   4.984   5.830
10785TIP3   OH232311   5.970   3.532   4.727
10785TIP3    H132312   6.055   3.513   4.686
10785TIP3    H232313   5.956   3.625   4.709
10786TIP3   OH232314   2.118   4.154   6.731
10786TIP3    H132315   2.152   4.169   6.819
10786TIP3    H232316   2.108   4.059   6.725
10787TIP3   OH232317   4.710   1.880   2.433
10787TIP3    H132318   4.617   1.874   2.412
10787TIP3    H232319   4.748   1.926   2.359
10788TIP3   OH232320   4.459   4.107   1.750
10788TIP3    H132321   4.495   4.073   1.832
10788TIP3    H232322   4.486   4.199   1.748
10789TIP3   OH232323   6.469   6.049   1.234
10789TIP3    H132324   6.426   6.033   1.149
10789TIP3    H232325   6.423   5.992   1.295
10790TIP3   OH232326   5.530   3.699   1.997
10790TIP3    H132327   5.459   3.722   1.937
10790TIP3    H232328   5.493   3.631   2.052
10791TIP3   OH232329   0.966   3.769   2.942
10791TIP3    H132330   1.050   3.746   2.982
10791TIP3    H232331   0.977   3.860   2.914
10792TIP3   OH232332   4.141   4.919   0.295
10792TIP3    H132333   4.068   4.867   0.327
10792TIP3    H232334   4.219   4.867   0.318
10793TIP3   OH232335   7.574   6.501   4.616
10793TIP3    H132336   7.669   6.491   4.614
10793TIP3    H232337   7.553   6.545   4.533
10794TIP3   OH232338   5.490   4.131   4.196
10794TIP3    H132339   5.405   4.113   4.156
10794TIP3    H232340   5.553   4.082   4.142
10795TIP3   OH232341   5.649   0.733   2.867
10795TIP3    H132342   5.739   0.751   2.838
10795TIP3    H232343   5.634   0.795   2.938
10796TIP3   OH232344   6.587   6.458   6.062
10796TIP3    H132345   6.569   6.401   5.987
10796TIP3    H232346   6.683   6.465   6.065
10797TIP3   OH232347   7.829   7.286   4.837
10797TIP3    H132348   7.839   7.355   4.773
10797TIP3    H232349   7.796   7.330   4.915
10798TIP3   OH232350   0.341   2.257   4.511
10798TIP3    H132351   0.338   2.349   4.486
10798TIP3    H232352   0.432   2.231   4.498
10799TIP3   OH232353   4.972   4.397   4.136
10799TIP3    H132354   4.975   4.426   4.227
10799TIP3    H232355   4.878   4.388   4.117
10800TIP3   OH232356   5.432   7.484   6.523
10800TIP3    H132357   5.492   7.445   6.586
10800TIP3    H232358   5.484   7.494   6.443
10801TIP3   OH232359   0.923   0.770   6.512
10801TIP3    H132360   1.002   0.732   6.474
10801TIP3    H232361   0.952   0.806   6.596
10802TIP3   OH232362   0.347   3.111   0.192
10802TIP3    H132363   0.356   3.186   0.134
10802TIP3    H232364   0.332   3.036   0.134
10803TIP3   OH232365   4.503   5.986   3.035
10803TIP3    H132366   4.451   6.055   3.076
10803TIP3    H232367   4.521   5.924   3.106
10804TIP3   OH232368   1.211   1.827   2.212
10804TIP3    H132369   1.168   1.743   2.228
10804TIP3    H232370   1.288   1.826   2.269
10805TIP3   OH232371   2.670   3.844   5.230
10805TIP3    H132372   2.614   3.819   5.303
10805TIP3    H232373   2.610   3.877   5.163
10806TIP3   OH232374   0.337   5.017   3.303
10806TIP3    H132375   0.385   4.937   3.282
10806TIP3    H232376   0.323   5.012   3.398
10807TIP3   OH232377   5.036   3.675   2.734
10807TIP3    H132378   5.109   3.716   2.781
10807TIP3    H232379   4.964   3.738   2.743
10808TIP3   OH232380   5.114   5.500   5.244
10808TIP3    H132381   5.139   5.408   5.237
10808TIP3    H232382   5.188   5.549   5.208
10809TIP3   OH232383   1.058   4.779   2.127
10809TIP3    H132384   0.966   4.793   2.149
10809TIP3    H232385   1.071   4.829   2.047
10810TIP3   OH232386   3.625   0.989   1.668
10810TIP3    H132387   3.617   1.070   1.719
10810TIP3    H232388   3.582   0.922   1.722
10811TIP3   OH232389   0.431   6.565   1.849
10811TIP3    H132390   0.385   6.617   1.915
10811TIP3    H232391   0.395   6.594   1.765
10812TIP3   OH232392   0.060   4.833   2.820
10812TIP3    H132393   0.060   4.907   2.882
10812TIP3    H232394  -0.024   4.841   2.775
10813TIP3   OH232395   0.505   1.457   1.255
10813TIP3    H132396   0.484   1.367   1.279
10813TIP3    H232397   0.493   1.460   1.160
10814TIP3   OH232398   2.316   6.825   0.153
10814TIP3    H132399   2.389   6.872   0.112
10814TIP3    H232400   2.298   6.752   0.094
10815TIP3   OH232401   7.312   6.321   6.356
10815TIP3    H132402   7.278   6.363   6.277
10815TIP3    H232403   7.262   6.361   6.428
10816TIP3   OH232404   6.160   2.210   4.036
10816TIP3    H132405   6.224   2.175   3.974
10816TIP3    H232406   6.111   2.133   4.066
10817TIP3   OH232407   4.814   1.408   1.976
10817TIP3    H132408   4.775   1.342   2.033
10817TIP3    H232409   4.812   1.368   1.889
10818TIP3   OH232410   2.886   6.300   0.845
10818TIP3    H132411   2.798   6.326   0.870
10818TIP3    H232412   2.887   6.307   0.749
10819TIP3   OH232413   7.206   1.501   6.250
10819TIP3    H132414   7.207   1.576   6.190
10819TIP3    H232415   7.280   1.516   6.309
10820TIP3   OH232416   6.110   2.018   3.720
10820TIP3    H132417   6.168   1.974   3.781
10820TIP3    H232418   6.055   1.949   3.684
10821TIP3   OH232419   6.239   0.384   4.566
10821TIP3    H132420   6.150   0.420   4.558
10821TIP3    H232421   6.227   0.289   4.555
10822TIP3   OH232422   1.975   7.176   0.789
10822TIP3    H132423   2.065   7.179   0.821
10822TIP3    H232424   1.922   7.165   0.868
10823TIP3   OH232425   7.384   7.285   2.155
10823TIP3    H132426   7.450   7.268   2.087
10823TIP3    H232427   7.436   7.303   2.234
10824TIP3   OH232428   3.739   5.303   3.820
10824TIP3    H132429   3.812   5.360   3.844
10824TIP3    H232430   3.757   5.220   3.865
10825TIP3   OH232431   0.379   1.915   0.203
10825TIP3    H132432   0.345   1.910   0.114
10825TIP3    H232433   0.431   1.996   0.205
10826TIP3   OH232434   2.656   6.202   3.452
10826TIP3    H132435   2.705   6.269   3.499
10826TIP3    H232436   2.714   6.174   3.382
10827TIP3   OH232437   4.701   6.910   0.756
10827TIP3    H132438   4.795   6.901   0.738
10827TIP3    H232439   4.696   6.981   0.820
10828TIP3   OH232440   1.454   6.746   1.360
10828TIP3    H132441   1.503   6.711   1.285
10828TIP3    H232442   1.519   6.794   1.411
10829TIP3   OH232443   4.909   5.128   5.397
10829TIP3    H132444   4.988   5.084   5.428
10829TIP3    H232445   4.926   5.221   5.412
10830TIP3   OH232446   7.385   0.972   6.131
10830TIP3    H132447   7.413   0.883   6.111
10830TIP3    H232448   7.376   0.974   6.226
10831TIP3   OH232449   3.434   6.127   1.102
10831TIP3    H132450   3.380   6.119   1.023
10831TIP3    H232451   3.372   6.157   1.169
10832TIP3   OH232452   6.755   0.677   3.020
10832TIP3    H132453   6.759   0.667   2.925
10832TIP3    H232454   6.709   0.760   3.034
10833TIP3   OH232455   7.147   7.134   3.452
10833TIP3    H132456   7.173   7.190   3.524
10833TIP3    H232457   7.135   7.193   3.378
10834TIP3   OH232458   6.602   7.350   4.166
10834TIP3    H132459   6.608   7.257   4.145
10834TIP3    H232460   6.622   7.354   4.260
10835TIP3   OH232461   2.142   1.014  -0.005
10835TIP3    H132462   2.066   0.998  -0.061
10835TIP3    H232463   2.109   1.069   0.065
10836TIP3   OH232464   4.338   4.938   0.758
10836TIP3    H132465   4.262   4.971   0.807
10836TIP3    H232466   4.414   4.973   0.805
10837TIP3   OH232467   6.196   1.948   2.457
10837TIP3    H132468   6.250   1.870   2.444
10837TIP3    H232469   6.109   1.923   2.427
10838TIP3   OH232470   7.047   1.519   3.799
10838TIP3    H132471   6.980   1.517   3.867
10838TIP3    H232472   7.001   1.548   3.720
10839TIP3   OH232473   1.109   3.426   3.650
10839TIP3    H132474   1.041   3.441   3.585
10839TIP3    H232475   1.062   3.403   3.730
10840TIP3   OH232476   0.372   3.249   6.564
10840TIP3    H132477   0.286   3.214   6.540
10840TIP3    H232478   0.406   3.186   6.627
10841TIP3   OH232479   4.406   2.174   5.667
10841TIP3    H132480   4.499   2.188   5.682
10841TIP3    H232481   4.395   2.079   5.670
10842TIP3   OH232482   6.986   3.255   5.193
10842TIP3    H132483   7.043   3.212   5.128
10842TIP3    H232484   7.040   3.325   5.229
10843TIP3   OH232485   7.612   0.965   3.845
10843TIP3    H132486   7.657   1.013   3.775
10843TIP3    H232487   7.625   0.873   3.822
10844TIP3   OH232488   2.877   4.243   4.261
10844TIP3    H132489   2.874   4.220   4.354
10844TIP3    H232490   2.795   4.210   4.225
10845TIP3   OH232491   5.363   2.972   3.093
10845TIP3    H132492   5.452   2.975   3.057
10845TIP3    H232493   5.376   2.958   3.187
10846TIP3   OH232494   5.677   2.389   2.112
10846TIP3    H132495   5.684   2.309   2.060
10846TIP3    H232496   5.584   2.414   2.106
10847TIP3   OH232497   0.580   4.462   1.102
10847TIP3    H132498   0.641   4.523   1.144
10847TIP3    H232499   0.542   4.513   1.031
10848TIP3   OH232500   2.617   5.054   2.882
10848TIP3    H132501   2.652   5.070   2.969
10848TIP3    H232502   2.538   5.002   2.896
10849TIP3   OH232503   0.161   5.776   5.166
10849TIP3    H132504   0.181   5.731   5.249
10849TIP3    H232505   0.128   5.707   5.109
10850TIP3   OH232506   2.459   3.897   3.380
10850TIP3    H132507   2.537   3.921   3.329
10850TIP3    H232508   2.386   3.934   3.331
10851TIP3   OH232509   8.216   4.385   1.678
10851TIP3    H132510   8.299   4.433   1.674
10851TIP3    H232511   8.220   4.324   1.605
10852TIP3   OH232512   4.918   3.136   5.433
10852TIP3    H132513   4.964   3.125   5.516
10852TIP3    H232514   4.906   3.046   5.401
10853TIP3   OH232515   6.609   5.722   5.495
10853TIP3    H132516   6.514   5.739   5.492
10853TIP3    H232517   6.621   5.666   5.571
10854TIP3   OH232518   1.198   7.495   4.477
10854TIP3    H132519   1.134   7.546   4.526
10854TIP3    H232520   1.151   7.468   4.398
10855TIP3   OH232521   5.731   5.774   2.658
10855TIP3    H132522   5.643   5.796   2.688
10855TIP3    H232523   5.786   5.845   2.690
10856TIP3   OH232524   7.459   7.248   1.692
10856TIP3    H132525   7.517   7.324   1.690
10856TIP3    H232526   7.422   7.244   1.603
10857TIP3   OH232527   8.135   3.097   4.118
10857TIP3    H132528   8.096   3.160   4.057
10857TIP3    H232529   8.080   3.019   4.110
10858TIP3   OH232530   5.874   1.316   1.773
10858TIP3    H132531   5.820   1.241   1.796
10858TIP3    H232532   5.903   1.298   1.684
10859TIP3   OH232533   5.382   4.821   4.305
10859TIP3    H132534   5.322   4.805   4.232
10859TIP3    H232535   5.445   4.750   4.301
10860TIP3   OH232536   1.023   3.302   5.885
10860TIP3    H132537   1.108   3.321   5.923
10860TIP3    H232538   0.965   3.371   5.919
10861TIP3   OH232539   0.200   5.676   3.005
10861TIP3    H132540   0.257   5.654   2.931
10861TIP3    H232541   0.163   5.592   3.032
10862TIP3   OH232542   4.319   6.857   0.049
10862TIP3    H132543   4.236   6.812   0.063
10862TIP3    H232544   4.308   6.942   0.092
10863TIP3   OH232545   3.848   4.531   1.640
10863TIP3    H132546   3.834   4.485   1.723
10863TIP3    H232547   3.937   4.508   1.615
10864TIP3   OH232548   4.743   0.562   4.850
10864TIP3    H132549   4.715   0.504   4.922
10864TIP3    H232550   4.825   0.524   4.819
10865TIP3   OH232551   3.795   4.889   5.741
10865TIP3    H132552   3.816   4.797   5.757
10865TIP3    H232553   3.721   4.907   5.799
10866TIP3   OH232554   3.338   2.270   5.746
10866TIP3    H132555   3.411   2.262   5.807
10866TIP3    H232556   3.379   2.279   5.660
10867TIP3   OH232557   1.655   4.663   5.202
10867TIP3    H132558   1.603   4.582   5.196
10867TIP3    H232559   1.627   4.703   5.285
10868TIP3   OH232560   5.168   3.645   0.512
10868TIP3    H132561   5.250   3.679   0.548
10868TIP3    H232562   5.186   3.553   0.495
10869TIP3   OH232563   3.060   0.677   0.639
10869TIP3    H132564   3.105   0.704   0.559
10869TIP3    H232565   3.101   0.728   0.708
10870TIP3   OH232566   1.403   1.892   2.671
10870TIP3    H132567   1.345   1.820   2.645
10870TIP3    H232568   1.351   1.971   2.657
10871TIP3   OH232569   6.781   1.218   1.116
10871TIP3    H132570   6.856   1.269   1.085
10871TIP3    H232571   6.711   1.282   1.129
10872TIP3   OH232572   4.466   7.770   2.738
10872TIP3    H132573   4.545   7.796   2.786
10872TIP3    H232574   4.460   7.676   2.752
10873TIP3   OH232575   1.448   5.410   2.235
10873TIP3    H132576   1.388   5.472   2.274
10873TIP3    H232577   1.483   5.455   2.158
10874TIP3   OH232578   1.756   1.954   0.494
10874TIP3    H132579   1.800   2.037   0.474
10874TIP3    H232580   1.753   1.951   0.590
10875TIP3   OH232581   0.359   7.596   3.904
10875TIP3    H132582   0.286   7.540   3.930
10875TIP3    H232583   0.333   7.683   3.932
10876TIP3   OH232584   1.007   6.077   2.485
10876TIP3    H132585   0.956   5.997   2.475
10876TIP3    H232586   0.945   6.141   2.520
10877TIP3   OH232587   4.767   2.926   5.727
10877TIP3    H132588   4.736   2.835   5.731
10877TIP3    H232589   4.853   2.919   5.684
10878TIP3   OH232590   6.560   4.859   4.066
10878TIP3    H132591   6.621   4.845   4.138
10878TIP3    H232592   6.482   4.894   4.108
10879TIP3   OH232593   7.927   4.849   3.791
10879TIP3    H132594   7.850   4.813   3.746
10879TIP3    H232595   7.990   4.867   3.721
10880TIP3   OH232596   1.738   5.933   3.159
10880TIP3    H132597   1.679   5.959   3.088
10880TIP3    H232598   1.811   5.995   3.153
10881TIP3   OH232599   2.055   7.324   3.594
10881TIP3    H132600   2.004   7.326   3.676
10881TIP3    H232601   2.044   7.411   3.557
10882TIP3   OH232602   7.847   7.450   2.596
10882TIP3    H132603   7.851   7.500   2.678
10882TIP3    H232604   7.779   7.493   2.545
10883TIP3   OH232605   6.654   3.094   0.940
10883TIP3    H132606   6.662   3.085   1.035
10883TIP3    H232607   6.733   3.141   0.914
10884TIP3   OH232608   8.206   6.990   5.699
10884TIP3    H132609   8.154   6.934   5.641
10884TIP3    H232610   8.231   7.064   5.644
10885TIP3   OH232611   3.095   3.605   1.553
10885TIP3    H132612   3.110   3.699   1.559
10885TIP3    H232613   3.138   3.579   1.472
10886TIP3   OH232614   8.037   2.331   4.552
10886TIP3    H132615   8.107   2.271   4.577
10886TIP3    H232616   7.962   2.275   4.534
10887TIP3   OH232617   8.046   3.936   3.794
10887TIP3    H132618   8.116   3.946   3.729
10887TIP3    H232619   7.990   4.012   3.780
10888TIP3   OH232620   7.863   4.395   2.609
10888TIP3    H132621   7.789   4.380   2.551
10888TIP3    H232622   7.915   4.463   2.565
10889TIP3   OH232623   2.139   3.807   5.602
10889TIP3    H132624   2.164   3.740   5.666
10889TIP3    H232625   2.079   3.864   5.649
10890TIP3   OH232626   1.891   7.127   6.624
10890TIP3    H132627   1.813   7.112   6.571
10890TIP3    H232628   1.895   7.052   6.683
10891TIP3   OH232629   5.947   1.222   2.486
10891TIP3    H132630   5.987   1.144   2.449
10891TIP3    H232631   5.987   1.231   2.573
10892TIP3   OH232632   2.704   2.313   3.716
10892TIP3    H132633   2.724   2.276   3.629
10892TIP3    H232634   2.790   2.337   3.751
10893TIP3   OH232635   1.215   0.093   2.813
10893TIP3    H132636   1.199   0.178   2.855
10893TIP3    H232637   1.172   0.030   2.870
10894TIP3   OH232638   6.573   1.406   3.788
10894TIP3    H132639   6.558   1.488   3.834
10894TIP3    H232640   6.549   1.338   3.852
10895TIP3   OH232641   6.455   4.059   0.381
10895TIP3    H132642   6.459   3.988   0.317
10895TIP3    H232643   6.424   4.135   0.330
10896TIP3   OH232644   8.244   4.601   1.329
10896TIP3    H132645   8.248   4.632   1.419
10896TIP3    H232646   8.157   4.562   1.321
10897TIP3   OH232647   5.833   5.607   4.505
10897TIP3    H132648   5.833   5.578   4.596
10897TIP3    H232649   5.866   5.531   4.456
10898TIP3   OH232650   7.458   2.653   0.087
10898TIP3    H132651   7.498   2.575   0.125
10898TIP3    H232652   7.530   2.715   0.079
10899TIP3   OH232653   2.419   4.665   1.940
10899TIP3    H132654   2.347   4.676   2.002
10899TIP3    H232655   2.400   4.583   1.894
10900TIP3   OH232656   3.792   7.591   3.225
10900TIP3    H132657   3.712   7.590   3.277
10900TIP3    H232658   3.774   7.653   3.154
10901TIP3   OH232659   7.889   1.190   2.421
10901TIP3    H132660   7.905   1.129   2.493
10901TIP3    H232661   7.886   1.276   2.463
10902TIP3   OH232662   3.503   3.216   5.842
10902TIP3    H132663   3.474   3.127   5.861
10902TIP3    H232664   3.598   3.213   5.851
10903TIP3   OH232665   1.481   0.588   1.753
10903TIP3    H132666   1.539   0.664   1.746
10903TIP3    H232667   1.536   0.519   1.790
10904TIP3   OH232668   3.805   2.063   2.447
10904TIP3    H132669   3.884   2.117   2.440
10904TIP3    H232670   3.837   1.973   2.441
10905TIP3   OH232671   7.606   2.056   2.021
10905TIP3    H132672   7.545   2.082   2.090
10905TIP3    H232673   7.601   2.126   1.956
10906TIP3   OH232674   5.184   5.289   3.749
10906TIP3    H132675   5.210   5.218   3.690
10906TIP3    H232676   5.115   5.252   3.803
10907TIP3   OH232677   5.148   2.256   2.019
10907TIP3    H132678   5.083   2.310   1.974
10907TIP3    H232679   5.142   2.283   2.111
10908TIP3   OH232680   1.409   1.548   3.684
10908TIP3    H132681   1.350   1.622   3.702
10908TIP3    H232682   1.426   1.509   3.770
10909TIP3   OH232683   1.970   1.544   2.883
10909TIP3    H132684   2.046   1.529   2.939
10909TIP3    H232685   1.992   1.622   2.832
10910TIP3   OH232686   1.781   2.960   6.417
10910TIP3    H132687   1.837   2.883   6.429
10910TIP3    H232688   1.696   2.933   6.452
10911TIP3   OH232689   4.998   5.822   6.410
10911TIP3    H132690   5.019   5.760   6.341
10911TIP3    H232691   4.917   5.790   6.449
10912TIP3   OH232692   1.137   5.575   6.477
10912TIP3    H132693   1.045   5.599   6.489
10912TIP3    H232694   1.137   5.511   6.406
10913TIP3   OH232695   2.016   2.782   6.013
10913TIP3    H132696   1.925   2.802   6.037
10913TIP3    H232697   2.024   2.688   6.028
10914TIP3   OH232698   0.952   2.293   4.579
10914TIP3    H132699   0.960   2.279   4.673
10914TIP3    H232700   0.891   2.366   4.571
10915TIP3   OH232701   6.091   4.482   4.862
10915TIP3    H132702   6.029   4.454   4.794
10915TIP3    H232703   6.150   4.542   4.816
10916TIP3   OH232704   3.445   6.601   2.312
10916TIP3    H132705   3.387   6.657   2.362
10916TIP3    H232706   3.499   6.662   2.260
10917TIP3   OH232707   7.090   0.994   0.258
10917TIP3    H132708   7.121   1.014   0.170
10917TIP3    H232709   7.083   1.079   0.301
10918TIP3   OH232710   7.044   1.101   4.239
10918TIP3    H132711   7.127   1.054   4.245
10918TIP3    H232712   7.044   1.139   4.151
10919TIP3   OH232713   8.282   1.421   3.272
10919TIP3    H132714   8.247   1.467   3.196
10919TIP3    H232715   8.269   1.482   3.345
10920TIP3   OH232716   5.946   7.556   2.440
10920TIP3    H132717   5.904   7.470   2.447
10920TIP3    H232718   5.984   7.572   2.526
10921TIP3   OH232719   4.939   0.585   1.782
10921TIP3    H132720   5.013   0.644   1.800
10921TIP3    H232721   4.970   0.530   1.710
10922TIP3   OH232722   0.139   0.825   1.141
10922TIP3    H132723   0.130   0.755   1.077
10922TIP3    H232724   0.230   0.854   1.133
10923TIP3   OH232725   7.003   4.393   6.189
10923TIP3    H132726   7.008   4.355   6.277
10923TIP3    H232727   6.914   4.375   6.160
10924TIP3   OH232728   4.188   3.507   1.817
10924TIP3    H132729   4.255   3.575   1.814
10924TIP3    H232730   4.168   3.497   1.910
10925TIP3   OH232731   4.705   3.454   5.125
10925TIP3    H132732   4.720   3.540   5.086
10925TIP3    H232733   4.644   3.471   5.198
10926TIP3   OH232734   3.478   1.518   0.806
10926TIP3    H132735   3.528   1.442   0.835
10926TIP3    H232736   3.418   1.484   0.741
10927TIP3   OH232737   7.788   6.745   0.044
10927TIP3    H132738   7.732   6.714  -0.027
10927TIP3    H232739   7.741   6.818   0.083
10928TIP3   OH232740   7.259   2.851   5.555
10928TIP3    H132741   7.318   2.789   5.597
10928TIP3    H232742   7.288   2.937   5.587
10929TIP3   OH232743   3.744   6.734   1.382
10929TIP3    H132744   3.795   6.790   1.440
10929TIP3    H232745   3.675   6.791   1.348
10930TIP3   OH232746   7.529   7.754   2.786
10930TIP3    H132747   7.596   7.721   2.726
10930TIP3    H232748   7.578   7.799   2.855
10931TIP3   OH232749   0.835   1.843   3.413
10931TIP3    H132750   0.831   1.789   3.333
10931TIP3    H232751   0.755   1.895   3.410
10932TIP3   OH232752   6.898   5.742   3.132
10932TIP3    H132753   6.875   5.702   3.216
10932TIP3    H232754   6.993   5.741   3.130
10933TIP3   OH232755   4.296   0.681   3.842
10933TIP3    H132756   4.328   0.758   3.889
10933TIP3    H232757   4.218   0.712   3.795
10934TIP3   OH232758   5.796   3.222   1.639
10934TIP3    H132759   5.777   3.313   1.660
10934TIP3    H232760   5.866   3.198   1.700
10935TIP3   OH232761   0.402   5.280   2.543
10935TIP3    H132762   0.392   5.226   2.621
10935TIP3    H232763   0.481   5.331   2.559
10936TIP3   OH232764   7.457   1.872   2.900
10936TIP3    H132765   7.383   1.836   2.851
10936TIP3    H232766   7.450   1.833   2.987
10937TIP3   OH232767   7.621   0.156   6.003
10937TIP3    H132768   7.612   0.204   5.921
10937TIP3    H232769   7.649   0.068   5.977
10938TIP3   OH232770   3.924   2.704   4.583
10938TIP3    H132771   4.011   2.743   4.589
10938TIP3    H232772   3.940   2.613   4.558
10939TIP3   OH232773   0.377   2.575   3.359
10939TIP3    H132774   0.434   2.555   3.285
10939TIP3    H232775   0.387   2.669   3.373
10940TIP3   OH232776   1.390   7.809   1.961
10940TIP3    H132777   1.377   7.855   1.878
10940TIP3    H232778   1.362   7.719   1.943
10941TIP3   OH232779   8.154   6.370   0.250
10941TIP3    H132780   8.110   6.375   0.335
10941TIP3    H232781   8.243   6.401   0.266
10942TIP3   OH232782   4.112   3.235   0.027
10942TIP3    H132783   4.191   3.213  -0.023
10942TIP3    H232784   4.088   3.154   0.071
10943TIP3   OH232785   1.796   0.503   3.363
10943TIP3    H132786   1.860   0.575   3.363
10943TIP3    H232787   1.784   0.483   3.270
10944TIP3   OH232788   5.409   0.066   6.245
10944TIP3    H132789   5.470   0.139   6.247
10944TIP3    H232790   5.351   0.086   6.172
10945TIP3   OH232791   5.264   3.498   1.827
10945TIP3    H132792   5.280   3.485   1.734
10945TIP3    H232793   5.286   3.589   1.844
10946TIP3   OH232794   3.404   7.081   5.161
10946TIP3    H132795   3.415   7.158   5.217
10946TIP3    H232796   3.410   7.115   5.072
10947TIP3   OH232797   8.200   7.325   1.776
10947TIP3    H132798   8.143   7.252   1.799
10947TIP3    H232799   8.286   7.286   1.763
10948TIP3   OH232800   0.641   7.434   3.072
10948TIP3    H132801   0.572   7.424   3.138
10948TIP3    H232802   0.624   7.363   3.010
10949TIP3   OH232803   1.728   2.498   4.963
10949TIP3    H132804   1.788   2.434   4.925
10949TIP3    H232805   1.644   2.478   4.923
10950TIP3   OH232806   7.184   4.839   1.084
10950TIP3    H132807   7.229   4.924   1.082
10950TIP3    H232808   7.233   4.784   1.023
10951TIP3   OH232809   7.285   7.190   5.100
10951TIP3    H132810   7.237   7.122   5.051
10951TIP3    H232811   7.377   7.176   5.077
10952TIP3   OH232812   6.019   2.234   6.600
10952TIP3    H132813   5.954   2.198   6.539
10952TIP3    H232814   6.009   2.182   6.679
10953TIP3   OH232815   1.351   7.568   5.583
10953TIP3    H132816   1.340   7.662   5.572
10953TIP3    H232817   1.322   7.551   5.673
10954TIP3   OH232818   5.888   7.083   2.789
10954TIP3    H132819   5.937   7.002   2.775
10954TIP3    H232820   5.802   7.055   2.821
10955TIP3   OH232821   4.045   3.147   3.130
10955TIP3    H132822   3.967   3.108   3.091
10955TIP3    H232823   4.098   3.072   3.157
10956TIP3   OH232824   0.176   4.090   4.027
10956TIP3    H132825   0.144   4.063   4.113
10956TIP3    H232826   0.258   4.137   4.045
10957TIP3   OH232827   4.315   2.071   0.939
10957TIP3    H132828   4.293   2.026   1.021
10957TIP3    H232829   4.318   2.164   0.963
10958TIP3   OH232830   5.009   5.669   1.786
10958TIP3    H132831   5.066   5.619   1.727
10958TIP3    H232832   5.070   5.716   1.844
10959TIP3   OH232833   1.047   1.075   6.000
10959TIP3    H132834   1.135   1.111   5.995
10959TIP3    H232835   1.049   1.016   6.075
10960TIP3   OH232836   6.876   1.154   2.189
10960TIP3    H132837   6.943   1.116   2.246
10960TIP3    H232838   6.875   1.246   2.213
10961TIP3   OH232839   6.793   1.195   3.866
10961TIP3    H132840   6.791   1.290   3.878
10961TIP3    H232841   6.701   1.170   3.859
10962TIP3   OH232842   1.180   2.467   4.453
10962TIP3    H132843   1.133   2.452   4.535
10962TIP3    H232844   1.272   2.465   4.477
10963TIP3   OH232845   3.664   2.454   0.281
10963TIP3    H132846   3.648   2.532   0.333
10963TIP3    H232847   3.590   2.450   0.220
10964TIP3   OH232848   7.266   0.928   5.183
10964TIP3    H132849   7.240   0.937   5.275
10964TIP3    H232850   7.184   0.920   5.135
10965TIP3   OH232851   5.231   3.375   4.286
10965TIP3    H132852   5.193   3.457   4.253
10965TIP3    H232853   5.194   3.366   4.374
10966TIP3   OH232854   1.980   4.545   2.122
10966TIP3    H132855   1.957   4.586   2.205
10966TIP3    H232856   2.053   4.487   2.143
10967TIP3   OH232857   7.771   4.711   2.441
10967TIP3    H132858   7.723   4.728   2.522
10967TIP3    H232859   7.714   4.743   2.372
10968TIP3   OH232860   2.826   5.956   1.122
10968TIP3    H132861   2.737   5.946   1.088
10968TIP3    H232862   2.820   5.927   1.213
10969TIP3   OH232863   7.114   6.494   1.805
10969TIP3    H132864   7.168   6.487   1.883
10969TIP3    H232865   7.173   6.476   1.733
10970TIP3   OH232866   1.010   0.708   5.813
10970TIP3    H132867   1.026   0.741   5.725
10970TIP3    H232868   0.949   0.636   5.801
10971TIP3   OH232869   2.665   6.747   4.984
10971TIP3    H132870   2.582   6.724   5.026
10971TIP3    H232871   2.730   6.692   5.028
10972TIP3   OH232872   0.438   1.503   6.348
10972TIP3    H132873   0.392   1.420   6.360
10972TIP3    H232874   0.494   1.511   6.424
10973TIP3   OH232875   6.110   2.015   3.250
10973TIP3    H132876   6.133   2.041   3.160
10973TIP3    H232877   6.161   1.935   3.265
10974TIP3   OH232878   8.153   3.168   1.659
10974TIP3    H132879   8.110   3.087   1.630
10974TIP3    H232880   8.148   3.226   1.584
10975TIP3   OH232881   4.338   5.398   3.045
10975TIP3    H132882   4.318   5.439   3.129
10975TIP3    H232883   4.381   5.316   3.068
10976TIP3   OH232884   1.648   5.916   0.159
10976TIP3    H132885   1.667   6.006   0.135
10976TIP3    H232886   1.617   5.921   0.250
10977TIP3   OH232887   7.833   5.600   4.509
10977TIP3    H132888   7.908   5.625   4.564
10977TIP3    H232889   7.865   5.608   4.419
10978TIP3   OH232890   1.623   6.971   5.534
10978TIP3    H132891   1.704   7.016   5.511
10978TIP3    H232892   1.557   7.040   5.538
10979TIP3   OH232893   5.639   0.465   3.563
10979TIP3    H132894   5.641   0.536   3.627
10979TIP3    H232895   5.641   0.509   3.478
10980TIP3   OH232896   5.884   0.610   4.239
10980TIP3    H132897   5.954   0.648   4.186
10980TIP3    H232898   5.835   0.685   4.272
10981TIP3   OH232899   5.947   2.492   6.647
10981TIP3    H132900   6.004   2.522   6.718
10981TIP3    H232901   5.966   2.399   6.638
10982TIP3   OH232902   5.701   2.197   3.859
10982TIP3    H132903   5.663   2.262   3.799
10982TIP3    H232904   5.795   2.217   3.859
10983TIP3   OH232905   8.071   0.179   3.170
10983TIP3    H132906   7.979   0.195   3.192
10983TIP3    H232907   8.082   0.219   3.083
10984TIP3   OH232908   4.737   2.489   5.994
10984TIP3    H132909   4.688   2.487   6.076
10984TIP3    H232910   4.828   2.473   6.020
10985TIP3   OH232911   6.013   4.009   6.233
10985TIP3    H132912   5.986   3.917   6.229
10985TIP3    H232913   5.947   4.050   6.290
10986TIP3   OH232914   4.301   7.339   6.146
10986TIP3    H132915   4.218   7.338   6.098
10986TIP3    H232916   4.363   7.296   6.086
10987TIP3   OH232917   2.488   5.678   6.130
10987TIP3    H132918   2.398   5.689   6.101
10987TIP3    H232919   2.521   5.768   6.142
10988TIP3   OH232920   6.407   1.619   2.767
10988TIP3    H132921   6.408   1.715   2.768
10988TIP3    H232922   6.452   1.594   2.848
10989TIP3   OH232923   6.940   4.270   4.081
10989TIP3    H132924   6.950   4.327   4.005
10989TIP3    H232925   6.848   4.278   4.105
10990TIP3   OH232926   3.614   7.693   6.528
10990TIP3    H132927   3.551   7.760   6.502
10990TIP3    H232928   3.699   7.736   6.522
10991TIP3   OH232929   6.181   4.474   6.359
10991TIP3    H132930   6.166   4.395   6.307
10991TIP3    H232931   6.186   4.443   6.449
10992TIP3   OH232932   5.038   2.263   1.270
10992TIP3    H132933   4.979   2.213   1.327
10992TIP3    H232934   5.110   2.203   1.252
10993TIP3   OH232935   1.017   3.585   6.353
10993TIP3    H132936   1.048   3.652   6.415
10993TIP3    H232937   1.015   3.504   6.405
10994TIP3   OH232938   5.615   3.874   4.750
10994TIP3    H132939   5.583   3.954   4.707
10994TIP3    H232940   5.586   3.881   4.840
10995TIP3   OH232941   6.558   7.170   3.299
10995TIP3    H132942   6.626   7.122   3.253
10995TIP3    H232943   6.492   7.104   3.320
10996TIP3   OH232944   8.103   3.354   3.926
10996TIP3    H132945   8.193   3.385   3.923
10996TIP3    H232946   8.094   3.298   3.849
10997TIP3   OH232947   4.060   4.459   5.243
10997TIP3    H132948   4.002   4.385   5.226
10997TIP3    H232949   4.005   4.523   5.288
10998TIP3   OH232950   1.155   5.500   5.725
10998TIP3    H132951   1.066   5.467   5.712
10998TIP3    H232952   1.143   5.589   5.758
10999TIP3   OH232953   0.112   3.122   4.938
10999TIP3    H132954   0.095   3.209   4.975
10999TIP3    H232955   0.039   3.106   4.879
11000TIP3   OH232956   1.944   3.371   0.480
11000TIP3    H132957   1.962   3.440   0.416
11000TIP3    H232958   1.862   3.399   0.522
11001TIP3   OH232959   1.291   3.860   4.906
11001TIP3    H132960   1.346   3.803   4.852
11001TIP3    H232961   1.205   3.818   4.907
11002TIP3   OH232962   5.419   5.880   1.498
11002TIP3    H132963   5.450   5.950   1.441
11002TIP3    H232964   5.390   5.925   1.577
11003TIP3   OH232965   1.078   4.539   6.274
11003TIP3    H132966   1.029   4.598   6.331
11003TIP3    H232967   1.084   4.458   6.323
11004TIP3   OH232968   6.072   5.557   3.217
11004TIP3    H132969   6.010   5.498   3.173
11004TIP3    H232970   6.110   5.504   3.287
11005TIP3   OH232971   1.067   6.437   4.226
11005TIP3    H132972   0.991   6.442   4.168
11005TIP3    H232973   1.035   6.468   4.310
11006TIP3   OH232974   8.302   2.276   2.941
11006TIP3    H132975   8.384   2.308   2.979
11006TIP3    H232976   8.248   2.354   2.932
11007TIP3   OH232977   5.760   4.828   0.163
11007TIP3    H132978   5.753   4.735   0.187
11007TIP3    H232979   5.696   4.840   0.093
11008TIP3   OH232980   5.055   5.609   6.004
11008TIP3    H132981   5.070   5.539   5.941
11008TIP3    H232982   5.017   5.680   5.952
11009TIP3   OH232983   2.060   2.340   4.384
11009TIP3    H132984   1.980   2.288   4.390
11009TIP3    H232985   2.077   2.346   4.290
11010TIP3   OH232986   1.746   1.262   6.139
11010TIP3    H132987   1.796   1.195   6.186
11010TIP3    H232988   1.698   1.309   6.207
11011TIP3   OH232989   6.895   5.098   4.529
11011TIP3    H132990   6.900   5.046   4.609
11011TIP3    H232991   6.948   5.176   4.547
11012TIP3   OH232992   2.850   7.501   4.589
11012TIP3    H132993   2.789   7.443   4.544
11012TIP3    H232994   2.937   7.464   4.570
11013TIP3   OH232995   5.427   1.677   5.007
11013TIP3    H132996   5.398   1.647   5.093
11013TIP3    H232997   5.361   1.642   4.947
11014TIP3   OH232998   7.074   1.041   0.927
11014TIP3    H132999   7.155   0.990   0.928
11014TIP3    H233000   7.018   0.998   0.992
11015TIP3   OH233001   0.304   5.514   4.494
11015TIP3    H133002   0.250   5.477   4.564
11015TIP3    H233003   0.340   5.437   4.449
11016TIP3   OH233004   5.512   0.971   5.242
11016TIP3    H133005   5.500   1.056   5.283
11016TIP3    H233006   5.500   0.988   5.148
11017TIP3   OH233007   4.653   3.612   2.488
11017TIP3    H133008   4.718   3.543   2.470
11017TIP3    H233009   4.618   3.590   2.574
11018TIP3   OH233010   8.289   7.206   5.519
11018TIP3    H133011   8.194   7.199   5.528
11018TIP3    H233012   8.301   7.257   5.439
11019TIP3   OH233013   2.623   3.165   0.632
11019TIP3    H133014   2.697   3.202   0.681
11019TIP3    H233015   2.646   3.180   0.541
11020TIP3   OH233016   7.942   3.882   1.740
11020TIP3    H133017   7.853   3.861   1.711
11020TIP3    H233018   7.981   3.797   1.762
11021TIP3   OH233019   6.929   7.724   6.271
11021TIP3    H133020   6.926   7.663   6.197
11021TIP3    H233021   6.847   7.772   6.265
11022TIP3   OH233022   7.763   1.939   1.014
11022TIP3    H133023   7.758   1.921   0.920
11022TIP3    H233024   7.715   2.022   1.024
11023TIP3   OH233025   6.236   6.303   6.514
11023TIP3    H133026   6.316   6.355   6.522
11023TIP3    H233027   6.166   6.368   6.508
11024TIP3   OH233028   0.863   5.701   1.922
11024TIP3    H133029   0.791   5.641   1.942
11024TIP3    H233030   0.911   5.710   2.004
11025TIP3   OH233031   1.234   4.979   0.996
11025TIP3    H133032   1.149   4.964   0.956
11025TIP3    H233033   1.248   5.073   0.989
11026TIP3   OH233034   3.782   5.761   1.838
11026TIP3    H133035   3.827   5.759   1.753
11026TIP3    H233036   3.842   5.715   1.897
11027TIP3   OH233037   1.266   5.700   4.193
11027TIP3    H133038   1.316   5.621   4.214
11027TIP3    H233039   1.321   5.772   4.223
11028TIP3   OH233040   7.499   6.754   0.579
11028TIP3    H133041   7.452   6.747   0.662
11028TIP3    H233042   7.585   6.789   0.603
11029TIP3   OH233043   4.668   1.249   1.391
11029TIP3    H133044   4.756   1.229   1.357
11029TIP3    H233045   4.612   1.182   1.352
11030TIP3   OH233046   5.715   2.305   1.266
11030TIP3    H133047   5.689   2.386   1.223
11030TIP3    H233048   5.678   2.312   1.354
11031TIP3   OH233049   6.313   6.607   6.492
11031TIP3    H133050   6.387   6.631   6.547
11031TIP3    H233051   6.344   6.618   6.402
11032TIP3   OH233052   6.177   5.633   2.164
11032TIP3    H133053   6.119   5.686   2.110
11032TIP3    H233054   6.119   5.582   2.221
11033TIP3   OH233055   5.163   4.975   0.107
11033TIP3    H133056   5.185   4.993   0.015
11033TIP3    H233057   5.085   4.919   0.102
11034TIP3   OH233058   5.082   2.556   0.633
11034TIP3    H133059   5.058   2.648   0.638
11034TIP3    H233060   5.144   2.550   0.561
11035TIP3   OH233061   0.854   0.790   4.207
11035TIP3    H133062   0.870   0.873   4.163
11035TIP3    H233063   0.759   0.782   4.212
11036TIP3   OH233064   4.738   7.626   5.542
11036TIP3    H133065   4.666   7.563   5.545
11036TIP3    H233066   4.762   7.631   5.450
11037TIP3   OH233067   4.309   1.863   3.369
11037TIP3    H133068   4.325   1.770   3.353
11037TIP3    H233069   4.346   1.879   3.456
11038TIP3   OH233070   6.706   2.556   1.315
11038TIP3    H133071   6.638   2.613   1.279
11038TIP3    H233072   6.788   2.597   1.288
11039TIP3   OH233073   4.353   7.774   3.843
11039TIP3    H133074   4.293   7.730   3.903
11039TIP3    H233075   4.353   7.865   3.872
11040TIP3   OH233076   1.296   3.209   0.508
11040TIP3    H133077   1.384   3.248   0.513
11040TIP3    H233078   1.297   3.141   0.575
11041TIP3   OH233079   7.963   7.247   2.811
11041TIP3    H133080   7.878   7.246   2.765
11041TIP3    H233081   7.983   7.155   2.826
11042TIP3   OH233082   6.950   2.538   5.034
11042TIP3    H133083   6.994   2.596   5.095
11042TIP3    H233084   6.937   2.591   4.955
11043TIP3   OH233085   8.005   7.397   0.855
11043TIP3    H133086   7.967   7.479   0.822
11043TIP3    H233087   8.098   7.417   0.865
11044TIP3   OH233088   4.597   2.512   2.560
11044TIP3    H133089   4.567   2.570   2.630
11044TIP3    H233090   4.579   2.424   2.594
11045TIP3   OH233091   0.445   3.554   3.810
11045TIP3    H133092   0.507   3.565   3.737
11045TIP3    H233093   0.469   3.470   3.849
11046TIP3   OH233094   2.454   2.892   3.786
11046TIP3    H133095   2.417   2.965   3.835
11046TIP3    H233096   2.410   2.895   3.701
11047TIP3   OH233097   5.477   5.061   3.636
11047TIP3    H133098   5.383   5.052   3.652
11047TIP3    H233099   5.488   5.149   3.601
11048TIP3   OH233100   6.486   6.888   6.216
11048TIP3    H133101   6.458   6.801   6.189
11048TIP3    H233102   6.578   6.893   6.188
11049TIP3   OH233103   5.640   5.343   4.672
11049TIP3    H133104   5.620   5.343   4.579
11049TIP3    H233105   5.633   5.251   4.698
11050TIP3   OH233106   0.681   5.269   5.989
11050TIP3    H133107   0.603   5.314   5.956
11050TIP3    H233108   0.754   5.319   5.952
11051TIP3   OH233109   7.001   0.407   2.088
11051TIP3    H133110   6.915   0.437   2.060
11051TIP3    H233111   7.028   0.470   2.156
11052TIP3   OH233112   1.171   4.561   2.225
11052TIP3    H133113   1.239   4.516   2.174
11052TIP3    H233114   1.137   4.628   2.165
11053TIP3   OH233115   4.552   2.919   3.721
11053TIP3    H133116   4.590   2.930   3.633
11053TIP3    H233117   4.626   2.930   3.780
11054TIP3   OH233118   0.448   0.702   6.702
11054TIP3    H133119   0.497   0.632   6.659
11054TIP3    H233120   0.501   0.725   6.779
11055TIP3   OH233121   2.992   3.328   0.310
11055TIP3    H133122   3.034   3.399   0.358
11055TIP3    H233123   3.059   3.298   0.248
11056TIP3   OH233124   0.277   0.682   0.234
11056TIP3    H133125   0.263   0.750   0.168
11056TIP3    H233126   0.208   0.618   0.217
11057TIP3   OH233127   7.021   1.728   1.898
11057TIP3    H133128   6.992   1.644   1.936
11057TIP3    H233129   7.071   1.769   1.968
11058TIP3   OH233130   7.535   6.606   3.582
11058TIP3    H133131   7.447   6.634   3.556
11058TIP3    H233132   7.535   6.611   3.677
11059TIP3   OH233133   0.784   3.199   6.559
11059TIP3    H133134   0.875   3.191   6.531
11059TIP3    H233135   0.733   3.177   6.481
11060TIP3   OH233136   5.848   0.785   6.124
11060TIP3    H133137   5.789   0.808   6.195
11060TIP3    H233138   5.925   0.748   6.167
11061TIP3   OH233139   0.853   1.224   0.776
11061TIP3    H133140   0.819   1.135   0.786
11061TIP3    H233141   0.886   1.227   0.687
11062TIP3   OH233142   7.572   4.772   0.825
11062TIP3    H133143   7.494   4.799   0.776
11062TIP3    H233144   7.579   4.837   0.896
11063TIP3   OH233145   5.163   6.242   6.043
11063TIP3    H133146   5.243   6.192   6.059
11063TIP3    H233147   5.150   6.293   6.123
11064TIP3   OH233148   4.254   4.474   3.306
11064TIP3    H133149   4.224   4.529   3.233
11064TIP3    H233150   4.203   4.393   3.298
11065TIP3   OH233151   7.217   3.564   1.200
11065TIP3    H133152   7.207   3.555   1.105
11065TIP3    H233153   7.145   3.512   1.236
11066TIP3   OH233154   2.148   2.640   1.324
11066TIP3    H133155   2.119   2.554   1.354
11066TIP3    H233156   2.116   2.701   1.390
11067TIP3   OH233157   5.833   2.676   2.638
11067TIP3    H133158   5.880   2.731   2.702
11067TIP3    H233159   5.802   2.601   2.690
11068TIP3   OH233160   7.727   5.252   5.253
11068TIP3    H133161   7.668   5.276   5.324
11068TIP3    H233162   7.722   5.326   5.192
11069TIP3   OH233163   5.182   3.605   4.518
11069TIP3    H133164   5.240   3.637   4.449
11069TIP3    H233165   5.106   3.570   4.470
11070TIP3   OH233166   0.155   5.033   0.564
11070TIP3    H133167   0.205   5.099   0.613
11070TIP3    H233168   0.084   5.007   0.623
11071TIP3   OH233169   1.302   2.740   2.873
11071TIP3    H133170   1.365   2.704   2.811
11071TIP3    H233171   1.308   2.835   2.862
11072TIP3   OH233172   7.146   1.199   6.228
11072TIP3    H133173   7.167   1.235   6.141
11072TIP3    H233174   7.080   1.259   6.263
11073TIP3   OH233175   2.187   0.320   3.002
11073TIP3    H133176   2.277   0.348   2.985
11073TIP3    H233177   2.194   0.259   3.076
11074TIP3   OH233178   5.546   2.140   6.169
11074TIP3    H133179   5.566   2.048   6.186
11074TIP3    H233180   5.523   2.176   6.255
11075TIP3   OH233181   6.292   7.758   2.275
11075TIP3    H133182   6.273   7.815   2.350
11075TIP3    H233183   6.218   7.696   2.274
11076TIP3   OH233184   1.957   4.158   3.315
11076TIP3    H133185   1.862   4.152   3.315
11076TIP3    H233186   1.985   4.101   3.244
11077TIP3   OH233187   5.095   4.585   2.086
11077TIP3    H133188   5.040   4.654   2.048
11077TIP3    H233189   5.100   4.518   2.018
11078TIP3   OH233190   4.016   4.457   1.238
11078TIP3    H133191   4.041   4.492   1.324
11078TIP3    H233192   3.995   4.365   1.255
11079TIP3   OH233193   1.632   4.171   4.265
11079TIP3    H133194   1.651   4.156   4.358
11079TIP3    H233195   1.718   4.174   4.223
11080TIP3   OH233196   2.965   3.187   2.617
11080TIP3    H133197   3.054   3.201   2.648
11080TIP3    H233198   2.975   3.150   2.529
11081TIP3   OH233199   6.839   6.401   1.845
11081TIP3    H133200   6.816   6.328   1.787
11081TIP3    H233201   6.932   6.415   1.830
11082TIP3   OH233202   6.202   1.607   3.838
11082TIP3    H133203   6.278   1.622   3.895
11082TIP3    H233204   6.128   1.602   3.898
11083TIP3   OH233205   4.354   5.359   6.625
11083TIP3    H133206   4.364   5.348   6.531
11083TIP3    H233207   4.395   5.282   6.664
11084TIP3   OH233208   0.122   2.641   0.322
11084TIP3    H133209   0.082   2.557   0.344
11084TIP3    H233210   0.081   2.703   0.381
11085TIP3   OH233211   6.482   6.579   2.471
11085TIP3    H133212   6.478   6.666   2.430
11085TIP3    H233213   6.408   6.578   2.532
11086TIP3   OH233214   0.496   2.332   1.760
11086TIP3    H133215   0.470   2.249   1.799
11086TIP3    H233216   0.574   2.358   1.809
11087TIP3   OH233217   1.874   1.092   1.102
11087TIP3    H133218   1.898   1.121   1.015
11087TIP3    H233219   1.952   1.107   1.156
11088TIP3   OH233220   1.427   4.249   3.612
11088TIP3    H133221   1.440   4.340   3.586
11088TIP3    H233222   1.418   4.251   3.707
11089TIP3   OH233223   0.581   0.324   3.643
11089TIP3    H133224   0.570   0.267   3.719
11089TIP3    H233225   0.665   0.367   3.658
11090TIP3   OH233226   5.250   1.036   1.274
11090TIP3    H133227   5.320   1.077   1.325
11090TIP3    H233228   5.252   1.079   1.189
11091TIP3   OH233229   6.530   2.754   3.758
11091TIP3    H133230   6.448   2.761   3.710
11091TIP3    H233231   6.537   2.837   3.805
11092TIP3   OH233232   2.688   2.380   5.541
11092TIP3    H133233   2.711   2.472   5.559
11092TIP3    H233234   2.764   2.330   5.569
11093TIP3   OH233235   1.678   5.893   6.378
11093TIP3    H133236   1.610   5.926   6.437
11093TIP3    H233237   1.709   5.970   6.330
11094TIP3   OH233238   5.268   4.177   4.809
11094TIP3    H133239   5.202   4.133   4.862
11094TIP3    H233240   5.246   4.270   4.816
11095TIP3   OH233241   1.531   6.334   6.384
11095TIP3    H133242   1.614   6.372   6.412
11095TIP3    H233243   1.527   6.351   6.290
11096TIP3   OH233244   5.207   7.608   3.400
11096TIP3    H133245   5.160   7.691   3.391
11096TIP3    H233246   5.198   7.566   3.314
11097TIP3   OH233247   2.132   2.156   1.701
11097TIP3    H133248   2.202   2.106   1.658
11097TIP3    H233249   2.094   2.094   1.764
11098TIP3   OH233250   7.664   4.053   5.097
11098TIP3    H133251   7.584   4.051   5.149
11098TIP3    H233252   7.635   4.029   5.009
11099TIP3   OH233253   2.017   0.494   0.254
11099TIP3    H133254   2.039   0.455   0.339
11099TIP3    H233255   2.013   0.588   0.271
11100TIP3   OH233256   4.088   0.898   2.030
11100TIP3    H133257   4.109   0.991   2.026
11100TIP3    H233258   4.116   0.863   1.946
11101TIP3   OH233259   1.425   0.564   4.984
11101TIP3    H133260   1.351   0.623   4.979
11101TIP3    H233261   1.386   0.478   4.998
11102TIP3   OH233262   8.020   1.640   5.246
11102TIP3    H133263   8.023   1.595   5.331
11102TIP3    H233264   7.953   1.592   5.197
11103TIP3   OH233265   4.479   1.332   3.348
11103TIP3    H133266   4.451   1.334   3.256
11103TIP3    H233267   4.528   1.250   3.356
11104TIP3   OH233268   3.543   7.748   5.693
11104TIP3    H133269   3.588   7.797   5.761
11104TIP3    H233270   3.541   7.658   5.725
11105TIP3   OH233271   0.228   1.046   3.483
11105TIP3    H133272   0.227   0.964   3.434
11105TIP3    H233273   0.224   1.114   3.416
11106TIP3   OH233274   7.456   2.220   6.334
11106TIP3    H133275   7.543   2.198   6.301
11106TIP3    H233276   7.396   2.170   6.277
11107TIP3   OH233277   5.417   2.193   4.808
11107TIP3    H133278   5.380   2.242   4.734
11107TIP3    H233279   5.429   2.259   4.876
11108TIP3   OH233280   7.556   2.110   4.540
11108TIP3    H133281   7.574   2.054   4.465
11108TIP3    H233282   7.612   2.075   4.610
11109TIP3   OH233283   7.769   7.069   6.699
11109TIP3    H133284   7.846   7.107   6.741
11109TIP3    H233285   7.765   6.979   6.734
11110TIP3   OH233286   6.163   4.139   2.806
11110TIP3    H133287   6.180   4.200   2.734
11110TIP3    H233288   6.089   4.178   2.853
11111TIP3   OH233289   1.902   2.193   3.808
11111TIP3    H133290   1.810   2.170   3.796
11111TIP3    H233291   1.911   2.277   3.762
11112TIP3   OH233292   1.925   2.292   2.353
11112TIP3    H133293   1.959   2.380   2.372
11112TIP3    H233294   1.833   2.296   2.381
11113TIP3   OH233295   3.930   4.720   5.976
11113TIP3    H133296   3.868   4.737   6.048
11113TIP3    H233297   4.011   4.693   6.020
11114TIP3   OH233298   3.235   7.632   2.177
11114TIP3    H133299   3.247   7.680   2.258
11114TIP3    H233300   3.268   7.544   2.196
11115TIP3   OH233301   4.591   6.357   6.625
11115TIP3    H133302   4.549   6.443   6.619
11115TIP3    H233303   4.685   6.376   6.620
11116TIP3   OH233304   5.375   6.980   2.361
11116TIP3    H133305   5.392   7.073   2.346
11116TIP3    H233306   5.442   6.953   2.424
11117TIP3   OH233307   2.593   5.894   0.698
11117TIP3    H133308   2.539   5.973   0.700
11117TIP3    H233309   2.682   5.925   0.710
11118TIP3   OH233310   2.260   1.241   4.837
11118TIP3    H133311   2.308   1.159   4.848
11118TIP3    H233312   2.175   1.225   4.878
11119TIP3   OH233313   7.526   2.282   1.877
11119TIP3    H133314   7.574   2.263   1.796
11119TIP3    H233315   7.579   2.346   1.923
11120TIP3   OH233316   1.958   2.655   5.294
11120TIP3    H133317   2.018   2.591   5.256
11120TIP3    H233318   1.973   2.735   5.243
11121TIP3   OH233319   5.401   1.604   6.177
11121TIP3    H133320   5.372   1.515   6.195
11121TIP3    H233321   5.321   1.650   6.151
11122TIP3   OH233322   2.302   5.653   5.558
11122TIP3    H133323   2.353   5.612   5.488
11122TIP3    H233324   2.229   5.593   5.574
11123TIP3   OH233325   5.635   2.090   1.673
11123TIP3    H133326   5.579   2.025   1.714
11123TIP3    H233327   5.717   2.043   1.654
11124TIP3   OH233328   0.953   5.497   0.011
11124TIP3    H133329   0.884   5.434  -0.007
11124TIP3    H233330   0.957   5.502   0.107
11125TIP3   OH233331   8.072   0.983   6.695
11125TIP3    H133332   7.986   0.943   6.709
11125TIP3    H233333   8.112   0.929   6.626
11126TIP3   OH233334   3.185   2.702   2.217
11126TIP3    H133335   3.236   2.645   2.159
11126TIP3    H233336   3.095   2.674   2.205
11127TIP3   OH233337   7.997   5.263   6.291
11127TIP3    H133338   7.987   5.303   6.377
11127TIP3    H233339   7.908   5.256   6.256
11128TIP3   OH233340   0.238   3.835   6.761
11128TIP3    H133341   0.305   3.860   6.698
11128TIP3    H233342   0.183   3.772   6.713
11129TIP3   OH233343   3.736   6.861   5.402
11129TIP3    H133344   3.789   6.928   5.358
11129TIP3    H233345   3.752   6.875   5.495
11130TIP3   OH233346   7.616   7.483   1.438
11130TIP3    H133347   7.564   7.559   1.465
11130TIP3    H233348   7.696   7.489   1.490
11131TIP3   OH233349   5.586   2.525   1.136
11131TIP3    H133350   5.639   2.605   1.144
11131TIP3    H233351   5.565   2.519   1.043
11132TIP3   OH233352   6.296   5.434   1.114
11132TIP3    H133353   6.357   5.362   1.131
11132TIP3    H233354   6.224   5.419   1.174
11133TIP3   OH233355   2.511   4.217   1.004
11133TIP3    H133356   2.573   4.185   0.938
11133TIP3    H233357   2.559   4.284   1.052
11134TIP3   OH233358   0.522   1.931   2.470
11134TIP3    H133359   0.452   1.886   2.517
11134TIP3    H233360   0.569   1.861   2.423
11135TIP3   OH233361   1.013   5.029   5.993
11135TIP3    H133362   1.031   5.120   5.967
11135TIP3    H233363   1.042   5.024   6.084
11136TIP3   OH233364   3.539   2.350   2.244
11136TIP3    H133365   3.507   2.268   2.208
11136TIP3    H233366   3.462   2.406   2.250
11137TIP3   OH233367   0.870   6.039   1.727
11137TIP3    H133368   0.855   6.016   1.819
11137TIP3    H233369   0.801   6.102   1.707
11138TIP3   OH233370   0.242   0.256   2.684
11138TIP3    H133371   0.244   0.161   2.675
11138TIP3    H233372   0.192   0.286   2.608
11139TIP3   OH233373   7.560   2.961   2.140
11139TIP3    H133374   7.488   2.994   2.087
11139TIP3    H233375   7.593   2.886   2.092
11140TIP3   OH233376   1.500   3.436   4.486
11140TIP3    H133377   1.551   3.461   4.409
11140TIP3    H233378   1.412   3.419   4.452
11141TIP3   OH233379   3.533   5.862   0.081
11141TIP3    H133380   3.607   5.920   0.102
11141TIP3    H233381   3.489   5.906   0.008
11142TIP3   OH233382   6.604   1.535   2.329
11142TIP3    H133383   6.614   1.546   2.234
11142TIP3    H233384   6.510   1.522   2.342
11143TIP3   OH233385   7.746   2.766   6.699
11143TIP3    H133386   7.735   2.852   6.657
11143TIP3    H233387   7.683   2.709   6.655
11144TIP3   OH233388   1.346   7.056   2.469
11144TIP3    H133389   1.383   6.968   2.481
11144TIP3    H233390   1.268   7.057   2.525
11145TIP3   OH233391   4.314   5.717   6.215
11145TIP3    H133392   4.371   5.669   6.155
11145TIP3    H233393   4.225   5.691   6.191
11146TIP3   OH233394   6.941   0.453   4.369
11146TIP3    H133395   6.870   0.389   4.360
11146TIP3    H233396   6.949   0.492   4.282
11147TIP3   OH233397   2.718   7.258   3.503
11147TIP3    H133398   2.795   7.230   3.454
11147TIP3    H233399   2.714   7.200   3.578
11148TIP3   OH233400   5.386   7.157   3.389
11148TIP3    H133401   5.452   7.227   3.390
11148TIP3    H233402   5.355   7.155   3.299
11149TIP3   OH233403   3.684   0.998   3.898
11149TIP3    H133404   3.742   0.926   3.923
11149TIP3    H233405   3.736   1.050   3.837
11150TIP3   OH233406   2.707   7.149   5.206
11150TIP3    H133407   2.791   7.104   5.219
11150TIP3    H233408   2.653   7.121   5.280
11151TIP3   OH233409   6.294   4.460   4.010
11151TIP3    H133410   6.374   4.511   4.007
11151TIP3    H233411   6.225   4.524   4.025
11152TIP3   OH233412   4.484   3.465   6.079
11152TIP3    H133413   4.429   3.503   6.010
11152TIP3    H233414   4.422   3.441   6.148
11153TIP3   OH233415   1.385   2.095   4.577
11153TIP3    H133416   1.292   2.079   4.560
11153TIP3    H233417   1.424   2.106   4.490
11154TIP3   OH233418   6.089   7.573   0.549
11154TIP3    H133419   6.129   7.660   0.539
11154TIP3    H233420   6.155   7.513   0.516
11155TIP3   OH233421   5.560   6.303   5.646
11155TIP3    H133422   5.601   6.320   5.562
11155TIP3    H233423   5.488   6.366   5.651
11156TIP3   OH233424   7.504   1.121   2.581
11156TIP3    H133425   7.480   1.099   2.672
11156TIP3    H233426   7.578   1.064   2.562
11157TIP3   OH233427   1.638   6.820   2.757
11157TIP3    H133428   1.706   6.805   2.822
11157TIP3    H233429   1.556   6.816   2.805
11158TIP3   OH233430   4.000   4.127   2.170
11158TIP3    H133431   4.029   4.036   2.169
11158TIP3    H233432   3.922   4.127   2.226
11159TIP3   OH233433   7.430   0.466   6.341
11159TIP3    H133434   7.337   0.490   6.334
11159TIP3    H233435   7.431   0.371   6.328
11160TIP3   OH233436   8.063   3.994   0.944
11160TIP3    H133437   8.019   4.073   0.911
11160TIP3    H233438   8.074   4.011   1.038
11161TIP3   OH233439   0.115   7.654   2.382
11161TIP3    H133440   0.047   7.651   2.449
11161TIP3    H233441   0.072   7.693   2.306
11162TIP3   OH233442   7.945   1.566   5.792
11162TIP3    H133443   7.959   1.473   5.775
11162TIP3    H233444   8.006   1.587   5.863
11163TIP3   OH233445   1.955   2.947   3.468
11163TIP3    H133446   2.014   3.000   3.523
11163TIP3    H233447   1.917   3.010   3.407
11164TIP3   OH233448   2.302   4.475   1.700
11164TIP3    H133449   2.247   4.543   1.741
11164TIP3    H233450   2.379   4.523   1.668
11165TIP3   OH233451   7.550   6.245   3.640
11165TIP3    H133452   7.596   6.323   3.671
11165TIP3    H233453   7.505   6.273   3.560
11166TIP3   OH233454   1.785   4.825   5.980
11166TIP3    H133455   1.812   4.758   5.917
11166TIP3    H233456   1.766   4.776   6.060
11167TIP3   OH233457   6.598   1.467   2.649
11167TIP3    H133458   6.560   1.411   2.581
11167TIP3    H233459   6.541   1.543   2.652
11168TIP3   OH233460   7.082   0.093   6.452
11168TIP3    H133461   7.136   0.147   6.510
11168TIP3    H233462   7.068   0.147   6.375
11169TIP3   OH233463   5.512   0.031   3.202
11169TIP3    H133464   5.572   0.100   3.172
11169TIP3    H233465   5.563  -0.050   3.194
11170TIP3   OH233466   4.787   5.788   2.908
11170TIP3    H133467   4.875   5.784   2.872
11170TIP3    H233468   4.789   5.864   2.966
11171TIP3   OH233469   3.990   6.433   2.784
11171TIP3    H133470   3.901   6.405   2.759
11171TIP3    H233471   4.026   6.470   2.704
11172TIP3   OH233472   8.116   3.298   6.307
11172TIP3    H133473   8.131   3.386   6.343
11172TIP3    H233474   8.139   3.305   6.215
11173TIP3   OH233475   5.930   6.227   5.004
11173TIP3    H133476   5.848   6.277   5.006
11173TIP3    H233477   5.917   6.164   4.934
11174TIP3   OH233478   4.483   0.629   2.680
11174TIP3    H133479   4.435   0.598   2.756
11174TIP3    H233480   4.553   0.565   2.668
11175TIP3   OH233481   0.995   6.250   3.509
11175TIP3    H133482   1.087   6.254   3.484
11175TIP3    H233483   0.976   6.336   3.546
11176TIP3   OH233484   4.483   3.793   2.371
11176TIP3    H133485   4.529   3.877   2.381
11176TIP3    H233486   4.549   3.727   2.391
11177TIP3   OH233487   2.578   1.849   1.643
11177TIP3    H133488   2.613   1.856   1.554
11177TIP3    H233489   2.616   1.769   1.678
11178TIP3   OH233490   5.639   7.392   6.693
11178TIP3    H133491   5.660   7.302   6.665
11178TIP3    H233492   5.723   7.430   6.718
11179TIP3   OH233493   0.382   0.160   4.366
11179TIP3    H133494   0.431   0.178   4.286
11179TIP3    H233495   0.328   0.084   4.344
11180TIP3   OH233496   0.273   4.945   5.579
11180TIP3    H133497   0.359   4.972   5.612
11180TIP3    H233498   0.290   4.863   5.533
11181TIP3   OH233499   3.979   2.292   1.871
11181TIP3    H133500   4.066   2.290   1.910
11181TIP3    H233501   3.934   2.216   1.909
11182TIP3   OH233502   1.192   4.951   3.453
11182TIP3    H133503   1.158   4.879   3.399
11182TIP3    H233504   1.137   5.026   3.430
11183TIP3   OH233505   5.066   4.336   5.660
11183TIP3    H133506   5.069   4.252   5.707
11183TIP3    H233507   5.037   4.399   5.726
11184TIP3   OH233508   0.804   1.898   4.581
11184TIP3    H133509   0.867   1.880   4.512
11184TIP3    H233510   0.772   1.812   4.608
11185TIP3   OH233511   3.883   5.306   2.822
11185TIP3    H133512   3.843   5.365   2.886
11185TIP3    H233513   3.811   5.251   2.792
11186TIP3   OH233514   1.869   6.487   3.656
11186TIP3    H133515   1.956   6.527   3.644
11186TIP3    H233516   1.814   6.530   3.592
11187TIP3   OH233517   4.769   7.709   4.728
11187TIP3    H133518   4.676   7.692   4.709
11187TIP3    H233519   4.775   7.805   4.731
11188TIP3   OH233520   0.476   0.513   6.032
11188TIP3    H133521   0.464   0.476   6.120
11188TIP3    H233522   0.438   0.601   6.038
11189TIP3   OH233523   0.542   5.535   5.580
11189TIP3    H133524   0.604   5.581   5.523
11189TIP3    H233525   0.478   5.496   5.521
11190TIP3   OH233526   4.648   0.210   4.639
11190TIP3    H133527   4.688   0.176   4.720
11190TIP3    H233528   4.617   0.132   4.593
11191TIP3   OH233529   7.268   3.982   1.140
11191TIP3    H133530   7.285   4.073   1.115
11191TIP3    H233531   7.337   3.932   1.097
11192TIP3   OH233532   3.592   4.151   2.524
11192TIP3    H133533   3.501   4.165   2.548
11192TIP3    H233534   3.616   4.070   2.569
11193TIP3   OH233535   5.205   3.909   5.219
11193TIP3    H133536   5.167   3.824   5.242
11193TIP3    H233537   5.279   3.919   5.279
11194TIP3   OH233538   3.749   2.979   4.502
11194TIP3    H133539   3.819   2.919   4.529
11194TIP3    H233540   3.668   2.933   4.526
11195TIP3   OH233541   8.010   2.632   0.551
11195TIP3    H133542   7.917   2.640   0.574
11195TIP3    H233543   8.011   2.572   0.477
11196TIP3   OH233544   3.918   5.928   0.023
11196TIP3    H133545   3.925   5.845   0.069
11196TIP3    H233546   4.009   5.956   0.011
11197TIP3   OH233547   2.942   1.347   1.969
11197TIP3    H133548   2.866   1.291   1.985
11197TIP3    H233549   2.942   1.361   1.874
11198TIP3   OH233550   8.213   3.932   1.627
11198TIP3    H133551   8.121   3.904   1.630
11198TIP3    H233552   8.208   4.028   1.625
11199TIP3   OH233553   3.430   7.640   4.751
11199TIP3    H133554   3.408   7.645   4.658
11199TIP3    H233555   3.512   7.687   4.759
11200TIP3   OH233556   7.138   2.966   2.783
11200TIP3    H133557   7.178   2.879   2.774
11200TIP3    H233558   7.045   2.947   2.801
11201TIP3   OH233559   6.256   6.922   5.880
11201TIP3    H133560   6.184   6.862   5.860
11201TIP3    H233561   6.299   6.883   5.957
11202TIP3   OH233562   0.091   4.490   5.021
11202TIP3    H133563  -0.002   4.464   5.019
11202TIP3    H233564   0.099   4.544   5.099
11203TIP3   OH233565   7.210   3.236   5.546
11203TIP3    H133566   7.266   3.268   5.476
11203TIP3    H233567   7.196   3.312   5.603
11204TIP3   OH233568   3.380   7.850   5.296
11204TIP3    H133569   3.370   7.845   5.391
11204TIP3    H233570   3.435   7.776   5.273
11205TIP3   OH233571   4.090   1.412   2.744
11205TIP3    H133572   4.084   1.497   2.700
11205TIP3    H233573   4.058   1.429   2.832
11206TIP3   OH233574   1.852   2.555   1.482
11206TIP3    H133575   1.849   2.567   1.388
11206TIP3    H233576   1.911   2.624   1.513
11207TIP3   OH233577   2.785   3.448   0.475
11207TIP3    H133578   2.865   3.438   0.527
11207TIP3    H233579   2.814   3.435   0.385
11208TIP3   OH233580   4.223   3.092   0.963
11208TIP3    H133581   4.269   3.176   0.965
11208TIP3    H233582   4.227   3.060   1.053
11209TIP3   OH233583   6.479   2.820   6.167
11209TIP3    H133584   6.386   2.813   6.191
11209TIP3    H233585   6.526   2.794   6.246
11210TIP3   OH233586   7.330   0.644   4.177
11210TIP3    H133587   7.413   0.598   4.171
11210TIP3    H233588   7.277   0.606   4.107
11211TIP3   OH233589   5.070   6.232   5.288
11211TIP3    H133590   5.002   6.206   5.227
11211TIP3    H233591   5.042   6.198   5.372
11212TIP3   OH233592   1.018   0.374   2.058
11212TIP3    H133593   0.968   0.312   2.112
11212TIP3    H233594   1.078   0.416   2.120
11213TIP3   OH233595   4.788   2.220   1.403
11213TIP3    H133596   4.779   2.303   1.356
11213TIP3    H233597   4.699   2.198   1.431
11214TIP3   OH233598   2.733   1.358   1.544
11214TIP3    H133599   2.646   1.343   1.507
11214TIP3    H233600   2.792   1.310   1.486
11215TIP3   OH233601   4.046   5.968   4.484
11215TIP3    H133602   4.079   5.892   4.532
11215TIP3    H233603   4.071   6.043   4.539
11216TIP3   OH233604   4.543   6.496   0.005
11216TIP3    H133605   4.578   6.583  -0.013
11216TIP3    H233606   4.463   6.512   0.056
11217TIP3   OH233607   1.876   2.458   0.348
11217TIP3    H133608   1.905   2.548   0.333
11217TIP3    H233609   1.848   2.426   0.262
11218TIP3   OH233610   4.752   5.779   2.600
11218TIP3    H133611   4.731   5.785   2.693
11218TIP3    H233612   4.799   5.696   2.591
11219TIP3   OH233613   1.287   0.406   3.389
11219TIP3    H133614   1.370   0.449   3.411
11219TIP3    H233615   1.256   0.371   3.473
11220TIP3   OH233616   4.327   5.641   1.031
11220TIP3    H133617   4.370   5.690   1.101
11220TIP3    H233618   4.268   5.705   0.990
11221TIP3   OH233619   2.925   3.675   5.897
11221TIP3    H133620   2.875   3.750   5.928
11221TIP3    H233621   2.873   3.640   5.825
11222TIP3   OH233622   7.383   2.740   2.267
11222TIP3    H133623   7.438   2.807   2.308
11222TIP3    H233624   7.440   2.697   2.203
11223TIP3   OH233625   6.781   3.589   3.146
11223TIP3    H133626   6.858   3.533   3.132
11223TIP3    H233627   6.772   3.593   3.241
11224TIP3   OH233628   6.690   3.898   4.653
11224TIP3    H133629   6.618   3.872   4.595
11224TIP3    H233630   6.730   3.816   4.680
11225TIP3   OH233631   3.068   2.222   3.029
11225TIP3    H133632   3.144   2.169   3.055
11225TIP3    H233633   3.099   2.273   2.954
11226TIP3   OH233634   6.579   5.662   4.830
11226TIP3    H133635   6.663   5.643   4.871
11226TIP3    H233636   6.579   5.611   4.749
11227TIP3   OH233637   2.236   3.608   0.619
11227TIP3    H133638   2.293   3.630   0.692
11227TIP3    H233639   2.166   3.555   0.657
11228TIP3   OH233640   0.146   3.919   2.515
11228TIP3    H133641   0.185   4.007   2.509
11228TIP3    H233642   0.200   3.874   2.579
11229TIP3   OH233643   1.250   1.652   4.990
11229TIP3    H133644   1.158   1.648   5.014
11229TIP3    H233645   1.254   1.615   4.902
11230TIP3   OH233646   7.604   6.225   1.544
11230TIP3    H133647   7.657   6.284   1.597
11230TIP3    H233648   7.653   6.143   1.543
11231TIP3   OH233649   3.690   6.153   3.301
11231TIP3    H133650   3.604   6.144   3.260
11231TIP3    H233651   3.737   6.215   3.245
11232TIP3   OH233652   5.704   3.787   1.802
11232TIP3    H133653   5.663   3.722   1.745
11232TIP3    H233654   5.669   3.768   1.889
11233TIP3   OH233655   3.175   5.805   4.038
11233TIP3    H133656   3.108   5.860   4.078
11233TIP3    H233657   3.149   5.798   3.946
11234TIP3   OH233658   5.696   3.725   1.282
11234TIP3    H133659   5.703   3.797   1.219
11234TIP3    H233660   5.607   3.730   1.315
11235TIP3   OH233661   2.939   1.540   3.210
11235TIP3    H133662   2.947   1.545   3.115
11235TIP3    H233663   3.030   1.539   3.241
11236TIP3   OH233664   4.104   7.763   6.042
11236TIP3    H133665   4.156   7.843   6.042
11236TIP3    H233666   4.066   7.758   5.954
11237TIP3   OH233667   8.196   5.511   4.465
11237TIP3    H133668   8.165   5.420   4.471
11237TIP3    H233669   8.201   5.541   4.556
11238TIP3   OH233670   1.563   5.119   3.305
11238TIP3    H133671   1.497   5.153   3.366
11238TIP3    H233672   1.587   5.195   3.252
11239TIP3   OH233673   6.961   2.039   0.409
11239TIP3    H133674   6.964   2.075   0.320
11239TIP3    H233675   6.887   2.084   0.450
11240TIP3   OH233676   7.730   7.302   0.254
11240TIP3    H133677   7.699   7.241   0.321
11240TIP3    H233678   7.749   7.247   0.178
11241TIP3   OH233679   4.478   1.291   3.966
11241TIP3    H133680   4.415   1.363   3.970
11241TIP3    H233681   4.536   1.314   3.894
11242TIP3   OH233682   0.299   0.838   3.327
11242TIP3    H133683   0.236   0.823   3.257
11242TIP3    H233684   0.371   0.885   3.285
11243TIP3   OH233685   5.548   1.046   3.405
11243TIP3    H133686   5.462   1.021   3.370
11243TIP3    H233687   5.553   1.000   3.489
11244TIP3   OH233688   1.896   5.757   0.899
11244TIP3    H133689   1.977   5.770   0.948
11244TIP3    H233690   1.925   5.722   0.815
11245TIP3   OH233691   7.200   1.994   3.062
11245TIP3    H133692   7.187   1.958   2.974
11245TIP3    H233693   7.280   1.953   3.093
11246TIP3   OH233694   6.319   3.134   6.368
11246TIP3    H133695   6.241   3.099   6.326
11246TIP3    H233696   6.364   3.182   6.298
11247TIP3   OH233697   5.256   1.409   1.219
11247TIP3    H133698   5.275   1.335   1.160
11247TIP3    H233699   5.161   1.411   1.224
11248TIP3   OH233700   8.030   6.157   6.679
11248TIP3    H133701   7.976   6.181   6.754
11248TIP3    H233702   8.084   6.084   6.710
11249TIP3   OH233703   4.681   5.102   2.685
11249TIP3    H133704   4.728   5.031   2.641
11249TIP3    H233705   4.631   5.145   2.615
11250TIP3   OH233706   2.636   1.760   1.248
11250TIP3    H133707   2.710   1.701   1.254
11250TIP3    H233708   2.675   1.847   1.241
11251TIP3   OH233709   1.784   3.733   2.884
11251TIP3    H133710   1.876   3.749   2.905
11251TIP3    H233711   1.761   3.653   2.931
11252TIP3   OH233712   4.887   6.429   4.413
11252TIP3    H133713   4.863   6.360   4.352
11252TIP3    H233714   4.959   6.475   4.370
11253TIP3   OH233715   6.886   1.192   3.202
11253TIP3    H133716   6.816   1.227   3.257
11253TIP3    H233717   6.853   1.202   3.113
11254TIP3   OH233718   6.482   2.476   0.509
11254TIP3    H133719   6.538   2.517   0.575
11254TIP3    H233720   6.541   2.417   0.461
11255TIP3   OH233721   6.660   0.732   4.854
11255TIP3    H133722   6.702   0.670   4.796
11255TIP3    H233723   6.731   0.791   4.882
11256TIP3   OH233724   2.762   2.053   5.462
11256TIP3    H133725   2.810   2.061   5.379
11256TIP3    H233726   2.824   2.083   5.528
11257TIP3   OH233727   0.767   4.113   5.947
11257TIP3    H133728   0.757   4.207   5.930
11257TIP3    H233729   0.856   4.103   5.981
11258TIP3   OH233730   3.716   2.844   3.169
11258TIP3    H133731   3.631   2.859   3.210
11258TIP3    H233732   3.701   2.771   3.109
11259TIP3   OH233733   1.064   1.607   1.841
11259TIP3    H133734   1.097   1.572   1.758
11259TIP3    H233735   1.139   1.654   1.878
11260TIP3   OH233736   7.273   5.477   5.475
11260TIP3    H133737   7.323   5.416   5.529
11260TIP3    H233738   7.335   5.509   5.410
11261TIP3   OH233739   1.254   5.978   1.241
11261TIP3    H133740   1.228   5.985   1.333
11261TIP3    H233741   1.171   5.977   1.192
11262TIP3   OH233742   3.878   6.218   0.165
11262TIP3    H133743   3.933   6.250   0.093
11262TIP3    H233744   3.936   6.218   0.241
11263TIP3   OH233745   4.395   5.538   0.130
11263TIP3    H133746   4.309   5.580   0.137
11263TIP3    H233747   4.434   5.577   0.051
11264TIP3   OH233748   4.652   6.404   1.020
11264TIP3    H133749   4.573   6.427   1.069
11264TIP3    H233750   4.690   6.488   0.994
11265TIP3   OH233751   7.067   1.570   2.901
11265TIP3    H133752   7.065   1.604   2.991
11265TIP3    H233753   6.976   1.551   2.880
11266TIP3   OH233754   3.588   0.287   1.465
11266TIP3    H133755   3.602   0.194   1.446
11266TIP3    H233756   3.587   0.329   1.379
11267TIP3   OH233757   7.806   0.747   2.210
11267TIP3    H133758   7.784   0.838   2.228
11267TIP3    H233759   7.783   0.700   2.291
11268TIP3   OH233760   4.934   3.383   6.028
11268TIP3    H133761   4.903   3.418   5.944
11268TIP3    H233762   4.890   3.437   6.094
11269TIP3   OH233763   1.216   1.259   0.232
11269TIP3    H133764   1.131   1.223   0.205
11269TIP3    H233765   1.271   1.248   0.155
11270TIP3   OH233766   3.275   4.136   5.362
11270TIP3    H133767   3.362   4.098   5.359
11270TIP3    H233768   3.279   4.202   5.432
11271TIP3   OH233769   4.179   3.051   5.187
11271TIP3    H133770   4.149   3.124   5.133
11271TIP3    H233771   4.193   2.980   5.125
11272TIP3   OH233772   3.210   3.050   1.743
11272TIP3    H133773   3.240   2.964   1.713
11272TIP3    H233774   3.246   3.059   1.831
11273TIP3   OH233775   7.517   3.282   2.619
11273TIP3    H133776   7.541   3.205   2.568
11273TIP3    H233777   7.429   3.263   2.651
11274TIP3   OH233778   0.397   5.272   4.391
11274TIP3    H133779   0.471   5.287   4.332
11274TIP3    H233780   0.345   5.204   4.348
11275TIP3   OH233781   0.117   5.188   6.382
11275TIP3    H133782   0.139   5.152   6.468
11275TIP3    H233783   0.092   5.112   6.330
11276TIP3   OH233784   3.691   4.228   1.102
11276TIP3    H133785   3.744   4.238   1.181
11276TIP3    H233786   3.615   4.284   1.117
11277TIP3   OH233787   6.754   6.505   0.831
11277TIP3    H133788   6.762   6.482   0.923
11277TIP3    H233789   6.817   6.449   0.786
11278TIP3   OH233790   5.353   5.353   1.011
11278TIP3    H133791   5.384   5.279   1.064
11278TIP3    H233792   5.320   5.416   1.075
11279TIP3   OH233793   6.725   2.171   5.889
11279TIP3    H133794   6.700   2.224   5.813
11279TIP3    H233795   6.802   2.122   5.859
11280TIP3   OH233796   3.978   4.478   6.291
11280TIP3    H133797   4.038   4.513   6.225
11280TIP3    H233798   3.985   4.539   6.364
11281TIP3   OH233799   0.853   4.797   4.562
11281TIP3    H133800   0.928   4.743   4.539
11281TIP3    H233801   0.816   4.823   4.477
11282TIP3   OH233802   2.833   3.771   4.920
11282TIP3    H133803   2.840   3.858   4.960
11282TIP3    H233804   2.747   3.739   4.947
11283TIP3   OH233805   6.909   7.300   4.120
11283TIP3    H133806   6.848   7.261   4.182
11283TIP3    H233807   6.857   7.316   4.041
11284TIP3   OH233808   6.028   3.137   2.824
11284TIP3    H133809   6.004   3.153   2.916
11284TIP3    H233810   6.055   3.222   2.791
11285TIP3   OH233811   3.565   7.768   0.131
11285TIP3    H133812   3.628   7.708   0.090
11285TIP3    H233813   3.525   7.717   0.201
11286TIP3   OH233814   3.555   5.551   1.831
11286TIP3    H133815   3.615   5.618   1.799
11286TIP3    H233816   3.501   5.530   1.755
11287TIP3   OH233817   0.613   2.555   2.641
11287TIP3    H133818   0.584   2.646   2.638
11287TIP3    H233819   0.665   2.544   2.561
11288TIP3   OH233820   5.210   1.665   4.672
11288TIP3    H133821   5.266   1.742   4.662
11288TIP3    H233822   5.265   1.592   4.643
11289TIP3   OH233823   4.229   1.413   6.096
11289TIP3    H133824   4.201   1.386   6.009
11289TIP3    H233825   4.177   1.360   6.156
11290TIP3   OH233826   6.731   6.949   1.166
11290TIP3    H133827   6.754   7.009   1.095
11290TIP3    H233828   6.712   6.866   1.124
11291TIP3   OH233829   2.597   5.903   3.233
11291TIP3    H133830   2.635   5.852   3.304
11291TIP3    H233831   2.509   5.927   3.264
11292TIP3   OH233832   3.897   2.143   3.919
11292TIP3    H133833   3.941   2.169   3.838
11292TIP3    H233834   3.817   2.196   3.920
11293TIP3   OH233835   0.035   1.332   6.055
11293TIP3    H133836   0.086   1.406   6.021
11293TIP3    H233837   0.014   1.280   5.977
11294TIP3   OH233838   2.996   6.275   2.769
11294TIP3    H133839   3.034   6.244   2.851
11294TIP3    H233840   2.901   6.275   2.784
11295TIP3   OH233841   5.753   2.054   6.626
11295TIP3    H133842   5.680   1.994   6.613
11295TIP3    H233843   5.788   2.030   6.712
11296TIP3   OH233844   0.019   7.374   1.073
11296TIP3    H133845  -0.015   7.458   1.104
11296TIP3    H233846  -0.007   7.312   1.141
11297TIP3   OH233847   6.087   2.801   3.219
11297TIP3    H133848   6.101   2.719   3.265
11297TIP3    H233849   6.000   2.793   3.181
11298TIP3   OH233850   4.152   1.662   1.199
11298TIP3    H133851   4.162   1.569   1.219
11298TIP3    H233852   4.110   1.699   1.277
11299TIP3   OH233853   4.250   1.425   2.236
11299TIP3    H133854   4.158   1.435   2.215
11299TIP3    H233855   4.254   1.430   2.332
11300TIP3   OH233856   7.606   5.524   1.413
11300TIP3    H133857   7.638   5.444   1.371
11300TIP3    H233858   7.601   5.503   1.506
11301TIP3   OH233859   1.672   6.587   5.389
11301TIP3    H133860   1.765   6.611   5.388
11301TIP3    H233861   1.633   6.646   5.454
11302TIP3   OH233862   0.568   0.694   0.632
11302TIP3    H133863   0.544   0.625   0.694
11302TIP3    H233864   0.493   0.701   0.573
11303TIP3   OH233865   0.869   6.005   0.903
11303TIP3    H133866   0.867   5.910   0.909
11303TIP3    H233867   0.923   6.033   0.977
11304TIP3   OH233868   0.674   3.064   1.299
11304TIP3    H133869   0.613   3.096   1.365
11304TIP3    H233870   0.655   3.116   1.221
11305TIP3   OH233871   1.647   6.864   6.174
11305TIP3    H133872   1.582   6.859   6.103
11305TIP3    H233873   1.731   6.848   6.130
11306TIP3   OH233874   8.105   2.413   3.542
11306TIP3    H133875   8.154   2.475   3.597
11306TIP3    H233876   8.087   2.462   3.462
11307TIP3   OH233877   0.070   1.827   2.980
11307TIP3    H133878   0.101   1.761   3.042
11307TIP3    H233879   0.149   1.857   2.936
11308TIP3   OH233880   5.083   0.049   0.197
11308TIP3    H133881   5.030  -0.001   0.136
11308TIP3    H233882   5.064   0.141   0.176
11309TIP3   OH233883   6.637   2.203   5.244
11309TIP3    H133884   6.575   2.253   5.190
11309TIP3    H233885   6.696   2.268   5.280
11310TIP3   OH233886   2.548   6.992   6.053
11310TIP3    H133887   2.584   7.053   6.117
11310TIP3    H233888   2.469   7.034   6.021
11311TIP3   OH233889   7.157   3.836   6.353
11311TIP3    H133890   7.218   3.804   6.287
11311TIP3    H233891   7.136   3.925   6.325
11312TIP3   OH233892   5.556   7.260   0.975
11312TIP3    H133893   5.517   7.336   1.017
11312TIP3    H233894   5.486   7.225   0.919
11313TIP3   OH233895   1.017   3.292   3.119
11313TIP3    H133896   1.066   3.213   3.142
11313TIP3    H233897   1.082   3.362   3.122
11314TIP3   OH233898   1.113   6.006   3.116
11314TIP3    H133899   1.019   5.987   3.112
11314TIP3    H233900   1.124   6.052   3.199
11315TIP3   OH233901   1.462   6.707   6.339
11315TIP3    H133902   1.539   6.759   6.312
11315TIP3    H233903   1.421   6.682   6.256
11316TIP3   OH233904   7.769   6.675   4.267
11316TIP3    H133905   7.763   6.594   4.216
11316TIP3    H233906   7.852   6.714   4.238
11317TIP3   OH233907   5.104   3.308   4.899
11317TIP3    H133908   5.048   3.304   4.976
11317TIP3    H233909   5.130   3.400   4.893
11318TIP3   OH233910   6.263   2.058   5.561
11318TIP3    H133911   6.353   2.046   5.533
11318TIP3    H233912   6.213   1.995   5.511
11319TIP3   OH233913   2.078   0.462   4.619
11319TIP3    H133914   2.046   0.427   4.536
11319TIP3    H233915   2.162   0.418   4.633
11320TIP3   OH233916   3.091   7.307   1.647
11320TIP3    H133917   3.090   7.224   1.694
11320TIP3    H233918   3.048   7.369   1.705
11321TIP3   OH233919   0.753   2.773   0.344
11321TIP3    H133920   0.690   2.845   0.344
11321TIP3    H233921   0.826   2.804   0.292
11322TIP3   OH233922   3.730   2.502   6.039
11322TIP3    H133923   3.659   2.550   6.082
11322TIP3    H233924   3.793   2.484   6.109
11323TIP3   OH233925   2.801   4.803   0.730
11323TIP3    H133926   2.715   4.846   0.731
11323TIP3    H233927   2.830   4.805   0.821
11324TIP3   OH233928   4.888   2.621   6.345
11324TIP3    H133929   4.967   2.665   6.311
11324TIP3    H233930   4.821   2.640   6.279
11325TIP3   OH233931   0.096   4.216   4.489
11325TIP3    H133932   0.062   4.144   4.435
11325TIP3    H233933   0.109   4.288   4.428
11326TIP3   OH233934   5.783   7.321   1.625
11326TIP3    H133935   5.719   7.305   1.556
11326TIP3    H233936   5.775   7.245   1.683
11327TIP3   OH233937   4.282   4.355   6.371
11327TIP3    H133938   4.201   4.404   6.358
11327TIP3    H233939   4.318   4.345   6.283
11328TIP3   OH233940   0.186   4.612   5.449
11328TIP3    H133941   0.231   4.581   5.527
11328TIP3    H233942   0.093   4.613   5.473
11329TIP3   OH233943   6.394   4.217   2.940
11329TIP3    H133944   6.316   4.171   2.909
11329TIP3    H233945   6.454   4.147   2.965
11330TIP3   OH233946   1.550   1.450   4.192
11330TIP3    H133947   1.636   1.490   4.182
11330TIP3    H233948   1.529   1.416   4.105
11331TIP3   OH233949   6.065   2.375   0.748
11331TIP3    H133950   6.118   2.300   0.775
11331TIP3    H233951   6.124   2.450   0.756
11332TIP3   OH233952   7.937   0.279   0.828
11332TIP3    H133953   7.987   0.319   0.900
11332TIP3    H233954   7.957   0.334   0.752
11333TIP3   OH233955   4.944   7.315   2.956
11333TIP3    H133956   4.983   7.301   2.870
11333TIP3    H233957   4.850   7.305   2.942
11334TIP3   OH233958   3.988   0.792   4.118
11334TIP3    H133959   4.028   0.707   4.135
11334TIP3    H233960   3.974   0.794   4.024
11335TIP3   OH233961   4.453   3.847   5.390
11335TIP3    H133962   4.393   3.922   5.392
11335TIP3    H233963   4.397   3.772   5.368
11336TIP3   OH233964   7.999   0.113   6.700
11336TIP3    H133965   7.935   0.123   6.771
11336TIP3    H233966   8.072   0.065   6.740
11337TIP3   OH233967   1.529   0.848   6.747
11337TIP3    H133968   1.542   0.925   6.802
11337TIP3    H233969   1.592   0.858   6.676
11338TIP3   OH233970   4.936   6.028   5.516
11338TIP3    H133971   4.874   6.004   5.585
11338TIP3    H233972   4.919   5.965   5.446
11339TIP3   OH233973   7.912   0.898   6.008
11339TIP3    H133974   7.887   0.870   5.920
11339TIP3    H233975   8.007   0.912   6.003
11340TIP3   OH233976   8.262   1.561   1.496
11340TIP3    H133977   8.312   1.544   1.575
11340TIP3    H233978   8.171   1.548   1.523
11341TIP3   OH233979   4.638   4.035   2.448
11341TIP3    H133980   4.723   4.067   2.479
11341TIP3    H233981   4.591   4.113   2.421
11342TIP3   OH233982   0.492   3.230   5.061
11342TIP3    H133983   0.505   3.314   5.016
11342TIP3    H233984   0.492   3.252   5.154
11343TIP3   OH233985   7.053   7.518   3.991
11343TIP3    H133986   6.989   7.563   3.935
11343TIP3    H233987   7.000   7.463   4.049
11344TIP3   OH233988   6.412   2.903   6.528
11344TIP3    H133989   6.432   2.997   6.533
11344TIP3    H233990   6.380   2.891   6.438
11345TIP3   OH233991   5.705   7.232   3.643
11345TIP3    H133992   5.675   7.260   3.557
11345TIP3    H233993   5.800   7.222   3.634
11346TIP3   OH233994   7.479   3.962   6.195
11346TIP3    H133995   7.400   3.918   6.164
11346TIP3    H233996   7.509   4.014   6.120
11347TIP3   OH233997   3.256   6.576   1.522
11347TIP3    H133998   3.321   6.526   1.474
11347TIP3    H233999   3.208   6.625   1.455
11348TIP3   OH234000   7.050   6.660   1.113
11348TIP3    H134001   7.093   6.610   1.043
11348TIP3    H234002   7.108   6.735   1.128
11349TIP3   OH234003   4.249   0.487   0.558
11349TIP3    H134004   4.268   0.464   0.466
11349TIP3    H234005   4.329   0.530   0.588
11350TIP3   OH234006   7.168   4.463   1.417
11350TIP3    H134007   7.253   4.503   1.401
11350TIP3    H234008   7.174   4.377   1.375
11351TIP3   OH234009   4.789   1.651   3.541
11351TIP3    H134010   4.757   1.689   3.623
11351TIP3    H234011   4.884   1.648   3.551
11352TIP3   OH234012   6.443   6.815   2.284
11352TIP3    H134013   6.497   6.881   2.243
11352TIP3    H234014   6.353   6.845   2.270
11353TIP3   OH234015   4.017   2.959   2.541
11353TIP3    H134016   4.040   2.937   2.451
11353TIP3    H234017   4.048   2.885   2.593
11354TIP3   OH234018   4.770   4.255   2.817
11354TIP3    H134019   4.823   4.203   2.757
11354TIP3    H234020   4.809   4.239   2.903
11355TIP3   OH234021   6.458   0.469   0.053
11355TIP3    H134022   6.402   0.394   0.072
11355TIP3    H234023   6.458   0.520   0.134
11356TIP3   OH234024   7.889   1.121   2.714
11356TIP3    H134025   7.807   1.147   2.756
11356TIP3    H234026   7.883   1.026   2.707
11357TIP3   OH234027   6.212   3.403   1.225
11357TIP3    H134028   6.227   3.422   1.318
11357TIP3    H234029   6.196   3.489   1.186
11358TIP3   OH234030   2.826   3.195   6.218
11358TIP3    H134031   2.876   3.124   6.177
11358TIP3    H234032   2.793   3.156   6.299
11359TIP3   OH234033   6.886   1.294   4.866
11359TIP3    H134034   6.935   1.296   4.949
11359TIP3    H234035   6.880   1.386   4.839
11360TIP3   OH234036   2.842   7.067   2.493
11360TIP3    H134037   2.777   7.030   2.433
11360TIP3    H234038   2.902   6.995   2.511
11361TIP3   OH234039   3.190   6.334   4.322
11361TIP3    H134040   3.210   6.428   4.322
11361TIP3    H234041   3.272   6.293   4.351
11362TIP3   OH234042   1.994   2.972   4.447
11362TIP3    H134043   1.953   2.887   4.462
11362TIP3    H234044   2.086   2.959   4.470
11363TIP3   OH234045   0.530   3.687   1.209
11363TIP3    H134046   0.603   3.705   1.150
11363TIP3    H234047   0.561   3.616   1.265
11364TIP3   OH234048   0.841   6.646   6.089
11364TIP3    H134049   0.834   6.717   6.025
11364TIP3    H234050   0.907   6.587   6.051
11365TIP3   OH234051   8.293   0.991   2.758
11365TIP3    H134052   8.259   0.919   2.812
11365TIP3    H234053   8.385   0.968   2.742
11366TIP3   OH234054   1.128   3.466   4.699
11366TIP3    H134055   1.135   3.402   4.769
11366TIP3    H234056   1.184   3.431   4.629
11367TIP3   OH234057   7.350   7.162   3.788
11367TIP3    H134058   7.320   7.229   3.850
11367TIP3    H234059   7.435   7.193   3.759
11368TIP3   OH234060   2.945   0.181   4.531
11368TIP3    H134061   2.887   0.196   4.605
11368TIP3    H234062   3.027   0.225   4.555
11369TIP3   OH234063   3.104   1.804   0.684
11369TIP3    H134064   3.016   1.827   0.715
11369TIP3    H234065   3.088   1.761   0.600
11370TIP3   OH234066   7.535   5.975   2.470
11370TIP3    H134067   7.556   5.993   2.561
11370TIP3    H234068   7.543   6.060   2.426
11371TIP3   OH234069   4.823   4.304   0.363
11371TIP3    H134070   4.818   4.292   0.268
11371TIP3    H234071   4.737   4.276   0.395
11372TIP3   OH234072   5.504   3.786   2.441
11372TIP3    H134073   5.412   3.800   2.420
11372TIP3    H234074   5.507   3.783   2.536
11373TIP3   OH234075   7.999   1.636   2.962
11373TIP3    H134076   7.917   1.619   3.008
11373TIP3    H234077   8.005   1.732   2.959
11374TIP3   OH234078   8.193   6.753   1.089
11374TIP3    H134079   8.104   6.744   1.122
11374TIP3    H234080   8.200   6.689   1.018
11375TIP3   OH234081   6.989   3.667   1.054
11375TIP3    H134082   6.914   3.608   1.060
11375TIP3    H234083   7.004   3.697   1.143
11376TIP3   OH234084   3.357   2.703   6.680
11376TIP3    H134085   3.401   2.677   6.761
11376TIP3    H234086   3.427   2.706   6.615
11377TIP3   OH234087   1.954   6.332   3.359
11377TIP3    H134088   1.882   6.376   3.312
11377TIP3    H234089   2.014   6.305   3.290
11378TIP3   OH234090   3.980   0.582   0.468
11378TIP3    H134091   4.026   0.649   0.417
11378TIP3    H234092   4.047   0.544   0.524
11379TIP3   OH234093   7.147   1.679   0.995
11379TIP3    H134094   7.136   1.597   0.947
11379TIP3    H234095   7.218   1.661   1.057
11380TIP3   OH234096   5.788   5.527   2.027
11380TIP3    H134097   5.705   5.569   2.009
11380TIP3    H234098   5.823   5.505   1.940
11381TIP3   OH234099   7.726   3.479   5.736
11381TIP3    H134100   7.641   3.456   5.698
11381TIP3    H234101   7.715   3.567   5.771
11382TIP3   OH234102   1.740   3.591   1.664
11382TIP3    H134103   1.646   3.606   1.652
11382TIP3    H234104   1.748   3.562   1.755
11383TIP3   OH234105   0.597   7.689   4.960
11383TIP3    H134106   0.572   7.700   5.051
11383TIP3    H234107   0.691   7.704   4.959
11384TIP3   OH234108   1.861   4.767   4.054
11384TIP3    H134109   1.885   4.685   4.011
11384TIP3    H234110   1.816   4.818   3.986
11385TIP3   OH234111   4.761   6.781   4.144
11385TIP3    H134112   4.755   6.803   4.051
11385TIP3    H234113   4.717   6.854   4.189
11386TIP3   OH234114   3.557   1.098   2.438
11386TIP3    H134115   3.620   1.045   2.389
11386TIP3    H234116   3.547   1.178   2.387
11387TIP3   OH234117   6.218   1.648   5.279
11387TIP3    H134118   6.144   1.594   5.251
11387TIP3    H234119   6.282   1.585   5.313
11388TIP3   OH234120   6.635   5.552   3.952
11388TIP3    H134121   6.723   5.585   3.932
11388TIP3    H234122   6.601   5.612   4.018
11389TIP3   OH234123   0.241   3.222   1.606
11389TIP3    H134124   0.241   3.313   1.636
11389TIP3    H234125   0.174   3.219   1.538
11390TIP3   OH234126   1.354   6.856   0.737
11390TIP3    H134127   1.405   6.827   0.662
11390TIP3    H234128   1.343   6.778   0.792
11391TIP3   OH234129   2.926   2.364   4.876
11391TIP3    H134130   2.922   2.438   4.815
11391TIP3    H234131   2.837   2.327   4.874
11392TIP3   OH234132   5.054   1.763   1.044
11392TIP3    H134133   5.025   1.829   1.106
11392TIP3    H234134   5.150   1.765   1.051
11393TIP3   OH234135   1.626   4.957   4.567
11393TIP3    H134136   1.644   5.000   4.651
11393TIP3    H234137   1.537   4.985   4.545
11394TIP3   OH234138   1.218   4.799   4.305
11394TIP3    H134139   1.273   4.740   4.356
11394TIP3    H234140   1.128   4.772   4.327
11395TIP3   OH234141   5.925   0.184   0.155
11395TIP3    H134142   5.859   0.225   0.100
11395TIP3    H234143   5.996   0.160   0.095
11396TIP3   OH234144   6.087   3.585   0.291
11396TIP3    H134145   6.065   3.638   0.215
11396TIP3    H234146   6.060   3.496   0.267
11397TIP3   OH234147   0.990   4.938   0.910
11397TIP3    H134148   0.899   4.965   0.922
11397TIP3    H234149   0.984   4.850   0.872
11398TIP3   OH234150   8.008   1.772   4.728
11398TIP3    H134151   8.011   1.679   4.708
11398TIP3    H234152   8.007   1.777   4.824
11399TIP3   OH234153   2.008   3.012   0.869
11399TIP3    H134154   2.010   3.075   0.797
11399TIP3    H234155   1.976   2.931   0.829
11400TIP3   OH234156   2.262   6.568   3.297
11400TIP3    H134157   2.342   6.611   3.267
11400TIP3    H234158   2.292   6.503   3.362
11401TIP3   OH234159   2.431   3.102   6.325
11401TIP3    H134160   2.413   3.072   6.236
11401TIP3    H234161   2.481   3.030   6.365
11402TIP3   OH234162   3.899   3.838   2.486
11402TIP3    H134163   3.950   3.830   2.405
11402TIP3    H234164   3.964   3.860   2.553
11403TIP3   OH234165   4.742   5.493   0.422
11403TIP3    H134166   4.829   5.457   0.444
11403TIP3    H234167   4.694   5.492   0.505
11404TIP3   OH234168   1.811   2.280   5.477
11404TIP3    H134169   1.874   2.209   5.490
11404TIP3    H234170   1.833   2.317   5.391
11405TIP3   OH234171   3.159   0.704   1.974
11405TIP3    H134172   3.231   0.662   1.927
11405TIP3    H234173   3.195   0.785   2.008
11406TIP3   OH234174   3.512   5.942   2.531
11406TIP3    H134175   3.462   5.981   2.459
11406TIP3    H234176   3.518   6.011   2.597
11407TIP3   OH234177   7.369   2.419   4.097
11407TIP3    H134178   7.454   2.380   4.075
11407TIP3    H234179   7.343   2.466   4.018
11408TIP3   OH234180   7.150   3.063   1.774
11408TIP3    H134181   7.141   3.031   1.684
11408TIP3    H234182   7.072   3.116   1.789
11409TIP3   OH234183   2.952   4.910   6.185
11409TIP3    H134184   2.941   4.970   6.111
11409TIP3    H234185   2.955   4.968   6.261
11410TIP3   OH234186   7.611   5.613   4.345
11410TIP3    H134187   7.569   5.531   4.318
11410TIP3    H234188   7.669   5.588   4.417
11411TIP3   OH234189   4.655   4.502   0.601
11411TIP3    H134190   4.742   4.534   0.625
11411TIP3    H234191   4.598   4.579   0.611
11412TIP3   OH234192   6.840   5.602   5.947
11412TIP3    H134193   6.880   5.549   6.015
11412TIP3    H234194   6.765   5.643   5.989
11413TIP3   OH234195   4.126   0.864   2.399
11413TIP3    H134196   4.219   0.842   2.396
11413TIP3    H234197   4.099   0.866   2.307
11414TIP3   OH234198   1.356   7.253   4.590
11414TIP3    H134199   1.407   7.218   4.518
11414TIP3    H234200   1.294   7.314   4.549
11415TIP3   OH234201   0.937   7.546   5.808
11415TIP3    H134202   0.971   7.496   5.883
11415TIP3    H234203   0.850   7.509   5.792
11416TIP3   OH234204   0.081   1.159   3.233
11416TIP3    H134205   0.059   1.252   3.227
11416TIP3    H234206   0.111   1.136   3.145
11417TIP3   OH234207   3.425   5.741   2.711
11417TIP3    H134208   3.456   5.793   2.637
11417TIP3    H234209   3.386   5.804   2.771
11418TIP3   OH234210   6.510   1.292   0.415
11418TIP3    H134211   6.469   1.298   0.501
11418TIP3    H234212   6.604   1.284   0.434
11419TIP3   OH234213   2.452   0.137   3.029
11419TIP3    H134214   2.507   0.060   3.017
11419TIP3    H234215   2.462   0.187   2.948
11420TIP3   OH234216   7.779   0.646   1.498
11420TIP3    H134217   7.841   0.663   1.569
11420TIP3    H234218   7.822   0.578   1.445
11421TIP3   OH234219   2.724   5.133   4.553
11421TIP3    H134220   2.698   5.081   4.629
11421TIP3    H234221   2.713   5.074   4.478
11422TIP3   OH234222   3.401   7.261   5.418
11422TIP3    H134223   3.351   7.217   5.487
11422TIP3    H234224   3.492   7.236   5.435
11423TIP3   OH234225   1.699   5.426   6.223
11423TIP3    H134226   1.646   5.463   6.293
11423TIP3    H234227   1.742   5.501   6.182
11424TIP3   OH234228   1.408   5.679   1.268
11424TIP3    H134229   1.331   5.700   1.320
11424TIP3    H234230   1.476   5.737   1.300
11425TIP3   OH234231   2.326   4.970   5.682
11425TIP3    H134232   2.380   4.959   5.604
11425TIP3    H234233   2.385   5.005   5.748
11426TIP3   OH234234   7.213   6.022   2.172
11426TIP3    H134235   7.144   5.957   2.187
11426TIP3    H234236   7.167   6.106   2.174
11427TIP3   OH234237   2.866   4.039   1.207
11427TIP3    H134238   2.949   4.040   1.160
11427TIP3    H234239   2.818   4.113   1.172
11428TIP3   OH234240   5.292   0.531   1.326
11428TIP3    H134241   5.319   0.602   1.267
11428TIP3    H234242   5.372   0.507   1.372
11429TIP3   OH234243   1.602   5.191   3.823
11429TIP3    H134244   1.576   5.188   3.731
11429TIP3    H234245   1.565   5.273   3.856
11430TIP3   OH234246   3.740   0.748   1.090
11430TIP3    H134247   3.736   0.701   1.173
11430TIP3    H234248   3.754   0.839   1.114
11431TIP3   OH234249   0.390   5.323   0.963
11431TIP3    H134250   0.430   5.276   1.036
11431TIP3    H234251   0.464   5.356   0.912
11432TIP3   OH234252   1.635   5.896   1.871
11432TIP3    H134253   1.552   5.905   1.918
11432TIP3    H234254   1.701   5.896   1.940
11433TIP3   OH234255   8.062   6.411  -0.009
11433TIP3    H134256   8.092   6.497  -0.036
11433TIP3    H234257   8.082   6.406   0.085
11434TIP3   OH234258   4.862   4.089   4.761
11434TIP3    H134259   4.911   4.021   4.806
11434TIP3    H234260   4.805   4.042   4.700
11435TIP3   OH234261   1.051   4.384   0.810
11435TIP3    H134262   1.023   4.360   0.722
11435TIP3    H234263   1.142   4.354   0.815
11436TIP3   OH234264   4.469   6.927   1.258
11436TIP3    H134265   4.541   6.961   1.206
11436TIP3    H234266   4.446   6.998   1.318
11437TIP3   OH234267   1.769   4.123   5.211
11437TIP3    H134268   1.805   4.200   5.255
11437TIP3    H234269   1.675   4.128   5.226
11438TIP3   OH234270   7.357   4.119   4.402
11438TIP3    H134271   7.269   4.147   4.376
11438TIP3    H234272   7.346   4.088   4.492
11439TIP3   OH234273   0.860   1.485   2.279
11439TIP3    H134274   0.955   1.489   2.284
11439TIP3    H234275   0.831   1.478   2.370
11440TIP3   OH234276   4.368   6.699   2.469
11440TIP3    H134277   4.433   6.745   2.417
11440TIP3    H234278   4.306   6.663   2.405
11441TIP3   OH234279   1.948   4.066   1.364
11441TIP3    H134280   1.950   3.971   1.375
11441TIP3    H234281   1.977   4.080   1.273
11442TIP3   OH234282   8.099   2.286   5.073
11442TIP3    H134283   8.042   2.244   5.138
11442TIP3    H234284   8.085   2.380   5.085
11443TIP3   OH234285   5.011   6.312   2.476
11443TIP3    H134286   4.973   6.312   2.388
11443TIP3    H234287   5.031   6.404   2.494
11444TIP3   OH234288   5.003   0.927   6.632
11444TIP3    H134289   4.928   0.966   6.588
11444TIP3    H234290   5.070   0.995   6.631
11445TIP3   OH234291   6.468   6.358   2.877
11445TIP3    H134292   6.415   6.279   2.879
11445TIP3    H234293   6.477   6.379   2.784
11446TIP3   OH234294   4.686   3.255   5.730
11446TIP3    H134295   4.624   3.205   5.677
11446TIP3    H234296   4.655   3.346   5.723
11447TIP3   OH234297   6.167   4.063   1.460
11447TIP3    H134298   6.156   4.015   1.541
11447TIP3    H234299   6.234   4.129   1.480
11448TIP3   OH234300   7.862   5.387   1.645
11448TIP3    H134301   7.851   5.474   1.683
11448TIP3    H234302   7.786   5.338   1.676
11449TIP3   OH234303   3.974   1.538   5.733
11449TIP3    H134304   3.997   1.587   5.812
11449TIP3    H234305   3.940   1.605   5.673
11450TIP3   OH234306   4.511   6.909   2.368
11450TIP3    H134307   4.495   6.941   2.279
11450TIP3    H234308   4.590   6.855   2.360
11451TIP3   OH234309   6.099   3.044   5.569
11451TIP3    H134310   6.013   3.067   5.607
11451TIP3    H234311   6.109   2.951   5.589
11452TIP3   OH234312   1.169   6.711   3.866
11452TIP3    H134313   1.116   6.775   3.913
11452TIP3    H234314   1.114   6.633   3.860
11453TIP3   OH234315   2.875   2.179   0.219
11453TIP3    H134316   2.788   2.146   0.241
11453TIP3    H234317   2.935   2.116   0.259
11454TIP3   OH234318   1.174   4.731   6.616
11454TIP3    H134319   1.114   4.659   6.594
11454TIP3    H234320   1.259   4.688   6.626
11455TIP3   OH234321   1.360   2.634   5.623
11455TIP3    H134322   1.300   2.609   5.553
11455TIP3    H234323   1.341   2.727   5.639
11456TIP3   OH234324   6.194   5.887   3.696
11456TIP3    H134325   6.187   5.981   3.675
11456TIP3    H234326   6.276   5.860   3.655
11457TIP3   OH234327   6.311   2.763   4.341
11457TIP3    H134328   6.330   2.694   4.406
11457TIP3    H234329   6.397   2.799   4.319
11458TIP3   OH234330   3.878   3.277   3.820
11458TIP3    H134331   3.973   3.282   3.805
11458TIP3    H234332   3.855   3.187   3.800
11459TIP3   OH234333   7.680   5.435   5.054
11459TIP3    H134334   7.749   5.398   4.999
11459TIP3    H234335   7.613   5.366   5.058
11460TIP3   OH234336   1.969   3.074   2.352
11460TIP3    H134337   2.063   3.076   2.368
11460TIP3    H234338   1.929   3.083   2.439
11461TIP3   OH234339   3.421   4.625   6.150
11461TIP3    H134340   3.347   4.683   6.136
11461TIP3    H234341   3.434   4.624   6.245
11462TIP3   OH234342   0.556   1.605   2.859
11462TIP3    H134343   0.642   1.647   2.856
11462TIP3    H234344   0.521   1.615   2.771
11463TIP3   OH234345   7.793   4.592   6.615
11463TIP3    H134346   7.819   4.653   6.683
11463TIP3    H234347   7.731   4.641   6.560
11464TIP3   OH234348   0.181   5.977   1.364
11464TIP3    H134349   0.096   6.002   1.400
11464TIP3    H234350   0.181   6.015   1.276
11465TIP3   OH234351   6.246   0.089   3.180
11465TIP3    H134352   6.233   0.142   3.102
11465TIP3    H234353   6.158   0.068   3.210
11466TIP3   OH234354   4.785   4.072   1.533
11466TIP3    H134355   4.837   4.145   1.502
11466TIP3    H234356   4.717   4.060   1.466
11467TIP3   OH234357   5.085   2.145   0.346
11467TIP3    H134358   5.068   2.214   0.411
11467TIP3    H234359   5.148   2.088   0.390
11468TIP3   OH234360   8.058   2.308   5.937
11468TIP3    H134361   8.142   2.273   5.908
11468TIP3    H234362   8.065   2.313   6.032
11469TIP3   OH234363   3.934   4.009   1.092
11469TIP3    H134364   3.904   3.954   1.165
11469TIP3    H234365   3.868   3.995   1.024
11470TIP3   OH234366   0.443   4.096   0.750
11470TIP3    H134367   0.523   4.061   0.711
11470TIP3    H234368   0.417   4.030   0.815
11471TIP3   OH234369   7.262   1.408   3.628
11471TIP3    H134370   7.349   1.401   3.666
11471TIP3    H234371   7.203   1.418   3.702
11472TIP3   OH234372   0.738   0.781   2.006
11472TIP3    H134373   0.810   0.838   1.979
11472TIP3    H234374   0.705   0.744   1.924
11473TIP3   OH234375   6.472   2.921   3.352
11473TIP3    H134376   6.564   2.930   3.327
11473TIP3    H234377   6.464   2.830   3.381
11474TIP3   OH234378   3.855   1.286   6.714
11474TIP3    H134379   3.888   1.367   6.675
11474TIP3    H234380   3.789   1.254   6.652
11475TIP3   OH234381   2.592   5.562   5.826
11475TIP3    H134382   2.568   5.503   5.754
11475TIP3    H234383   2.524   5.629   5.825
11476TIP3   OH234384   2.908   2.269   1.643
11476TIP3    H134385   2.938   2.194   1.695
11476TIP3    H234386   2.813   2.259   1.639
11477TIP3   OH234387   1.864   7.778   2.908
11477TIP3    H134388   1.956   7.752   2.916
11477TIP3    H234389   1.857   7.818   2.821
11478TIP3   OH234390   6.165   1.827   4.516
11478TIP3    H134391   6.139   1.918   4.529
11478TIP3    H234392   6.091   1.786   4.471
11479TIP3   OH234393   0.978   0.531   5.359
11479TIP3    H134394   1.017   0.575   5.434
11479TIP3    H234395   1.052   0.488   5.316
11480TIP3   OH234396   7.598   0.329   1.844
11480TIP3    H134397   7.692   0.330   1.859
11480TIP3    H234398   7.578   0.237   1.826
11481TIP3   OH234399   2.185   4.353   2.210
11481TIP3    H134400   2.227   4.318   2.132
11481TIP3    H234401   2.172   4.278   2.267
11482TIP3   OH234402   3.691   7.217   1.865
11482TIP3    H134403   3.776   7.260   1.868
11482TIP3    H234404   3.655   7.227   1.953
11483TIP3   OH234405   1.885   1.674   0.524
11483TIP3    H134406   1.902   1.696   0.433
11483TIP3    H234407   1.897   1.757   0.571
11484TIP3   OH234408   1.958   6.867   3.348
11484TIP3    H134409   2.010   6.947   3.363
11484TIP3    H234410   1.880   6.879   3.402
11485TIP3   OH234411   6.290   6.957   6.685
11485TIP3    H134412   6.356   6.892   6.708
11485TIP3    H234413   6.318   6.989   6.599
11486TIP3   OH234414   6.830   4.445   2.582
11486TIP3    H134415   6.816   4.525   2.531
11486TIP3    H234416   6.774   4.380   2.539
11487TIP3   OH234417   6.353   6.077   3.164
11487TIP3    H134418   6.369   6.109   3.075
11487TIP3    H234419   6.298   6.000   3.152
11488TIP3   OH234420   6.819   4.554   4.418
11488TIP3    H134421   6.902   4.507   4.423
11488TIP3    H234422   6.774   4.535   4.501
11489TIP3   OH234423   0.658   7.356   4.283
11489TIP3    H134424   0.620   7.420   4.224
11489TIP3    H234425   0.736   7.324   4.237
11490TIP3   OH234426   3.073   1.618   6.113
11490TIP3    H134427   3.128   1.545   6.086
11490TIP3    H234428   3.130   1.674   6.166
11491TIP3   OH234429   3.844   5.440   0.789
11491TIP3    H134430   3.760   5.467   0.752
11491TIP3    H234431   3.878   5.376   0.726
11492TIP3   OH234432   4.862   3.225   4.662
11492TIP3    H134433   4.874   3.316   4.691
11492TIP3    H234434   4.840   3.178   4.742
11493TIP3   OH234435   6.807   3.662   0.119
11493TIP3    H134436   6.802   3.607   0.198
11493TIP3    H234437   6.882   3.720   0.135
11494TIP3   OH234438   5.518   1.195   2.867
11494TIP3    H134439   5.569   1.124   2.829
11494TIP3    H234440   5.546   1.273   2.819
11495TIP3   OH234441   0.963   1.264   3.297
11495TIP3    H134442   0.930   1.343   3.254
11495TIP3    H234443   0.894   1.199   3.283
11496TIP3   OH234444   3.501   4.642   3.238
11496TIP3    H134445   3.426   4.583   3.231
11496TIP3    H234446   3.476   4.704   3.307
11497TIP3   OH234447   3.398   5.589   4.033
11497TIP3    H134448   3.312   5.627   4.050
11497TIP3    H234449   3.430   5.633   3.955
11498TIP3   OH234450   1.126   0.872   2.437
11498TIP3    H134451   1.209   0.903   2.401
11498TIP3    H234452   1.093   0.947   2.487
11499TIP3   OH234453   5.281   5.693   4.462
11499TIP3    H134454   5.252   5.630   4.396
11499TIP3    H234455   5.200   5.733   4.493
11500TIP3   OH234456   3.487   5.852   2.076
11500TIP3    H134457   3.406   5.901   2.094
11500TIP3    H234458   3.511   5.878   1.987
11501TIP3   OH234459   0.092   5.400   5.852
11501TIP3    H134460   0.048   5.403   5.767
11501TIP3    H234461   0.039   5.340   5.904
11502TIP3   OH234462   5.699   3.690   5.172
11502TIP3    H134463   5.625   3.687   5.111
11502TIP3    H234464   5.666   3.738   5.247
11503TIP3   OH234465   6.270   3.507   0.490
11503TIP3    H134466   6.224   3.512   0.574
11503TIP3    H234467   6.215   3.558   0.430
11504TIP3   OH234468   3.309   4.231   3.558
11504TIP3    H134469   3.225   4.272   3.540
11504TIP3    H234470   3.292   4.137   3.556
11505TIP3   OH234471   3.999   2.444   2.201
11505TIP3    H134472   3.913   2.454   2.161
11505TIP3    H234473   4.051   2.397   2.136
11506TIP3   OH234474   6.228   3.121   5.968
11506TIP3    H134475   6.288   3.054   5.934
11506TIP3    H234476   6.143   3.097   5.932
11507TIP3   OH234477   1.920   2.618   0.596
11507TIP3    H134478   2.007   2.587   0.570
11507TIP3    H234479   1.891   2.554   0.662
11508TIP3   OH234480   7.782   1.702   1.387
11508TIP3    H134481   7.742   1.621   1.418
11508TIP3    H234482   7.709   1.761   1.371
11509TIP3   OH234483   5.304   5.678   5.078
11509TIP3    H134484   5.247   5.688   5.001
11509TIP3    H234485   5.334   5.766   5.097
11510TIP3   OH234486   5.974   6.010   2.896
11510TIP3    H134487   6.041   6.077   2.911
11510TIP3    H234488   6.000   5.938   2.953
11511TIP3   OH234489   2.063   5.084   2.904
11511TIP3    H134490   2.105   5.158   2.947
11511TIP3    H234491   1.978   5.118   2.874
11512TIP3   OH234492   3.641   4.172   4.466
11512TIP3    H134493   3.734   4.188   4.478
11512TIP3    H234494   3.621   4.205   4.379
11513TIP3   OH234495   2.174   7.721   6.035
11513TIP3    H134496   2.182   7.806   5.990
11513TIP3    H234497   2.169   7.657   5.964
11514TIP3   OH234498   5.128   4.031   4.985
11514TIP3    H134499   5.162   3.969   5.050
11514TIP3    H234500   5.034   4.033   5.000
11515TIP3   OH234501   4.300   3.136   4.370
11515TIP3    H134502   4.255   3.133   4.286
11515TIP3    H234503   4.234   3.106   4.434
11516TIP3   OH234504   5.861   4.292   0.525
11516TIP3    H134505   5.824   4.372   0.490
11516TIP3    H234506   5.955   4.309   0.529
11517TIP3   OH234507   4.054   5.042   6.185
11517TIP3    H134508   3.963   5.057   6.211
11517TIP3    H234509   4.067   5.098   6.108
11518TIP3   OH234510   1.350   4.090   4.486
11518TIP3    H134511   1.314   4.025   4.426
11518TIP3    H234512   1.292   4.088   4.562
11519TIP3   OH234513   5.495   3.310   3.129
11519TIP3    H134514   5.534   3.392   3.161
11519TIP3    H234515   5.548   3.241   3.170
11520TIP3   OH234516   4.800   1.502   1.567
11520TIP3    H134517   4.872   1.558   1.539
11520TIP3    H234518   4.773   1.457   1.487
11521TIP3   OH234519   1.437   6.148   5.301
11521TIP3    H134520   1.375   6.104   5.242
11521TIP3    H234521   1.505   6.082   5.318
11522TIP3   OH234522   2.238   5.154   0.464
11522TIP3    H134523   2.188   5.177   0.543
11522TIP3    H234524   2.318   5.205   0.471
11523TIP3   OH234525   0.513   4.804   2.673
11523TIP3    H134526   0.458   4.768   2.604
11523TIP3    H234527   0.455   4.810   2.749
11524TIP3   OH234528   7.197   6.405   4.975
11524TIP3    H134529   7.220   6.322   5.017
11524TIP3    H234530   7.252   6.408   4.897
11525TIP3   OH234531   5.829   3.990   2.868
11525TIP3    H134532   5.797   4.026   2.950
11525TIP3    H234533   5.845   4.066   2.812
11526TIP3   OH234534   5.740   1.971   3.278
11526TIP3    H134535   5.775   1.925   3.201
11526TIP3    H234536   5.799   2.046   3.290
11527TIP3   OH234537   3.629   0.235   2.077
11527TIP3    H134538   3.545   0.207   2.041
11527TIP3    H234539   3.648   0.317   2.033
11528TIP3   OH234540   1.263   6.943   1.730
11528TIP3    H134541   1.233   6.899   1.809
11528TIP3    H234542   1.197   6.922   1.664
11529TIP3   OH234543   4.949   2.209   3.017
11529TIP3    H134544   4.991   2.158   3.086
11529TIP3    H234545   4.856   2.188   3.025
11530TIP3   OH234546   6.562   4.535   5.662
11530TIP3    H134547   6.516   4.619   5.664
11530TIP3    H234548   6.650   4.556   5.632
11531TIP3   OH234549   7.747   1.281   0.181
11531TIP3    H134550   7.841   1.297   0.193
11531TIP3    H234551   7.720   1.237   0.261
11532TIP3   OH234552   1.864   7.380   3.791
11532TIP3    H134553   1.786   7.434   3.773
11532TIP3    H234554   1.889   7.405   3.880
11533TIP3   OH234555   3.028   6.318   5.252
11533TIP3    H134556   3.058   6.233   5.219
11533TIP3    H234557   2.968   6.349   5.184
11534TIP3   OH234558   3.491   3.131   2.697
11534TIP3    H134559   3.499   3.042   2.663
11534TIP3    H234560   3.581   3.160   2.712
11535TIP3   OH234561   0.199   0.748   6.304
11535TIP3    H134562   0.223   0.792   6.386
11535TIP3    H234563   0.263   0.781   6.240
11536TIP3   OH234564   1.160   7.574   0.436
11536TIP3    H134565   1.085   7.569   0.496
11536TIP3    H234566   1.133   7.637   0.369
11537TIP3   OH234567   7.717   2.932   3.568
11537TIP3    H134568   7.690   2.861   3.510
11537TIP3    H234569   7.784   2.894   3.624
11538TIP3   OH234570   1.525   7.360   3.485
11538TIP3    H134571   1.516   7.455   3.476
11538TIP3    H234572   1.524   7.328   3.395
11539TIP3   OH234573   4.109   3.936   1.538
11539TIP3    H134574   4.179   3.998   1.517
11539TIP3    H234575   4.122   3.916   1.631
11540TIP3   OH234576   7.114   3.105   4.968
11540TIP3    H134577   7.193   3.052   4.955
11540TIP3    H234578   7.061   3.087   4.890
11541TIP3   OH234579   7.910   4.546   1.946
11541TIP3    H134580   7.959   4.515   2.022
11541TIP3    H234581   7.840   4.601   1.983
11542TIP3   OH234582   0.849   2.135   3.126
11542TIP3    H134583   0.938   2.101   3.114
11542TIP3    H234584   0.804   2.114   3.044
11543TIP3   OH234585   1.189   4.675   6.058
11543TIP3    H134586   1.123   4.643   6.120
11543TIP3    H234587   1.221   4.596   6.015
11544TIP3   OH234588   6.601   7.155   1.681
11544TIP3    H134589   6.564   7.119   1.600
11544TIP3    H234590   6.682   7.106   1.695
11545TIP3   OH234591   7.375   2.740   3.671
11545TIP3    H134592   7.458   2.702   3.701
11545TIP3    H234593   7.309   2.675   3.697
11546TIP3   OH234594   3.108   0.166   5.521
11546TIP3    H134595   3.045   0.235   5.501
11546TIP3    H234596   3.074   0.089   5.474
11547TIP3   OH234597   7.418   4.520   0.390
11547TIP3    H134598   7.413   4.615   0.396
11547TIP3    H234599   7.445   4.492   0.478
11548TIP3   OH234600   2.244   6.258   0.892
11548TIP3    H134601   2.247   6.297   0.805
11548TIP3    H234602   2.301   6.315   0.945
11549TIP3   OH234603   1.790   7.715   5.443
11549TIP3    H134604   1.702   7.693   5.410
11549TIP3    H234605   1.796   7.810   5.433
11550TIP3   OH234606   3.443   1.921   5.637
11550TIP3    H134607   3.516   1.952   5.691
11550TIP3    H234608   3.484   1.867   5.569
11551TIP3   OH234609   2.099   4.221   4.292
11551TIP3    H134610   2.061   4.201   4.377
11551TIP3    H234611   2.072   4.310   4.273
11552TIP3   OH234612   7.777   6.394   2.264
11552TIP3    H134613   7.860   6.355   2.234
11552TIP3    H234614   7.780   6.385   2.359
11553TIP3   OH234615   5.152   0.996   2.020
11553TIP3    H134616   5.126   0.922   1.964
11553TIP3    H234617   5.198   0.955   2.093
11554TIP3   OH234618   6.137   1.926   1.769
11554TIP3    H134619   6.219   1.896   1.808
11554TIP3    H234620   6.161   2.003   1.719
11555TIP3   OH234621   1.375   5.781   0.044
11555TIP3    H134622   1.448   5.718   0.043
11555TIP3    H234623   1.404   5.850   0.103
11556TIP3   OH234624   5.683   5.895   3.006
11556TIP3    H134625   5.770   5.866   2.979
11556TIP3    H234626   5.667   5.849   3.089
11557TIP3   OH234627   4.952   1.039   0.935
11557TIP3    H134628   4.928   1.046   0.843
11557TIP3    H234629   5.043   1.009   0.935
11558TIP3   OH234630   1.823   5.225   6.082
11558TIP3    H134631   1.757   5.179   6.029
11558TIP3    H234632   1.772   5.275   6.146
11559TIP3   OH234633   0.275   0.913   0.063
11559TIP3    H134634   0.195   0.960   0.039
11559TIP3    H234635   0.329   0.979   0.107
11560TIP3   OH234636   3.096   2.556   2.558
11560TIP3    H134637   3.056   2.634   2.521
11560TIP3    H234638   3.142   2.587   2.636
11561TIP3   OH234639   6.018   3.091   1.854
11561TIP3    H134640   6.072   3.146   1.911
11561TIP3    H234641   6.082   3.044   1.799
11562TIP3   OH234642   1.157   6.722   2.496
11562TIP3    H134643   1.087   6.740   2.558
11562TIP3    H234644   1.220   6.669   2.545
11563TIP3   OH234645   4.742   1.853   0.470
11563TIP3    H134646   4.824   1.816   0.437
11563TIP3    H234647   4.770   1.923   0.530
11564TIP3   OH234648   2.152   6.237   3.957
11564TIP3    H134649   2.173   6.224   4.050
11564TIP3    H234650   2.178   6.155   3.915
11565TIP3   OH234651   5.623   3.538   0.246
11565TIP3    H134652   5.542   3.573   0.209
11565TIP3    H234653   5.684   3.536   0.172
11566TIP3   OH234654   3.132   4.570   0.370
11566TIP3    H134655   3.207   4.601   0.320
11566TIP3    H234656   3.080   4.649   0.387
11567TIP3   OH234657   5.482   3.707   4.980
11567TIP3    H134658   5.491   3.657   4.899
11567TIP3    H234659   5.392   3.692   5.008
11568TIP3   OH234660   1.844   1.874   5.157
11568TIP3    H134661   1.766   1.930   5.169
11568TIP3    H234662   1.916   1.926   5.191
11569TIP3   OH234663   5.391   7.021   4.280
11569TIP3    H134664   5.454   7.042   4.349
11569TIP3    H234665   5.348   7.105   4.260
11570TIP3   OH234666   2.431   2.004   3.901
11570TIP3    H134667   2.348   2.008   3.947
11570TIP3    H234668   2.497   1.993   3.970
11571TIP3   OH234669   0.282   2.426   2.407
11571TIP3    H134670   0.320   2.496   2.354
11571TIP3    H234671   0.347   2.356   2.404
11572TIP3   OH234672   6.335   3.129   3.466
11572TIP3    H134673   6.373   3.059   3.413
11572TIP3    H234674   6.287   3.183   3.404
11573TIP3   OH234675   7.612   4.119   4.796
11573TIP3    H134676   7.572   4.179   4.732
11573TIP3    H234677   7.664   4.059   4.743
11574TIP3   OH234678   0.432   7.005   6.721
11574TIP3    H134679   0.416   6.912   6.735
11574TIP3    H234680   0.506   7.007   6.660
11575TIP3   OH234681   4.962   4.433   4.408
11575TIP3    H134682   5.005   4.365   4.461
11575TIP3    H234683   4.934   4.498   4.472
11576TIP3   OH234684   6.469   6.316   1.316
11576TIP3    H134685   6.476   6.225   1.285
11576TIP3    H234686   6.384   6.320   1.361
11577TIP3   OH234687   1.526   4.171   5.375
11577TIP3    H134688   1.487   4.180   5.288
11577TIP3    H234689   1.458   4.127   5.427
11578TIP3   OH234690   0.571   5.824   1.633
11578TIP3    H134691   0.565   5.867   1.718
11578TIP3    H234692   0.663   5.830   1.608
11579TIP3   OH234693   7.168   7.361   2.430
11579TIP3    H134694   7.232   7.428   2.453
11579TIP3    H234695   7.110   7.355   2.506
11580TIP3   OH234696   3.904   3.440   6.105
11580TIP3    H134697   3.893   3.521   6.154
11580TIP3    H234698   3.883   3.463   6.015
11581TIP3   OH234699   5.021   7.190   6.681
11581TIP3    H134700   4.928   7.197   6.702
11581TIP3    H234701   5.043   7.098   6.695
11582TIP3   OH234702   6.525   5.228   0.268
11582TIP3    H134703   6.599   5.169   0.252
11582TIP3    H234704   6.457   5.198   0.208
11583TIP3   OH234705   0.137   0.064   3.232
11583TIP3    H134706   0.124  -0.020   3.188
11583TIP3    H234707   0.114   0.129   3.165
11584TIP3   OH234708   0.889   3.372   2.841
11584TIP3    H134709   0.909   3.324   2.761
11584TIP3    H234710   0.853   3.455   2.812
11585TIP3   OH234711   7.746   7.049   6.429
11585TIP3    H134712   7.693   7.124   6.401
11585TIP3    H234713   7.738   7.048   6.525
11586TIP3   OH234714   8.243   7.492   1.985
11586TIP3    H134715   8.162   7.486   2.036
11586TIP3    H234716   8.227   7.438   1.908
11587TIP3   OH234717   0.348   7.199   1.543
11587TIP3    H134718   0.350   7.225   1.451
11587TIP3    H234719   0.409   7.125   1.547
11588TIP3   OH234720   7.179   4.814   2.742
11588TIP3    H134721   7.242   4.746   2.769
11588TIP3    H234722   7.098   4.791   2.788
11589TIP3   OH234723   6.246   6.848   1.230
11589TIP3    H134724   6.171   6.860   1.288
11589TIP3    H234725   6.310   6.799   1.282
11590TIP3   OH234726   7.801   0.620   0.414
11590TIP3    H134727   7.828   0.704   0.449
11590TIP3    H234728   7.837   0.555   0.475
11591TIP3   OH234729   3.652   1.127   4.742
11591TIP3    H134730   3.609   1.091   4.664
11591TIP3    H234731   3.745   1.107   4.729
11592TIP3   OH234732   3.736   4.993   1.690
11592TIP3    H134733   3.652   5.026   1.722
11592TIP3    H234734   3.789   5.071   1.677
11593TIP3   OH234735   3.858   1.494   1.047
11593TIP3    H134736   3.784   1.434   1.036
11593TIP3    H234737   3.900   1.467   1.128
11594TIP3   OH234738   0.912   7.224   4.416
11594TIP3    H134739   0.990   7.175   4.444
11594TIP3    H234740   0.851   7.217   4.489
11595TIP3   OH234741   1.696   4.530   4.806
11595TIP3    H134742   1.695   4.557   4.714
11595TIP3    H234743   1.778   4.566   4.841
11596TIP3   OH234744   5.744   2.023   2.724
11596TIP3    H134745   5.798   2.061   2.793
11596TIP3    H234746   5.701   2.099   2.684
11597TIP3   OH234747   5.778   4.583   0.297
11597TIP3    H134748   5.703   4.626   0.339
11597TIP3    H234749   5.831   4.552   0.370
11598TIP3   OH234750   2.810   3.019   5.906
11598TIP3    H134751   2.728   3.013   5.954
11598TIP3    H234752   2.784   3.018   5.814
11599TIP3   OH234753   1.442   2.554   0.680
11599TIP3    H134754   1.462   2.461   0.689
11599TIP3    H234755   1.385   2.574   0.754
11600TIP3   OH234756   6.590   5.100   5.437
11600TIP3    H134757   6.659   5.073   5.376
11600TIP3    H234758   6.624   5.075   5.523
11601TIP3   OH234759   5.131   0.009   5.479
11601TIP3    H134760   5.108   0.089   5.431
11601TIP3    H234761   5.066   0.003   5.549
11602TIP3   OH234762   5.692   1.048   2.715
11602TIP3    H134763   5.680   0.966   2.667
11602TIP3    H234764   5.686   1.116   2.648
11603TIP3   OH234765   4.457   5.854   5.687
11603TIP3    H134766   4.405   5.925   5.649
11603TIP3    H234767   4.483   5.800   5.612
11604TIP3   OH234768   0.439   6.116   3.813
11604TIP3    H134769   0.469   6.072   3.893
11604TIP3    H234770   0.481   6.202   3.816
11605TIP3   OH234771   7.018   5.356   4.528
11605TIP3    H134772   6.976   5.370   4.442
11605TIP3    H234773   7.030   5.444   4.563
11606TIP3   OH234774   5.900   4.009   0.187
11606TIP3    H134775   5.887   4.084   0.129
11606TIP3    H234776   5.958   4.041   0.256
11607TIP3   OH234777   4.721   1.390   2.429
11607TIP3    H134778   4.636   1.362   2.462
11607TIP3    H234779   4.713   1.486   2.422
11608TIP3   OH234780   2.527   3.436   0.409
11608TIP3    H134781   2.615   3.450   0.445
11608TIP3    H234782   2.543   3.403   0.321
11609TIP3   OH234783   6.704   4.679   0.099
11609TIP3    H134784   6.715   4.587   0.123
11609TIP3    H234785   6.791   4.707   0.072
11610TIP3   OH234786   0.517   2.705   4.325
11610TIP3    H134787   0.587   2.718   4.261
11610TIP3    H234788   0.559   2.721   4.410
11611TIP3   OH234789   5.238   5.330   6.572
11611TIP3    H134790   5.193   5.254   6.609
11611TIP3    H234791   5.191   5.406   6.608
11612TIP3   OH234792   0.509   6.542   2.732
11612TIP3    H134793   0.429   6.576   2.693
11612TIP3    H234794   0.491   6.449   2.747
11613TIP3   OH234795   7.153   3.479   6.429
11613TIP3    H134796   7.157   3.572   6.409
11613TIP3    H234797   7.067   3.451   6.398
11614TIP3   OH234798   1.465   6.396   1.754
11614TIP3    H134799   1.545   6.373   1.707
11614TIP3    H234800   1.424   6.312   1.775
11615TIP3   OH234801   4.080   7.078   0.308
11615TIP3    H134802   4.138   7.028   0.365
11615TIP3    H234803   4.121   7.072   0.221
11616TIP3   OH234804   4.614   3.504   2.156
11616TIP3    H134805   4.580   3.589   2.184
11616TIP3    H234806   4.613   3.450   2.235
11617TIP3   OH234807   2.830   4.987   5.128
11617TIP3    H134808   2.739   5.003   5.151
11617TIP3    H234809   2.845   4.895   5.149
11618TIP3   OH234810   8.125   4.309   3.496
11618TIP3    H134811   8.188   4.266   3.439
11618TIP3    H234812   8.047   4.254   3.491
11619TIP3   OH234813   2.790   7.069   6.576
11619TIP3    H134814   2.838   7.144   6.611
11619TIP3    H234815   2.726   7.107   6.516
11620TIP3   OH234816   2.140   7.019   0.157
11620TIP3    H134817   2.067   6.971   0.118
11620TIP3    H234818   2.212   6.956   0.159
11621TIP3   OH234819   5.406   2.018   3.281
11621TIP3    H134820   5.335   1.976   3.329
11621TIP3    H234821   5.431   1.955   3.214
11622TIP3   OH234822   5.578   7.422   2.971
11622TIP3    H134823   5.633   7.424   2.892
11622TIP3    H234824   5.578   7.512   3.003
11623TIP3   OH234825   3.647   7.368   6.233
11623TIP3    H134826   3.687   7.396   6.315
11623TIP3    H234827   3.715   7.381   6.167
11624TIP3   OH234828   4.674   3.607   0.768
11624TIP3    H134829   4.766   3.633   0.766
11624TIP3    H234830   4.635   3.659   0.839
11625TIP3   OH234831   1.190   1.832   0.878
11625TIP3    H134832   1.267   1.781   0.853
11625TIP3    H234833   1.140   1.842   0.796
11626TIP3   OH234834   0.312   0.655   0.501
11626TIP3    H134835   0.301   0.674   0.407
11626TIP3    H234836   0.224   0.667   0.538
11627TIP3   OH234837   4.223   3.549   0.469
11627TIP3    H134838   4.309   3.517   0.441
11627TIP3    H234839   4.201   3.618   0.405
11628TIP3   OH234840   7.584   5.094   0.935
11628TIP3    H134841   7.639   5.172   0.948
11628TIP3    H234842   7.511   5.125   0.882
11629TIP3   OH234843   2.240   7.093   4.750
11629TIP3    H134844   2.264   7.175   4.708
11629TIP3    H234845   2.145   7.100   4.763
11630TIP3   OH234846   0.866   7.526   4.616
11630TIP3    H134847   0.793   7.465   4.606
11630TIP3    H234848   0.829   7.601   4.662
11631TIP3   OH234849   2.418   4.346   2.084
11631TIP3    H134850   2.424   4.405   2.159
11631TIP3    H234851   2.499   4.360   2.036
11632TIP3   OH234852   8.001   4.500   1.329
11632TIP3    H134853   7.983   4.446   1.406
11632TIP3    H234854   7.937   4.472   1.264
11633TIP3   OH234855   6.277   7.057   0.046
11633TIP3    H134856   6.271   7.012   0.131
11633TIP3    H234857   6.206   7.120   0.046
11634TIP3   OH234858   5.496   2.258   6.405
11634TIP3    H134859   5.404   2.234   6.404
11634TIP3    H234860   5.509   2.301   6.490
11635TIP3   OH234861   6.408   0.811   5.713
11635TIP3    H134862   6.412   0.860   5.631
11635TIP3    H234863   6.317   0.781   5.717
11636TIP3   OH234864   3.790   1.113   3.093
11636TIP3    H134865   3.781   1.060   3.014
11636TIP3    H234866   3.734   1.070   3.157
11637TIP3   OH234867   1.252   0.678   1.656
11637TIP3    H134868   1.324   0.631   1.699
11637TIP3    H234869   1.196   0.707   1.728
11638TIP3   OH234870   4.078   0.537   4.274
11638TIP3    H134871   4.068   0.472   4.205
11638TIP3    H234872   4.038   0.498   4.351
11639TIP3   OH234873   5.479   6.756   2.129
11639TIP3    H134874   5.548   6.691   2.121
11639TIP3    H234875   5.517   6.827   2.181
11640TIP3   OH234876   5.295   4.928   1.619
11640TIP3    H134877   5.237   4.869   1.667
11640TIP3    H234878   5.236   4.984   1.568
11641TIP3   OH234879   0.388   7.682   0.038
11641TIP3    H134880   0.358   7.701   0.127
11641TIP3    H234881   0.478   7.650   0.049
11642TIP3   OH234882   0.365   2.975   5.760
11642TIP3    H134883   0.377   3.069   5.752
11642TIP3    H234884   0.365   2.943   5.670
11643TIP3   OH234885   7.335   2.042   4.011
11643TIP3    H134886   7.403   2.095   4.052
11643TIP3    H234887   7.374   1.955   4.003
11644TIP3   OH234888   6.758   2.299   3.654
11644TIP3    H134889   6.799   2.243   3.719
11644TIP3    H234890   6.734   2.378   3.703
11645TIP3   OH234891   3.835   6.965   0.152
11645TIP3    H134892   3.821   6.980   0.245
11645TIP3    H234893   3.888   6.885   0.148
11646TIP3   OH234894   5.479   0.931   6.438
11646TIP3    H134895   5.482   0.967   6.526
11646TIP3    H234896   5.562   0.960   6.398
11647TIP3   OH234897   5.876   4.840   3.019
11647TIP3    H134898   5.804   4.813   2.962
11647TIP3    H234899   5.912   4.757   3.052
11648TIP3   OH234900   6.450   5.206   2.809
11648TIP3    H134901   6.361   5.174   2.824
11648TIP3    H234902   6.456   5.213   2.714
11649TIP3   OH234903   0.782   3.559   2.380
11649TIP3    H134904   0.832   3.630   2.420
11649TIP3    H234905   0.723   3.603   2.319
11650TIP3   OH234906   0.052   1.501   6.398
11650TIP3    H134907  -0.025   1.452   6.426
11650TIP3    H234908   0.070   1.468   6.309
11651TIP3   OH234909   6.532   1.999   5.692
11651TIP3    H134910   6.550   2.012   5.598
11651TIP3    H234911   6.501   2.084   5.722
11652TIP3   OH234912   7.635   0.864   0.824
11652TIP3    H134913   7.631   0.769   0.833
11652TIP3    H234914   7.640   0.897   0.913
11653TIP3   OH234915   3.189   5.467   2.173
11653TIP3    H134916   3.113   5.496   2.123
11653TIP3    H234917   3.264   5.498   2.123
11654TIP3   OH234918   6.008   7.475   5.721
11654TIP3    H134919   5.948   7.547   5.705
11654TIP3    H234920   6.087   7.517   5.755
11655TIP3   OH234921   8.084   4.172   2.364
11655TIP3    H134922   8.100   4.088   2.406
11655TIP3    H234923   8.137   4.234   2.415
11656TIP3   OH234924   5.452   0.633   2.399
11656TIP3    H134925   5.481   0.606   2.486
11656TIP3    H234926   5.382   0.572   2.377
11657TIP3   OH234927   5.123   3.065   3.035
11657TIP3    H134928   5.083   3.013   3.106
11657TIP3    H234929   5.211   3.029   3.026
11658TIP3   OH234930   4.460   7.419   3.117
11658TIP3    H134931   4.530   7.449   3.058
11658TIP3    H234932   4.422   7.499   3.152
11659TIP3   OH234933   1.577   5.763   2.741
11659TIP3    H134934   1.597   5.776   2.648
11659TIP3    H234935   1.590   5.669   2.755
11660TIP3   OH234936   3.590   6.561   0.050
11660TIP3    H134937   3.516   6.622   0.058
11660TIP3    H234938   3.627   6.580  -0.036
11661TIP3   OH234939   5.668   4.328   2.714
11661TIP3    H134940   5.660   4.289   2.801
11661TIP3    H234941   5.578   4.340   2.685
11662TIP3   OH234942   7.858   1.003   5.008
11662TIP3    H134943   7.890   1.063   4.941
11662TIP3    H234944   7.813   0.934   4.959
11663TIP3   OH234945   7.068   0.483   5.620
11663TIP3    H134946   7.040   0.426   5.547
11663TIP3    H234947   7.072   0.570   5.581
11664TIP3   OH234948   2.391   6.976   3.901
11664TIP3    H134949   2.302   6.996   3.873
11664TIP3    H234950   2.447   7.023   3.839
11665TIP3   OH234951   4.519   2.674   5.542
11665TIP3    H134952   4.455   2.740   5.572
11665TIP3    H234953   4.584   2.671   5.612
11666TIP3   OH234954   4.380   4.610   6.622
11666TIP3    H134955   4.344   4.647   6.702
11666TIP3    H234956   4.449   4.550   6.653
11667TIP3   OH234957   5.608   1.248   2.489
11667TIP3    H134958   5.565   1.175   2.444
11667TIP3    H234959   5.542   1.317   2.491
11668TIP3   OH234960   0.135   5.216   0.921
11668TIP3    H134961   0.203   5.206   0.854
11668TIP3    H234962   0.185   5.228   1.002
11669TIP3   OH234963   0.637   1.464   2.512
11669TIP3    H134964   0.581   1.389   2.491
11669TIP3    H234965   0.581   1.522   2.564
11670TIP3   OH234966   3.557   0.213   5.050
11670TIP3    H134967   3.543   0.219   4.955
11670TIP3    H234968   3.650   0.235   5.061
11671TIP3   OH234969   7.497   6.029   2.155
11671TIP3    H134970   7.537   5.959   2.103
11671TIP3    H234971   7.406   6.002   2.165
11672TIP3   OH234972   3.353   1.126   3.665
11672TIP3    H134973   3.436   1.167   3.688
11672TIP3    H234974   3.353   1.124   3.570
11673TIP3   OH234975   7.234   0.306   5.724
11673TIP3    H134976   7.200   0.375   5.668
11673TIP3    H234977   7.255   0.350   5.806
11674TIP3   OH234978   3.177   3.650   6.423
11674TIP3    H134979   3.127   3.608   6.493
11674TIP3    H234980   3.126   3.635   6.344
11675TIP3   OH234981   0.293   5.937   4.086
11675TIP3    H134982   0.334   5.962   4.168
11675TIP3    H234983   0.199   5.949   4.101
11676TIP3   OH234984   4.452   2.020   4.587
11676TIP3    H134985   4.424   2.096   4.638
11676TIP3    H234986   4.488   1.959   4.651
11677TIP3   OH234987   0.338   3.605   2.102
11677TIP3    H134988   0.257   3.556   2.089
11677TIP3    H234989   0.320   3.662   2.177
11678TIP3   OH234990   1.665   1.234   1.203
11678TIP3    H134991   1.632   1.251   1.115
11678TIP3    H234992   1.741   1.177   1.190
11679TIP3   OH234993   7.576   6.123   5.619
11679TIP3    H134994   7.497   6.126   5.565
11679TIP3    H234995   7.557   6.181   5.692
11680TIP3   OH234996   7.399   5.261   4.604
11680TIP3    H134997   7.441   5.345   4.588
11680TIP3    H234998   7.461   5.214   4.661
11681TIP3   OH234999   0.429   4.817   4.750
11681TIP3    H135000   0.423   4.891   4.811
11681TIP3    H235001   0.508   4.770   4.777
11682TIP3   OH235002   0.414   3.114   0.917
11682TIP3    H135003   0.470   3.042   0.885
11682TIP3    H235004   0.468   3.160   0.980
11683TIP3   OH235005   5.660   1.063   0.554
11683TIP3    H135006   5.700   1.083   0.469
11683TIP3    H235007   5.657   1.147   0.600
11684TIP3   OH235008   6.889   5.607   1.246
11684TIP3    H135009   6.874   5.562   1.329
11684TIP3    H235010   6.845   5.691   1.256
11685TIP3   OH235011   3.539   5.998   3.959
11685TIP3    H135012   3.597   5.996   3.884
11685TIP3    H235013   3.593   6.029   4.031
11686TIP3   OH235014   1.223   2.824   4.779
11686TIP3    H135015   1.168   2.749   4.759
11686TIP3    H235016   1.308   2.802   4.741
11687TIP3   OH235017   2.665   2.551   6.663
11687TIP3    H135018   2.621   2.625   6.707
11687TIP3    H235019   2.612   2.475   6.687
11688TIP3   OH235020   0.974   2.430   2.874
11688TIP3    H135021   1.066   2.410   2.893
11688TIP3    H235022   0.947   2.360   2.814
11689TIP3   OH235023   2.281   2.735   6.579
11689TIP3    H135024   2.221   2.727   6.653
11689TIP3    H235025   2.247   2.673   6.514
11690TIP3   OH235026   7.006   0.301   5.412
11690TIP3    H135027   7.041   0.229   5.464
11690TIP3    H235028   6.914   0.278   5.398
11691TIP3   OH235029   8.072   7.168   4.809
11691TIP3    H135030   8.061   7.076   4.835
11691TIP3    H235031   7.982   7.203   4.808
11692TIP3   OH235032   2.228   1.382   5.389
11692TIP3    H135033   2.299   1.322   5.364
11692TIP3    H235034   2.209   1.430   5.308
11693TIP3   OH235035   6.975   2.612   1.191
11693TIP3    H135036   6.984   2.641   1.100
11693TIP3    H235037   7.045   2.547   1.202
11694TIP3   OH235038   5.652   7.315   0.362
11694TIP3    H135039   5.708   7.392   0.349
11694TIP3    H235040   5.614   7.328   0.449
11695TIP3   OH235041  -0.013   6.992   2.742
11695TIP3    H135042   0.052   6.922   2.750
11695TIP3    H235043   0.039   7.072   2.735
11696TIP3   OH235044   4.235   7.653   6.487
11696TIP3    H135045   4.284   7.731   6.512
11696TIP3    H235046   4.256   7.639   6.395
11697TIP3   OH235047   6.033   6.490   6.679
11697TIP3    H135048   5.986   6.447   6.608
11697TIP3    H235049   5.967   6.544   6.723
11698TIP3   OH235050   1.969   7.528   5.208
11698TIP3    H135051   1.948   7.435   5.209
11698TIP3    H235052   2.036   7.539   5.276
11699TIP3   OH235053   1.154   0.691   6.327
11699TIP3    H135054   1.229   0.675   6.270
11699TIP3    H235055   1.190   0.744   6.399
11700TIP3   OH235056   4.471   1.747   1.622
11700TIP3    H135057   4.513   1.812   1.678
11700TIP3    H235058   4.507   1.663   1.651
11701TIP3   OH235059   8.146   0.702   6.595
11701TIP3    H135060   8.057   0.670   6.612
11701TIP3    H235061   8.198   0.671   6.669
11702TIP3   OH235062   7.381   5.023   2.921
11702TIP3    H135063   7.427   5.059   2.845
11702TIP3    H235064   7.431   4.946   2.945
11703TIP3   OH235065   0.977   0.929   0.694
11703TIP3    H135066   0.968   0.836   0.715
11703TIP3    H235067   0.944   0.936   0.604
11704TIP3   OH235068   3.640   3.063   1.557
11704TIP3    H135069   3.614   3.070   1.465
11704TIP3    H235070   3.731   3.090   1.559
11705TIP3   OH235071   6.600   1.242   0.079
11705TIP3    H135072   6.591   1.260  -0.014
11705TIP3    H235073   6.649   1.160   0.083
11706TIP3   OH235074   4.293   3.766   4.170
11706TIP3    H135075   4.311   3.717   4.089
11706TIP3    H235076   4.254   3.848   4.139
11707TIP3   OH235077   6.452   4.363   2.465
11707TIP3    H135078   6.479   4.327   2.550
11707TIP3    H235079   6.487   4.452   2.466
11708TIP3   OH235080   1.963   0.459   5.569
11708TIP3    H135081   2.035   0.522   5.570
11708TIP3    H235082   1.936   0.453   5.478
11709TIP3   OH235083   5.113   1.715   5.563
11709TIP3    H135084   5.033   1.669   5.537
11709TIP3    H235085   5.184   1.663   5.525
11710TIP3   OH235086   0.696   1.076   6.681
11710TIP3    H135087   0.722   1.038   6.765
11710TIP3    H235088   0.764   1.047   6.620
11711TIP3   OH235089   7.826   7.251   1.129
11711TIP3    H135090   7.875   7.253   1.046
11711TIP3    H235091   7.871   7.185   1.181
11712TIP3   OH235092   2.468   5.461   6.290
11712TIP3    H135093   2.504   5.542   6.254
11712TIP3    H235094   2.374   5.477   6.296
11713TIP3   OH235095   7.875   0.124   1.124
11713TIP3    H135096   7.896   0.094   1.212
11713TIP3    H235097   7.952   0.173   1.096
11714TIP3   OH235098   5.825   1.937   4.753
11714TIP3    H135099   5.884   1.874   4.794
11714TIP3    H235100   5.738   1.910   4.781
11715TIP3   OH235101   2.783   1.288   3.915
11715TIP3    H135102   2.709   1.298   3.974
11715TIP3    H235103   2.860   1.309   3.969
11716TIP3   OH235104   2.680   0.003   2.267
11716TIP3    H135105   2.623   0.067   2.225
11716TIP3    H235106   2.640  -0.011   2.353
11717TIP3   OH235107   5.562   0.543   5.972
11717TIP3    H135108   5.544   0.488   5.895
11717TIP3    H235109   5.481   0.592   5.986
11718TIP3   OH235110   7.800   6.319   2.526
11718TIP3    H135111   7.725   6.319   2.585
11718TIP3    H235112   7.870   6.361   2.576
11719TIP3   OH235113   6.228   7.370   6.265
11719TIP3    H135114   6.270   7.328   6.191
11719TIP3    H235115   6.259   7.461   6.262
11720TIP3   OH235116   0.654   1.342   4.219
11720TIP3    H135117   0.564   1.333   4.190
11720TIP3    H235118   0.663   1.433   4.245
11721TIP3   OH235119   6.415   7.101   5.287
11721TIP3    H135120   6.327   7.128   5.261
11721TIP3    H235121   6.473   7.165   5.246
11722TIP3   OH235122   3.732   5.145   1.331
11722TIP3    H135123   3.770   5.065   1.368
11722TIP3    H235124   3.736   5.208   1.402
11723TIP3   OH235125   4.835   0.091   5.191
11723TIP3    H135126   4.840   0.168   5.247
11723TIP3    H235127   4.926   0.076   5.163
11724TIP3   OH235128   6.076   3.194   3.093
11724TIP3    H135129   6.141   3.264   3.098
11724TIP3    H235130   6.050   3.178   3.184
11725TIP3   OH235131   8.014   3.443   0.209
11725TIP3    H135132   7.980   3.355   0.191
11725TIP3    H235133   7.945   3.485   0.260
11726TIP3   OH235134   0.141   4.759   6.614
11726TIP3    H135135   0.108   4.800   6.535
11726TIP3    H235136   0.065   4.716   6.653
11727TIP3   OH235137   1.660   7.222   1.823
11727TIP3    H135138   1.624   7.139   1.791
11727TIP3    H235139   1.647   7.283   1.751
11728TIP3   OH235140   1.133   2.090   3.185
11728TIP3    H135141   1.128   2.127   3.273
11728TIP3    H235142   1.187   2.012   3.195
11729TIP3   OH235143   1.390   2.462   2.340
11729TIP3    H135144   1.353   2.521   2.274
11729TIP3    H235145   1.318   2.403   2.362
11730TIP3   OH235146   4.063   0.419   5.742
11730TIP3    H135147   4.086   0.335   5.782
11730TIP3    H235148   3.967   0.418   5.738
11731TIP3   OH235149   5.807   4.692   5.883
11731TIP3    H135150   5.813   4.758   5.813
11731TIP3    H235151   5.847   4.614   5.846
11732TIP3   OH235152   7.506   4.771   4.562
11732TIP3    H135153   7.436   4.814   4.611
11732TIP3    H235154   7.491   4.677   4.577
11733TIP3   OH235155   4.558   3.030   1.728
11733TIP3    H135156   4.534   2.951   1.777
11733TIP3    H235157   4.539   3.102   1.787
11734TIP3   OH235158   5.512   7.385   5.491
11734TIP3    H135159   5.561   7.467   5.500
11734TIP3    H235160   5.579   7.318   5.475
11735TIP3   OH235161   0.166   1.213   0.888
11735TIP3    H135162   0.114   1.146   0.932
11735TIP3    H235163   0.139   1.209   0.796
11736TIP3   OH235164   2.376   5.312   4.569
11736TIP3    H135165   2.354   5.362   4.647
11736TIP3    H235166   2.469   5.326   4.555
11737TIP3   OH235167   5.244   6.427   0.188
11737TIP3    H135168   5.293   6.351   0.156
11737TIP3    H235169   5.258   6.494   0.121
11738TIP3   OH235170   0.864   5.237   4.006
11738TIP3    H135171   0.859   5.315   3.951
11738TIP3    H235172   0.893   5.270   4.091
11739TIP3   OH235173   5.686   0.200   1.270
11739TIP3    H135174   5.610   0.142   1.267
11739TIP3    H235175   5.746   0.158   1.332
11740TIP3   OH235176   3.247   6.047   2.033
11740TIP3    H135177   3.309   6.114   2.005
11740TIP3    H235178   3.169   6.062   1.979
11741TIP3   OH235179   3.141   0.000   5.900
11741TIP3    H135180   3.049   0.000   5.926
11741TIP3    H235181   3.143   0.054   5.820
11742TIP3   OH235182   4.439   7.606   6.780
11742TIP3    H135183   4.473   7.520   6.753
11742TIP3    H235184   4.509   7.667   6.758
11743TIP3   OH235185   3.456   1.902   1.510
11743TIP3    H135186   3.492   1.953   1.437
11743TIP3    H235187   3.528   1.896   1.573
11744TIP3   OH235188   6.635   6.591   1.755
11744TIP3    H135189   6.552   6.556   1.721
11744TIP3    H235190   6.695   6.516   1.753
11745TIP3   OH235191   3.855   0.335   2.743
11745TIP3    H135192   3.805   0.267   2.787
11745TIP3    H235193   3.805   0.415   2.757
11746TIP3   OH235194   7.094   2.765   6.607
11746TIP3    H135195   7.152   2.839   6.627
11746TIP3    H235196   7.118   2.698   6.671
11747TIP3   OH235197   3.297   2.972   2.005
11747TIP3    H135198   3.346   2.896   1.973
11747TIP3    H235199   3.345   3.001   2.082
11748TIP3   OH235200   2.955   5.731   1.388
11748TIP3    H135201   2.950   5.669   1.315
11748TIP3    H235202   2.883   5.708   1.446
11749TIP3   OH235203   0.465   0.232   0.134
11749TIP3    H135204   0.445   0.139   0.148
11749TIP3    H235205   0.411   0.277   0.199
11750TIP3   OH235206   2.699   2.562   2.365
11750TIP3    H135207   2.732   2.575   2.455
11750TIP3    H235208   2.705   2.468   2.351
11751TIP3   OH235209   5.478   6.672   1.817
11751TIP3    H135210   5.560   6.692   1.861
11751TIP3    H235211   5.443   6.596   1.863
11752TIP3   OH235212   5.284   1.539   0.258
11752TIP3    H135213   5.219   1.549   0.328
11752TIP3    H235214   5.364   1.579   0.293
11753TIP3   OH235215   1.049   5.475   3.185
11753TIP3    H135216   1.058   5.452   3.093
11753TIP3    H235217   1.127   5.527   3.205
11754TIP3   OH235218   6.032   1.321   4.686
11754TIP3    H135219   6.014   1.389   4.752
11754TIP3    H235220   5.961   1.258   4.698
11755TIP3   OH235221   2.351   7.101   4.156
11755TIP3    H135222   2.360   7.082   4.062
11755TIP3    H235223   2.351   7.196   4.162
11756TIP3   OH235224   6.927   7.174   6.087
11756TIP3    H135225   6.864   7.102   6.090
11756TIP3    H235226   6.888   7.237   6.026
11757TIP3   OH235227   2.726   1.354   2.319
11757TIP3    H135228   2.733   1.264   2.286
11757TIP3    H235229   2.805   1.397   2.289
11758TIP3   OH235230   2.574   2.016   4.123
11758TIP3    H135231   2.617   1.938   4.159
11758TIP3    H235232   2.536   2.059   4.200
11759TIP3   OH235233   2.062   6.162   1.354
11759TIP3    H135234   2.066   6.097   1.424
11759TIP3    H235235   2.139   6.217   1.366
11760TIP3   OH235236   7.715   3.735   3.660
11760TIP3    H135237   7.769   3.790   3.602
11760TIP3    H235238   7.758   3.650   3.659
11761TIP3   OH235239   0.302   7.085   2.926
11761TIP3    H135240   0.359   7.160   2.912
11761TIP3    H235241   0.214   7.122   2.934
11762TIP3   OH235242   3.023   6.653   3.350
11762TIP3    H135243   3.067   6.738   3.358
11762TIP3    H235244   2.989   6.652   3.261
11763TIP3   OH235245   1.589   0.212   0.024
11763TIP3    H135246   1.612   0.287   0.078
11763TIP3    H235247   1.613   0.135   0.077
11764TIP3   OH235248   8.245   6.410   2.809
11764TIP3    H135249   8.289   6.325   2.808
11764TIP3    H235250   8.311   6.472   2.778
11765TIP3   OH235251   3.187   3.507   2.003
11765TIP3    H135252   3.246   3.441   1.967
11765TIP3    H235253   3.108   3.459   2.027
11766TIP3   OH235254   3.638   2.327   0.658
11766TIP3    H135255   3.624   2.415   0.694
11766TIP3    H235256   3.718   2.335   0.607
11767TIP3   OH235257   1.630   6.821   2.201
11767TIP3    H135258   1.608   6.822   2.108
11767TIP3    H235259   1.690   6.895   2.213
11768TIP3   OH235260   2.222   6.490   6.520
11768TIP3    H135261   2.215   6.441   6.438
11768TIP3    H235262   2.317   6.498   6.534
11769TIP3   OH235263   4.923   4.800   3.720
11769TIP3    H135264   5.014   4.775   3.737
11769TIP3    H235265   4.910   4.783   3.627
11770TIP3   OH235266   2.312   7.343   0.396
11770TIP3    H135267   2.339   7.334   0.488
11770TIP3    H235268   2.349   7.426   0.368
11771TIP3   OH235269   3.716   6.945   6.110
11771TIP3    H135270   3.662   6.998   6.051
11771TIP3    H235271   3.687   6.970   6.198
11772TIP3   OH235272   4.261  -0.029   3.211
11772TIP3    H135273   4.347  -0.026   3.170
11772TIP3    H235274   4.267   0.031   3.285
11773TIP3   OH235275   7.219   5.010   2.151
11773TIP3    H135276   7.194   5.092   2.109
11773TIP3    H235277   7.314   5.004   2.137
11774TIP3   OH235278   5.424   2.217   2.659
11774TIP3    H135279   5.348   2.162   2.641
11774TIP3    H235280   5.429   2.219   2.755
11775TIP3   OH235281   6.739   1.370   5.152
11775TIP3    H135282   6.751   1.275   5.150
11775TIP3    H235283   6.825   1.404   5.177
11776TIP3   OH235284   2.482   4.470   0.273
11776TIP3    H135285   2.513   4.542   0.219
11776TIP3    H235286   2.547   4.400   0.260
11777TIP3   OH235287   7.297   0.849   0.894
11777TIP3    H135288   7.365   0.854   0.961
11777TIP3    H235289   7.343   0.827   0.813
11778TIP3   OH235290   7.696   0.665   4.147
11778TIP3    H135291   7.744   0.687   4.068
11778TIP3    H235292   7.751   0.696   4.219
11779TIP3   OH235293   1.953   2.302   3.248
11779TIP3    H135294   1.909   2.219   3.268
11779TIP3    H235295   1.936   2.357   3.325
11780TIP3   OH235296   3.674   5.581   2.498
11780TIP3    H135297   3.701   5.490   2.485
11780TIP3    H235298   3.583   5.583   2.469
11781TIP3   OH235299   5.249   3.369   6.608
11781TIP3    H135300   5.334   3.326   6.611
11781TIP3    H235301   5.188   3.308   6.649
11782TIP3   OH235302   6.869   7.472   0.960
11782TIP3    H135303   6.959   7.451   0.936
11782TIP3    H235304   6.862   7.567   0.946
11783TIP3   OH235305   0.768   7.625   1.039
11783TIP3    H135306   0.733   7.706   1.076
11783TIP3    H235307   0.696   7.563   1.044
11784TIP3   OH235308   2.731   6.307   1.384
11784TIP3    H135309   2.653   6.266   1.422
11784TIP3    H235310   2.752   6.252   1.309
11785TIP3   OH235311   6.191   7.178   2.473
11785TIP3    H135312   6.242   7.172   2.554
11785TIP3    H235313   6.219   7.261   2.434
11786TIP3   OH235314   4.045   1.787   0.932
11786TIP3    H135315   4.109   1.723   0.962
11786TIP3    H235316   3.973   1.780   0.995
11787TIP3   OH235317   2.549   4.501   2.757
11787TIP3    H135318   2.505   4.456   2.829
11787TIP3    H235319   2.572   4.432   2.695
11788TIP3   OH235320   2.890   1.852   1.925
11788TIP3    H135321   2.911   1.929   1.873
11788TIP3    H235322   2.939   1.863   2.007
11789TIP3   OH235323   4.558   2.445   4.161
11789TIP3    H135324   4.523   2.528   4.193
11789TIP3    H235325   4.570   2.459   4.067
11790TIP3   OH235326   3.863   5.200   0.627
11790TIP3    H135327   3.916   5.121   0.633
11790TIP3    H235328   3.773   5.170   0.634
11791TIP3   OH235329   4.544   1.805   6.294
11791TIP3    H135330   4.487   1.774   6.224
11791TIP3    H235331   4.487   1.858   6.350
11792TIP3   OH235332   3.106   1.415   1.440
11792TIP3    H135333   3.200   1.411   1.426
11792TIP3    H235334   3.078   1.493   1.393
11793TIP3   OH235335   6.975   2.194   1.299
11793TIP3    H135336   6.896   2.242   1.275
11793TIP3    H235337   7.008   2.159   1.217
11794TIP3   OH235338   0.251   6.045   6.033
11794TIP3    H135339   0.337   6.026   5.995
11794TIP3    H235340   0.267   6.051   6.127
11795TIP3   OH235341   7.278   5.279   4.139
11795TIP3    H135342   7.241   5.352   4.090
11795TIP3    H235343   7.299   5.214   4.073
11796TIP3   OH235344   5.433   4.454   1.194
11796TIP3    H135345   5.399   4.455   1.283
11796TIP3    H235346   5.354   4.455   1.139
11797TIP3   OH235347   2.426   1.988   3.537
11797TIP3    H135348   2.365   1.951   3.602
11797TIP3    H235349   2.467   2.062   3.583
11798TIP3   OH235350   1.026   2.705   2.900
11798TIP3    H135351   1.120   2.715   2.887
11798TIP3    H235352   1.008   2.613   2.881
11799TIP3   OH235353   7.382   2.151   5.024
11799TIP3    H135354   7.367   2.108   5.108
11799TIP3    H235355   7.456   2.209   5.040
11800TIP3   OH235356   6.893   7.729   0.865
11800TIP3    H135357   6.807   7.743   0.826
11800TIP3    H235358   6.955   7.752   0.796
11801TIP3   OH235359   7.925   3.548   1.465
11801TIP3    H135360   7.933   3.507   1.551
11801TIP3    H235361   7.856   3.499   1.421
11802TIP3   OH235362   8.167   6.217   4.300
11802TIP3    H135363   8.235   6.242   4.237
11802TIP3    H235364   8.216   6.193   4.379
11803TIP3   OH235365   5.591   3.012   5.924
11803TIP3    H135366   5.685   3.006   5.907
11803TIP3    H235367   5.559   3.074   5.858
11804TIP3   OH235368   7.880   2.209   5.741
11804TIP3    H135369   7.933   2.250   5.809
11804TIP3    H235370   7.835   2.282   5.699
11805TIP3   OH235371   6.374   3.206   1.641
11805TIP3    H135372   6.314   3.163   1.703
11805TIP3    H235373   6.400   3.287   1.685
11806TIP3   OH235374   7.968   0.965   0.839
11806TIP3    H135375   7.918   1.037   0.878
11806TIP3    H235376   7.975   0.988   0.746
11807TIP3   OH235377   5.030   3.264   2.542
11807TIP3    H135378   5.070   3.350   2.554
11807TIP3    H235379   5.045   3.219   2.625
11808TIP3   OH235380   1.077   0.769   3.621
11808TIP3    H135381   1.112   0.816   3.696
11808TIP3    H235382   1.137   0.789   3.549
11809TIP3   OH235383   3.796   4.374   5.780
11809TIP3    H135384   3.751   4.456   5.800
11809TIP3    H235385   3.813   4.334   5.865
11810TIP3   OH235386   7.227   5.951   1.605
11810TIP3    H135387   7.144   5.993   1.584
11810TIP3    H235388   7.287   6.024   1.620
11811TIP3   OH235389   7.169   7.768   0.132
11811TIP3    H135390   7.146   7.763   0.225
11811TIP3    H235391   7.102   7.716   0.088
11812TIP3   OH235392   4.972   6.633   6.755
11812TIP3    H135393   5.010   6.554   6.717
11812TIP3    H235394   5.026   6.652   6.832
11813TIP3   OH235395   6.508   0.642   1.561
11813TIP3    H135396   6.603   0.643   1.548
11813TIP3    H235397   6.480   0.555   1.532
11814TIP3   OH235398   4.141   7.372   4.067
11814TIP3    H135399   4.236   7.363   4.073
11814TIP3    H235400   4.127   7.464   4.042
11815TIP3   OH235401   8.100   5.200   2.148
11815TIP3    H135402   8.100   5.119   2.200
11815TIP3    H235403   8.034   5.255   2.190
11816TIP3   OH235404   2.884   7.611   3.214
11816TIP3    H135405   2.973   7.582   3.192
11816TIP3    H235406   2.877   7.597   3.309
11817TIP3   OH235407   0.877   7.525   2.720
11817TIP3    H135408   0.792   7.513   2.679
11817TIP3    H235409   0.899   7.438   2.754
11818TIP3   OH235410   5.406   4.405   5.258
11818TIP3    H135411   5.413   4.454   5.340
11818TIP3    H235412   5.357   4.326   5.281
11819TIP3   OH235413   8.089   0.875   4.794
11819TIP3    H135414   8.022   0.938   4.770
11819TIP3    H235415   8.125   0.845   4.711
11820TIP3   OH235416   4.974   1.122   1.386
11820TIP3    H135417   4.998   1.167   1.306
11820TIP3    H235418   5.039   1.151   1.451
11821TIP3   OH235419   7.383   0.582   4.454
11821TIP3    H135420   7.359   0.629   4.373
11821TIP3    H235421   7.444   0.641   4.498
11822TIP3   OH235422   6.980   5.890   2.174
11822TIP3    H135423   6.919   5.937   2.229
11822TIP3    H235424   6.985   5.802   2.213
11823TIP3   OH235425   1.281   7.618   1.627
11823TIP3    H135426   1.269   7.631   1.722
11823TIP3    H235427   1.201   7.575   1.598
11824TIP3   OH235428   3.694   2.265   3.393
11824TIP3    H135429   3.742   2.331   3.443
11824TIP3    H235430   3.753   2.190   3.390
11825TIP3   OH235431   7.109   1.322   3.158
11825TIP3    H135432   7.155   1.274   3.227
11825TIP3    H235433   7.017   1.308   3.176
11826TIP3   OH235434   7.159   3.232   0.412
11826TIP3    H135435   7.250   3.259   0.395
11826TIP3    H235436   7.159   3.138   0.395
11827TIP3   OH235437   6.980   7.388   1.757
11827TIP3    H135438   7.046   7.332   1.799
11827TIP3    H235439   6.952   7.447   1.827
11828TIP3   OH235440   8.138   2.736   3.907
11828TIP3    H135441   8.115   2.827   3.925
11828TIP3    H235442   8.105   2.688   3.983
11829TIP3   OH235443   0.077   6.817   5.492
11829TIP3    H135444   0.139   6.837   5.562
11829TIP3    H235445   0.120   6.748   5.441
11830TIP3   OH235446   6.061   6.536   6.188
11830TIP3    H135447   6.079   6.446   6.162
11830TIP3    H235448   5.997   6.567   6.123
11831TIP3   OH235449   4.982   2.763   0.987
11831TIP3    H135450   4.913   2.761   0.921
11831TIP3    H235451   5.005   2.855   0.996
11832TIP3   OH235452   5.164   2.542   3.451
11832TIP3    H135453   5.146   2.559   3.359
11832TIP3    H235454   5.138   2.622   3.496
11833TIP3   OH235455   7.681   5.326   5.905
11833TIP3    H135456   7.711   5.269   5.834
11833TIP3    H235457   7.693   5.415   5.870
11834TIP3   OH235458   2.696   5.847   0.265
11834TIP3    H135459   2.709   5.754   0.246
11834TIP3    H235460   2.691   5.889   0.179
11835TIP3   OH235461   6.836   5.593   2.890
11835TIP3    H135462   6.782   5.662   2.850
11835TIP3    H235463   6.822   5.604   2.984
11836TIP3   OH235464   7.921   2.254   0.401
11836TIP3    H135465   7.847   2.201   0.370
11836TIP3    H235466   7.905   2.264   0.495
11837TIP3   OH235467   4.127   2.581   1.795
11837TIP3    H135468   4.053   2.639   1.814
11837TIP3    H235469   4.100   2.497   1.831
11838TIP3   OH235470   6.049   6.852   6.741
11838TIP3    H135471   6.013   6.866   6.653
11838TIP3    H235472   6.138   6.884   6.736
11839TIP3   OH235473   6.926   1.836   2.698
11839TIP3    H135474   6.855   1.782   2.663
11839TIP3    H235475   6.929   1.913   2.641
11840TIP3   OH235476   2.844   3.964   5.409
11840TIP3    H135477   2.762   3.961   5.360
11840TIP3    H235478   2.827   3.913   5.488
11841TIP3   OH235479   4.670   4.572   3.480
11841TIP3    H135480   4.746   4.631   3.484
11841TIP3    H235481   4.602   4.624   3.437
11842TIP3   OH235482   5.025   7.019   6.430
11842TIP3    H135483   5.032   7.114   6.422
11842TIP3    H235484   5.021   7.004   6.525
11843TIP3   OH235485   1.862   7.261   6.232
11843TIP3    H135486   1.820   7.188   6.278
11843TIP3    H235487   1.895   7.317   6.302
11844TIP3   OH235488   4.461   2.787   1.847
11844TIP3    H135489   4.385   2.730   1.858
11844TIP3    H235490   4.485   2.812   1.936
11845TIP3   OH235491   4.208   2.824   4.351
11845TIP3    H135492   4.124   2.794   4.317
11845TIP3    H235493   4.267   2.822   4.276
11846TIP3   OH235494   0.263   7.164   6.549
11846TIP3    H135495   0.326   7.115   6.602
11846TIP3    H235496   0.191   7.184   6.609
11847TIP3   OH235497   1.083   4.006   3.148
11847TIP3    H135498   1.062   3.917   3.177
11847TIP3    H235499   1.144   4.039   3.215
11848TIP3   OH235500   3.404   0.995   1.077
11848TIP3    H135501   3.459   1.004   0.999
11848TIP3    H235502   3.323   1.041   1.054
11849TIP3   OH235503   7.535   4.142   4.207
11849TIP3    H135504   7.538   4.235   4.188
11849TIP3    H235505   7.469   4.132   4.275
11850TIP3   OH235506   4.362   1.912   6.452
11850TIP3    H135507   4.345   1.850   6.523
11850TIP3    H235508   4.276   1.946   6.428
11851TIP3   OH235509   5.758   4.969   2.078
11851TIP3    H135510   5.770   4.911   2.003
11851TIP3    H235511   5.736   4.911   2.150
11852TIP3   OH235512   3.435   1.212   4.899
11852TIP3    H135513   3.521   1.204   4.859
11852TIP3    H235514   3.449   1.192   4.992
11853TIP3   OH235515   8.037   0.729   0.923
11853TIP3    H135516   8.021   0.810   0.873
11853TIP3    H235517   8.094   0.756   0.995
11854TIP3   OH235518   4.508   7.685   1.028
11854TIP3    H135519   4.481   7.768   1.068
11854TIP3    H235520   4.432   7.656   0.978
11855TIP3   OH235521   4.074   6.287   0.365
11855TIP3    H135522   4.115   6.310   0.449
11855TIP3    H235523   4.043   6.371   0.331
11856TIP3   OH235524   4.516   4.301   0.217
11856TIP3    H135525   4.500   4.243   0.292
11856TIP3    H235526   4.528   4.388   0.256
11857TIP3   OH235527   5.247   2.091   1.314
11857TIP3    H135528   5.319   2.088   1.251
11857TIP3    H235529   5.280   2.147   1.385
11858TIP3   OH235530   2.423   3.723   0.775
11858TIP3    H135531   2.418   3.736   0.870
11858TIP3    H235532   2.390   3.805   0.738
11859TIP3   OH235533   2.655   5.395   0.055
11859TIP3    H135534   2.637   5.321   0.114
11859TIP3    H235535   2.626   5.364  -0.031
11860TIP3   OH235536   3.401   0.982   2.792
11860TIP3    H135537   3.428   1.070   2.765
11860TIP3    H235538   3.461   0.924   2.744
11861TIP3   OH235539   8.297   2.170   5.463
11861TIP3    H135540   8.368   2.230   5.442
11861TIP3    H235541   8.250   2.212   5.535
11862TIP3   OH235542   2.487   5.149   4.104
11862TIP3    H135543   2.409   5.095   4.116
11862TIP3    H235544   2.458   5.238   4.123
11863TIP3   OH235545   6.974   7.788   0.413
11863TIP3    H135546   6.951   7.873   0.451
11863TIP3    H235547   7.059   7.767   0.450
11864TIP3   OH235548   4.063   4.084   6.250
11864TIP3    H135549   4.058   4.004   6.302
11864TIP3    H235550   3.981   4.129   6.268
11865TIP3   OH235551   6.753   1.561   3.157
11865TIP3    H135552   6.823   1.594   3.213
11865TIP3    H235553   6.734   1.473   3.190
11866TIP3   OH235554   5.781   6.695   0.259
11866TIP3    H135555   5.759   6.621   0.315
11866TIP3    H235556   5.714   6.695   0.190
11867TIP3   OH235557   3.879   1.220   6.027
11867TIP3    H135558   3.867   1.126   6.040
11867TIP3    H235559   3.866   1.258   6.114
11868TIP3   OH235560   8.155   6.308   5.356
11868TIP3    H135561   8.241   6.299   5.397
11868TIP3    H235562   8.099   6.248   5.405
11869TIP3   OH235563   6.427   1.440   5.671
11869TIP3    H135564   6.396   1.503   5.736
11869TIP3    H235565   6.485   1.491   5.614
11870TIP3   OH235566   4.290   5.992   0.308
11870TIP3    H135567   4.306   5.967   0.217
11870TIP3    H235568   4.201   5.961   0.326
11871TIP3   OH235569   6.260   4.691   1.026
11871TIP3    H135570   6.320   4.755   0.986
11871TIP3    H235571   6.205   4.744   1.083
11872TIP3   OH235572   5.614   2.786   2.905
11872TIP3    H135573   5.544   2.722   2.889
11872TIP3    H235574   5.630   2.827   2.820
11873TIP3   OH235575   1.756   1.815   5.910
11873TIP3    H135576   1.713   1.836   5.994
11873TIP3    H235577   1.734   1.723   5.894
11874TIP3   OH235578   1.733   3.582   5.853
11874TIP3    H135579   1.702   3.647   5.916
11874TIP3    H235580   1.826   3.602   5.841
11875TIP3   OH235581   0.424   3.616   5.653
11875TIP3    H135582   0.439   3.613   5.748
11875TIP3    H235583   0.459   3.701   5.626
11876TIP3   OH235584   3.627   0.959   6.480
11876TIP3    H135585   3.545   0.933   6.523
11876TIP3    H235586   3.602   0.979   6.390
11877TIP3   OH235587   6.093   2.934   4.301
11877TIP3    H135588   6.164   2.871   4.303
11877TIP3    H235589   6.091   2.971   4.390
11878TIP3   OH235590   4.920   4.358   6.503
11878TIP3    H135591   5.014   4.373   6.493
11878TIP3    H235592   4.909   4.264   6.486
11879TIP3   OH235593   0.126   6.604   3.393
11879TIP3    H135594   0.034   6.586   3.376
11879TIP3    H235595   0.142   6.569   3.480
11880TIP3   OH235596   4.994   3.673   6.265
11880TIP3    H135597   5.056   3.641   6.331
11880TIP3    H235598   4.921   3.610   6.268
11881TIP3   OH235599   7.273   4.028   2.549
11881TIP3    H135600   7.252   4.010   2.641
11881TIP3    H235601   7.366   4.006   2.541
11882TIP3   OH235602   8.139   2.282   2.603
11882TIP3    H135603   8.139   2.191   2.633
11882TIP3    H235604   8.229   2.298   2.577
11883TIP3   OH235605   0.688   6.958   1.801
11883TIP3    H135606   0.755   7.026   1.808
11883TIP3    H235607   0.642   6.961   1.886
11884TIP3   OH235608   1.387   3.852   3.741
11884TIP3    H135609   1.375   3.761   3.769
11884TIP3    H235610   1.434   3.893   3.814
11885TIP3   OH235611   7.418   4.276   5.671
11885TIP3    H135612   7.452   4.349   5.722
11885TIP3    H235613   7.364   4.227   5.732
11886TIP3   OH235614   1.476   5.648   2.475
11886TIP3    H135615   1.475   5.699   2.395
11886TIP3    H235616   1.400   5.679   2.525
11887TIP3   OH235617   6.129   0.891   5.308
11887TIP3    H135618   6.222   0.908   5.294
11887TIP3    H235619   6.102   0.958   5.370
11888TIP3   OH235620   3.527   1.173   5.164
11888TIP3    H135621   3.582   1.099   5.188
11888TIP3    H235622   3.458   1.174   5.231
11889TIP3   OH235623   6.293   0.648   0.512
11889TIP3    H135624   6.286   0.717   0.578
11889TIP3    H235625   6.203   0.627   0.490
11890TIP3   OH235626   5.909   4.172   2.627
11890TIP3    H135627   5.833   4.208   2.673
11890TIP3    H235628   5.956   4.248   2.593
11891TIP3   OH235629   2.826   5.622   4.787
11891TIP3    H135630   2.832   5.587   4.698
11891TIP3    H235631   2.794   5.550   4.840
11892TIP3   OH235632   6.984   1.360   0.995
11892TIP3    H135633   6.953   1.440   0.953
11892TIP3    H235634   7.003   1.300   0.923
11893TIP3   OH235635   4.474   6.664   1.334
11893TIP3    H135636   4.489   6.751   1.296
11893TIP3    H235637   4.497   6.674   1.426
11894TIP3   OH235638   1.605   1.790   4.665
11894TIP3    H135639   1.618   1.837   4.582
11894TIP3    H235640   1.633   1.853   4.732
11895TIP3   OH235641   7.219   5.303   0.747
11895TIP3    H135642   7.142   5.271   0.794
11895TIP3    H235643   7.256   5.369   0.806
11896TIP3   OH235644   1.083   3.015   1.866
11896TIP3    H135645   1.138   2.996   1.942
11896TIP3    H235646   1.136   3.075   1.813
11897TIP3   OH235647   1.725   3.646   2.649
11897TIP3    H135648   1.754   3.697   2.725
11897TIP3    H235649   1.783   3.672   2.578
11898TIP3   OH235650   3.633   4.233   0.261
11898TIP3    H135651   3.611   4.282   0.341
11898TIP3    H235652   3.673   4.153   0.294
11899TIP3   OH235653   1.836   2.799   5.500
11899TIP3    H135654   1.761   2.740   5.510
11899TIP3    H235655   1.844   2.812   5.405
11900TIP3   OH235656   0.035   2.119   0.945
11900TIP3    H135657   0.041   2.095   1.038
11900TIP3    H235658  -0.020   2.197   0.944
11901TIP3   OH235659   6.771   7.228   0.441
11901TIP3    H135660   6.828   7.155   0.466
11901TIP3    H235661   6.686   7.208   0.480
11902TIP3   OH235662   5.450   6.929   4.004
11902TIP3    H135663   5.463   7.010   3.954
11902TIP3    H235664   5.539   6.904   4.031
11903TIP3   OH235665   7.048   4.645   3.227
11903TIP3    H135666   7.068   4.684   3.143
11903TIP3    H235667   7.133   4.631   3.269
11904TIP3   OH235668   4.682   4.409   6.341
11904TIP3    H135669   4.766   4.408   6.387
11904TIP3    H235670   4.685   4.488   6.286
11905TIP3   OH235671   4.303   7.152   1.683
11905TIP3    H135672   4.358   7.087   1.640
11905TIP3    H235673   4.250   7.102   1.745
11906TIP3   OH235674   2.758   1.857   6.654
11906TIP3    H135675   2.835   1.878   6.708
11906TIP3    H235676   2.751   1.761   6.660
11907TIP3   OH235677   3.388   5.437   0.891
11907TIP3    H135678   3.467   5.384   0.887
11907TIP3    H235679   3.324   5.391   0.836
11908TIP3   OH235680   7.252   2.986   3.068
11908TIP3    H135681   7.189   2.982   2.996
11908TIP3    H235682   7.281   3.077   3.069
11909TIP3   OH235683   6.249   5.239   6.330
11909TIP3    H135684   6.259   5.298   6.255
11909TIP3    H235685   6.252   5.151   6.292
11910TIP3   OH235686   0.052   3.739   0.962
11910TIP3    H135687   0.016   3.811   0.910
11910TIP3    H235688   0.123   3.780   1.013
11911TIP3   OH235689   6.394   4.453   5.137
11911TIP3    H135690   6.393   4.389   5.209
11911TIP3    H235691   6.378   4.537   5.180
11912TIP3   OH235692   0.472   6.688   5.858
11912TIP3    H135693   0.470   6.607   5.910
11912TIP3    H235694   0.549   6.679   5.802
11913TIP3   OH235695   4.504   4.330   0.862
11913TIP3    H135696   4.435   4.265   0.850
11913TIP3    H235697   4.528   4.357   0.773
11914TIP3   OH235698   4.989   2.907   6.459
11914TIP3    H135699   4.940   2.854   6.522
11914TIP3    H235700   4.936   2.906   6.380
11915TIP3   OH235701   0.238   0.044   5.867
11915TIP3    H135702   0.224   0.046   5.962
11915TIP3    H235703   0.274   0.131   5.847
11916TIP3   OH235704   0.762   2.838   4.807
11916TIP3    H135705   0.793   2.848   4.897
11916TIP3    H235706   0.668   2.822   4.815
11917TIP3   OH235707   0.443   1.628   1.456
11917TIP3    H135708   0.475   1.566   1.390
11917TIP3    H235709   0.490   1.709   1.438
11918TIP3   OH235710   5.160   4.460   1.122
11918TIP3    H135711   5.091   4.410   1.078
11918TIP3    H235712   5.164   4.543   1.075
11919TIP3   OH235713   3.316   0.308   0.543
11919TIP3    H135714   3.381   0.316   0.613
11919TIP3    H235715   3.254   0.379   0.559
11920TIP3   OH235716   7.487   4.107   3.096
11920TIP3    H135717   7.464   4.108   3.004
11920TIP3    H235718   7.579   4.134   3.098
11921TIP3   OH235719   3.385   0.525   2.639
11921TIP3    H135720   3.311   0.531   2.579
11921TIP3    H235721   3.378   0.437   2.677
11922TIP3   OH235722   4.503   0.684   0.540
11922TIP3    H135723   4.488   0.670   0.633
11922TIP3    H235724   4.598   0.696   0.532
11923TIP3   OH235725   5.592   1.560   4.524
11923TIP3    H135726   5.664   1.565   4.587
11923TIP3    H235727   5.585   1.649   4.489
11924TIP3   OH235728   7.879   1.637   6.527
11924TIP3    H135729   7.931   1.707   6.567
11924TIP3    H235730   7.941   1.592   6.470
11925TIP3   OH235731   2.526   7.781   2.310
11925TIP3    H135732   2.452   7.763   2.367
11925TIP3    H235733   2.517   7.719   2.238
11926TIP3   OH235734   0.637   7.840   2.920
11926TIP3    H135735   0.702   7.786   2.964
11926TIP3    H235736   0.561   7.838   2.978
11927TIP3   OH235737   5.065   5.679   3.791
11927TIP3    H135738   4.986   5.706   3.743
11927TIP3    H235739   5.054   5.584   3.803
11928TIP3   OH235740   3.198   7.546   5.711
11928TIP3    H135741   3.232   7.627   5.750
11928TIP3    H235742   3.206   7.561   5.616
11929TIP3   OH235743   1.879   6.827   4.652
11929TIP3    H135744   1.787   6.853   4.658
11929TIP3    H235745   1.921   6.868   4.728
11930TIP3   OH235746   6.243   6.162   1.914
11930TIP3    H135747   6.287   6.121   1.839
11930TIP3    H235748   6.155   6.181   1.882
11931TIP3   OH235749   7.030   5.963   1.919
11931TIP3    H135750   7.100   5.898   1.919
11931TIP3    H235751   7.003   5.969   2.011
11932TIP3   OH235752   5.727   2.495   4.095
11932TIP3    H135753   5.632   2.483   4.088
11932TIP3    H235754   5.756   2.505   4.004
11933TIP3   OH235755   1.881   4.305   0.386
11933TIP3    H135756   1.838   4.274   0.466
11933TIP3    H235757   1.913   4.225   0.344
11934TIP3   OH235758   7.063   6.650   4.969
11934TIP3    H135759   7.067   6.653   5.065
11934TIP3    H235760   7.112   6.571   4.945
11935TIP3   OH235761   6.142   0.965   1.436
11935TIP3    H135762   6.178   0.877   1.437
11935TIP3    H235763   6.062   0.958   1.383
11936TIP3   OH235764   0.050   3.907   0.419
11936TIP3    H135765  -0.005   3.959   0.477
11936TIP3    H235766   0.027   3.937   0.331
11937TIP3   OH235767   2.836   6.198   2.210
11937TIP3    H135768   2.768   6.167   2.270
11937TIP3    H235769   2.810   6.288   2.189
11938TIP3   OH235770   5.596   0.458   1.980
11938TIP3    H135771   5.681   0.476   2.019
11938TIP3    H235772   5.535   0.459   2.054
11939TIP3   OH235773   3.289   6.543   6.075
11939TIP3    H135774   3.348   6.500   6.138
11939TIP3    H235775   3.218   6.576   6.129
11940TIP3   OH235776   5.944   1.534   4.286
11940TIP3    H135777   5.872   1.473   4.298
11940TIP3    H235778   6.022   1.479   4.279
11941TIP3   OH235779   3.677   2.665   1.426
11941TIP3    H135780   3.754   2.707   1.388
11941TIP3    H235781   3.679   2.576   1.390
11942TIP3   OH235782   6.788   3.360   5.342
11942TIP3    H135783   6.827   3.290   5.289
11942TIP3    H235784   6.853   3.378   5.409
11943TIP3   OH235785   0.403   0.882   1.844
11943TIP3    H135786   0.379   0.793   1.818
11943TIP3    H235787   0.417   0.875   1.939
11944TIP3   OH235788   1.928   6.161   3.791
11944TIP3    H135789   1.848   6.141   3.838
11944TIP3    H235790   1.991   6.185   3.859
11945TIP3   OH235791   2.804   4.959   6.732
11945TIP3    H135792   2.826   5.044   6.769
11945TIP3    H235793   2.717   4.939   6.765
11946TIP3   OH235794   1.159   7.220   5.255
11946TIP3    H135795   1.162   7.299   5.309
11946TIP3    H235796   1.216   7.240   5.181
11947TIP3   OH235797   5.119   0.593   5.422
11947TIP3    H135798   5.181   0.645   5.371
11947TIP3    H235799   5.130   0.504   5.388
11948TIP3   OH235800   5.350   2.374   4.443
11948TIP3    H135801   5.408   2.317   4.493
11948TIP3    H235802   5.333   2.449   4.501
11949TIP3   OH235803   2.766   2.739   1.838
11949TIP3    H135804   2.858   2.718   1.829
11949TIP3    H235805   2.737   2.761   1.750
11950TIP3   OH235806   1.413   5.417   1.238
11950TIP3    H135807   1.442   5.502   1.204
11950TIP3    H235808   1.320   5.430   1.260
11951TIP3   OH235809   7.339   1.451   4.743
11951TIP3    H135810   7.343   1.369   4.694
11951TIP3    H235811   7.425   1.457   4.786
11952TIP3   OH235812   3.538   6.834   2.884
11952TIP3    H135813   3.535   6.782   2.804
11952TIP3    H235814   3.615   6.890   2.873
11953TIP3   OH235815   6.897   5.449   0.937
11953TIP3    H135816   6.932   5.446   1.026
11953TIP3    H235817   6.804   5.466   0.949
11954TIP3   OH235818   7.459   0.000   3.236
11954TIP3    H135819   7.505   0.015   3.319
11954TIP3    H235820   7.456   0.087   3.195
11955TIP3   OH235821   0.877   4.184   4.337
11955TIP3    H135822   0.910   4.094   4.336
11955TIP3    H235823   0.901   4.217   4.423
11956TIP3   OH235824   7.969   3.112   3.161
11956TIP3    H135825   7.914   3.167   3.105
11956TIP3    H235826   7.945   3.022   3.136
11957TIP3   OH235827   0.011   5.984   5.881
11957TIP3    H135828   0.084   6.023   5.929
11957TIP3    H235829  -0.067   6.029   5.913
11958TIP3   OH235830   1.600   2.514   5.701
11958TIP3    H135831   1.509   2.535   5.678
11958TIP3    H235832   1.628   2.588   5.755
11959TIP3   OH235833   4.455   7.035   0.967
11959TIP3    H135834   4.364   7.007   0.954
11959TIP3    H235835   4.448   7.114   1.021
11960TIP3   OH235836   0.541   7.713   2.375
11960TIP3    H135837   0.489   7.771   2.319
11960TIP3    H235838   0.591   7.660   2.314
11961TIP3   OH235839   0.927   0.422   0.587
11961TIP3    H135840   0.854   0.460   0.538
11961TIP3    H235841   0.908   0.328   0.590
11962TIP3   OH235842   0.967   2.339   3.914
11962TIP3    H135843   0.901   2.270   3.909
11962TIP3    H235844   1.042   2.305   3.865
11963TIP3   OH235845   6.333   2.833   1.942
11963TIP3    H135846   6.393   2.857   2.012
11963TIP3    H235847   6.366   2.749   1.909
11964TIP3   OH235848   8.158   2.602   4.921
11964TIP3    H135849   8.102   2.599   4.999
11964TIP3    H235850   8.101   2.578   4.849
11965TIP3   OH235851   6.125   7.613   3.909
11965TIP3    H135852   6.159   7.699   3.933
11965TIP3    H235853   6.052   7.631   3.850
11966TIP3   OH235854   7.476   1.482   0.634
11966TIP3    H135855   7.546   1.467   0.698
11966TIP3    H235856   7.519   1.471   0.549
11967TIP3   OH235857   8.162   4.102   6.134
11967TIP3    H135858   8.168   4.066   6.046
11967TIP3    H235859   8.170   4.026   6.192
11968TIP3   OH235860   0.876   0.385   3.746
11968TIP3    H135861   0.922   0.446   3.804
11968TIP3    H235862   0.904   0.410   3.658
11969TIP3   OH235863   7.686   6.519   1.907
11969TIP3    H135864   7.658   6.436   1.946
11969TIP3    H235865   7.718   6.570   1.981
11970TIP3   OH235866   2.290   2.847   0.541
11970TIP3    H135867   2.285   2.779   0.608
11970TIP3    H235868   2.382   2.847   0.514
11971TIP3   OH235869   2.013   2.554   2.264
11971TIP3    H135870   2.056   2.565   2.179
11971TIP3    H235871   2.008   2.642   2.300
11972TIP3   OH235872   3.163   4.722   6.502
11972TIP3    H135873   3.127   4.644   6.459
11972TIP3    H235874   3.090   4.784   6.503
11973TIP3   OH235875   2.222   0.971   0.999
11973TIP3    H135876   2.143   0.929   1.034
11973TIP3    H235877   2.255   0.909   0.933
11974TIP3   OH235878   2.654   1.768   4.225
11974TIP3    H135879   2.735   1.757   4.175
11974TIP3    H235880   2.601   1.691   4.203
11975TIP3   OH235881   0.660   6.170   2.601
11975TIP3    H135882   0.740   6.208   2.637
11975TIP3    H235883   0.641   6.222   2.523
11976TIP3   OH235884   4.641   0.081   1.458
11976TIP3    H135885   4.569   0.020   1.440
11976TIP3    H235886   4.720   0.028   1.449
11977TIP3   OH235887   4.597   1.400   6.493
11977TIP3    H135888   4.531   1.371   6.556
11977TIP3    H235889   4.675   1.418   6.545
11978TIP3   OH235890   3.954   1.671   0.678
11978TIP3    H135891   3.873   1.628   0.652
11978TIP3    H235892   3.946   1.680   0.773
11979TIP3   OH235893   7.764   0.197   0.199
11979TIP3    H135894   7.718   0.248   0.267
11979TIP3    H235895   7.752   0.106   0.225
11980TIP3   OH235896   8.172   5.887   4.529
11980TIP3    H135897   8.115   5.879   4.452
11980TIP3    H235898   8.149   5.811   4.583
11981TIP3   OH235899   1.489   2.355   3.917
11981TIP3    H135900   1.483   2.376   4.010
11981TIP3    H235901   1.415   2.400   3.877
11982TIP3   OH235902   7.945   0.429   3.262
11982TIP3    H135903   7.975   0.427   3.352
11982TIP3    H235904   7.882   0.502   3.259
11983TIP3   OH235905   0.207   4.448   3.627
11983TIP3    H135906   0.171   4.417   3.709
11983TIP3    H235907   0.257   4.527   3.650
11984TIP3   OH235908   6.625   6.372   3.926
11984TIP3    H135909   6.580   6.325   3.996
11984TIP3    H235910   6.717   6.368   3.950
11985TIP3   OH235911   3.123   7.759   4.643
11985TIP3    H135912   3.062   7.781   4.573
11985TIP3    H235913   3.196   7.715   4.599
11986TIP3   OH235914   3.951   1.155   2.496
11986TIP3    H135915   3.943   1.109   2.580
11986TIP3    H235916   3.899   1.235   2.508
11987TIP3   OH235917   1.983   4.973   6.558
11987TIP3    H135918   1.891   4.955   6.539
11987TIP3    H235919   1.981   5.024   6.639
11988TIP3   OH235920   6.153   0.044   2.436
11988TIP3    H135921   6.214  -0.027   2.418
11988TIP3    H235922   6.090   0.007   2.497
11989TIP3   OH235923   1.124   5.600   1.999
11989TIP3    H135924   1.100   5.570   2.087
11989TIP3    H235925   1.049   5.578   1.944
11990TIP3   OH235926   5.896   3.456   1.921
11990TIP3    H135927   5.802   3.453   1.903
11990TIP3    H235928   5.937   3.420   1.843
11991TIP3   OH235929   3.940   3.848   5.809
11991TIP3    H135930   3.953   3.922   5.869
11991TIP3    H235931   3.845   3.835   5.807
11992TIP3   OH235932   5.214   5.054   3.568
11992TIP3    H135933   5.134   5.053   3.620
11992TIP3    H235934   5.189   5.017   3.484
11993TIP3   OH235935   4.757   1.025   4.878
11993TIP3    H135936   4.830   0.967   4.900
11993TIP3    H235937   4.692   0.967   4.839
11994TIP3   OH235938   6.323   5.100   3.334
11994TIP3    H135939   6.403   5.074   3.289
11994TIP3    H235940   6.258   5.110   3.265
11995TIP3   OH235941   6.876   3.069   4.422
11995TIP3    H135942   6.855   3.143   4.366
11995TIP3    H235943   6.972   3.069   4.428
11996TIP3   OH235944   0.741   3.367   3.934
11996TIP3    H135945   0.766   3.294   3.991
11996TIP3    H235946   0.659   3.339   3.893
11997TIP3   OH235947   5.900   7.006   0.012
11997TIP3    H135948   5.928   7.058  -0.063
11997TIP3    H235949   5.874   7.069   0.078
11998TIP3   OH235950   1.193   3.353   4.938
11998TIP3    H135951   1.217   3.283   4.877
11998TIP3    H235952   1.275   3.376   4.981
11999TIP3   OH235953   3.733   3.779   1.037
11999TIP3    H135954   3.799   3.765   0.969
11999TIP3    H235955   3.684   3.697   1.040
12000TIP3   OH235956   6.257   3.560   5.710
12000TIP3    H135957   6.347   3.539   5.685
12000TIP3    H235958   6.265   3.634   5.770
12001TIP3   OH235959   5.021   7.782   0.939
12001TIP3    H135960   4.929   7.808   0.933
12001TIP3    H235961   5.054   7.828   1.016
12002TIP3   OH235962   2.417   0.789   5.948
12002TIP3    H135963   2.506   0.775   5.978
12002TIP3    H235964   2.421   0.776   5.853
12003TIP3   OH235965   1.936   4.030   4.226
12003TIP3    H135966   1.999   4.101   4.240
12003TIP3    H235967   1.947   3.972   4.301
12004TIP3   OH235968   3.207   3.637   4.044
12004TIP3    H135969   3.284   3.589   4.015
12004TIP3    H235970   3.229   3.669   4.131
12005TIP3   OH235971   2.431   4.031   5.569
12005TIP3    H135972   2.376   4.109   5.579
12005TIP3    H235973   2.467   4.015   5.657
12006TIP3   OH235974   2.865   5.155   1.550
12006TIP3    H135975   2.951   5.185   1.522
12006TIP3    H235976   2.863   5.171   1.644
12007TIP3   OH235977   4.690   6.074   1.996
12007TIP3    H135978   4.604   6.037   1.982
12007TIP3    H235979   4.690   6.104   2.087
12008TIP3   OH235980   6.300   6.300   2.630
12008TIP3    H135981   6.213   6.262   2.632
12008TIP3    H235982   6.359   6.224   2.630
12009TIP3   OH235983   2.953   7.413   5.311
12009TIP3    H135984   2.995   7.338   5.355
12009TIP3    H235985   2.877   7.433   5.365
12010TIP3   OH235986   3.778   4.742   1.826
12010TIP3    H135987   3.823   4.720   1.744
12010TIP3    H235988   3.751   4.833   1.814
12011TIP3   OH235989   7.848   3.766   5.324
12011TIP3    H135990   7.908   3.833   5.292
12011TIP3    H235991   7.900   3.714   5.385
12012TIP3   OH235992   0.099   6.543  -0.039
12012TIP3    H135993   0.168   6.548   0.027
12012TIP3    H235994   0.020   6.574   0.007
12013TIP3   OH235995   4.473   6.354   0.440
12013TIP3    H135996   4.497   6.324   0.352
12013TIP3    H235997   4.505   6.444   0.444
12014TIP3   OH235998   0.142   6.288   5.758
12014TIP3    H135999   0.134   6.216   5.696
12014TIP3    H236000   0.098   6.361   5.715
12015TIP3   OH236001   1.993   0.871   1.962
12015TIP3    H136002   1.974   0.826   2.044
12015TIP3    H236003   2.086   0.855   1.946
12016TIP3   OH236004   1.461   5.163   0.602
12016TIP3    H136005   1.400   5.177   0.530
12016TIP3    H236006   1.529   5.230   0.589
12017TIP3   OH236007   1.390   7.697   1.388
12017TIP3    H136008   1.374   7.791   1.376
12017TIP3    H236009   1.345   7.676   1.470
12018TIP3   OH236010   2.983   1.105   3.084
12018TIP3    H136011   2.906   1.087   3.138
12018TIP3    H236012   3.043   1.033   3.102
12019TIP3   OH236013   0.069   4.269   3.088
12019TIP3    H136014  -0.024   4.252   3.100
12019TIP3    H236015   0.082   4.356   3.127
12020TIP3   OH236016   1.404   2.705   3.172
12020TIP3    H136017   1.321   2.694   3.126
12020TIP3    H236018   1.409   2.630   3.231
12021TIP3   OH236019   3.866   4.015   4.030
12021TIP3    H136020   3.842   3.934   3.987
12021TIP3    H236021   3.862   4.082   3.961
12022TIP3   OH236022   0.524   6.267   4.577
12022TIP3    H136023   0.453   6.217   4.617
12022TIP3    H236024   0.588   6.200   4.553
12023TIP3   OH236025   3.294   4.052   1.393
12023TIP3    H136026   3.280   3.995   1.317
12023TIP3    H236027   3.389   4.052   1.406
12024TIP3   OH236028   7.515   0.867   1.713
12024TIP3    H136029   7.444   0.804   1.724
12024TIP3    H236030   7.524   0.877   1.618
12025TIP3   OH236031   2.604   2.767   2.198
12025TIP3    H136032   2.653   2.698   2.242
12025TIP3    H236033   2.549   2.722   2.134
12026TIP3   OH236034   2.459   5.259   2.726
12026TIP3    H136035   2.548   5.230   2.705
12026TIP3    H236036   2.467   5.353   2.740
12027TIP3   OH236037   0.305   2.016   0.911
12027TIP3    H136038   0.351   2.100   0.916
12027TIP3    H236039   0.215   2.036   0.934
12028TIP3   OH236040   3.205   5.354   0.687
12028TIP3    H136041   3.224   5.306   0.606
12028TIP3    H236042   3.126   5.404   0.667
12029TIP3   OH236043   2.690   4.923   1.519
12029TIP3    H136044   2.755   4.978   1.563
12029TIP3    H236045   2.735   4.890   1.441
12030TIP3   OH236046   4.140   5.189   6.431
12030TIP3    H136047   4.082   5.257   6.397
12030TIP3    H236048   4.128   5.115   6.372
12031TIP3   OH236049   7.389   4.151   1.442
12031TIP3    H136050   7.299   4.146   1.410
12031TIP3    H236051   7.384   4.118   1.532
12032TIP3   OH236052   7.829   1.793   0.099
12032TIP3    H136053   7.755   1.734   0.086
12032TIP3    H236054   7.898   1.738   0.136
12033TIP3   OH236055   3.231   6.823   5.811
12033TIP3    H136056   3.251   6.755   5.747
12033TIP3    H236057   3.273   6.793   5.892
12034TIP3   OH236058   6.284   7.827   1.147
12034TIP3    H136059   6.259   7.771   1.221
12034TIP3    H236060   6.221   7.805   1.078
12035TIP3   OH236061   6.159   0.605   6.009
12035TIP3    H136062   6.147   0.608   6.104
12035TIP3    H236063   6.232   0.544   5.996
12036TIP3   OH236064   4.544   5.283   2.515
12036TIP3    H136065   4.531   5.347   2.585
12036TIP3    H236066   4.458   5.243   2.503
12037TIP3   OH236067   2.910   7.706   5.563
12037TIP3    H136068   3.000   7.680   5.544
12037TIP3    H236069   2.856   7.641   5.518
12038TIP3   OH236070   1.537   3.184   3.825
12038TIP3    H136071   1.582   3.173   3.742
12038TIP3    H236072   1.448   3.152   3.809
12039TIP3   OH236073   2.155   1.544   6.638
12039TIP3    H136074   2.229   1.581   6.590
12039TIP3    H236075   2.183   1.455   6.660
12040TIP3   OH236076   7.455   0.211   6.240
12040TIP3    H136077   7.460   0.141   6.304
12040TIP3    H236078   7.529   0.194   6.181
12041TIP3   OH236079   6.010   6.711   1.905
12041TIP3    H136080   5.950   6.774   1.946
12041TIP3    H236081   6.003   6.729   1.811
12042TIP3   OH236082   4.174   5.743   4.610
12042TIP3    H136083   4.220   5.688   4.546
12042TIP3    H236084   4.107   5.686   4.647
12043TIP3   OH236085   6.375   4.329   1.704
12043TIP3    H136086   6.431   4.405   1.718
12043TIP3    H236087   6.286   4.365   1.710
12044TIP3   OH236088   6.799   5.142   2.377
12044TIP3    H136089   6.786   5.146   2.282
12044TIP3    H236090   6.885   5.183   2.391
12045TIP3   OH236091   6.197   0.078   1.723
12045TIP3    H136092   6.266   0.069   1.657
12045TIP3    H236093   6.241   0.059   1.806
12046TIP3   OH236094   7.412   7.257   0.351
12046TIP3    H136095   7.388   7.211   0.271
12046TIP3    H236096   7.452   7.190   0.406
12047TIP3   OH236097   0.946   5.356   5.638
12047TIP3    H136098   0.918   5.397   5.556
12047TIP3    H236099   0.987   5.274   5.611
12048TIP3   OH236100   3.001   1.853   4.912
12048TIP3    H136101   3.034   1.934   4.951
12048TIP3    H236102   2.973   1.800   4.986
12049TIP3   OH236103   2.483   1.219   5.378
12049TIP3    H136104   2.478   1.177   5.292
12049TIP3    H236105   2.517   1.306   5.360
12050TIP3   OH236106   1.339   5.354   5.880
12050TIP3    H136107   1.401   5.361   5.952
12050TIP3    H236108   1.314   5.445   5.861
12051TIP3   OH236109   6.359   0.459   6.182
12051TIP3    H136110   6.413   0.391   6.140
12051TIP3    H236111   6.404   0.541   6.161
12052TIP3   OH236112   1.682   6.632   3.852
12052TIP3    H136113   1.627   6.681   3.790
12052TIP3    H236114   1.697   6.694   3.924
12053TIP3   OH236115   6.704   2.747   0.361
12053TIP3    H136116   6.785   2.799   0.359
12053TIP3    H236117   6.690   2.729   0.454
12054TIP3   OH236118   5.834   7.110   0.787
12054TIP3    H136119   5.871   7.054   0.855
12054TIP3    H236120   5.788   7.051   0.728
12055TIP3   OH236121   2.251   2.335   0.889
12055TIP3    H136122   2.225   2.334   0.981
12055TIP3    H236123   2.347   2.342   0.891
12056TIP3   OH236124   2.348   1.245   5.653
12056TIP3    H136125   2.385   1.294   5.579
12056TIP3    H236126   2.292   1.309   5.697
12057TIP3   OH236127   5.256   4.323   2.478
12057TIP3    H136128   5.334   4.288   2.434
12057TIP3    H236129   5.183   4.273   2.442
12058TIP3   OH236130   6.884   2.327   5.203
12058TIP3    H136131   6.885   2.412   5.159
12058TIP3    H236132   6.977   2.301   5.207
12059TIP3   OH236133   1.473   5.434   6.076
12059TIP3    H136134   1.549   5.447   6.133
12059TIP3    H236135   1.456   5.520   6.039
12060TIP3   OH236136   7.916   7.651   3.868
12060TIP3    H136137   7.886   7.730   3.914
12060TIP3    H236138   7.837   7.598   3.857
12061TIP3   OH236139   0.389   3.399   3.151
12061TIP3    H136140   0.319   3.431   3.094
12061TIP3    H236141   0.458   3.464   3.143
12062TIP3   OH236142   4.399   1.092   3.155
12062TIP3    H136143   4.361   1.005   3.166
12062TIP3    H236144   4.329   1.144   3.115
12063TIP3   OH236145   2.004   5.919   2.390
12063TIP3    H136146   2.036   5.933   2.479
12063TIP3    H236147   2.081   5.931   2.335
12064TIP3   OH236148   0.939   1.748   3.646
12064TIP3    H136149   0.867   1.716   3.701
12064TIP3    H236150   0.897   1.782   3.568
12065TIP3   OH236151   6.527   6.242   3.707
12065TIP3    H136152   6.599   6.233   3.645
12065TIP3    H236153   6.565   6.290   3.781
12066TIP3   OH236154   7.632   2.587   6.051
12066TIP3    H136155   7.631   2.664   6.108
12066TIP3    H236156   7.570   2.609   5.981
12067TIP3   OH236157   6.322   4.276   6.162
12067TIP3    H136158   6.347   4.187   6.137
12067TIP3    H236159   6.336   4.328   6.083
12068TIP3   OH236160   5.920   1.150   1.533
12068TIP3    H136161   5.879   1.180   1.452
12068TIP3    H236162   6.002   1.108   1.504
12069TIP3   OH236163   1.999   7.529   6.115
12069TIP3    H136164   2.066   7.596   6.125
12069TIP3    H236165   1.925   7.561   6.167
12070TIP3   OH236166   7.352   4.303   2.138
12070TIP3    H136167   7.438   4.325   2.103
12070TIP3    H236168   7.301   4.278   2.061
12071TIP3   OH236169   0.724   1.083   2.944
12071TIP3    H136170   0.669   1.049   3.014
12071TIP3    H236171   0.813   1.055   2.966
12072TIP3   OH236172   5.468   1.325   3.380
12072TIP3    H136173   5.488   1.325   3.286
12072TIP3    H236174   5.511   1.247   3.414
12073TIP3   OH236175   2.812   5.516   2.828
12073TIP3    H136176   2.760   5.438   2.812
12073TIP3    H236177   2.851   5.537   2.743
12074TIP3   OH236178   0.329   4.573   4.681
12074TIP3    H136179   0.372   4.591   4.597
12074TIP3    H236180   0.327   4.658   4.725
12075TIP3   OH236181   0.786   2.557   0.512
12075TIP3    H136182   0.762   2.649   0.507
12075TIP3    H236183   0.880   2.557   0.531
12076TIP3   OH236184   6.435   4.777   0.513
12076TIP3    H136185   6.496   4.713   0.477
12076TIP3    H236186   6.447   4.770   0.608
12077TIP3   OH236187   5.164   2.394   2.257
12077TIP3    H136188   5.152   2.489   2.268
12077TIP3    H236189   5.234   2.372   2.318
12078TIP3   OH236190   0.581   6.243   0.645
12078TIP3    H136191   0.539   6.258   0.560
12078TIP3    H236192   0.636   6.166   0.632
12079TIP3   OH236193   1.239   3.837   1.605
12079TIP3    H136194   1.301   3.812   1.673
12079TIP3    H236195   1.215   3.755   1.562
12080TIP3   OH236196   1.665   5.552   4.490
12080TIP3    H136197   1.659   5.478   4.430
12080TIP3    H236198   1.631   5.627   4.440
12081TIP3   OH236199   2.321   2.685   0.816
12081TIP3    H136200   2.316   2.673   0.911
12081TIP3    H236201   2.405   2.646   0.792
12082TIP3   OH236202   2.612   5.539   4.552
12082TIP3    H136203   2.570   5.589   4.482
12082TIP3    H236204   2.704   5.535   4.528
12083TIP3   OH236205   5.538   7.626   3.804
12083TIP3    H136206   5.471   7.622   3.872
12083TIP3    H236207   5.587   7.544   3.813
12084TIP3   OH236208   1.353   7.656   2.996
12084TIP3    H136209   1.423   7.658   2.931
12084TIP3    H236210   1.388   7.704   3.071
12085TIP3   OH236211   3.082   3.350   5.570
12085TIP3    H136212   3.053   3.307   5.489
12085TIP3    H236213   3.011   3.410   5.591
12086TIP3   OH236214   5.404   0.182   2.046
12086TIP3    H136215   5.462   0.221   2.111
12086TIP3    H236216   5.438   0.093   2.033
12087TIP3   OH236217   8.229   1.059   3.923
12087TIP3    H136218   8.140   1.055   3.889
12087TIP3    H236219   8.279   1.001   3.866
12088TIP3   OH236220   3.386   4.019   6.430
12088TIP3    H136221   3.351   3.931   6.414
12088TIP3    H236222   3.454   4.030   6.364
12089TIP3   OH236223   0.539   3.033   2.430
12089TIP3    H136224   0.525   3.100   2.362
12089TIP3    H236225   0.454   2.990   2.438
12090TIP3   OH236226   0.881   2.633   1.271
12090TIP3    H136227   0.922   2.599   1.191
12090TIP3    H236228   0.933   2.595   1.342
12091TIP3   OH236229   8.168   7.426   3.596
12091TIP3    H136230   8.170   7.346   3.543
12091TIP3    H236231   8.088   7.472   3.567
12092TIP3   OH236232   4.986   3.027   4.514
12092TIP3    H136233   5.051   3.078   4.466
12092TIP3    H236234   4.924   3.093   4.547
12093TIP3   OH236235   5.050   7.235   4.933
12093TIP3    H136236   5.066   7.304   4.997
12093TIP3    H236237   5.079   7.272   4.849
12094TIP3   OH236238   6.540   0.002   3.061
12094TIP3    H136239   6.549   0.086   3.106
12094TIP3    H236240   6.447  -0.004   3.041
12095TIP3   OH236241   2.414   5.625   1.551
12095TIP3    H136242   2.363   5.548   1.576
12095TIP3    H236243   2.503   5.592   1.538
12096TIP3   OH236244   0.862   1.730   3.172
12096TIP3    H136245   0.821   1.782   3.103
12096TIP3    H236246   0.889   1.649   3.128
12097TIP3   OH236247   4.161   2.730   0.765
12097TIP3    H136248   4.075   2.740   0.723
12097TIP3    H236249   4.220   2.708   0.693
12098TIP3   OH236250   1.206   1.593   4.715
12098TIP3    H136251   1.211   1.522   4.651
12098TIP3    H236252   1.252   1.666   4.674
12099TIP3   OH236253   0.616   6.816   3.254
12099TIP3    H136254   0.548   6.770   3.304
12099TIP3    H236255   0.580   6.821   3.165
12100TIP3   OH236256   0.708   3.336   6.207
12100TIP3    H136257   0.649   3.357   6.135
12100TIP3    H236258   0.791   3.376   6.183
12101TIP3   OH236259   3.297   7.011   4.539
12101TIP3    H136260   3.327   7.014   4.449
12101TIP3    H236261   3.265   7.100   4.557
12102TIP3   OH236262   3.874   7.261   0.281
12102TIP3    H136263   3.836   7.251   0.368
12102TIP3    H236264   3.941   7.193   0.276
12103TIP3   OH236265   1.486   3.050   4.050
12103TIP3    H136266   1.463   3.129   4.098
12103TIP3    H236267   1.520   3.083   3.966
12104TIP3   OH236268   5.945   3.089   3.790
12104TIP3    H136269   6.007   3.154   3.824
12104TIP3    H236270   5.911   3.046   3.868
12105TIP3   OH236271   5.202   5.380   2.332
12105TIP3    H136272   5.267   5.399   2.400
12105TIP3    H236273   5.182   5.287   2.343
12106TIP3   OH236274   0.383  -0.003   4.660
12106TIP3    H136275   0.477   0.014   4.649
12106TIP3    H236276   0.358   0.046   4.738
12107TIP3   OH236277   8.205   5.919   3.186
12107TIP3    H136278   8.183   5.994   3.131
12107TIP3    H236279   8.247   5.957   3.263
12108TIP3   OH236280   7.481   0.894   2.810
12108TIP3    H136281   7.454   0.811   2.772
12108TIP3    H236282   7.414   0.914   2.875
12109TIP3   OH236283   1.439   2.780   4.622
12109TIP3    H136284   1.506   2.790   4.690
12109TIP3    H236285   1.453   2.854   4.563
12110TIP3   OH236286   5.081   5.033   4.365
12110TIP3    H136287   5.098   5.004   4.454
12110TIP3    H236288   5.023   5.109   4.375
12111TIP3   OH236289   8.165   6.533   4.745
12111TIP3    H136290   8.213   6.546   4.827
12111TIP3    H236291   8.217   6.468   4.697
12112TIP3   OH236292   6.319   6.059   6.721
12112TIP3    H136293   6.296   6.084   6.811
12112TIP3    H236294   6.372   6.132   6.688
12113TIP3   OH236295   7.135   5.434   3.318
12113TIP3    H136296   7.142   5.520   3.277
12113TIP3    H236297   7.222   5.416   3.353
12114TIP3   OH236298   4.569   2.363   3.079
12114TIP3    H136299   4.577   2.449   3.038
12114TIP3    H236300   4.475   2.346   3.080
12115TIP3   OH236301   7.088   1.422   1.390
12115TIP3    H136302   7.083   1.336   1.349
12115TIP3    H236303   7.093   1.403   1.484
12116TIP3   OH236304   4.431   3.029   1.460
12116TIP3    H136305   4.495   2.975   1.414
12116TIP3    H236306   4.453   3.018   1.552
12117TIP3   OH236307   1.008   1.327   1.001
12117TIP3    H136308   0.913   1.323   0.990
12117TIP3    H236309   1.042   1.263   0.939
12118TIP3   OH236310   6.302   6.002   1.004
12118TIP3    H136311   6.252   5.920   1.002
12118TIP3    H236312   6.265   6.053   0.933
12119TIP3   OH236313   0.459   3.750   4.263
12119TIP3    H136314   0.532   3.782   4.317
12119TIP3    H236315   0.455   3.656   4.282
12120TIP3   OH236316   2.053   1.875   0.681
12120TIP3    H136317   2.033   1.967   0.666
12120TIP3    H236318   2.017   1.856   0.768
12121TIP3   OH236319   6.870   1.868   6.420
12121TIP3    H136320   6.951   1.835   6.459
12121TIP3    H236321   6.891   1.957   6.392
12122TIP3   OH236322   4.615   2.625   0.666
12122TIP3    H136323   4.662   2.633   0.583
12122TIP3    H236324   4.603   2.531   0.678
12123TIP3   OH236325   6.901   3.618   6.636
12123TIP3    H136326   6.847   3.670   6.577
12123TIP3    H236327   6.979   3.671   6.650
12124TIP3   OH236328   3.505   1.242   5.659
12124TIP3    H136329   3.452   1.172   5.622
12124TIP3    H236330   3.453   1.276   5.732
12125TIP3   OH236331   3.653   6.090   0.621
12125TIP3    H136332   3.604   6.130   0.550
12125TIP3    H236333   3.585   6.054   0.679
12126TIP3   OH236334   7.609   1.784   4.549
12126TIP3    H136335   7.648   1.707   4.590
12126TIP3    H236336   7.522   1.791   4.588
12127TIP3   OH236337   7.417   6.643   2.170
12127TIP3    H136338   7.446   6.696   2.244
12127TIP3    H236339   7.412   6.705   2.097
12128TIP3   OH236340   3.139   4.674   5.559
12128TIP3    H136341   3.102   4.604   5.613
12128TIP3    H236342   3.158   4.632   5.475
12129TIP3   OH236343   5.303   2.609   0.214
12129TIP3    H136344   5.346   2.620   0.299
12129TIP3    H236345   5.370   2.631   0.150
12130TIP3   OH236346   1.212   6.929   5.893
12130TIP3    H136347   1.216   7.024   5.889
12130TIP3    H236348   1.123   6.907   5.867
12131TIP3   OH236349   2.277   1.508   2.365
12131TIP3    H136350   2.367   1.533   2.383
12131TIP3    H236351   2.282   1.419   2.331
12132TIP3   OH236352   6.319   1.664   0.029
12132TIP3    H136353   6.379   1.632   0.096
12132TIP3    H236354   6.282   1.585  -0.011
12133TIP3   OH236355   7.009   1.054   5.939
12133TIP3    H136356   7.014   0.962   5.911
12133TIP3    H236357   7.100   1.079   5.955
12134TIP3   OH236358   4.285   3.719   2.213
12134TIP3    H136359   4.351   3.734   2.279
12134TIP3    H236360   4.311   3.775   2.139
12135TIP3   OH236361   5.434   7.366   4.828
12135TIP3    H136362   5.414   7.283   4.872
12135TIP3    H236363   5.521   7.390   4.860
12136TIP3   OH236364   0.414   4.726   6.655
12136TIP3    H136365   0.325   4.740   6.623
12136TIP3    H236366   0.450   4.657   6.599
12137TIP3   OH236367   3.166   2.231   3.793
12137TIP3    H136368   3.174   2.156   3.733
12137TIP3    H236369   3.106   2.201   3.861
12138TIP3   OH236370   6.582   1.755   0.815
12138TIP3    H136371   6.486   1.751   0.823
12138TIP3    H236372   6.607   1.832   0.867
12139TIP3   OH236373   2.627   0.804   6.140
12139TIP3    H136374   2.705   0.751   6.123
12139TIP3    H236375   2.595   0.773   6.224
12140TIP3   OH236376   6.767   1.714   2.502
12140TIP3    H136377   6.767   1.654   2.428
12140TIP3    H236378   6.675   1.739   2.513
12141TIP3   OH236379   3.569   1.535   3.554
12141TIP3    H136380   3.553   1.442   3.567
12141TIP3    H236381   3.536   1.554   3.467
12142TIP3   OH236382   6.666   1.690   0.419
12142TIP3    H136383   6.705   1.700   0.332
12142TIP3    H236384   6.576   1.721   0.408
12143TIP3   OH236385   8.094   2.566   4.114
12143TIP3    H136386   8.060   2.565   4.204
12143TIP3    H236387   8.108   2.474   4.092
12144TIP3   OH236388   8.020   2.577   5.913
12144TIP3    H136389   7.954   2.600   5.848
12144TIP3    H236390   8.024   2.481   5.909
12145TIP3   OH236391   6.726   5.942   5.619
12145TIP3    H136392   6.696   5.859   5.582
12145TIP3    H236393   6.817   5.949   5.591
12146TIP3   OH236394   5.435   6.054   2.162
12146TIP3    H136395   5.356   6.047   2.215
12146TIP3    H236396   5.411   6.018   2.077
12147TIP3   OH236397   3.914   5.234   4.376
12147TIP3    H136398   3.819   5.239   4.388
12147TIP3    H236399   3.930   5.141   4.359
12148TIP3   OH236400   4.800   3.934   3.462
12148TIP3    H136401   4.716   3.955   3.421
12148TIP3    H236402   4.788   3.845   3.496
12149TIP3   OH236403   5.163   1.205   1.558
12149TIP3    H136404   5.237   1.208   1.497
12149TIP3    H236405   5.170   1.286   1.608
12150TIP3   OH236406   2.948   1.999   5.793
12150TIP3    H136407   3.031   1.962   5.823
12150TIP3    H236408   2.887   1.983   5.865
12151TIP3   OH236409   7.206   6.471   4.269
12151TIP3    H136410   7.208   6.511   4.356
12151TIP3    H236411   7.277   6.406   4.271
12152TIP3   OH236412   5.405   2.249   3.745
12152TIP3    H136413   5.438   2.253   3.655
12152TIP3    H236414   5.332   2.187   3.741
12153TIP3   OH236415   3.690   0.545   0.659
12153TIP3    H136416   3.773   0.572   0.700
12153TIP3    H236417   3.666   0.465   0.705
12154TIP3   OH236418   0.944   5.783   5.570
12154TIP3    H136419   0.983   5.780   5.483
12154TIP3    H236420   0.884   5.857   5.567
12155TIP3   OH236421   2.564   3.714   0.067
12155TIP3    H136422   2.620   3.643   0.096
12155TIP3    H236423   2.622   3.790   0.062
12156TIP3   OH236424   3.511   3.575   6.656
12156TIP3    H136425   3.582   3.541   6.601
12156TIP3    H236426   3.436   3.582   6.596
12157TIP3   OH236427   4.064   7.160   0.879
12157TIP3    H136428   3.980   7.183   0.917
12157TIP3    H236429   4.074   7.066   0.897
12158TIP3   OH236430   7.512   4.932   5.982
12158TIP3    H136431   7.558   4.856   6.016
12158TIP3    H236432   7.540   4.938   5.891
12159TIP3   OH236433   5.060   7.223   3.808
12159TIP3    H136434   5.123   7.161   3.846
12159TIP3    H236435   5.082   7.307   3.849
12160TIP3   OH236436   0.695   4.156   2.134
12160TIP3    H136437   0.722   4.239   2.094
12160TIP3    H236438   0.600   4.161   2.137
12161TIP3   OH236439   0.000   5.121   4.777
12161TIP3    H136440   0.056   5.101   4.852
12161TIP3    H236441   0.038   5.072   4.705
12162TIP3   OH236442   6.143   7.143   6.030
12162TIP3    H136443   6.049   7.159   6.019
12162TIP3    H236444   6.157   7.055   5.994
12163TIP3   OH236445   6.842   5.739   0.291
12163TIP3    H136446   6.879   5.827   0.281
12163TIP3    H236447   6.916   5.680   0.280
12164TIP3   OH236448   0.328   1.617   3.637
12164TIP3    H136449   0.282   1.695   3.606
12164TIP3    H236450   0.267   1.575   3.698
12165TIP3   OH236451   6.492   6.573   6.290
12165TIP3    H136452   6.546   6.550   6.366
12165TIP3    H236453   6.528   6.519   6.219
12166TIP3   OH236454   7.745   5.610   4.106
12166TIP3    H136455   7.693   5.617   4.186
12166TIP3    H236456   7.835   5.597   4.138
12167TIP3   OH236457   6.693   0.936   2.698
12167TIP3    H136458   6.656   0.856   2.660
12167TIP3    H236459   6.780   0.911   2.727
12168TIP3   OH236460   5.105   4.160   2.806
12168TIP3    H136461   5.086   4.113   2.887
12168TIP3    H236462   5.079   4.100   2.737
12169TIP3   OH236463   2.933   3.991   3.772
12169TIP3    H136464   2.865   3.934   3.809
12169TIP3    H236465   3.009   3.977   3.828
12170TIP3   OH236466   4.970   1.139   6.102
12170TIP3    H136467   5.051   1.164   6.057
12170TIP3    H236468   4.946   1.217   6.152
12171TIP3   OH236469   6.355   0.957   5.157
12171TIP3    H136470   6.275   1.001   5.131
12171TIP3    H236471   6.403   0.943   5.075
12172TIP3   OH236472   0.921   6.664   1.437
12172TIP3    H136473   1.004   6.668   1.389
12172TIP3    H236474   0.946   6.651   1.528
12173TIP3   OH236475   5.244   2.192   0.662
12173TIP3    H136476   5.254   2.271   0.609
12173TIP3    H236477   5.160   2.203   0.707
12174TIP3   OH236478   3.304   3.282   4.354
12174TIP3    H136479   3.320   3.187   4.351
12174TIP3    H236480   3.369   3.315   4.416
12175TIP3   OH236481   5.384   5.330   3.216
12175TIP3    H136482   5.404   5.247   3.258
12175TIP3    H236483   5.448   5.391   3.253
12176TIP3   OH236484   1.112   4.030   1.742
12176TIP3    H136485   1.142   3.966   1.678
12176TIP3    H236486   1.186   4.089   1.755
12177TIP3   OH236487   8.107   2.325   0.919
12177TIP3    H136488   8.108   2.419   0.940
12177TIP3    H236489   8.060   2.284   0.992
12178TIP3   OH236490   4.322   5.938   6.054
12178TIP3    H136491   4.235   5.948   6.091
12178TIP3    H236492   4.348   5.849   6.076
12179TIP3   OH236493   5.799   1.781   3.047
12179TIP3    H136494   5.724   1.761   2.990
12179TIP3    H236495   5.859   1.708   3.034
12180TIP3   OH236496   7.716   3.478   2.463
12180TIP3    H136497   7.805   3.448   2.480
12180TIP3    H236498   7.661   3.408   2.500
12181TIP3   OH236499   1.557   0.845   3.970
12181TIP3    H136500   1.555   0.873   4.061
12181TIP3    H236501   1.472   0.871   3.935
12182TIP3   OH236502   5.216   3.836   6.479
12182TIP3    H136503   5.126   3.854   6.452
12182TIP3    H236504   5.208   3.767   6.545
12183TIP3   OH236505   6.968   7.496   3.122
12183TIP3    H136506   6.876   7.519   3.110
12183TIP3    H236507   7.013   7.580   3.124
12184TIP3   OH236508   2.087   3.712   6.394
12184TIP3    H136509   2.099   3.804   6.370
12184TIP3    H236510   2.149   3.698   6.466
12185TIP3   OH236511   5.175   3.363   5.552
12185TIP3    H136512   5.084   3.391   5.554
12185TIP3    H236513   5.225   3.442   5.574
12186TIP3   OH236514   0.589   5.953   6.503
12186TIP3    H136515   0.615   5.861   6.508
12186TIP3    H236516   0.496   5.953   6.526
12187TIP3   OH236517   4.068   7.153   3.921
12187TIP3    H136518   4.018   7.107   3.988
12187TIP3    H236519   4.102   7.231   3.966
12188TIP3   OH236520   3.127   3.830   3.432
12188TIP3    H136521   3.136   3.787   3.347
12188TIP3    H236522   3.217   3.843   3.462
12189TIP3   OH236523   1.253   7.132   2.088
12189TIP3    H136524   1.199   7.129   2.167
12189TIP3    H236525   1.210   7.197   2.033
12190TIP3   OH236526   6.126   1.505   0.277
12190TIP3    H136527   6.188   1.549   0.219
12190TIP3    H236528   6.125   1.559   0.356
12191TIP3   OH236529   1.587   7.121   4.942
12191TIP3    H136530   1.601   7.027   4.957
12191TIP3    H236531   1.521   7.146   5.007
12192TIP3   OH236532   5.223   4.672   2.444
12192TIP3    H136533   5.288   4.724   2.492
12192TIP3    H236534   5.275   4.623   2.380
12193TIP3   OH236535   6.991   3.017   0.916
12193TIP3    H136536   7.037   3.071   0.852
12193TIP3    H236537   7.017   3.054   1.001
12194TIP3   OH236538   4.709   2.107   3.052
12194TIP3    H136539   4.647   2.034   3.048
12194TIP3    H236540   4.654   2.185   3.059
12195TIP3   OH236541   4.831   2.579   5.106
12195TIP3    H136542   4.915   2.557   5.146
12195TIP3    H236543   4.768   2.570   5.177
12196TIP3   OH236544   6.643   1.719   3.700
12196TIP3    H136545   6.681   1.807   3.695
12196TIP3    H236546   6.582   1.724   3.774
12197TIP3   OH236547   0.967   6.352   1.774
12197TIP3    H136548   0.975   6.277   1.833
12197TIP3    H236549   1.025   6.418   1.810
12198TIP3   OH236550   6.943   4.969   0.123
12198TIP3    H136551   6.958   4.877   0.144
12198TIP3    H236552   7.029   5.010   0.132
12199TIP3   OH236553   2.930   7.130   3.361
12199TIP3    H136554   2.948   7.077   3.284
12199TIP3    H236555   2.986   7.094   3.430
12200TIP3   OH236556   3.267   2.906   1.454
12200TIP3    H136557   3.229   2.853   1.524
12200TIP3    H236558   3.337   2.956   1.496
12201TIP3   OH236559   2.038   6.085   6.020
12201TIP3    H136560   2.122   6.129   6.010
12201TIP3    H236561   2.052   5.998   5.984
12202TIP3   OH236562   6.232   6.732   5.479
12202TIP3    H136563   6.318   6.772   5.475
12202TIP3    H236564   6.171   6.804   5.463
12203TIP3   OH236565   4.249   0.738   1.522
12203TIP3    H136566   4.217   0.763   1.609
12203TIP3    H236567   4.295   0.656   1.536
12204TIP3   OH236568   5.324   1.653   6.523
12204TIP3    H136569   5.415   1.680   6.508
12204TIP3    H236570   5.272   1.728   6.493
12205TIP3   OH236571   7.389   6.382   4.757
12205TIP3    H136572   7.457   6.420   4.702
12205TIP3    H236573   7.437   6.332   4.824
12206TIP3   OH236574   6.765   2.877   3.402
12206TIP3    H136575   6.841   2.892   3.345
12206TIP3    H236576   6.756   2.782   3.406
12207TIP3   OH236577   3.374   2.803   2.376
12207TIP3    H136578   3.301   2.775   2.321
12207TIP3    H236579   3.379   2.897   2.364
12208TIP3   OH236580   2.188   3.408   0.279
12208TIP3    H136581   2.093   3.418   0.286
12208TIP3    H236582   2.221   3.496   0.263
12209TIP3   OH236583   0.009   7.557   2.909
12209TIP3    H136584  -0.021   7.497   2.976
12209TIP3    H236585   0.104   7.542   2.904
12210TIP3   OH236586   2.285   0.044   2.720
12210TIP3    H136587   2.229   0.069   2.794
12210TIP3    H236588   2.314  -0.045   2.741
12211TIP3   OH236589   3.202   3.497   1.294
12211TIP3    H136590   3.115   3.526   1.268
12211TIP3    H236591   3.262   3.553   1.245
12212TIP3   OH236592   3.319   1.532   6.121
12212TIP3    H136593   3.384   1.500   6.060
12212TIP3    H236594   3.325   1.628   6.114
12213TIP3   OH236595   4.503   1.203   2.420
12213TIP3    H136596   4.528   1.182   2.330
12213TIP3    H236597   4.424   1.150   2.436
12214TIP3   OH236598   6.527   3.296   2.420
12214TIP3    H136599   6.515   3.248   2.502
12214TIP3    H236600   6.442   3.337   2.404
12215TIP3   OH236601   3.209   5.690   5.886
12215TIP3    H136602   3.116   5.693   5.906
12215TIP3    H236603   3.231   5.781   5.862
12216TIP3   OH236604   3.767   4.839   0.367
12216TIP3    H136605   3.840   4.778   0.360
12216TIP3    H236606   3.726   4.817   0.451
12217TIP3   OH236607   7.238   0.123   5.324
12217TIP3    H136608   7.228   0.083   5.410
12217TIP3    H236609   7.150   0.120   5.286
12218TIP3   OH236610   2.567   0.390   4.044
12218TIP3    H136611   2.576   0.468   3.989
12218TIP3    H236612   2.533   0.323   3.985
12219TIP3   OH236613   3.911   3.325   4.507
12219TIP3    H136614   3.947   3.250   4.460
12219TIP3    H236615   3.918   3.398   4.445
12220TIP3   OH236616   3.177   3.687   2.514
12220TIP3    H136617   3.199   3.778   2.492
12220TIP3    H236618   3.104   3.666   2.455
12221TIP3   OH236619   3.742   0.099   6.627
12221TIP3    H136620   3.688   0.047   6.567
12221TIP3    H236621   3.824   0.052   6.634
12222TIP3   OH236622   2.414   0.253   6.162
12222TIP3    H136623   2.410   0.312   6.237
12222TIP3    H236624   2.497   0.275   6.120
12223TIP3   OH236625   3.939   7.054   2.579
12223TIP3    H136626   3.958   7.056   2.485
12223TIP3    H236627   3.899   7.139   2.596
12224TIP3   OH236628   7.185   0.621   1.869
12224TIP3    H136629   7.156   0.616   1.960
12224TIP3    H236630   7.157   0.708   1.840
12225TIP3   OH236631   5.248   1.916   3.974
12225TIP3    H136632   5.287   1.994   4.012
12225TIP3    H236633   5.186   1.885   4.039
12226TIP3   OH236634   3.273   0.623   0.987
12226TIP3    H136635   3.271   0.686   1.060
12226TIP3    H236636   3.333   0.555   1.016
12227TIP3   OH236637   2.764   5.213   3.382
12227TIP3    H136638   2.706   5.153   3.430
12227TIP3    H236639   2.770   5.290   3.438
12228TIP3   OH236640   2.124   0.901   1.640
12228TIP3    H136641   2.152   0.846   1.714
12228TIP3    H236642   2.200   0.903   1.582
12229TIP3   OH236643   6.843   5.659   3.393
12229TIP3    H136644   6.817   5.569   3.374
12229TIP3    H236645   6.926   5.649   3.441
12230TIP3   OH236646   2.315   2.866   2.197
12230TIP3    H136647   2.394   2.891   2.246
12230TIP3    H236648   2.338   2.782   2.156
12231TIP3   OH236649   2.096   3.907   3.554
12231TIP3    H136650   2.103   3.816   3.582
12231TIP3    H236651   2.079   3.901   3.459
12232TIP3   OH236652   7.425   2.551   5.775
12232TIP3    H136653   7.371   2.476   5.797
12232TIP3    H236654   7.403   2.617   5.841
12233TIP3   OH236655   5.234   7.650   0.090
12233TIP3    H136656   5.274   7.713   0.150
12233TIP3    H236657   5.143   7.679   0.083
12234TIP3   OH236658   2.067   1.146   1.530
12234TIP3    H136659   2.061   1.065   1.581
12234TIP3    H236660   2.011   1.208   1.576
12235TIP3   OH236661   7.009   4.980   0.455
12235TIP3    H136662   6.922   4.943   0.438
12235TIP3    H236663   7.017   4.981   0.550
12236TIP3   OH236664   5.915   0.200   2.603
12236TIP3    H136665   5.891   0.182   2.512
12236TIP3    H236666   5.853   0.148   2.655
12237TIP3   OH236667   7.439   7.558   1.785
12237TIP3    H136668   7.344   7.563   1.776
12237TIP3    H236669   7.472   7.630   1.731
12238TIP3   OH236670   5.891   6.928   3.609
12238TIP3    H136671   5.844   6.892   3.684
12238TIP3    H236672   5.983   6.904   3.624
12239TIP3   OH236673   2.760   1.479   0.862
12239TIP3    H136674   2.772   1.517   0.949
12239TIP3    H236675   2.679   1.428   0.869
12240TIP3   OH236676   0.889   3.159   4.109
12240TIP3    H136677   0.794   3.159   4.124
12240TIP3    H236678   0.924   3.105   4.180
12241TIP3   OH236679   1.440   3.712   4.590
12241TIP3    H136680   1.406   3.634   4.545
12241TIP3    H236681   1.484   3.677   4.668
12242TIP3   OH236682   3.935   3.441   6.445
12242TIP3    H136683   3.948   3.348   6.426
12242TIP3    H236684   3.841   3.453   6.444
12243TIP3   OH236685   0.441   7.020   5.121
12243TIP3    H136686   0.437   7.017   5.217
12243TIP3    H236687   0.463   7.111   5.101
12244TIP3   OH236688   4.118   3.964   2.883
12244TIP3    H136689   4.166   4.036   2.923
12244TIP3    H236690   4.047   3.944   2.944
12245TIP3   OH236691   6.488   0.895   4.170
12245TIP3    H136692   6.543   0.870   4.097
12245TIP3    H236693   6.493   0.821   4.231
12246TIP3   OH236694   1.668   5.865   3.412
12246TIP3    H136695   1.735   5.918   3.455
12246TIP3    H236696   1.686   5.873   3.319
12247TIP3   OH236697   0.128   4.288   0.244
12247TIP3    H136698   0.080   4.370   0.248
12247TIP3    H236699   0.189   4.292   0.318
12248TIP3   OH236700   1.579   4.572   5.747
12248TIP3    H136701   1.495   4.547   5.785
12248TIP3    H236702   1.594   4.661   5.779
12249TIP3   OH236703   0.236   3.242   4.110
12249TIP3    H136704   0.227   3.149   4.132
12249TIP3    H236705   0.241   3.286   4.195
12250TIP3   OH236706   6.714   5.136   4.173
12250TIP3    H136707   6.803   5.157   4.142
12250TIP3    H236708   6.659   5.149   4.096
12251TIP3   OH236709   8.087   6.406   3.049
12251TIP3    H136710   8.142   6.440   2.978
12251TIP3    H236711   8.091   6.311   3.039
12252TIP3   OH236712   1.738   2.098   1.764
12252TIP3    H136713   1.697   2.085   1.678
12252TIP3    H236714   1.794   2.175   1.752
12253TIP3   OH236715   6.854   3.624   3.837
12253TIP3    H136716   6.902   3.543   3.856
12253TIP3    H236717   6.778   3.595   3.786
12254TIP3   OH236718   3.258   4.597   1.083
12254TIP3    H136719   3.326   4.610   1.148
12254TIP3    H236720   3.272   4.666   1.018
12255TIP3   OH236721   7.281   2.157   6.135
12255TIP3    H136722   7.311   2.086   6.077
12255TIP3    H236723   7.333   2.233   6.110
12256TIP3   OH236724   2.136   2.891   0.323
12256TIP3    H136725   2.204   2.894   0.391
12256TIP3    H236726   2.124   2.983   0.298
12257TIP3   OH236727   3.288   6.264   4.664
12257TIP3    H136728   3.321   6.180   4.634
12257TIP3    H236729   3.366   6.311   4.695
12258TIP3   OH236730   1.450   5.657   5.668
12258TIP3    H136731   1.393   5.681   5.595
12258TIP3    H236732   1.519   5.724   5.668
12259TIP3   OH236733   0.343   0.103   3.579
12259TIP3    H136734   0.254   0.118   3.548
12259TIP3    H236735   0.393   0.175   3.543
12260TIP3   OH236736   1.988   6.265   1.934
12260TIP3    H136737   2.080   6.240   1.941
12260TIP3    H236738   1.966   6.299   2.021
12261TIP3   OH236739   5.107   0.950   2.567
12261TIP3    H136740   5.097   0.908   2.652
12261TIP3    H236741   5.183   1.008   2.577
12262TIP3   OH236742   1.215   1.263   6.274
12262TIP3    H136743   1.290   1.263   6.214
12262TIP3    H236744   1.199   1.355   6.293
12263TIP3   OH236745   4.240   7.094   2.738
12263TIP3    H136746   4.328   7.088   2.701
12263TIP3    H236747   4.194   7.016   2.705
12264TIP3   OH236748   2.637   6.958   0.830
12264TIP3    H136749   2.557   6.972   0.780
12264TIP3    H236750   2.613   6.894   0.897
12265TIP3   OH236751   6.655   4.211   0.778
12265TIP3    H136752   6.733   4.186   0.728
12265TIP3    H236753   6.640   4.303   0.755
12266TIP3   OH236754   5.524   2.729   5.251
12266TIP3    H136755   5.595   2.780   5.289
12266TIP3    H236756   5.530   2.744   5.157
12267TIP3   OH236757   3.880   2.987   5.351
12267TIP3    H136758   3.876   2.893   5.368
12267TIP3    H236759   3.937   2.995   5.274
12268TIP3   OH236760   7.685   0.885   4.685
12268TIP3    H136761   7.698   0.837   4.767
12268TIP3    H236762   7.625   0.956   4.708
12269TIP3   OH236763   7.889   5.432   5.573
12269TIP3    H136764   7.912   5.466   5.486
12269TIP3    H236765   7.942   5.482   5.634
12270TIP3   OH236766   0.382   4.521   1.913
12270TIP3    H136767   0.430   4.441   1.894
12270TIP3    H236768   0.447   4.591   1.905
12271TIP3   OH236769   0.762   5.030   5.202
12271TIP3    H136770   0.761   4.951   5.257
12271TIP3    H236771   0.674   5.067   5.212
12272TIP3   OH236772   3.897   0.537   2.006
12272TIP3    H136773   3.850   0.454   2.015
12272TIP3    H236774   3.984   0.512   1.974
12273TIP3   OH236775   7.166   2.462   6.106
12273TIP3    H136776   7.163   2.466   6.202
12273TIP3    H236777   7.237   2.521   6.082
12274TIP3   OH236778   2.501   2.111   4.380
12274TIP3    H136779   2.520   2.124   4.473
12274TIP3    H236780   2.406   2.107   4.374
12275TIP3   OH236781   6.431   0.917   2.069
12275TIP3    H136782   6.391   0.836   2.101
12275TIP3    H236783   6.458   0.896   1.980
12276TIP3   OH236784   0.747   2.113   6.624
12276TIP3    H136785   0.694   2.170   6.569
12276TIP3    H236786   0.828   2.161   6.638
12277TIP3   OH236787   5.346   0.928   3.235
12277TIP3    H136788   5.256   0.960   3.234
12277TIP3    H236789   5.345   0.854   3.296
12278TIP3   OH236790   5.055   6.135   2.936
12278TIP3    H136791   4.962   6.117   2.952
12278TIP3    H236792   5.073   6.093   2.852
12279TIP3   OH236793   7.034   7.319   6.525
12279TIP3    H136794   6.944   7.351   6.530
12279TIP3    H236795   7.063   7.342   6.437
12280TIP3   OH236796   3.204   5.022   6.297
12280TIP3    H136797   3.239   4.959   6.233
12280TIP3    H236798   3.281   5.055   6.343
12281TIP3   OH236799   3.819   3.342   1.184
12281TIP3    H136800   3.885   3.294   1.235
12281TIP3    H236801   3.868   3.416   1.146
12282TIP3   OH236802   7.189   5.416   0.339
12282TIP3    H136803   7.141   5.361   0.402
12282TIP3    H236804   7.276   5.378   0.336
12283TIP3   OH236805   7.418   6.415   5.573
12283TIP3    H136806   7.434   6.386   5.663
12283TIP3    H236807   7.332   6.380   5.551
12284TIP3   OH236808   6.031   5.115   6.562
12284TIP3    H136809   5.956   5.174   6.561
12284TIP3    H236810   6.106   5.171   6.543
12285TIP3   OH236811   4.235   7.639   0.960
12285TIP3    H136812   4.174   7.705   0.992
12285TIP3    H236813   4.199   7.556   0.988
12286TIP3   OH236814   4.061   4.713   3.213
12286TIP3    H136815   4.117   4.764   3.270
12286TIP3    H236816   4.024   4.776   3.151
12287TIP3   OH236817   4.472   4.294   5.478
12287TIP3    H136818   4.408   4.332   5.419
12287TIP3    H236819   4.533   4.247   5.420
12288TIP3   OH236820   1.306   1.693   1.944
12288TIP3    H136821   1.304   1.715   2.037
12288TIP3    H236822   1.399   1.689   1.923
12289TIP3   OH236823   2.572   0.801   2.156
12289TIP3    H136824   2.623   0.780   2.078
12289TIP3    H236825   2.481   0.784   2.131
12290TIP3   OH236826   1.827   0.819   6.264
12290TIP3    H136827   1.839   0.833   6.170
12290TIP3    H236828   1.912   0.785   6.295
12291TIP3   OH236829   0.546   2.097   0.519
12291TIP3    H136830   0.559   2.181   0.563
12291TIP3    H236831   0.566   2.032   0.587
12292TIP3   OH236832   1.670   3.780   1.319
12292TIP3    H136833   1.720   3.832   1.381
12292TIP3    H236834   1.729   3.707   1.297
12293TIP3   OH236835   1.978   7.128   1.691
12293TIP3    H136836   1.897   7.112   1.740
12293TIP3    H236837   1.964   7.083   1.607
12294TIP3   OH236838   2.620   7.012   2.317
12294TIP3    H136839   2.529   7.037   2.303
12294TIP3    H236840   2.631   6.931   2.266
12295TIP3   OH236841   1.952   0.423   5.981
12295TIP3    H136842   1.944   0.392   5.891
12295TIP3    H236843   2.045   0.413   6.002
12296TIP3   OH236844   7.729   6.042   5.278
12296TIP3    H136845   7.754   6.053   5.370
12296TIP3    H236846   7.774   6.114   5.232
12297TIP3   OH236847   4.588   6.449   5.517
12297TIP3    H136848   4.601   6.409   5.431
12297TIP3    H236849   4.591   6.544   5.500
12298TIP3   OH236850   5.144   2.181   5.695
12298TIP3    H136851   5.164   2.087   5.694
12298TIP3    H236852   5.229   2.223   5.681
12299TIP3   OH236853   2.217   0.052   6.531
12299TIP3    H136854   2.210   0.002   6.450
12299TIP3    H236855   2.307   0.039   6.560
12300TIP3   OH236856   7.516   6.088   4.170
12300TIP3    H136857   7.530   6.127   4.084
12300TIP3    H236858   7.572   6.011   4.171
12301TIP3   OH236859   1.955   6.755   0.335
12301TIP3    H136860   2.046   6.735   0.354
12301TIP3    H236861   1.958   6.808   0.255
12302TIP3   OH236862   0.491   2.397   6.702
12302TIP3    H136863   0.578   2.413   6.666
12302TIP3    H236864   0.440   2.365   6.627
12303TIP3   OH236865   6.582   6.130   0.506
12303TIP3    H136866   6.539   6.214   0.492
12303TIP3    H236867   6.540   6.093   0.584
12304TIP3   OH236868   4.218   0.076   6.334
12304TIP3    H136869   4.194   0.155   6.382
12304TIP3    H236870   4.298   0.045   6.375
12305TIP3   OH236871   2.009   1.559   4.661
12305TIP3    H136872   1.995   1.524   4.749
12305TIP3    H236873   2.063   1.637   4.675
12306TIP3   OH236874   1.677   0.504   4.199
12306TIP3    H136875   1.617   0.496   4.125
12306TIP3    H236876   1.684   0.415   4.233
12307TIP3   OH236877   3.181   6.810   6.808
12307TIP3    H136878   3.261   6.758   6.815
12307TIP3    H236879   3.183   6.844   6.719
12308TIP3   OH236880   4.848   2.124   2.140
12308TIP3    H136881   4.913   2.180   2.181
12308TIP3    H236882   4.770   2.179   2.132
12309TIP3   OH236883   6.028   1.948   0.819
12309TIP3    H136884   6.075   2.031   0.814
12309TIP3    H236885   5.947   1.963   0.771
12310TIP3   OH236886   5.952   1.601   0.675
12310TIP3    H136887   5.973   1.594   0.768
12310TIP3    H236888   5.883   1.536   0.661
12311TIP3   OH236889   5.012   4.732   5.761
12311TIP3    H136890   5.080   4.692   5.816
12311TIP3    H236891   4.952   4.659   5.741
12312TIP3   OH236892   1.324  -0.002   6.719
12312TIP3    H136893   1.372  -0.084   6.728
12312TIP3    H236894   1.384   0.065   6.751
12313TIP3   OH236895   4.005   3.492   5.493
12313TIP3    H136896   4.080   3.546   5.518
12313TIP3    H236897   4.033   3.402   5.513
12314TIP3   OH236898   3.235   3.340   0.144
12314TIP3    H136899   3.325   3.315   0.126
12314TIP3    H236900   3.186   3.308   0.068
12315TIP3   OH236901   7.698   6.186   5.897
12315TIP3    H136902   7.745   6.263   5.930
12315TIP3    H236903   7.763   6.116   5.899
12316TIP3   OH236904   2.908   2.014   5.231
12316TIP3    H136905   2.938   1.925   5.211
12316TIP3    H236906   2.988   2.066   5.235
12317TIP3   OH236907   8.299   6.348   2.162
12317TIP3    H136908   8.283   6.440   2.180
12317TIP3    H236909   8.308   6.343   2.067
12318TIP3   OH236910   3.568   5.078   0.645
12318TIP3    H136911   3.563   5.067   0.550
12318TIP3    H236912   3.527   5.000   0.680
12319TIP3   OH236913   8.256   2.188   3.330
12319TIP3    H136914   8.221   2.139   3.256
12319TIP3    H236915   8.348   2.164   3.334
12320TIP3   OH236916   0.366   2.276   1.507
12320TIP3    H136917   0.308   2.349   1.490
12320TIP3    H236918   0.421   2.305   1.580
12321TIP3   OH236919   6.632   6.012   6.307
12321TIP3    H136920   6.555   6.069   6.301
12321TIP3    H236921   6.692   6.059   6.364
12322TIP3   OH236922   5.731   3.302   2.687
12322TIP3    H136923   5.778   3.219   2.686
12322TIP3    H236924   5.666   3.294   2.618
12323TIP3   OH236925   5.656   6.637   4.427
12323TIP3    H136926   5.581   6.674   4.380
12323TIP3    H236927   5.655   6.544   4.404
12324TIP3   OH236928   2.884   4.006   0.513
12324TIP3    H136929   2.924   4.008   0.600
12324TIP3    H236930   2.890   3.914   0.486
12325TIP3   OH236931   4.061   6.610   2.001
12325TIP3    H136932   3.968   6.626   2.017
12325TIP3    H236933   4.073   6.631   1.908
12326TIP3   OH236934   5.691   5.459   0.467
12326TIP3    H136935   5.783   5.438   0.477
12326TIP3    H236936   5.649   5.422   0.545
12327TIP3   OH236937   3.856   3.850   1.834
12327TIP3    H136938   3.875   3.757   1.841
12327TIP3    H236939   3.855   3.881   1.924
12328TIP3   OH236940   3.587   5.582   6.560
12328TIP3    H136941   3.611   5.651   6.621
12328TIP3    H236942   3.589   5.624   6.474
12329TIP3   OH236943   4.768   5.946   3.167
12329TIP3    H136944   4.690   5.916   3.214
12329TIP3    H236945   4.783   6.035   3.199
12330TIP3   OH236946   6.711   3.092   3.558
12330TIP3    H136947   6.677   3.141   3.483
12330TIP3    H236948   6.725   3.004   3.524
12331TIP3   OH236949   4.070   1.575   1.738
12331TIP3    H136950   4.020   1.514   1.791
12331TIP3    H236951   4.005   1.637   1.705
12332TIP3   OH236952   2.070   7.118   3.381
12332TIP3    H136953   2.011   7.182   3.342
12332TIP3    H236954   2.156   7.161   3.379
12333TIP3   OH236955   6.515   7.168   0.105
12333TIP3    H136956   6.583   7.153   0.039
12333TIP3    H236957   6.433   7.145   0.062
12334TIP3   OH236958   7.224   3.885   2.781
12334TIP3    H136959   7.296   3.822   2.777
12334TIP3    H236960   7.147   3.831   2.799
12335TIP3   OH236961   5.778   2.683   6.478
12335TIP3    H136962   5.745   2.647   6.560
12335TIP3    H236963   5.791   2.606   6.422
12336TIP3   OH236964   0.682   1.481   5.301
12336TIP3    H136965   0.770   1.503   5.272
12336TIP3    H236966   0.627   1.491   5.223
12337TIP3   OH236967   5.130   0.916   5.249
12337TIP3    H136968   5.140   0.987   5.185
12337TIP3    H236969   5.081   0.849   5.202
12338TIP3   OH236970   7.367   2.620   1.259
12338TIP3    H136971   7.316   2.543   1.283
12338TIP3    H236972   7.304   2.679   1.219
12339TIP3   OH236973   5.464   1.819   4.650
12339TIP3    H136974   5.555   1.792   4.636
12339TIP3    H236975   5.459   1.836   4.744
12340TIP3   OH236976   6.807   4.903   1.652
12340TIP3    H136977   6.818   4.919   1.558
12340TIP3    H236978   6.896   4.912   1.688
12341TIP3   OH236979   0.675   7.087   1.193
12341TIP3    H136980   0.693   7.102   1.100
12341TIP3    H236981   0.592   7.040   1.194
12342TIP3   OH236982   3.762   0.624   1.374
12342TIP3    H136983   3.752   0.643   1.468
12342TIP3    H236984   3.847   0.662   1.352
12343TIP3   OH236985   2.632   7.244   3.988
12343TIP3    H136986   2.652   7.240   4.081
12343TIP3    H236987   2.536   7.249   3.984
12344TIP3   OH236988   7.929   4.921   1.748
12344TIP3    H136989   8.008   4.900   1.699
12344TIP3    H236990   7.954   4.994   1.805
12345TIP3   OH236991   1.605   1.444   0.934
12345TIP3    H136992   1.635   1.368   0.883
12345TIP3    H236993   1.527   1.474   0.889
12346TIP3   OH236994   0.780   7.182   5.229
12346TIP3    H136995   0.805   7.223   5.312
12346TIP3    H236996   0.737   7.253   5.180
12347TIP3   OH236997   6.848   2.063   1.494
12347TIP3    H136998   6.914   2.099   1.436
12347TIP3    H236999   6.766   2.068   1.444
12348TIP3   OH237000   3.644   2.093   1.356
12348TIP3    H137001   3.673   2.087   1.447
12348TIP3    H237002   3.700   2.030   1.309
12349TIP3   OH237003   6.827   5.258   4.822
12349TIP3    H137004   6.863   5.170   4.834
12349TIP3    H237005   6.755   5.246   4.759
12350TIP3   OH237006   0.960   6.542   5.868
12350TIP3    H137007   0.904   6.468   5.890
12350TIP3    H237008   0.906   6.596   5.810
12351TIP3   OH237009   1.875   4.040   2.026
12351TIP3    H137010   1.860   4.134   2.027
12351TIP3    H237011   1.967   4.029   2.047
12352TIP3   OH237012   4.979   6.558   2.961
12352TIP3    H137013   4.989   6.650   2.937
12352TIP3    H237014   4.894   6.533   2.925
12353TIP3   OH237015   3.309   1.822   3.983
12353TIP3    H137016   3.294   1.732   3.952
12353TIP3    H237017   3.221   1.857   3.998
12354TIP3   OH237018   7.839   6.289   0.742
12354TIP3    H137019   7.915   6.335   0.778
12354TIP3    H237020   7.773   6.356   0.730
12355TIP3   OH237021   5.968   1.805   1.335
12355TIP3    H137022   6.023   1.858   1.393
12355TIP3    H237023   5.984   1.841   1.247
12356TIP3   OH237024   7.735   1.758   5.056
12356TIP3    H137025   7.786   1.838   5.069
12356TIP3    H237026   7.668   1.761   5.125
12357TIP3   OH237027   4.833   0.929   1.645
12357TIP3    H137028   4.870   0.982   1.574
12357TIP3    H237029   4.784   0.860   1.600
12358TIP3   OH237030   5.822   4.416   6.155
12358TIP3    H137031   5.867   4.485   6.106
12358TIP3    H237032   5.816   4.450   6.245
12359TIP3   OH237033   4.498   1.033   5.155
12359TIP3    H137034   4.542   0.948   5.158
12359TIP3    H237035   4.530   1.074   5.075
12360TIP3   OH237036   2.285   3.580   2.175
12360TIP3    H137037   2.235   3.500   2.191
12360TIP3    H237038   2.330   3.565   2.092
12361TIP3   OH237039   5.991   2.739   1.827
12361TIP3    H137040   5.987   2.740   1.923
12361TIP3    H237041   6.065   2.795   1.806
12362TIP3   OH237042   2.759   0.157   1.741
12362TIP3    H137043   2.679   0.115   1.772
12362TIP3    H237044   2.761   0.139   1.647
12363TIP3   OH237045   8.122   3.367   0.857
12363TIP3    H137046   8.152   3.318   0.781
12363TIP3    H237047   8.037   3.329   0.879
12364TIP3   OH237048   6.077   0.019   5.552
12364TIP3    H137049   6.128  -0.019   5.623
12364TIP3    H237050   6.073   0.112   5.572
12365TIP3   OH237051   3.777   7.505   2.791
12365TIP3    H137052   3.861   7.532   2.828
12365TIP3    H237053   3.761   7.569   2.721
12366TIP3   OH237054   1.726   5.249   1.260
12366TIP3    H137055   1.682   5.234   1.344
12366TIP3    H237056   1.690   5.181   1.203
12367TIP3   OH237057   6.639   6.615   6.737
12367TIP3    H137058   6.711   6.653   6.787
12367TIP3    H237059   6.613   6.684   6.676
12368TIP3   OH237060   2.947   2.886   1.187
12368TIP3    H137061   2.986   2.973   1.190
12368TIP3    H237062   2.874   2.895   1.125
12369TIP3   OH237063   5.836   3.566   0.070
12369TIP3    H137064   5.903   3.635   0.070
12369TIP3    H237065   5.874   3.496   0.122
12370TIP3   OH237066   7.815   2.029   4.736
12370TIP3    H137067   7.907   2.011   4.758
12370TIP3    H237068   7.793   2.107   4.786
12371TIP3   OH237069   0.066   6.860   3.583
12371TIP3    H137070   0.032   6.869   3.494
12371TIP3    H237071   0.161   6.868   3.573
12372TIP3   OH237072   1.402   5.139   1.829
12372TIP3    H137073   1.374   5.106   1.915
12372TIP3    H237074   1.494   5.162   1.841
12373TIP3   OH237075   1.992   1.113   1.804
12373TIP3    H137076   2.075   1.121   1.850
12373TIP3    H237077   1.962   1.024   1.822
12374TIP3   OH237078   0.005   5.704   3.464
12374TIP3    H137079   0.066   5.769   3.497
12374TIP3    H237080   0.048   5.666   3.388
12375TIP3   OH237081   3.995   4.872   6.742
12375TIP3    H137082   4.005   4.804   6.808
12375TIP3    H237083   3.902   4.894   6.745
12376TIP3   OH237084   0.453   6.268   2.788
12376TIP3    H137085   0.517   6.223   2.732
12376TIP3    H237086   0.436   6.207   2.859
12377TIP3   OH237087   3.312   0.981   0.160
12377TIP3    H137088   3.360   0.949   0.084
12377TIP3    H237089   3.318   1.077   0.153
12378TIP3   OH237090   4.323   6.541   6.381
12378TIP3    H137091   4.305   6.487   6.305
12378TIP3    H237092   4.419   6.543   6.387
12379TIP3   OH237093   1.275   5.751   3.639
12379TIP3    H137094   1.349   5.702   3.602
12379TIP3    H237095   1.245   5.697   3.713
12380TIP3   OH237096   4.702   6.921   3.908
12380TIP3    H137097   4.757   6.982   3.858
12380TIP3    H237098   4.623   6.970   3.929
12381TIP3   OH237099   3.669   2.299   2.492
12381TIP3    H137100   3.624   2.319   2.409
12381TIP3    H237101   3.720   2.221   2.472
12382TIP3   OH237102   7.028   0.514   6.614
12382TIP3    H137103   7.012   0.596   6.662
12382TIP3    H237104   7.122   0.516   6.595
12383TIP3   OH237105   5.371   5.007   6.401
12383TIP3    H137106   5.348   5.048   6.317
12383TIP3    H237107   5.288   4.974   6.435
12384TIP3   OH237108   5.688   5.996   5.099
12384TIP3    H137109   5.668   6.040   5.016
12384TIP3    H237110   5.780   6.016   5.115
12385TIP3   OH237111   0.612   2.411   0.711
12385TIP3    H137112   0.680   2.446   0.654
12385TIP3    H237113   0.540   2.389   0.652
12386TIP3   OH237114   2.724   1.586   6.734
12386TIP3    H137115   2.683   1.499   6.729
12386TIP3    H237116   2.766   1.587   6.819
12387TIP3   OH237117   7.459   1.786   3.851
12387TIP3    H137118   7.445   1.691   3.860
12387TIP3    H237119   7.433   1.806   3.761
12388TIP3   OH237120   2.224   2.502   4.535
12388TIP3    H137121   2.187   2.438   4.474
12388TIP3    H237122   2.154   2.567   4.547
12389TIP3   OH237123   1.615   6.648   1.174
12389TIP3    H137124   1.699   6.668   1.216
12389TIP3    H237125   1.639   6.620   1.085
12390TIP3   OH237126   4.041   7.093   4.979
12390TIP3    H137127   4.124   7.073   4.936
12390TIP3    H237128   4.012   7.008   5.014
12391TIP3   OH237129   3.223   6.736   2.389
12391TIP3    H137130   3.204   6.778   2.306
12391TIP3    H237131   3.153   6.764   2.448
12392TIP3   OH237132   7.826   4.130   6.403
12392TIP3    H137133   7.814   4.044   6.363
12392TIP3    H237134   7.742   4.174   6.389
12393TIP3   OH237135   7.578   6.666   3.859
12393TIP3    H137136   7.548   6.723   3.930
12393TIP3    H237137   7.668   6.694   3.842
12394TIP3   OH237138   1.451   4.907   3.437
12394TIP3    H137139   1.363   4.944   3.439
12394TIP3    H237140   1.505   4.972   3.392
12395TIP3   OH237141   2.794   4.207   5.194
12395TIP3    H137142   2.889   4.218   5.200
12395TIP3    H237143   2.782   4.140   5.127
12396TIP3   OH237144   2.594   2.906   5.583
12396TIP3    H137145   2.659   2.976   5.590
12396TIP3    H237146   2.529   2.928   5.651
12397TIP3   OH237147   4.552   4.191   4.656
12397TIP3    H137148   4.583   4.234   4.576
12397TIP3    H237149   4.474   4.240   4.681
12398TIP3   OH237150   3.925   7.790   5.850
12398TIP3    H137151   3.849   7.733   5.860
12398TIP3    H237152   3.888   7.875   5.826
12399TIP3   OH237153   7.024   6.425   2.982
12399TIP3    H137154   6.999   6.517   2.979
12399TIP3    H237155   7.071   6.409   2.901
12400TIP3   OH237156   8.181   7.243   5.933
12400TIP3    H137157   8.269   7.277   5.950
12400TIP3    H237158   8.173   7.244   5.838
12401TIP3   OH237159   7.523   4.984   6.549
12401TIP3    H137160   7.453   5.013   6.607
12401TIP3    H237161   7.534   5.056   6.487
12402TIP3   OH237162   4.637   2.350   0.954
12402TIP3    H137163   4.697   2.418   0.984
12402TIP3    H237164   4.663   2.271   1.002
12403TIP3   OH237165   5.553   7.637   5.262
12403TIP3    H137166   5.621   7.631   5.329
12403TIP3    H237167   5.511   7.551   5.263
12404TIP3   OH237168   4.062   3.555   0.705
12404TIP3    H137169   4.142   3.569   0.757
12404TIP3    H237170   4.094   3.524   0.620
12405TIP3   OH237171   5.961   4.526   3.805
12405TIP3    H137172   6.049   4.488   3.795
12405TIP3    H237173   5.927   4.489   3.886
12406TIP3   OH237174   3.907   0.271   2.036
12406TIP3    H137175   3.957   0.231   1.965
12406TIP3    H237176   3.829   0.217   2.045
12407TIP3   OH237177   4.570   0.474   4.644
12407TIP3    H137178   4.632   0.510   4.707
12407TIP3    H237179   4.600   0.385   4.629
12408TIP3   OH237180   0.833   0.054   3.174
12408TIP3    H137181   0.784   0.018   3.248
12408TIP3    H237182   0.789   0.137   3.154
12409TIP3   OH237183   3.163   1.450   5.220
12409TIP3    H137184   3.215   1.511   5.168
12409TIP3    H237185   3.157   1.491   5.306
12410TIP3   OH237186   6.966   4.490   1.924
12410TIP3    H137187   6.879   4.453   1.919
12410TIP3    H237188   7.019   4.423   1.967
12411TIP3   OH237189   7.465   3.096   0.536
12411TIP3    H137190   7.534   3.082   0.471
12411TIP3    H237191   7.386   3.059   0.495
12412TIP3   OH237192   4.316   5.848   1.586
12412TIP3    H137193   4.345   5.758   1.602
12412TIP3    H237194   4.222   5.847   1.604
12413TIP3   OH237195   7.347   7.792   6.654
12413TIP3    H137196   7.323   7.864   6.596
12413TIP3    H237197   7.313   7.818   6.740
12414TIP3   OH237198   3.243   3.943   2.386
12414TIP3    H137199   3.160   3.967   2.345
12414TIP3    H237200   3.251   4.003   2.461
12415TIP3   OH237201   5.776   1.154   1.287
12415TIP3    H137202   5.689   1.133   1.253
12415TIP3    H237203   5.829   1.077   1.268
12416TIP3   OH237204   7.722   1.460   4.380
12416TIP3    H137205   7.717   1.399   4.453
12416TIP3    H237206   7.733   1.405   4.303
12417TIP3   OH237207   4.877   6.741   5.715
12417TIP3    H137208   4.913   6.660   5.680
12417TIP3    H237209   4.803   6.713   5.769
12418TIP3   OH237210   3.513   7.175   1.333
12418TIP3    H137211   3.479   7.263   1.316
12418TIP3    H237212   3.502   7.163   1.427
12419TIP3   OH237213   5.399   1.610   5.497
12419TIP3    H137214   5.399   1.535   5.437
12419TIP3    H237215   5.489   1.641   5.498
12420TIP3   OH237216   8.193   0.308   4.912
12420TIP3    H137217   8.134   0.361   4.858
12420TIP3    H237218   8.159   0.219   4.905
12421TIP3   OH237219   2.545   4.697   3.629
12421TIP3    H137220   2.614   4.729   3.688
12421TIP3    H237221   2.466   4.698   3.682
12422TIP3   OH237222   1.477   0.450   2.061
12422TIP3    H137223   1.486   0.378   2.122
12422TIP3    H237224   1.561   0.454   2.015
12423TIP3   OH237225   1.603   2.940   1.252
12423TIP3    H137226   1.627   2.968   1.164
12423TIP3    H237227   1.684   2.946   1.303
12424TIP3   OH237228   1.798   3.400   6.306
12424TIP3    H137229   1.883   3.401   6.260
12424TIP3    H237230   1.804   3.474   6.366
12425TIP3   OH237231   2.508   6.205   4.658
12425TIP3    H137232   2.558   6.203   4.577
12425TIP3    H237233   2.552   6.272   4.711
12426TIP3   OH237234   1.004   4.041   6.296
12426TIP3    H137235   1.013   3.956   6.252
12426TIP3    H237236   0.912   4.063   6.288
12427TIP3   OH237237   2.175   6.246   5.776
12427TIP3    H137238   2.243   6.222   5.713
12427TIP3    H237239   2.208   6.326   5.818
12428TIP3   OH237240   4.372   1.592   3.343
12428TIP3    H137241   4.415   1.570   3.260
12428TIP3    H237242   4.385   1.515   3.398
12429TIP3   OH237243   1.392   6.445   1.256
12429TIP3    H137244   1.450   6.520   1.260
12429TIP3    H237245   1.410   6.405   1.171
12430TIP3   OH237246   6.305   6.614   4.667
12430TIP3    H137247   6.375   6.667   4.628
12430TIP3    H237248   6.231   6.626   4.608
12431TIP3   OH237249   8.115   0.258   1.107
12431TIP3    H137250   8.192   0.262   1.163
12431TIP3    H237251   8.121   0.336   1.052
12432TIP3   OH237252   2.019   2.305   6.411
12432TIP3    H137253   1.953   2.356   6.365
12432TIP3    H237254   2.011   2.331   6.503
12433TIP3   OH237255   7.765   2.969   0.508
12433TIP3    H137256   7.753   2.881   0.542
12433TIP3    H237257   7.806   3.018   0.579
12434TIP3   OH237258   2.176   0.983   6.712
12434TIP3    H137259   2.092   1.001   6.754
12434TIP3    H237260   2.162   0.902   6.663
12435TIP3   OH237261   0.442   1.027   6.067
12435TIP3    H137262   0.441   1.079   6.147
12435TIP3    H237263   0.528   1.044   6.028
12436TIP3   OH237264   1.137   5.432   3.604
12436TIP3    H137265   1.074   5.363   3.625
12436TIP3    H237266   1.090   5.490   3.544
12437TIP3   OH237267   6.133   7.136   5.211
12437TIP3    H137268   6.084   7.216   5.193
12437TIP3    H237269   6.148   7.097   5.125
12438TIP3   OH237270   2.484   1.058   6.064
12438TIP3    H137271   2.507   1.091   6.151
12438TIP3    H237272   2.480   0.963   6.075
12439TIP3   OH237273   7.558   3.419   0.435
12439TIP3    H137274   7.481   3.474   0.450
12439TIP3    H237275   7.529   3.352   0.373
12440TIP3   OH237276   7.718   7.553   0.590
12440TIP3    H137277   7.805   7.566   0.626
12440TIP3    H237278   7.703   7.458   0.597
12441TIP3   OH237279   6.921   7.305   2.920
12441TIP3    H137280   6.940   7.332   3.010
12441TIP3    H237281   6.855   7.235   2.929
12442TIP3   OH237282   7.913   6.917   3.811
12442TIP3    H137283   7.851   6.867   3.759
12442TIP3    H237284   7.864   6.943   3.889
12443TIP3   OH237285   0.709   7.538   0.059
12443TIP3    H137286   0.789   7.562   0.105
12443TIP3    H237287   0.641   7.540   0.127
12444TIP3   OH237288   0.668   4.623   4.017
12444TIP3    H137289   0.575   4.643   4.009
12444TIP3    H237290   0.675   4.572   4.098
12445TIP3   OH237291   0.096   4.910   2.227
12445TIP3    H137292   0.108   4.819   2.198
12445TIP3    H237293   0.022   4.906   2.287
12446TIP3   OH237294   7.327   5.688   4.059
12446TIP3    H137295   7.318   5.695   4.154
12446TIP3    H237296   7.348   5.776   4.029
12447TIP3   OH237297   7.002   4.772   2.184
12447TIP3    H137298   7.063   4.837   2.148
12447TIP3    H237299   7.055   4.694   2.198
12448TIP3   OH237300   0.752   2.282   6.296
12448TIP3    H137301   0.798   2.242   6.222
12448TIP3    H237302   0.701   2.354   6.257
12449TIP3   OH237303   5.887   3.268   5.978
12449TIP3    H137304   5.901   3.304   5.890
12449TIP3    H237305   5.913   3.176   5.970
12450TIP3   OH237306   3.029   5.986   4.797
12450TIP3    H137307   3.098   6.050   4.780
12450TIP3    H237308   2.988   5.970   4.712
12451TIP3   OH237309   1.285   0.809   6.576
12451TIP3    H137310   1.266   0.730   6.627
12451TIP3    H237311   1.275   0.881   6.639
12452TIP3   OH237312   4.084   7.479   2.482
12452TIP3    H137313   4.008   7.526   2.447
12452TIP3    H237314   4.144   7.472   2.407
12453TIP3   OH237315   4.039   4.822   1.974
12453TIP3    H137316   3.958   4.777   1.956
12453TIP3    H237317   4.015   4.915   1.975
12454TIP3   OH237318   6.606   3.378   4.955
12454TIP3    H137319   6.609   3.463   4.998
12454TIP3    H237320   6.683   3.332   4.986
12455TIP3   OH237321   4.430   4.457   2.913
12455TIP3    H137322   4.377   4.517   2.965
12455TIP3    H237323   4.517   4.496   2.913
12456TIP3   OH237324   7.276   2.148   1.585
12456TIP3    H137325   7.210   2.100   1.634
12456TIP3    H237326   7.254   2.240   1.599
12457TIP3   OH237327   1.905   2.524   5.577
12457TIP3    H137328   1.948   2.439   5.590
12457TIP3    H237329   1.819   2.514   5.618
12458TIP3   OH237330   7.353   1.789   3.475
12458TIP3    H137331   7.284   1.723   3.471
12458TIP3    H237332   7.306   1.872   3.464
12459TIP3   OH237333   6.237   2.777   6.310
12459TIP3    H137334   6.153   2.814   6.285
12459TIP3    H237335   6.222   2.739   6.396
12460TIP3   OH237336   1.221   3.506   4.230
12460TIP3    H137337   1.126   3.511   4.243
12460TIP3    H237338   1.247   3.594   4.205
12461TIP3   OH237339   0.715   3.567   4.127
12461TIP3    H137340   0.629   3.542   4.162
12461TIP3    H237341   0.721   3.522   4.043
12462TIP3   OH237342   8.271   4.563   6.708
12462TIP3    H137343   8.349   4.522   6.670
12462TIP3    H237344   8.284   4.558   6.802
12463TIP3   OH237345   0.063   6.696   1.292
12463TIP3    H137346   0.003   6.729   1.225
12463TIP3    H237347   0.120   6.770   1.312
12464TIP3   OH237348   1.061   7.114   2.289
12464TIP3    H137349   0.995   7.051   2.318
12464TIP3    H237350   1.023   7.199   2.309
12465TIP3   OH237351   2.836   1.191   5.315
12465TIP3    H137352   2.898   1.131   5.357
12465TIP3    H237353   2.781   1.223   5.386
12466TIP3   OH237354   0.519   1.951   5.773
12466TIP3    H137355   0.532   1.911   5.859
12466TIP3    H237356   0.444   1.903   5.737
12467TIP3   OH237357   1.976   4.570   3.908
12467TIP3    H137358   1.987   4.613   3.823
12467TIP3    H237359   2.042   4.501   3.909
12468TIP3   OH237360   2.472   1.165   5.108
12468TIP3    H137361   2.436   1.226   5.043
12468TIP3    H237362   2.440   1.079   5.080
12469TIP3   OH237363   7.457   0.402   0.966
12469TIP3    H137364   7.446   0.318   0.921
12469TIP3    H237365   7.522   0.449   0.913
12470TIP3   OH237366   1.320   4.534   1.112
12470TIP3    H137367   1.345   4.491   1.193
12470TIP3    H237368   1.386   4.505   1.049
12471TIP3   OH237369   8.171   5.181   0.652
12471TIP3    H137370   8.145   5.273   0.646
12471TIP3    H237371   8.188   5.168   0.746
12472TIP3   OH237372   6.998   5.809   6.713
12472TIP3    H137373   6.955   5.856   6.784
12472TIP3    H237374   7.072   5.765   6.754
12473TIP3   OH237375   0.192   2.625   5.578
12473TIP3    H137376   0.136   2.689   5.534
12473TIP3    H237377   0.137   2.589   5.647
12474TIP3   OH237378   0.154   5.164   5.453
12474TIP3    H137379   0.202   5.081   5.455
12474TIP3    H237380   0.195   5.214   5.383
12475TIP3   OH237381   7.007   0.165   5.972
12475TIP3    H137382   6.985   0.225   5.901
12475TIP3    H237383   7.099   0.142   5.957
12476TIP3   OH237384   1.158   5.983   5.417
12476TIP3    H137385   1.189   6.070   5.441
12476TIP3    H237386   1.109   5.996   5.337
12477TIP3   OH237387   2.148   4.340   5.341
12477TIP3    H137388   2.238   4.307   5.333
12477TIP3    H237389   2.123   4.318   5.431
12478TIP3   OH237390   2.125   1.163   5.070
12478TIP3    H137391   2.126   1.149   5.164
12478TIP3    H237392   2.082   1.085   5.034
12479TIP3   OH237393   6.250   4.283   4.957
12479TIP3    H137394   6.306   4.334   5.015
12479TIP3    H237395   6.215   4.346   4.894
12480TIP3   OH237396   2.146   7.684   2.683
12480TIP3    H137397   2.137   7.732   2.765
12480TIP3    H237398   2.108   7.598   2.700
12481TIP3   OH237399   6.293   5.210   5.204
12481TIP3    H137400   6.288   5.225   5.299
12481TIP3    H237401   6.292   5.115   5.195
12482TIP3   OH237402   5.077   2.912   5.144
12482TIP3    H137403   5.064   2.980   5.077
12482TIP3    H237404   5.002   2.853   5.132
12483TIP3   OH237405   7.076   7.077   5.495
12483TIP3    H137406   7.070   7.006   5.558
12483TIP3    H237407   7.086   7.034   5.410
12484TIP3   OH237408   1.342   1.462   3.420
12484TIP3    H137409   1.272   1.400   3.435
12484TIP3    H237410   1.340   1.520   3.496
12485TIP3   OH237411   7.165   6.288   1.116
12485TIP3    H137412   7.164   6.306   1.210
12485TIP3    H237413   7.080   6.246   1.099
12486TIP3   OH237414   0.359   0.291   3.139
12486TIP3    H137415   0.331   0.324   3.224
12486TIP3    H237416   0.418   0.358   3.105
12487TIP3   OH237417   2.676   1.848   0.526
12487TIP3    H137418   2.689   1.785   0.597
12487TIP3    H237419   2.736   1.919   0.546
12488TIP3   OH237420   0.654   3.518   0.398
12488TIP3    H137421   0.701   3.504   0.316
12488TIP3    H237422   0.691   3.453   0.458
12489TIP3   OH237423   1.596   6.354   3.816
12489TIP3    H137424   1.613   6.260   3.821
12489TIP3    H237425   1.505   6.360   3.788
12490TIP3   OH237426   4.769   3.509   4.681
12490TIP3    H137427   4.702   3.563   4.640
12490TIP3    H237428   4.723   3.463   4.751
12491TIP3   OH237429   4.131   5.572   2.148
12491TIP3    H137430   4.183   5.621   2.211
12491TIP3    H237431   4.167   5.483   2.150
12492TIP3   OH237432   2.380   0.791   2.515
12492TIP3    H137433   2.468   0.826   2.506
12492TIP3    H237434   2.341   0.802   2.428
12493TIP3   OH237435   5.203   4.383   6.477
12493TIP3    H137436   5.220   4.411   6.567
12493TIP3    H237437   5.261   4.308   6.464
12494TIP3   OH237438   1.228   6.501   5.865
12494TIP3    H137439   1.139   6.536   5.861
12494TIP3    H237440   1.216   6.406   5.874
12495TIP3   OH237441   6.321   0.348   5.905
12495TIP3    H137442   6.369   0.266   5.896
12495TIP3    H237443   6.379   0.414   5.867
12496TIP3   OH237444   1.176   7.486   2.859
12496TIP3    H137445   1.087   7.516   2.873
12496TIP3    H237446   1.230   7.546   2.910
12497TIP3   OH237447   3.239   1.828   4.291
12497TIP3    H137448   3.245   1.733   4.303
12497TIP3    H237449   3.329   1.859   4.298
12498TIP3   OH237450   3.866   2.923   4.792
12498TIP3    H137451   3.848   2.983   4.865
12498TIP3    H237452   3.961   2.919   4.787
12499TIP3   OH237453   5.635   1.062   6.760
12499TIP3    H137454   5.563   1.010   6.797
12499TIP3    H237455   5.682   1.002   6.703
12500TIP3   OH237456   4.383   1.669   0.121
12500TIP3    H137457   4.301   1.682   0.168
12500TIP3    H237458   4.449   1.661   0.190
12501TIP3   OH237459   0.602   5.165   4.572
12501TIP3    H137460   0.619   5.072   4.555
12501TIP3    H237461   0.542   5.191   4.502
12502TIP3   OH237462   3.348   2.744   6.180
12502TIP3    H137463   3.336   2.836   6.201
12502TIP3    H237464   3.339   2.740   6.084
12503TIP3   OH237465   5.493   0.034   6.674
12503TIP3    H137466   5.494  -0.052   6.632
12503TIP3    H237467   5.519   0.095   6.604
12504TIP3   OH237468   5.590   1.732   6.546
12504TIP3    H137469   5.656   1.739   6.477
12504TIP3    H237470   5.639   1.703   6.623
12505TIP3   OH237471   6.992   7.585   6.042
12505TIP3    H137472   7.052   7.511   6.046
12505TIP3    H237473   7.031   7.645   5.978
12506TIP3   OH237474   6.974   6.122   3.963
12506TIP3    H137475   7.047   6.112   4.024
12506TIP3    H237476   6.954   6.216   3.965
12507TIP3   OH237477   5.950   3.640   5.830
12507TIP3    H137478   6.021   3.578   5.845
12507TIP3    H237479   5.874   3.585   5.812
12508TIP3   OH237480   4.250   3.451   2.146
12508TIP3    H137481   4.340   3.425   2.167
12508TIP3    H237482   4.244   3.542   2.174
12509TIP3   OH237483   6.343   2.280   6.277
12509TIP3    H137484   6.327   2.186   6.288
12509TIP3    H237485   6.305   2.320   6.355
12510TIP3   OH237486   4.861   2.394   4.018
12510TIP3    H137487   4.911   2.473   4.001
12510TIP3    H237488   4.770   2.419   4.002
12511TIP3   OH237489   5.522   6.275   0.198
12511TIP3    H137490   5.492   6.362   0.222
12511TIP3    H237491   5.564   6.287   0.113
12512TIP3   OH237492   3.007   1.203   6.635
12512TIP3    H137493   3.078   1.160   6.588
12512TIP3    H237494   3.039   1.212   6.724
12513TIP3   OH237495   0.225   0.475   5.835
12513TIP3    H137496   0.294   0.410   5.852
12513TIP3    H237497   0.173   0.477   5.916
12514TIP3   OH237498   3.775   3.035   2.375
12514TIP3    H137499   3.827   2.994   2.444
12514TIP3    H237500   3.731   3.108   2.418
12515TIP3   OH237501   6.504   2.581   4.483
12515TIP3    H137502   6.544   2.556   4.566
12515TIP3    H237503   6.553   2.658   4.454
12516TIP3   OH237504   7.652   7.760   1.741
12516TIP3    H137505   7.600   7.831   1.701
12516TIP3    H237506   7.638   7.770   1.835
12517TIP3   OH237507   1.154   7.356   3.287
12517TIP3    H137508   1.133   7.345   3.380
12517TIP3    H237509   1.120   7.443   3.265
12518TIP3   OH237510   1.163   1.022   6.406
12518TIP3    H137511   1.178   1.112   6.377
12518TIP3    H237512   1.211   0.969   6.342
12519TIP3   OH237513   5.243   1.445   3.456
12519TIP3    H137514   5.270   1.411   3.541
12519TIP3    H237515   5.303   1.404   3.394
12520TIP3   OH237516   0.488   3.885   5.638
12520TIP3    H137517   0.434   3.931   5.574
12520TIP3    H237518   0.559   3.946   5.658
12521TIP3   OH237519   8.142   3.835   6.272
12521TIP3    H137520   8.229   3.870   6.292
12521TIP3    H237521   8.157   3.772   6.202
12522TIP3   OH237522   1.431   4.776   0.711
12522TIP3    H137523   1.445   4.810   0.623
12522TIP3    H237524   1.491   4.701   0.718
12523TIP3   OH237525   4.284   1.797   6.711
12523TIP3    H137526   4.225   1.870   6.727
12523TIP3    H237527   4.310   1.767   6.799
12524TIP3   OH237528   3.434   5.301   2.446
12524TIP3    H137529   3.507   5.320   2.388
12524TIP3    H237530   3.396   5.387   2.466
12525TIP3   OH237531   6.564   6.343   1.567
12525TIP3    H137532   6.481   6.376   1.601
12525TIP3    H237533   6.554   6.346   1.472
12526TIP3   OH237534   3.514   6.202   1.405
12526TIP3    H137535   3.473   6.117   1.422
12526TIP3    H237536   3.574   6.216   1.478
12527TIP3   OH237537   4.387   2.222   1.892
12527TIP3    H137538   4.442   2.269   1.829
12527TIP3    H237539   4.350   2.150   1.841
12528TIP3   OH237540   6.282   0.706   2.191
12528TIP3    H137541   6.331   0.632   2.227
12528TIP3    H237542   6.275   0.768   2.264
12529TIP3   OH237543   7.047   3.470   0.468
12529TIP3    H137544   7.071   3.380   0.444
12529TIP3    H237545   6.953   3.475   0.453
12530TIP3   OH237546   3.936   6.040   4.019
12530TIP3    H137547   3.943   5.945   4.027
12530TIP3    H237548   3.943   6.056   3.925
12531TIP3   OH237549   7.851   6.471   5.641
12531TIP3    H137550   7.770   6.421   5.644
12531TIP3    H237551   7.914   6.419   5.691
12532TIP3   OH237552   0.112   2.298   2.595
12532TIP3    H137553   0.161   2.223   2.629
12532TIP3    H237554   0.174   2.343   2.537
12533TIP3   OH237555   6.343   7.377   2.326
12533TIP3    H137556   6.270   7.410   2.275
12533TIP3    H237557   6.395   7.454   2.348
12534TIP3   OH237558   3.222   6.892   0.284
12534TIP3    H137559   3.155   6.948   0.323
12534TIP3    H237560   3.243   6.829   0.352
12535TIP3   OH237561   0.665   1.279   2.756
12535TIP3    H137562   0.674   1.368   2.791
12535TIP3    H237563   0.693   1.223   2.828
12536TIP3   OH237564   5.191   0.087   1.237
12536TIP3    H137565   5.142   0.159   1.198
12536TIP3    H237566   5.164   0.010   1.188
12537TIP3   OH237567   4.724   7.695   6.019
12537TIP3    H137568   4.726   7.633   6.093
12537TIP3    H237569   4.642   7.742   6.030
12538TIP3   OH237570   1.167   0.092   4.067
12538TIP3    H137571   1.185   0.045   4.149
12538TIP3    H237572   1.073   0.109   4.070
12539TIP3   OH237573   1.217   4.157   6.040
12539TIP3    H137574   1.151   4.214   6.078
12539TIP3    H237575   1.223   4.185   5.948
12540TIP3   OH237576   1.010   3.481   0.622
12540TIP3    H137577   0.953   3.454   0.551
12540TIP3    H237578   1.071   3.543   0.582
12541TIP3   OH237579   0.627   3.497   2.647
12541TIP3    H137580   0.665   3.495   2.559
12541TIP3    H237581   0.665   3.575   2.688
12542TIP3   OH237582   1.326   2.938   0.412
12542TIP3    H137583   1.265   2.864   0.418
12542TIP3    H237584   1.337   2.967   0.503
12543TIP3   OH237585   3.426   0.328   1.680
12543TIP3    H137586   3.342   0.304   1.642
12543TIP3    H237587   3.491   0.299   1.616
12544TIP3   OH237588   2.264   7.446   2.961
12544TIP3    H137589   2.254   7.431   2.867
12544TIP3    H237590   2.246   7.361   3.001
12545TIP3   OH237591   4.704   1.050   5.748
12545TIP3    H137592   4.637   0.986   5.724
12545TIP3    H237593   4.730   1.025   5.837
12546TIP3   OH237594   7.577   2.903   4.823
12546TIP3    H137595   7.537   2.914   4.737
12546TIP3    H237596   7.529   2.962   4.880
12547TIP3   OH237597   6.298   1.992   3.002
12547TIP3    H137598   6.258   1.994   2.916
12547TIP3    H237599   6.293   2.082   3.033
12548TIP3   OH237600   4.672   1.953   4.448
12548TIP3    H137601   4.623   1.912   4.376
12548TIP3    H237602   4.605   2.003   4.496
12549TIP3   OH237603   6.387   1.975   1.560
12549TIP3    H137604   6.414   2.034   1.631
12549TIP3    H237605   6.300   2.006   1.535
12550TIP3   OH237606   4.397   2.058   5.015
12550TIP3    H137607   4.313   2.079   4.975
12550TIP3    H237608   4.427   2.140   5.054
12551TIP3   OH237609   1.633   0.902   1.358
12551TIP3    H137610   1.630   0.898   1.262
12551TIP3    H237611   1.595   0.819   1.387
12552TIP3   OH237612   3.826   4.612   5.349
12552TIP3    H137613   3.743   4.596   5.395
12552TIP3    H237614   3.805   4.598   5.256
12553TIP3   OH237615   0.498   1.597   3.907
12553TIP3    H137616   0.464   1.613   3.995
12553TIP3    H237617   0.421   1.599   3.850
12554TIP3   OH237618   7.060   7.318   5.218
12554TIP3    H137619   7.148   7.290   5.194
12554TIP3    H237620   7.005   7.241   5.204
12555TIP3   OH237621   1.291   7.670   6.335
12555TIP3    H137622   1.352   7.744   6.333
12555TIP3    H237623   1.242   7.682   6.416
12556TIP3   OH237624   0.046   2.636   3.162
12556TIP3    H137625  -0.015   2.642   3.088
12556TIP3    H237626   0.013   2.701   3.225
12557TIP3   OH237627   3.767   0.414   3.556
12557TIP3    H137628   3.712   0.339   3.536
12557TIP3    H237629   3.811   0.434   3.473
12558TIP3   OH237630   6.755   5.548   4.608
12558TIP3    H137631   6.789   5.623   4.657
12558TIP3    H237632   6.808   5.547   4.528
12559TIP3   OH237633   7.307   3.779   1.609
12559TIP3    H137634   7.379   3.723   1.636
12559TIP3    H237635   7.298   3.764   1.515
12560TIP3   OH237636   3.602   7.722   4.958
12560TIP3    H137637   3.607   7.629   4.979
12560TIP3    H237638   3.690   7.746   4.930
12561TIP3   OH237639   5.595   3.577   1.629
12561TIP3    H137640   5.590   3.518   1.705
12561TIP3    H237641   5.528   3.545   1.569
12562TIP3   OH237642   7.130   3.066   4.489
12562TIP3    H137643   7.201   3.002   4.484
12562TIP3    H237644   7.174   3.150   4.500
12563TIP3   OH237645   4.534   4.344   3.559
12563TIP3    H137646   4.610   4.401   3.560
12563TIP3    H237647   4.519   4.325   3.466
12564TIP3   OH237648   5.756   0.907   6.559
12564TIP3    H137649   5.827   0.954   6.515
12564TIP3    H237650   5.770   0.816   6.534
12565TIP3   OH237651   6.547   3.164   2.163
12565TIP3    H137652   6.520   3.236   2.105
12565TIP3    H237653   6.558   3.204   2.249
12566TIP3   OH237654   1.176   7.039   4.553
12566TIP3    H137655   1.241   7.099   4.590
12566TIP3    H237656   1.184   7.051   4.458
12567TIP3   OH237657   7.905   1.926   6.042
12567TIP3    H137658   7.856   2.008   6.051
12567TIP3    H237659   7.942   1.930   5.954
12568TIP3   OH237660   1.572   5.771   4.376
12568TIP3    H137661   1.564   5.716   4.298
12568TIP3    H237662   1.524   5.851   4.353
12569TIP3   OH237663   6.408   1.748   6.087
12569TIP3    H137664   6.389   1.787   6.002
12569TIP3    H237665   6.362   1.804   6.150
12570TIP3   OH237666   2.751   2.665   1.085
12570TIP3    H137667   2.671   2.705   1.052
12570TIP3    H237668   2.745   2.674   1.180
12571TIP3   OH237669   7.546   2.850   5.657
12571TIP3    H137670   7.619   2.892   5.702
12571TIP3    H237671   7.475   2.915   5.661
12572TIP3   OH237672   3.767   2.017   3.426
12572TIP3    H137673   3.723   1.941   3.390
12572TIP3    H237674   3.860   1.992   3.429
12573TIP3   OH237675   1.175   0.234   3.630
12573TIP3    H137676   1.160   0.156   3.684
12573TIP3    H237677   1.129   0.216   3.548
12574TIP3   OH237678   0.122   6.231   5.234
12574TIP3    H137679   0.084   6.153   5.275
12574TIP3    H237680   0.061   6.254   5.164
12575TIP3   OH237681   6.497   2.729   2.730
12575TIP3    H137682   6.561   2.659   2.744
12575TIP3    H237683   6.519   2.795   2.796
12576TIP3   OH237684   2.054   7.458   0.913
12576TIP3    H137685   2.112   7.491   0.981
12576TIP3    H237686   2.085   7.501   0.833
12577TIP3   OH237687   0.557   1.888   1.052
12577TIP3    H137688   0.579   1.823   1.119
12577TIP3    H237689   0.632   1.947   1.050
12578TIP3   OH237690   4.248   3.777   1.337
12578TIP3    H137691   4.310   3.753   1.406
12578TIP3    H237692   4.199   3.850   1.374
12579TIP3   OH237693   7.023   6.734   1.931
12579TIP3    H137694   6.961   6.760   1.863
12579TIP3    H237695   7.065   6.655   1.897
12580TIP3   OH237696   3.131   1.850   5.931
12580TIP3    H137697   3.224   1.839   5.949
12580TIP3    H237698   3.087   1.795   5.997
12581TIP3   OH237699   6.623   5.820   2.709
12581TIP3    H137700   6.603   5.879   2.637
12581TIP3    H237701   6.547   5.826   2.767
12582TIP3   OH237702   7.468   7.722   5.853
12582TIP3    H137703   7.561   7.721   5.876
12582TIP3    H237704   7.436   7.808   5.883
12583TIP3   OH237705   3.633   3.529   2.364
12583TIP3    H137706   3.568   3.492   2.424
12583TIP3    H237707   3.593   3.610   2.332
12584TIP3   OH237708   6.275   7.547   5.005
12584TIP3    H137709   6.259   7.592   4.921
12584TIP3    H237710   6.325   7.469   4.981
12585TIP3   OH237711   5.807   2.475   5.168
12585TIP3    H137712   5.789   2.409   5.100
12585TIP3    H237713   5.877   2.529   5.131
12586TIP3   OH237714   2.198   3.121   2.113
12586TIP3    H137715   2.202   3.041   2.166
12586TIP3    H237716   2.247   3.100   2.034
12587TIP3   OH237717   5.188   2.124   1.704
12587TIP3    H137718   5.108   2.126   1.756
12587TIP3    H237719   5.239   2.051   1.740
12588TIP3   OH237720   7.361   6.787   1.864
12588TIP3    H137721   7.411   6.858   1.825
12588TIP3    H237722   7.293   6.831   1.916
12589TIP3   OH237723   2.720   5.082   3.138
12589TIP3    H137724   2.739   4.989   3.131
12589TIP3    H237725   2.710   5.098   3.232
12590TIP3   OH237726   0.788   1.662   2.076
12590TIP3    H137727   0.767   1.613   1.997
12590TIP3    H237728   0.832   1.598   2.133
12591TIP3   OH237729   8.289   3.493   0.152
12591TIP3    H137730   8.339   3.518   0.230
12591TIP3    H237731   8.203   3.468   0.186
12592TIP3   OH237732   2.480   0.050   0.487
12592TIP3    H137733   2.543   0.085   0.426
12592TIP3    H237734   2.469   0.119   0.553
12593TIP3   OH237735   6.329   7.337   4.142
12593TIP3    H137736   6.355   7.268   4.203
12593TIP3    H237737   6.358   7.418   4.183
12594TIP3   OH237738   1.491   6.831   2.466
12594TIP3    H137739   1.491   6.839   2.371
12594TIP3    H237740   1.581   6.849   2.493
12595TIP3   OH237741   3.233   0.088   4.280
12595TIP3    H137742   3.145   0.058   4.257
12595TIP3    H237743   3.262   0.025   4.345
12596TIP3   OH237744   3.430   6.169   2.661
12596TIP3    H137745   3.433   6.263   2.647
12596TIP3    H237746   3.343   6.143   2.630
12597TIP3   OH237747   6.762   5.061   6.218
12597TIP3    H137748   6.740   4.973   6.187
12597TIP3    H237749   6.833   5.089   6.161
12598TIP3   OH237750   1.345   1.438   5.516
12598TIP3    H137751   1.385   1.513   5.472
12598TIP3    H237752   1.255   1.467   5.534
12599TIP3   OH237753   7.025   0.575   1.542
12599TIP3    H137754   7.019   0.570   1.447
12599TIP3    H237755   7.004   0.666   1.563
12600TIP3   OH237756   6.623   0.374   2.540
12600TIP3    H137757   6.707   0.346   2.503
12600TIP3    H237758   6.634   0.365   2.635
12601TIP3   OH237759   7.731   1.305   4.754
12601TIP3    H137760   7.729   1.301   4.658
12601TIP3    H237761   7.651   1.260   4.781
12602TIP3   OH237762   2.806   5.973   5.842
12602TIP3    H137763   2.866   6.012   5.779
12602TIP3    H237764   2.719   6.001   5.812
12603TIP3   OH237765   5.606   0.678   6.351
12603TIP3    H137766   5.641   0.606   6.299
12603TIP3    H237767   5.627   0.655   6.442
12604TIP3   OH237768   1.282   2.078   6.268
12604TIP3    H137769   1.316   2.034   6.190
12604TIP3    H237770   1.333   2.043   6.341
12605TIP3   OH237771   7.346   4.032   0.317
12605TIP3    H137772   7.338   3.981   0.236
12605TIP3    H237773   7.412   4.098   0.297
12606TIP3   OH237774   7.577   2.178   4.128
12606TIP3    H137775   7.650   2.225   4.169
12606TIP3    H237776   7.592   2.190   4.034
12607TIP3   OH237777   2.457   6.898   2.554
12607TIP3    H137778   2.422   6.927   2.470
12607TIP3    H237779   2.531   6.841   2.531
12608TIP3   OH237780   0.542   3.356   5.328
12608TIP3    H137781   0.477   3.414   5.368
12608TIP3    H237782   0.520   3.269   5.361
12609TIP3   OH237783   0.919   5.383   0.669
12609TIP3    H137784   1.004   5.339   0.662
12609TIP3    H237785   0.877   5.340   0.744
12610TIP3   OH237786   5.078   7.077   1.231
12610TIP3    H137787   5.087   7.079   1.135
12610TIP3    H237788   5.033   7.159   1.251
12611TIP3   OH237789   7.706   7.830   2.972
12611TIP3    H137790   7.689   7.761   3.036
12611TIP3    H237791   7.782   7.877   3.006
12612TIP3   OH237792   2.268   3.853   2.255
12612TIP3    H137793   2.230   3.891   2.176
12612TIP3    H237794   2.253   3.759   2.246
12613TIP3   OH237795   0.901   3.650   2.690
12613TIP3    H137796   0.946   3.700   2.759
12613TIP3    H237797   0.908   3.705   2.612
12614TIP3   OH237798   5.225   3.650   5.524
12614TIP3    H137799   5.267   3.733   5.500
12614TIP3    H237800   5.202   3.662   5.616
12615TIP3   OH237801   0.052   7.212   2.930
12615TIP3    H137802  -0.039   7.189   2.912
12615TIP3    H237803   0.047   7.273   3.003
12616TIP3   OH237804   3.350   6.844   1.110
12616TIP3    H137805   3.376   6.891   1.031
12616TIP3    H237806   3.315   6.761   1.078
12617TIP3   OH237807   6.234   7.510   3.024
12617TIP3    H137808   6.267   7.423   3.049
12617TIP3    H237809   6.260   7.567   3.096
12618TIP3   OH237810   3.579   5.009   5.403
12618TIP3    H137811   3.588   5.104   5.394
12618TIP3    H237812   3.669   4.979   5.418
12619TIP3   OH237813   6.475   4.240   2.213
12619TIP3    H137814   6.507   4.326   2.187
12619TIP3    H237815   6.445   4.252   2.303
12620TIP3   OH237816   6.113   1.610   1.595
12620TIP3    H137817   6.066   1.592   1.677
12620TIP3    H237818   6.113   1.705   1.588
12621TIP3   OH237819   6.706   7.624   3.078
12621TIP3    H137820   6.676   7.632   2.987
12621TIP3    H237821   6.655   7.552   3.114
12622TIP3   OH237822   8.129   3.974   2.711
12622TIP3    H137823   8.080   3.917   2.770
12622TIP3    H237824   8.214   3.985   2.754
12623TIP3   OH237825   7.742   0.196   6.404
12623TIP3    H137826   7.807   0.126   6.401
12623TIP3    H237827   7.759   0.249   6.327
12624TIP3   OH237828   8.257   6.931   3.156
12624TIP3    H137829   8.216   6.983   3.087
12624TIP3    H237830   8.232   6.975   3.237
12625TIP3   OH237831   6.017   5.788   4.820
12625TIP3    H137832   6.009   5.693   4.816
12625TIP3    H237833   6.012   5.809   4.913
12626TIP3   OH237834   4.580   2.416   4.611
12626TIP3    H137835   4.561   2.489   4.670
12626TIP3    H237836   4.659   2.442   4.564
12627TIP3   OH237837   7.833   0.983   1.718
12627TIP3    H137838   7.884   0.912   1.679
12627TIP3    H237839   7.755   0.940   1.753
12628TIP3   OH237840   1.062   0.671   3.308
12628TIP3    H137841   1.036   0.662   3.217
12628TIP3    H237842   1.139   0.729   3.306
12629TIP3   OH237843   2.341   7.589   4.028
12629TIP3    H137844   2.278   7.659   4.046
12629TIP3    H237845   2.418   7.633   3.993
12630TIP3   OH237846   0.281   5.023   3.570
12630TIP3    H137847   0.207   4.978   3.611
12630TIP3    H237848   0.302   5.095   3.629
12631TIP3   OH237849   6.498   2.031   5.420
12631TIP3    H137850   6.475   1.942   5.394
12631TIP3    H237851   6.519   2.076   5.338
12632TIP3   OH237852   3.125   7.565   3.081
12632TIP3    H137853   3.204   7.602   3.040
12632TIP3    H237854   3.065   7.549   3.008
12633TIP3   OH237855   2.229   6.731   2.206
12633TIP3    H137856   2.140   6.707   2.180
12633TIP3    H237857   2.229   6.722   2.301
12634TIP3   OH237858   1.019   0.996   6.675
12634TIP3    H137859   1.047   0.987   6.584
12634TIP3    H237860   1.054   1.081   6.703
12635TIP3   OH237861   0.226   5.585   4.072
12635TIP3    H137862   0.259   5.672   4.095
12635TIP3    H237863   0.187   5.596   3.985
12636TIP3   OH237864   3.721   4.291   4.202
12636TIP3    H137865   3.762   4.354   4.260
12636TIP3    H237866   3.627   4.306   4.212
12637TIP3   OH237867   2.407   1.324   6.192
12637TIP3    H137868   2.455   1.353   6.269
12637TIP3    H237869   2.385   1.233   6.209
12638TIP3   OH237870   3.358   4.304   0.862
12638TIP3    H137871   3.359   4.368   0.791
12638TIP3    H237872   3.344   4.220   0.819
12639TIP3   OH237873   0.214   6.512   4.486
12639TIP3    H137874   0.147   6.446   4.499
12639TIP3    H237875   0.169   6.596   4.495
12640TIP3   OH237876   4.093   1.199   6.564
12640TIP3    H137877   4.026   1.137   6.535
12640TIP3    H237878   4.085   1.199   6.660
12641TIP3   OH237879   4.802   4.322   0.094
12641TIP3    H137880   4.817   4.286   0.007
12641TIP3    H237881   4.724   4.377   0.085
12642TIP3   OH237882   3.901   5.240   6.022
12642TIP3    H137883   3.847   5.162   6.013
12642TIP3    H237884   3.850   5.299   6.078
12643TIP3   OH237885   0.762   3.117   2.967
12643TIP3    H137886   0.770   3.030   3.006
12643TIP3    H237887   0.721   3.101   2.882
12644TIP3   OH237888   8.025   0.665   4.980
12644TIP3    H137889   8.036   0.739   4.920
12644TIP3    H237890   8.080   0.596   4.943
12645TIP3   OH237891   7.842   6.213   3.936
12645TIP3    H137892   7.798   6.139   3.978
12645TIP3    H237893   7.936   6.195   3.949
12646TIP3   OH237894   0.802   7.791   5.834
12646TIP3    H137895   0.863   7.718   5.849
12646TIP3    H237896   0.801   7.838   5.918
12647TIP3   OH237897   4.166   6.270   6.448
12647TIP3    H137898   4.252   6.302   6.421
12647TIP3    H237899   4.111   6.279   6.371
12648TIP3   OH237900   5.003   0.466   4.828
12648TIP3    H137901   5.029   0.409   4.900
12648TIP3    H237902   5.053   0.434   4.752
12649TIP3   OH237903   5.628   7.043   5.646
12649TIP3    H137904   5.660   7.084   5.727
12649TIP3    H237905   5.554   7.097   5.620
12650TIP3   OH237906   3.709   0.657   4.667
12650TIP3    H137907   3.695   0.715   4.592
12650TIP3    H237908   3.635   0.675   4.725
12651TIP3   OH237909   7.713   0.776   5.369
12651TIP3    H137910   7.749   0.856   5.408
12651TIP3    H237911   7.730   0.707   5.433
12652TIP3   OH237912   3.631   5.287   5.589
12652TIP3    H137913   3.721   5.312   5.565
12652TIP3    H237914   3.582   5.370   5.587
12653TIP3   OH237915   8.062   6.584   3.717
12653TIP3    H137916   8.111   6.510   3.682
12653TIP3    H237917   8.127   6.635   3.765
12654TIP3   OH237918   1.854   3.172   4.569
12654TIP3    H137919   1.914   3.118   4.518
12654TIP3    H237920   1.894   3.177   4.656
12655TIP3   OH237921   3.183   7.328   2.059
12655TIP3    H137922   3.170   7.395   1.992
12655TIP3    H237923   3.107   7.337   2.117
12656TIP3   OH237924   4.624   2.267   2.034
12656TIP3    H137925   4.624   2.222   1.949
12656TIP3    H237926   4.637   2.359   2.011
12657TIP3   OH237927   4.926   5.565   2.603
12657TIP3    H137928   4.981   5.608   2.669
12657TIP3    H237929   4.908   5.479   2.639
12658TIP3   OH237930   0.826   7.425   0.749
12658TIP3    H137931   0.796   7.334   0.747
12658TIP3    H237932   0.842   7.444   0.842
12659TIP3   OH237933   6.560   2.859   2.138
12659TIP3    H137934   6.569   2.955   2.131
12659TIP3    H237935   6.569   2.842   2.232
12660TIP3   OH237936   3.547   5.318   0.442
12660TIP3    H137937   3.554   5.223   0.431
12660TIP3    H237938   3.491   5.346   0.370
12661TIP3   OH237939   6.320   6.504   4.922
12661TIP3    H137940   6.290   6.537   4.837
12661TIP3    H237941   6.380   6.571   4.954
12662TIP3   OH237942   7.946   7.063   1.278
12662TIP3    H137943   7.889   7.105   1.343
12662TIP3    H237944   7.995   6.998   1.328
12663TIP3   OH237945   3.549   1.313   3.816
12663TIP3    H137946   3.544   1.408   3.826
12663TIP3    H237947   3.622   1.300   3.754
12664TIP3   OH237948   4.146   3.990   3.310
12664TIP3    H137949   4.135   3.978   3.404
12664TIP3    H237950   4.183   3.908   3.279
12665TIP3   OH237951   4.439   6.569   3.523
12665TIP3    H137952   4.420   6.655   3.484
12665TIP3    H237953   4.533   6.571   3.541
12666TIP3   OH237954   2.391   0.667   5.393
12666TIP3    H137955   2.349   0.646   5.310
12666TIP3    H237956   2.357   0.753   5.416
12667TIP3   OH237957   7.978   0.610   2.974
12667TIP3    H137958   7.983   0.523   2.933
12667TIP3    H237959   7.910   0.656   2.925
12668TIP3   OH237960   6.824   7.629   2.228
12668TIP3    H137961   6.899   7.679   2.260
12668TIP3    H237962   6.756   7.694   2.213
12669TIP3   OH237963   6.283   4.151   1.045
12669TIP3    H137964   6.290   4.108   0.960
12669TIP3    H237965   6.356   4.117   1.096
12670TIP3   OH237966   7.821   1.323   6.404
12670TIP3    H137967   7.820   1.272   6.323
12670TIP3    H237968   7.894   1.288   6.454
12671TIP3   OH237969   6.884   5.449   3.831
12671TIP3    H137970   6.925   5.403   3.758
12671TIP3    H237971   6.899   5.394   3.907
12672TIP3   OH237972   0.934   4.934   0.415
12672TIP3    H137973   0.919   5.029   0.412
12672TIP3    H237974   1.026   4.925   0.441
12673TIP3   OH237975   1.036   1.141   3.778
12673TIP3    H137976   0.992   1.222   3.805
12673TIP3    H237977   0.972   1.096   3.724
12674TIP3   OH237978   2.527   1.649   3.513
12674TIP3    H137979   2.568   1.722   3.466
12674TIP3    H237980   2.490   1.594   3.444
12675TIP3   OH237981   1.458   0.420   0.525
12675TIP3    H137982   1.551   0.420   0.546
12675TIP3    H237983   1.420   0.355   0.584
12676TIP3   OH237984   4.548   4.522   0.336
12676TIP3    H137985   4.556   4.607   0.293
12676TIP3    H237986   4.623   4.518   0.396
12677TIP3   OH237987   5.406   1.762   3.598
12677TIP3    H137988   5.482   1.815   3.573
12677TIP3    H237989   5.331   1.810   3.565
12678TIP3   OH237990   0.457   7.813   3.125
12678TIP3    H137991   0.429   7.779   3.210
12678TIP3    H237992   0.418   7.753   3.061
12679TIP3   OH237993   5.852   0.607   2.534
12679TIP3    H137994   5.760   0.630   2.547
12679TIP3    H237995   5.900   0.686   2.558
12680TIP3   OH237996   6.364   1.319   3.231
12680TIP3    H137997   6.306   1.270   3.173
12680TIP3    H237998   6.318   1.401   3.247
12681TIP3   OH237999   2.696   1.145   0.811
12681TIP3    H138000   2.640   1.156   0.889
12681TIP3    H238001   2.634   1.139   0.738
12682TIP3   OH238002   0.066   5.274   3.718
12682TIP3    H138003   0.075   5.182   3.745
12682TIP3    H238004  -0.009   5.306   3.767
12683TIP3   OH238005   5.742   3.578   4.178
12683TIP3    H138006   5.652   3.567   4.146
12683TIP3    H238007   5.768   3.490   4.206
12684TIP3   OH238008   3.705   7.699   2.614
12684TIP3    H138009   3.693   7.791   2.591
12684TIP3    H238010   3.663   7.651   2.543
12685TIP3   OH238011   5.843   1.222   5.643
12685TIP3    H138012   5.872   1.238   5.553
12685TIP3    H238013   5.804   1.305   5.670
12686TIP3   OH238014   6.669   5.442   0.489
12686TIP3    H138015   6.703   5.397   0.412
12686TIP3    H238016   6.655   5.373   0.553
12687TIP3   OH238017   2.309   4.404   5.056
12687TIP3    H138018   2.254   4.326   5.047
12687TIP3    H238019   2.377   4.393   4.990
12688TIP3   OH238020   4.399   2.661   4.891
12688TIP3    H138021   4.491   2.685   4.879
12688TIP3    H238022   4.382   2.678   4.983
12689TIP3   OH238023   6.887   3.333   6.727
12689TIP3    H138024   6.904   3.388   6.651
12689TIP3    H238025   6.902   3.244   6.696
12690TIP3   OH238026   6.355   0.243   0.177
12690TIP3    H138027   6.392   0.246   0.265
12690TIP3    H238028   6.363   0.151   0.152
12691TIP3   OH238029   5.589   0.558   2.628
12691TIP3    H138030   5.606   0.475   2.673
12691TIP3    H238031   5.595   0.624   2.696
12692TIP3   OH238032   0.240   1.848   5.934
12692TIP3    H138033   0.299   1.779   5.965
12692TIP3    H238034   0.248   1.846   5.839
12693TIP3   OH238035   2.174   6.551   4.138
12693TIP3    H138036   2.258   6.525   4.099
12693TIP3    H238037   2.190   6.549   4.232
12694TIP3   OH238038   3.859   0.505   6.394
12694TIP3    H138039   3.917   0.528   6.321
12694TIP3    H238040   3.784   0.463   6.352
12695TIP3   OH238041   2.776   1.287   1.186
12695TIP3    H138042   2.682   1.269   1.187
12695TIP3    H238043   2.812   1.234   1.257
12696TIP3   OH238044   1.603   4.023   3.579
12696TIP3    H138045   1.568   3.954   3.635
12696TIP3    H238046   1.541   4.095   3.587
12697TIP3   OH238047   7.549   1.318   2.946
12697TIP3    H138048   7.570   1.241   2.893
12697TIP3    H238049   7.457   1.307   2.969
12698TIP3   OH238050   1.089   4.819   5.322
12698TIP3    H138051   1.070   4.856   5.408
12698TIP3    H238052   1.183   4.799   5.325
12699TIP3   OH238053   3.084   0.808   3.157
12699TIP3    H138054   3.179   0.810   3.144
12699TIP3    H238055   3.074   0.784   3.249
12700TIP3   OH238056   2.497   3.293   1.499
12700TIP3    H138057   2.566   3.242   1.541
12700TIP3    H238058   2.538   3.331   1.422
12701TIP3   OH238059   5.147   4.500   5.894
12701TIP3    H138060   5.198   4.549   5.958
12701TIP3    H238061   5.156   4.408   5.921
12702TIP3   OH238062   2.347   2.363   3.088
12702TIP3    H138063   2.356   2.278   3.132
12702TIP3    H238064   2.435   2.386   3.061
12703TIP3   OH238065   5.932   3.763   0.447
12703TIP3    H138066   5.984   3.828   0.399
12703TIP3    H238067   5.984   3.682   0.442
12704TIP3   OH238068   2.118   4.596   1.870
12704TIP3    H138069   2.045   4.604   1.808
12704TIP3    H238070   2.090   4.645   1.947
12705TIP3   OH238071   3.205   5.881   5.489
12705TIP3    H138072   3.185   5.827   5.566
12705TIP3    H238073   3.219   5.817   5.418
12706TIP3   OH238074   3.874   2.399   5.188
12706TIP3    H138075   3.927   2.427   5.263
12706TIP3    H238076   3.918   2.437   5.112
12707TIP3   OH238077   3.528   7.492   2.084
12707TIP3    H138078   3.527   7.522   2.175
12707TIP3    H238079   3.557   7.401   2.090
12708TIP3   OH238080   7.559   5.026   4.928
12708TIP3    H138081   7.555   5.104   4.871
12708TIP3    H238082   7.618   4.966   4.882
12709TIP3   OH238083   6.605   6.003   0.259
12709TIP3    H138084   6.570   5.919   0.288
12709TIP3    H238085   6.617   6.053   0.340
12710TIP3   OH238086   6.277   6.231   1.526
12710TIP3    H138087   6.267   6.164   1.593
12710TIP3    H238088   6.214   6.207   1.458
12711TIP3   OH238089   2.795   0.989   3.908
12711TIP3    H138090   2.758   1.077   3.912
12711TIP3    H238091   2.802   0.961   3.999
12712TIP3   OH238092   4.861   5.515   1.959
12712TIP3    H138093   4.779   5.515   1.909
12712TIP3    H238094   4.914   5.583   1.917
12713TIP3   OH238095   7.728   6.870   2.015
12713TIP3    H138096   7.647   6.905   2.052
12713TIP3    H238097   7.744   6.789   2.063
12714TIP3   OH238098   3.845   7.532   5.969
12714TIP3    H138099   3.864   7.605   6.027
12714TIP3    H238100   3.929   7.488   5.956
12715TIP3   OH238101   0.102   6.581   0.534
12715TIP3    H138102   0.089   6.507   0.475
12715TIP3    H238103   0.022   6.634   0.524
12716TIP3   OH238104   7.999   6.197   2.197
12716TIP3    H138105   8.084   6.224   2.163
12716TIP3    H238106   8.012   6.106   2.225
12717TIP3   OH238107   4.417   3.307   1.386
12717TIP3    H138108   4.502   3.347   1.404
12717TIP3    H238109   4.422   3.221   1.428
12718TIP3   OH238110   0.219   2.488   3.648
12718TIP3    H138111   0.265   2.524   3.724
12718TIP3    H238112   0.128   2.513   3.661
12719TIP3   OH238113   8.252   4.248   4.720
12719TIP3    H138114   8.241   4.343   4.722
12719TIP3    H238115   8.298   4.231   4.638
12720TIP3   OH238116   4.842   3.090   5.943
12720TIP3    H138117   4.804   3.043   5.869
12720TIP3    H238118   4.799   3.176   5.941
12721TIP3   OH238119   1.049   6.352   6.561
12721TIP3    H138120   1.144   6.360   6.555
12721TIP3    H238121   1.022   6.420   6.623
12722TIP3   OH238122   5.366   5.398   5.053
12722TIP3    H138123   5.358   5.359   4.966
12722TIP3    H238124   5.347   5.491   5.039
12723TIP3   OH238125   2.794   2.279   5.923
12723TIP3    H138126   2.829   2.230   5.848
12723TIP3    H238127   2.867   2.334   5.951
12724TIP3   OH238128   5.811   1.735   1.601
12724TIP3    H138129   5.826   1.732   1.507
12724TIP3    H238130   5.775   1.649   1.623
12725TIP3   OH238131   5.065   6.511   5.269
12725TIP3    H138132   5.077   6.417   5.261
12725TIP3    H238133   5.138   6.549   5.220
12726TIP3   OH238134   2.659   0.173   0.276
12726TIP3    H138135   2.746   0.177   0.236
12726TIP3    H238136   2.599   0.157   0.203
12727TIP3   OH238137   1.166   4.985   6.240
12727TIP3    H138138   1.108   4.961   6.313
12727TIP3    H238139   1.230   5.045   6.279
12728TIP3   OH238140   4.076   2.187   1.562
12728TIP3    H138141   4.089   2.145   1.647
12728TIP3    H238142   3.990   2.228   1.569
12729TIP3   OH238143   0.970   0.188   1.869
12729TIP3    H138144   0.989   0.271   1.913
12729TIP3    H238145   0.876   0.190   1.853
12730TIP3   OH238146   2.952   4.119   5.964
12730TIP3    H138147   2.880   4.068   5.926
12730TIP3    H238148   2.910   4.198   5.999
12731TIP3   OH238149   3.784   7.218   5.992
12731TIP3    H138150   3.748   7.146   5.941
12731TIP3    H238151   3.794   7.289   5.930
12732TIP3   OH238152   1.930   7.692   1.243
12732TIP3    H138153   1.919   7.597   1.247
12732TIP3    H238154   1.859   7.721   1.186
12733TIP3   OH238155   2.764   0.421   1.890
12733TIP3    H138156   2.784   0.337   1.848
12733TIP3    H238157   2.833   0.479   1.860
12734TIP3   OH238158   6.193   4.426   3.679
12734TIP3    H138159   6.173   4.491   3.611
12734TIP3    H238160   6.288   4.427   3.687
12735TIP3   OH238161   6.372   6.090   2.867
12735TIP3    H138162   6.440   6.023   2.863
12735TIP3    H238163   6.303   6.058   2.810
12736TIP3   OH238164   5.164   4.727   1.050
12736TIP3    H138165   5.201   4.785   1.116
12736TIP3    H238166   5.081   4.768   1.026
12737TIP3   OH238167   0.162   6.412   6.678
12737TIP3    H138168   0.135   6.334   6.725
12737TIP3    H238169   0.102   6.481   6.708
12738TIP3   OH238170   2.040   7.407   2.666
12738TIP3    H138171   2.011   7.402   2.575
12738TIP3    H238172   1.961   7.388   2.717
12739TIP3   OH238173   6.987   6.079   1.037
12739TIP3    H138174   7.022   6.020   1.104
12739TIP3    H238175   6.897   6.098   1.066
12740TIP3   OH238176   4.363   6.437   3.078
12740TIP3    H138177   4.334   6.386   3.003
12740TIP3    H238178   4.454   6.412   3.091
12741TIP3   OH238179   0.768   5.086   3.343
12741TIP3    H138180   0.838   5.048   3.396
12741TIP3    H238181   0.759   5.025   3.269
12742TIP3   OH238182   6.212   3.629   4.349
12742TIP3    H138183   6.121   3.646   4.323
12742TIP3    H238184   6.247   3.715   4.370
12743TIP3   OH238185   3.038   0.845   6.337
12743TIP3    H138186   3.017   0.758   6.371
12743TIP3    H238187   3.068   0.828   6.247
12744TIP3   OH238188   7.822   4.704   1.173
12744TIP3    H138189   7.810   4.799   1.169
12744TIP3    H238190   7.763   4.676   1.243
12745TIP3   OH238191   1.823   0.269   5.692
12745TIP3    H138192   1.803   0.205   5.624
12745TIP3    H238193   1.872   0.338   5.646
12746TIP3   OH238194   7.124   5.355   5.087
12746TIP3    H138195   7.126   5.279   5.029
12746TIP3    H238196   7.063   5.416   5.046
12747TIP3   OH238197   0.539   7.423   3.384
12747TIP3    H138198   0.454   7.458   3.355
12747TIP3    H238199   0.578   7.493   3.436
12748TIP3   OH238200   4.657   5.146   0.204
12748TIP3    H138201   4.591   5.079   0.188
12748TIP3    H238202   4.613   5.210   0.260
12749TIP3   OH238203   2.637   6.245   4.400
12749TIP3    H138204   2.681   6.316   4.352
12749TIP3    H238205   2.634   6.173   4.338
12750TIP3   OH238206   5.092   5.426   3.513
12750TIP3    H138207   5.130   5.382   3.589
12750TIP3    H238208   5.000   5.399   3.512
12751TIP3   OH238209   7.267   5.565   2.304
12751TIP3    H138210   7.232   5.576   2.392
12751TIP3    H238211   7.308   5.649   2.284
12752TIP3   OH238212   8.138   1.922   1.297
12752TIP3    H138213   8.102   1.957   1.378
12752TIP3    H238214   8.074   1.857   1.268
12753TIP3   OH238215   2.073   5.801   3.092
12753TIP3    H138216   2.114   5.721   3.125
12753TIP3    H238217   1.980   5.781   3.089
12754TIP3   OH238218   0.705   2.900   0.018
12754TIP3    H138219   0.731   2.851  -0.060
12754TIP3    H238220   0.786   2.913   0.067
12755TIP3   OH238221   8.278   4.063   0.190
12755TIP3    H138222   8.223   4.092   0.263
12755TIP3    H238223   8.344   4.131   0.181
12756TIP3   OH238224   5.626   2.885   4.010
12756TIP3    H138225   5.713   2.917   4.035
12756TIP3    H238226   5.568   2.959   4.028
12757TIP3   OH238227   2.820   0.920   0.005
12757TIP3    H138228   2.882   0.877   0.064
12757TIP3    H238229   2.738   0.923   0.055
12758TIP3   OH238230   7.453   7.187   3.500
12758TIP3    H138231   7.430   7.124   3.432
12758TIP3    H238232   7.536   7.154   3.535
12759TIP3   OH238233   7.704   4.832   6.298
12759TIP3    H138234   7.787   4.833   6.346
12759TIP3    H238235   7.721   4.774   6.223
12760TIP3   OH238236   0.929   3.815   1.869
12760TIP3    H138237   1.001   3.860   1.825
12760TIP3    H238238   0.959   3.725   1.878
12761TIP3   OH238239   2.766   3.131   5.651
12761TIP3    H138240   2.835   3.142   5.586
12761TIP3    H238241   2.713   3.211   5.644
12762TIP3   OH238242   3.116   3.188   2.307
12762TIP3    H138243   3.134   3.227   2.222
12762TIP3    H238244   3.066   3.108   2.287
12763TIP3   OH238245   0.754   2.595   3.997
12763TIP3    H138246   0.830   2.536   3.991
12763TIP3    H238247   0.750   2.639   3.912
12764TIP3   OH238248   4.239   2.389   1.406
12764TIP3    H138249   4.214   2.473   1.445
12764TIP3    H238250   4.177   2.326   1.443
12765TIP3   OH238251   7.775   0.160   3.106
12765TIP3    H138252   7.829   0.179   3.030
12765TIP3    H238253   7.721   0.238   3.119
12766TIP3   OH238254   3.261   7.660   6.422
12766TIP3    H138255   3.194   7.714   6.380
12766TIP3    H238256   3.324   7.642   6.352
12767TIP3   OH238257   6.398   4.037   3.192
12767TIP3    H138258   6.468   4.017   3.253
12767TIP3    H238259   6.386   4.132   3.199
12768TIP3   OH238260   8.003   6.876   5.958
12768TIP3    H138261   7.998   6.941   6.028
12768TIP3    H238262   8.057   6.918   5.891
12769TIP3   OH238263   7.283   6.459   2.019
12769TIP3    H138264   7.351   6.410   1.973
12769TIP3    H238265   7.331   6.527   2.067
12770TIP3   OH238266   3.168   6.642   4.213
12770TIP3    H138267   3.120   6.713   4.171
12770TIP3    H238268   3.126   6.562   4.182
12771TIP3   OH238269   7.090   6.190   1.760
12771TIP3    H138270   7.181   6.181   1.733
12771TIP3    H238271   7.069   6.108   1.804
12772TIP3   OH238272   4.208   6.684   5.373
12772TIP3    H138273   4.279   6.741   5.402
12772TIP3    H238274   4.211   6.689   5.277
12773TIP3   OH238275   7.644   0.537   6.727
12773TIP3    H138276   7.572   0.589   6.763
12773TIP3    H238277   7.602   0.461   6.688
12774TIP3   OH238278   0.626   6.934   6.236
12774TIP3    H138279   0.648   6.948   6.144
12774TIP3    H238280   0.596   6.844   6.240
12775TIP3   OH238281   4.303   0.477   2.169
12775TIP3    H138282   4.336   0.389   2.187
12775TIP3    H238283   4.369   0.536   2.207
12776TIP3   OH238284   2.286   3.971   1.254
12776TIP3    H138285   2.349   3.898   1.253
12776TIP3    H238286   2.200   3.928   1.256
12777TIP3   OH238287   2.350   5.973   5.968
12777TIP3    H138288   2.354   5.884   5.932
12777TIP3    H238289   2.325   5.962   6.059
12778TIP3   OH238290   2.546   4.689   6.260
12778TIP3    H138291   2.459   4.651   6.267
12778TIP3    H238292   2.570   4.711   6.350
12779TIP3   OH238293   4.086   1.561   3.551
12779TIP3    H138294   3.991   1.560   3.560
12779TIP3    H238295   4.113   1.644   3.592
12780TIP3   OH238296   1.652   7.733   1.493
12780TIP3    H138297   1.584   7.741   1.426
12780TIP3    H238298   1.692   7.648   1.476
12781TIP3   OH238299   4.379   0.127   0.462
12781TIP3    H138300   4.472   0.109   0.449
12781TIP3    H238301   4.357   0.085   0.545
12782TIP3   OH238302   6.530   4.215   4.596
12782TIP3    H138303   6.572   4.198   4.511
12782TIP3    H238304   6.509   4.308   4.595
12783TIP3   OH238305   1.862   1.823   4.365
12783TIP3    H138306   1.806   1.820   4.288
12783TIP3    H238307   1.826   1.756   4.423
12784TIP3   OH238308   4.722   3.466   4.290
12784TIP3    H138309   4.645   3.440   4.342
12784TIP3    H238310   4.697   3.450   4.199
12785TIP3   OH238311   0.293   7.567   2.161
12785TIP3    H138312   0.284   7.660   2.178
12785TIP3    H238313   0.267   7.524   2.243
12786TIP3   OH238314   6.722   0.237   5.436
12786TIP3    H138315   6.711   0.200   5.523
12786TIP3    H238316   6.715   0.161   5.377
12787TIP3   OH238317   2.846   5.383   4.350
12787TIP3    H138318   2.931   5.349   4.322
12787TIP3    H238319   2.800   5.307   4.386
12788TIP3   OH238320   2.995   1.382   4.096
12788TIP3    H138321   2.992   1.419   4.184
12788TIP3    H238322   3.073   1.327   4.094
12789TIP3   OH238323   3.687   5.909   3.181
12789TIP3    H138324   3.779   5.903   3.157
12789TIP3    H238325   3.684   5.976   3.249
12790TIP3   OH238326   6.442   4.620   6.468
12790TIP3    H138327   6.462   4.536   6.428
12790TIP3    H238328   6.390   4.599   6.545
12791TIP3   OH238329   4.373   3.754   1.088
12791TIP3    H138330   4.357   3.723   1.177
12791TIP3    H238331   4.332   3.840   1.084
12792TIP3   OH238332   0.466   5.158   0.471
12792TIP3    H138333   0.553   5.186   0.499
12792TIP3    H238334   0.408   5.190   0.540
12793TIP3   OH238335   0.514   3.299   0.757
12793TIP3    H138336   0.476   3.238   0.820
12793TIP3    H238337   0.510   3.252   0.674
12794TIP3   OH238338   5.180   3.401   0.872
12794TIP3    H138339   5.195   3.338   0.942
12794TIP3    H238340   5.255   3.390   0.813
12795TIP3   OH238341   1.237   0.327   6.514
12795TIP3    H138342   1.301   0.295   6.451
12795TIP3    H238343   1.196   0.402   6.472
12796TIP3   OH238344   6.329   3.459   1.744
12796TIP3    H138345   6.242   3.459   1.784
12796TIP3    H238346   6.377   3.529   1.790
12797TIP3   OH238347   5.891   1.650   5.845
12797TIP3    H138348   5.898   1.614   5.934
12797TIP3    H238349   5.975   1.630   5.804
12798TIP3   OH238350   5.587   2.670   2.379
12798TIP3    H138351   5.600   2.761   2.353
12798TIP3    H238352   5.523   2.675   2.451
12799TIP3   OH238353   8.178   7.738   6.079
12799TIP3    H138354   8.095   7.733   6.126
12799TIP3    H238355   8.244   7.721   6.146
12800TIP3   OH238356   6.744   4.785   0.886
12800TIP3    H138357   6.804   4.832   0.943
12800TIP3    H238358   6.796   4.713   0.849
12801TIP3   OH238359   3.741   0.998   1.183
12801TIP3    H138360   3.676   0.953   1.237
12801TIP3    H238361   3.696   1.075   1.150
12802TIP3   OH238362   2.568   7.253   2.046
12802TIP3    H138363   2.565   7.316   1.974
12802TIP3    H238364   2.552   7.169   2.004
12803TIP3   OH238365   6.574   6.149   4.663
12803TIP3    H138366   6.647   6.190   4.617
12803TIP3    H238367   6.588   6.172   4.755
12804TIP3   OH238368   7.364   1.424   1.270
12804TIP3    H138369   7.269   1.419   1.283
12804TIP3    H238370   7.395   1.335   1.286
12805TIP3   OH238371   1.597   5.664   6.725
12805TIP3    H138372   1.588   5.610   6.803
12805TIP3    H238373   1.538   5.737   6.738
12806TIP3   OH238374   2.922   0.110   0.148
12806TIP3    H138375   3.003   0.143   0.185
12806TIP3    H238376   2.925   0.016   0.163
12807TIP3   OH238377   2.134   7.753   2.231
12807TIP3    H138378   2.042   7.759   2.208
12807TIP3    H238379   2.175   7.826   2.184
12808TIP3   OH238380   6.583   5.546   3.143
12808TIP3    H138381   6.556   5.631   3.180
12808TIP3    H238382   6.509   5.520   3.088
12809TIP3   OH238383   6.406   4.602   0.065
12809TIP3    H138384   6.443   4.580  -0.020
12809TIP3    H238385   6.480   4.634   0.116
12810TIP3   OH238386   7.506   4.467   6.243
12810TIP3    H138387   7.566   4.510   6.182
12810TIP3    H238388   7.430   4.443   6.190
12811TIP3   OH238389   0.201   0.185   5.339
12811TIP3    H138390   0.177   0.242   5.413
12811TIP3    H238391   0.242   0.109   5.380
12812TIP3   OH238392   3.757   1.392   3.229
12812TIP3    H138393   3.782   1.353   3.313
12812TIP3    H238394   3.683   1.339   3.199
12813TIP3   OH238395   6.367   3.282   6.149
12813TIP3    H138396   6.324   3.222   6.089
12813TIP3    H238397   6.453   3.299   6.109
12814TIP3   OH238398   8.166   4.741   3.800
12814TIP3    H138399   8.136   4.733   3.709
12814TIP3    H238400   8.255   4.705   3.799
12815TIP3   OH238401   3.310   7.610   1.341
12815TIP3    H138402   3.251   7.685   1.337
12815TIP3    H238403   3.275   7.555   1.412
12816TIP3   OH238404   4.875   0.739   6.033
12816TIP3    H138405   4.965   0.733   6.067
12816TIP3    H238406   4.832   0.659   6.065
12817TIP3   OH238407   8.132   5.671   3.953
12817TIP3    H138408   8.136   5.585   3.912
12817TIP3    H238409   8.185   5.662   4.033
12818TIP3   OH238410   0.891   5.535   6.165
12818TIP3    H138411   0.840   5.497   6.093
12818TIP3    H238412   0.979   5.542   6.130
12819TIP3   OH238413   5.351   6.115   2.880
12819TIP3    H138414   5.356   6.191   2.822
12819TIP3    H238415   5.267   6.074   2.859
12820TIP3   OH238416   5.717   1.064   1.871
12820TIP3    H138417   5.802   1.034   1.900
12820TIP3    H238418   5.669   0.984   1.850
12821TIP3   OH238419   6.955   7.644   5.604
12821TIP3    H138420   6.950   7.555   5.640
12821TIP3    H238421   7.010   7.691   5.666
12822TIP3   OH238422   4.839   1.343   6.626
12822TIP3    H138423   4.888   1.273   6.669
12822TIP3    H238424   4.890   1.422   6.644
12823TIP3   OH238425   2.735   3.208   3.653
12823TIP3    H138426   2.649   3.232   3.618
12823TIP3    H238427   2.722   3.123   3.695
12824TIP3   OH238428   4.502   4.950   5.171
12824TIP3    H138429   4.472   4.934   5.081
12824TIP3    H238430   4.597   4.959   5.163
12825TIP3   OH238431   2.550   6.317   3.785
12825TIP3    H138432   2.528   6.229   3.753
12825TIP3    H238433   2.466   6.354   3.812
12826TIP3   OH238434   0.841   0.353   1.041
12826TIP3    H138435   0.801   0.329   0.958
12826TIP3    H238436   0.804   0.291   1.104
12827TIP3   OH238437   7.342   0.573   5.823
12827TIP3    H138438   7.351   0.653   5.770
12827TIP3    H238439   7.403   0.512   5.783
12828TIP3   OH238440   0.049   7.289   1.479
12828TIP3    H138441   0.066   7.371   1.525
12828TIP3    H238442   0.125   7.234   1.499
12829TIP3   OH238443   3.358   4.222   4.688
12829TIP3    H138444   3.422   4.248   4.622
12829TIP3    H238445   3.373   4.282   4.761
12830TIP3   OH238446   2.093   3.960   1.635
12830TIP3    H138447   2.061   4.050   1.624
12830TIP3    H238448   2.045   3.926   1.710
12831TIP3   OH238449   1.820   1.567   4.149
12831TIP3    H138450   1.893   1.555   4.210
12831TIP3    H238451   1.839   1.506   4.077
12832TIP3   OH238452   5.708   5.993   3.671
12832TIP3    H138453   5.722   6.063   3.735
12832TIP3    H238454   5.638   6.026   3.614
12833TIP3   OH238455   5.220   3.050   3.516
12833TIP3    H138456   5.224   2.996   3.595
12833TIP3    H238457   5.130   3.041   3.485
12834TIP3   OH238458   2.512   2.918   0.815
12834TIP3    H138459   2.425   2.903   0.777
12834TIP3    H238460   2.539   3.003   0.781
12835TIP3   OH238461   7.628   0.857   3.112
12835TIP3    H138462   7.633   0.864   3.207
12835TIP3    H238463   7.670   0.774   3.091
12836TIP3   OH238464   4.906   4.158   5.959
12836TIP3    H138465   4.869   4.247   5.957
12836TIP3    H238466   4.948   4.152   6.045
12837TIP3   OH238467   4.155   7.120   6.761
12837TIP3    H138468   4.192   7.070   6.833
12837TIP3    H238469   4.184   7.074   6.682
12838TIP3   OH238470   6.744   0.993   0.074
12838TIP3    H138471   6.813   1.053   0.044
12838TIP3    H238472   6.755   0.915   0.020
12839TIP3   OH238473   2.675   5.872   6.210
12839TIP3    H138474   2.715   5.820   6.140
12839TIP3    H238475   2.703   5.829   6.291
12840TIP3   OH238476   4.242   6.701   3.206
12840TIP3    H138477   4.186   6.751   3.147
12840TIP3    H238478   4.244   6.752   3.287
12841TIP3   OH238479   3.413   6.011   4.643
12841TIP3    H138480   3.508   6.009   4.631
12841TIP3    H238481   3.389   5.921   4.661
12842TIP3   OH238482   2.650   1.310   0.038
12842TIP3    H138483   2.572   1.255   0.036
12842TIP3    H238484   2.670   1.326  -0.054
12843TIP3   OH238485   4.274   6.320   4.038
12843TIP3    H138486   4.326   6.352   4.112
12843TIP3    H238487   4.247   6.399   3.991
12844TIP3   OH238488   2.284   5.872   2.904
12844TIP3    H138489   2.231   5.834   2.974
12844TIP3    H238490   2.362   5.816   2.900
12845TIP3   OH238491   5.225   0.915   1.593
12845TIP3    H138492   5.237   0.992   1.649
12845TIP3    H238493   5.198   0.951   1.509
12846TIP3   OH238494   4.007   1.965   5.903
12846TIP3    H138495   4.037   1.877   5.885
12846TIP3    H238496   4.084   2.021   5.889
12847TIP3   OH238497   5.558   4.655   5.076
12847TIP3    H138498   5.624   4.709   5.032
12847TIP3    H238499   5.529   4.708   5.150
12848TIP3   OH238500   4.759   1.423   4.387
12848TIP3    H138501   4.819   1.466   4.448
12848TIP3    H238502   4.693   1.490   4.366
12849TIP3   OH238503   2.012   6.067   4.822
12849TIP3    H138504   2.001   6.159   4.799
12849TIP3    H238505   2.031   6.023   4.739
12850TIP3   OH238506   3.146   5.054   2.790
12850TIP3    H138507   3.072   5.003   2.824
12850TIP3    H238508   3.223   5.000   2.805
12851TIP3   OH238509   4.157   3.300   3.841
12851TIP3    H138510   4.187   3.371   3.785
12851TIP3    H238511   4.226   3.234   3.834
12852TIP3   OH238512   2.800   1.739   4.779
12852TIP3    H138513   2.827   1.722   4.689
12852TIP3    H238514   2.878   1.777   4.821
12853TIP3   OH238515   4.114   0.586   2.497
12853TIP3    H138516   4.114   0.675   2.461
12853TIP3    H238517   4.064   0.535   2.433
12854TIP3   OH238518   8.260   7.188   3.495
12854TIP3    H138519   8.215   7.118   3.447
12854TIP3    H238520   8.250   7.165   3.587
12855TIP3   OH238521   4.632   7.230   4.290
12855TIP3    H138522   4.595   7.316   4.310
12855TIP3    H238523   4.699   7.216   4.357
12856TIP3   OH238524   6.554   7.672   2.856
12856TIP3    H138525   6.476   7.727   2.863
12856TIP3    H238526   6.530   7.605   2.792
12857TIP3   OH238527   4.631   5.305   5.041
12857TIP3    H138528   4.616   5.265   4.955
12857TIP3    H238529   4.725   5.324   5.042
12858TIP3   OH238530   5.405   3.385   0.700
12858TIP3    H138531   5.469   3.314   0.699
12858TIP3    H238532   5.353   3.371   0.620
12859TIP3   OH238533   8.245   3.106   3.475
12859TIP3    H138534   8.156   3.119   3.442
12859TIP3    H238535   8.235   3.040   3.544
12860TIP3   OH238536   0.425   2.948   1.779
12860TIP3    H138537   0.463   2.864   1.755
12860TIP3    H238538   0.355   2.961   1.715
12861TIP3   OH238539   0.835   6.970   3.743
12861TIP3    H138540   0.922   6.931   3.734
12861TIP3    H238541   0.783   6.901   3.785
12862TIP3   OH238542   4.359   5.052   6.552
12862TIP3    H138543   4.417   5.018   6.484
12862TIP3    H238544   4.296   5.107   6.504
12863TIP3   OH238545   2.925   2.627   2.188
12863TIP3    H138546   2.851   2.584   2.231
12863TIP3    H238547   2.891   2.650   2.101
12864TIP3   OH238548   1.054   2.882   3.935
12864TIP3    H138549   1.055   2.899   4.029
12864TIP3    H238550   1.035   2.789   3.928
12865TIP3   OH238551   3.921   5.316   5.541
12865TIP3    H138552   3.923   5.409   5.562
12865TIP3    H238553   3.942   5.272   5.623
12866TIP3   OH238554   5.995   0.649   1.830
12866TIP3    H138555   6.070   0.697   1.866
12866TIP3    H238556   5.969   0.699   1.752
12867TIP3   OH238557   2.923   5.683   2.284
12867TIP3    H138558   2.985   5.752   2.307
12867TIP3    H238559   2.966   5.635   2.214
12868TIP3   OH238560   2.078   3.022   3.059
12868TIP3    H138561   2.002   2.992   3.009
12868TIP3    H238562   2.138   3.057   2.993
12869TIP3   OH238563   6.937   1.762   3.249
12869TIP3    H138564   6.935   1.769   3.154
12869TIP3    H238565   6.974   1.845   3.279
12870TIP3   OH238566   4.509   1.596   2.409
12870TIP3    H138567   4.434   1.541   2.434
12870TIP3    H238568   4.490   1.621   2.318
12871TIP3   OH238569   6.216   1.413   1.774
12871TIP3    H138570   6.290   1.465   1.743
12871TIP3    H238571   6.139   1.460   1.744
12872TIP3   OH238572   2.573   1.913   3.004
12872TIP3    H138573   2.493   1.870   2.974
12872TIP3    H238574   2.638   1.842   3.005
12873TIP3   OH238575   4.773   0.984   6.005
12873TIP3    H138576   4.838   1.048   6.032
12873TIP3    H238577   4.817   0.899   6.012
12874TIP3   OH238578   5.483   6.794   1.256
12874TIP3    H138579   5.499   6.864   1.319
12874TIP3    H238580   5.540   6.723   1.283
12875TIP3   OH238581   2.685   3.436   6.195
12875TIP3    H138582   2.634   3.442   6.114
12875TIP3    H238583   2.730   3.352   6.188
12876TIP3   OH238584   1.029   7.408   6.039
12876TIP3    H138585   1.097   7.391   6.104
12876TIP3    H238586   0.981   7.484   6.074
12877TIP3   OH238587   5.844   1.096   5.899
12877TIP3    H138588   5.780   1.145   5.951
12877TIP3    H238589   5.819   1.111   5.808
12878TIP3   OH238590   1.472   1.659   6.442
12878TIP3    H138591   1.442   1.627   6.357
12878TIP3    H238592   1.563   1.631   6.448
12879TIP3   OH238593   7.949   6.749   1.694
12879TIP3    H138594   7.858   6.764   1.719
12879TIP3    H238595   7.995   6.739   1.778
12880TIP3   OH238596   4.711   3.584   3.972
12880TIP3    H138597   4.699   3.632   3.890
12880TIP3    H238598   4.626   3.541   3.987
12881TIP3   OH238599   5.415   2.440   3.301
12881TIP3    H138600   5.361   2.517   3.320
12881TIP3    H238601   5.499   2.476   3.275
12882TIP3   OH238602   3.868   0.568   4.869
12882TIP3    H138603   3.814   0.585   4.791
12882TIP3    H238604   3.901   0.479   4.856
12883TIP3   OH238605   6.200   0.892   0.314
12883TIP3    H138606   6.263   0.956   0.280
12883TIP3    H238607   6.157   0.937   0.387
12884TIP3   OH238608   3.701   1.726   0.379
12884TIP3    H138609   3.609   1.729   0.354
12884TIP3    H238610   3.708   1.648   0.435
12885TIP3   OH238611   5.110   2.485   4.791
12885TIP3    H138612   5.047   2.501   4.721
12885TIP3    H238613   5.192   2.523   4.759
12886TIP3   OH238614   0.590   5.798   4.927
12886TIP3    H138615   0.556   5.732   4.867
12886TIP3    H238616   0.637   5.859   4.870
12887TIP3   OH238617   4.306   7.321   0.843
12887TIP3    H138618   4.371   7.336   0.912
12887TIP3    H238619   4.224   7.306   0.890
12888TIP3   OH238620   1.960   6.676   2.192
12888TIP3    H138621   1.940   6.630   2.273
12888TIP3    H238622   1.917   6.625   2.124
12889TIP3   OH238623   0.819   3.424   4.867
12889TIP3    H138624   0.775   3.493   4.819
12889TIP3    H238625   0.839   3.463   4.952
12890TIP3   OH238626   2.944   0.285   2.076
12890TIP3    H138627   2.999   0.348   2.121
12890TIP3    H238628   2.855   0.321   2.083
12891TIP3   OH238629   0.364   0.816   4.459
12891TIP3    H138630   0.446   0.802   4.413
12891TIP3    H238631   0.341   0.729   4.494
12892TIP3   OH238632   4.713   3.245   2.849
12892TIP3    H138633   4.689   3.294   2.928
12892TIP3    H238634   4.808   3.235   2.855
12893TIP3   OH238635   6.497   3.675   3.938
12893TIP3    H138636   6.524   3.590   3.973
12893TIP3    H238637   6.407   3.661   3.909
12894TIP3   OH238638   3.647   3.475   5.626
12894TIP3    H138639   3.671   3.565   5.604
12894TIP3    H238640   3.554   3.468   5.603
12895TIP3   OH238641   8.041   5.087   5.273
12895TIP3    H138642   7.979   5.069   5.344
12895TIP3    H238643   8.113   5.025   5.288
12896TIP3   OH238644   7.511   5.061   6.250
12896TIP3    H138645   7.544   4.974   6.275
12896TIP3    H238646   7.476   5.048   6.162
12897TIP3   OH238647   2.171   4.682   2.767
12897TIP3    H138648   2.080   4.667   2.742
12897TIP3    H238649   2.187   4.616   2.835
12898TIP3   OH238650   6.177   3.153   6.608
12898TIP3    H138651   6.191   3.078   6.667
12898TIP3    H238652   6.238   3.138   6.536
12899TIP3   OH238653   0.323   7.277   1.280
12899TIP3    H138654   0.279   7.361   1.291
12899TIP3    H238655   0.331   7.267   1.185
12900TIP3   OH238656   4.109   4.735   1.483
12900TIP3    H138657   4.105   4.645   1.517
12900TIP3    H238658   4.169   4.780   1.542
12901TIP3   OH238659   4.983   3.178   2.814
12901TIP3    H138660   5.018   3.265   2.830
12901TIP3    H238661   5.024   3.123   2.881
12902TIP3   OH238662   2.685   4.864   0.177
12902TIP3    H138663   2.715   4.776   0.154
12902TIP3    H238664   2.649   4.900   0.096
12903TIP3   OH238665   6.087   3.264   2.536
12903TIP3    H138666   6.155   3.198   2.552
12903TIP3    H238667   6.051   3.241   2.450
12904TIP3   OH238668   0.674   7.616   3.560
12904TIP3    H138669   0.755   7.615   3.510
12904TIP3    H238670   0.683   7.692   3.618
12905TIP3   OH238671   3.123   6.767   1.392
12905TIP3    H138672   3.054   6.721   1.345
12905TIP3    H238673   3.192   6.780   1.328
12906TIP3   OH238674   5.233   3.818   0.272
12906TIP3    H138675   5.227   3.760   0.348
12906TIP3    H238676   5.285   3.892   0.303
12907TIP3   OH238677   2.322   7.104   5.236
12907TIP3    H138678   2.375   7.071   5.309
12907TIP3    H238679   2.297   7.192   5.263
12908TIP3   OH238680   0.509   1.351   5.972
12908TIP3    H138681   0.561   1.318   6.046
12908TIP3    H238682   0.524   1.287   5.902
12909TIP3   OH238683   4.407   7.630   5.768
12909TIP3    H138684   4.445   7.552   5.727
12909TIP3    H238685   4.454   7.703   5.728
12910TIP3   OH238686   2.362   0.758   3.408
12910TIP3    H138687   2.399   0.708   3.481
12910TIP3    H238688   2.336   0.842   3.448
12911TIP3   OH238689   2.988   3.134   3.531
12911TIP3    H138690   3.067   3.170   3.571
12911TIP3    H238691   2.919   3.149   3.595
12912TIP3   OH238692   6.056   0.997   0.556
12912TIP3    H138693   5.993   0.946   0.607
12912TIP3    H238694   6.139   0.989   0.604
12913TIP3   OH238695   7.113   3.980   1.476
12913TIP3    H138696   7.031   3.966   1.430
12913TIP3    H238697   7.172   3.912   1.444
12914TIP3   OH238698   7.906   5.761   3.032
12914TIP3    H138699   7.984   5.809   3.004
12914TIP3    H238700   7.940   5.688   3.084
12915TIP3   OH238701   5.300   4.498   5.029
12915TIP3    H138702   5.346   4.463   5.105
12915TIP3    H238703   5.366   4.551   4.983
12916TIP3   OH238704   2.227   1.614   3.480
12916TIP3    H138705   2.141   1.634   3.443
12916TIP3    H238706   2.234   1.673   3.555
12917TIP3   OH238707   4.921   4.311   1.059
12917TIP3    H138708   4.840   4.304   1.108
12917TIP3    H238709   4.897   4.355   0.977
12918TIP3   OH238710   7.030   2.948   3.241
12918TIP3    H138711   6.997   3.006   3.173
12918TIP3    H238712   7.121   2.977   3.255
12919TIP3   OH238713   1.829   0.076   3.998
12919TIP3    H138714   1.746   0.068   3.950
12919TIP3    H238715   1.808   0.133   4.071
12920TIP3   OH238716   6.264   4.137   3.714
12920TIP3    H138717   6.310   4.132   3.630
12920TIP3    H238718   6.221   4.223   3.713
12921TIP3   OH238719   3.265   0.656   5.225
12921TIP3    H138720   3.322   0.589   5.188
12921TIP3    H238721   3.203   0.608   5.279
12922TIP3   OH238722   5.337   2.917   6.350
12922TIP3    H138723   5.424   2.952   6.368
12922TIP3    H238724   5.325   2.929   6.256
12923TIP3   OH238725   4.847   2.870   2.221
12923TIP3    H138726   4.827   2.934   2.290
12923TIP3    H238727   4.891   2.921   2.153
12924TIP3   OH238728   0.885   6.654   2.985
12924TIP3    H138729   0.816   6.588   2.985
12924TIP3    H238730   0.856   6.719   3.048
12925TIP3   OH238731   5.684   5.378   6.335
12925TIP3    H138732   5.596   5.347   6.314
12925TIP3    H238733   5.670   5.466   6.372
12926TIP3   OH238734   1.155   2.957   3.061
12926TIP3    H138735   1.173   3.012   2.985
12926TIP3    H238736   1.136   2.871   3.023
12927TIP3   OH238737   6.771   3.671   0.684
12927TIP3    H138738   6.823   3.705   0.757
12927TIP3    H238739   6.717   3.745   0.657
12928TIP3   OH238740   6.591   4.168   1.735
12928TIP3    H138741   6.520   4.231   1.743
12928TIP3    H238742   6.548   4.084   1.721
12929TIP3   OH238743   2.189   1.216   6.580
12929TIP3    H138744   2.191   1.132   6.627
12929TIP3    H238745   2.274   1.256   6.598
12930TIP3   OH238746   1.948   5.374   6.670
12930TIP3    H138747   1.909   5.460   6.686
12930TIP3    H238748   1.950   5.365   6.575
12931TIP3   OH238749   1.931   3.758   0.471
12931TIP3    H138750   1.972   3.765   0.557
12931TIP3    H238751   1.855   3.816   0.476
12932TIP3   OH238752   6.933   4.307   5.863
12932TIP3    H138753   6.864   4.316   5.797
12932TIP3    H238754   6.894   4.253   5.932
12933TIP3   OH238755   5.131   6.390   1.722
12933TIP3    H138756   5.107   6.321   1.660
12933TIP3    H238757   5.106   6.355   1.807
12934TIP3   OH238758   5.833   4.731   1.928
12934TIP3    H138759   5.924   4.708   1.912
12934TIP3    H238760   5.784   4.683   1.860
12935TIP3   OH238761   0.030   1.662   2.760
12935TIP3    H138762   0.069   1.733   2.709
12935TIP3    H238763  -0.020   1.707   2.828
12936TIP3   OH238764   3.991   0.458   3.778
12936TIP3    H138765   4.001   0.511   3.699
12936TIP3    H238766   4.008   0.368   3.748
12937TIP3   OH238767   1.850   1.954   1.479
12937TIP3    H138768   1.817   2.041   1.500
12937TIP3    H238769   1.780   1.914   1.426
12938TIP3   OH238770   7.645   2.406   5.716
12938TIP3    H138771   7.721   2.464   5.720
12938TIP3    H238772   7.574   2.458   5.755
12939TIP3   OH238773   0.181   2.827   1.951
12939TIP3    H138774   0.100   2.778   1.939
12939TIP3    H238775   0.171   2.905   1.897
12940TIP3   OH238776   3.197   0.277   5.266
12940TIP3    H138777   3.235   0.195   5.297
12940TIP3    H238778   3.124   0.250   5.211
12941TIP3   OH238779   0.815   1.179   4.362
12941TIP3    H138780   0.901   1.221   4.350
12941TIP3    H238781   0.755   1.231   4.309
12942TIP3   OH238782   6.254   2.514   6.122
12942TIP3    H138783   6.167   2.475   6.123
12942TIP3    H238784   6.239   2.603   6.090
12943TIP3   OH238785   5.312   1.213   1.049
12943TIP3    H138786   5.248   1.180   0.985
12943TIP3    H238787   5.383   1.149   1.046
12944TIP3   OH238788   2.408   6.417   1.035
12944TIP3    H138789   2.392   6.500   1.080
12944TIP3    H238790   2.418   6.353   1.106
12945TIP3   OH238791   0.993   3.014   5.818
12945TIP3    H138792   0.998   3.102   5.857
12945TIP3    H238793   1.085   2.988   5.807
12946TIP3   OH238794   2.262   1.574   1.374
12946TIP3    H138795   2.340   1.545   1.326
12946TIP3    H238796   2.189   1.551   1.316
12947TIP3   OH238797   3.657   0.388   5.333
12947TIP3    H138798   3.716   0.434   5.273
12947TIP3    H238799   3.578   0.443   5.334
12948TIP3   OH238800   1.129   2.081   4.493
12948TIP3    H138801   1.054   2.137   4.513
12948TIP3    H238802   1.099   2.028   4.419
12949TIP3   OH238803   0.671   5.332   3.233
12949TIP3    H138804   0.695   5.257   3.287
12949TIP3    H238805   0.691   5.305   3.143
12950TIP3   OH238806   3.173   1.516   0.691
12950TIP3    H138807   3.098   1.458   0.679
12950TIP3    H238808   3.136   1.597   0.725
12951TIP3   OH238809   1.312   4.789   4.029
12951TIP3    H138810   1.339   4.849   4.099
12951TIP3    H238811   1.332   4.702   4.062
12952TIP3   OH238812   0.531   6.827   1.234
12952TIP3    H138813   0.604   6.802   1.178
12952TIP3    H238814   0.551   6.788   1.319
12953TIP3   OH238815   1.099   4.852   2.432
12953TIP3    H138816   1.159   4.926   2.424
12953TIP3    H238817   1.074   4.831   2.342
12954TIP3   OH238818   5.587   1.569   3.521
12954TIP3    H138819   5.507   1.598   3.565
12954TIP3    H238820   5.570   1.479   3.494
12955TIP3   OH238821   0.947   2.301   4.858
12955TIP3    H138822   0.884   2.373   4.851
12955TIP3    H238823   0.895   2.227   4.889
12956TIP3   OH238824   1.413   6.810   4.204
12956TIP3    H138825   1.342   6.774   4.150
12956TIP3    H238826   1.373   6.826   4.289
12957TIP3   OH238827   0.902   4.886   6.308
12957TIP3    H138828   0.885   4.885   6.214
12957TIP3    H238829   0.816   4.903   6.348
12958TIP3   OH238830   2.011   2.632   0.176
12958TIP3    H138831   2.053   2.701   0.226
12958TIP3    H238832   2.082   2.572   0.153
12959TIP3   OH238833   7.018   6.010   3.011
12959TIP3    H138834   6.967   6.088   3.029
12959TIP3    H238835   6.966   5.961   2.948
12960TIP3   OH238836   7.584   1.799   6.013
12960TIP3    H138837   7.621   1.806   5.926
12960TIP3    H238838   7.600   1.708   6.038
12961TIP3   OH238839   4.457   7.794   6.041
12961TIP3    H138840   4.391   7.733   6.008
12961TIP3    H238841   4.473   7.767   6.131
12962TIP3   OH238842   2.517   3.824   0.401
12962TIP3    H138843   2.435   3.778   0.418
12962TIP3    H238844   2.585   3.758   0.410
12963TIP3   OH238845   2.445   1.051   6.585
12963TIP3    H138846   2.462   0.957   6.596
12963TIP3    H238847   2.532   1.090   6.577
12964TIP3   OH238848   1.301   5.763   0.711
12964TIP3    H138849   1.352   5.698   0.759
12964TIP3    H238850   1.221   5.774   0.763
12965TIP3   OH238851   1.658   0.939   1.066
12965TIP3    H138852   1.751   0.962   1.071
12965TIP3    H238853   1.644   0.912   0.976
12966TIP3   OH238854   2.415   5.016   1.370
12966TIP3    H138855   2.463   5.092   1.336
12966TIP3    H238856   2.436   5.014   1.464
12967TIP3   OH238857   2.535   1.119   4.523
12967TIP3    H138858   2.595   1.046   4.539
12967TIP3    H238859   2.469   1.083   4.464
12968TIP3   OH238860   5.206   4.829   4.893
12968TIP3    H138861   5.216   4.894   4.824
12968TIP3    H238862   5.263   4.757   4.866
12969TIP3   OH238863   6.903   1.674   2.203
12969TIP3    H138864   6.827   1.729   2.185
12969TIP3    H238865   6.902   1.608   2.133
12970TIP3   OH238866   1.837   2.339   5.205
12970TIP3    H138867   1.789   2.398   5.147
12970TIP3    H238868   1.924   2.332   5.165
12971TIP3   OH238869   4.185   3.733   3.217
12971TIP3    H138870   4.120   3.747   3.148
12971TIP3    H238871   4.152   3.658   3.266
12972TIP3   OH238872   5.812   6.151   4.768
12972TIP3    H138873   5.797   6.228   4.712
12972TIP3    H238874   5.842   6.083   4.708
12973TIP3   OH238875   4.877   3.771   6.606
12973TIP3    H138876   4.891   3.704   6.672
12973TIP3    H238877   4.832   3.726   6.534
12974TIP3   OH238878   4.876   3.581   5.849
12974TIP3    H138879   4.923   3.637   5.911
12974TIP3    H238880   4.783   3.597   5.869
12975TIP3   OH238881   6.737   1.861   3.985
12975TIP3    H138882   6.741   1.834   4.077
12975TIP3    H238883   6.758   1.954   3.987
12976TIP3   OH238884   1.916   1.389   3.445
12976TIP3    H138885   1.938   1.380   3.352
12976TIP3    H238886   1.824   1.362   3.450
12977TIP3   OH238887   7.578   0.360   0.384
12977TIP3    H138888   7.609   0.423   0.319
12977TIP3    H238889   7.629   0.380   0.462
12978TIP3   OH238890   2.508   5.271   3.733
12978TIP3    H138891   2.549   5.356   3.749
12978TIP3    H238892   2.501   5.265   3.638
12979TIP3   OH238893   2.273   1.537   4.287
12979TIP3    H138894   2.283   1.512   4.195
12979TIP3    H238895   2.333   1.479   4.334
12980TIP3   OH238896   4.242   4.883   5.240
12980TIP3    H138897   4.331   4.877   5.206
12980TIP3    H238898   4.194   4.815   5.193
12981TIP3   OH238899   3.065   1.652   5.434
12981TIP3    H138900   2.984   1.662   5.484
12981TIP3    H238901   3.134   1.669   5.497
12982TIP3   OH238902   6.790   1.519   2.812
12982TIP3    H138903   6.729   1.499   2.741
12982TIP3    H238904   6.742   1.496   2.892
12983TIP3   OH238905   7.478   3.385   1.659
12983TIP3    H138906   7.392   3.422   1.681
12983TIP3    H238907   7.463   3.290   1.657
12984TIP3   OH238908   4.402   5.200   5.131
12984TIP3    H138909   4.403   5.130   5.196
12984TIP3    H238910   4.492   5.231   5.127
12985TIP3   OH238911   8.237   5.193   2.712
12985TIP3    H138912   8.243   5.288   2.702
12985TIP3    H238913   8.313   5.159   2.667
12986TIP3   OH238914   6.337   1.878   5.847
12986TIP3    H138915   6.386   1.955   5.818
12986TIP3    H238916   6.268   1.867   5.781
12987TIP3   OH238917   4.690   1.260   0.155
12987TIP3    H138918   4.630   1.208   0.209
12987TIP3    H238919   4.651   1.261   0.068
12988TIP3   OH238920   1.113   1.728   3.389
12988TIP3    H138921   1.056   1.801   3.367
12988TIP3    H238922   1.126   1.682   3.305
12989TIP3   OH238923   0.153   7.066   5.292
12989TIP3    H138924   0.083   7.074   5.358
12989TIP3    H238925   0.234   7.067   5.343
12990TIP3   OH238926   6.378   1.727   2.206
12990TIP3    H138927   6.344   1.774   2.129
12990TIP3    H238928   6.355   1.636   2.191
12991TIP3   OH238929   3.526   2.844   4.635
12991TIP3    H138930   3.562   2.758   4.612
12991TIP3    H238931   3.525   2.845   4.731
12992TIP3   OH238932   5.134   1.702   2.469
12992TIP3    H138933   5.106   1.794   2.474
12992TIP3    H238934   5.118   1.667   2.557
12993TIP3   OH238935   4.901   3.975   0.115
12993TIP3    H138936   4.919   3.899   0.170
12993TIP3    H238937   4.805   3.981   0.114
12994TIP3   OH238938   5.211   0.702   3.669
12994TIP3    H138939   5.158   0.745   3.736
12994TIP3    H238940   5.247   0.624   3.712
12995TIP3   OH238941   2.772   3.080   6.453
12995TIP3    H138942   2.805   3.059   6.540
12995TIP3    H238943   2.686   3.038   6.449
12996TIP3   OH238944   0.649   1.010   5.651
12996TIP3    H138945   0.728   0.990   5.701
12996TIP3    H238946   0.679   1.062   5.577
12997TIP3   OH238947   6.227   2.269   3.049
12997TIP3    H138948   6.164   2.329   3.009
12997TIP3    H238949   6.303   2.272   2.992
12998TIP3   OH238950   5.786   2.031   0.724
12998TIP3    H138951   5.759   1.958   0.780
12998TIP3    H238952   5.724   2.101   0.746
12999TIP3   OH238953   3.916   7.700   1.720
12999TIP3    H138954   3.850   7.652   1.769
12999TIP3    H238955   3.963   7.751   1.787
13000TIP3   OH238956   1.965   6.619   5.731
13000TIP3    H138957   2.026   6.665   5.788
13000TIP3    H238958   1.944   6.682   5.662
13001TIP3   OH238959   1.159   3.811   2.229
13001TIP3    H138960   1.126   3.724   2.210
13001TIP3    H238961   1.110   3.869   2.171
13002TIP3   OH238962   0.381   0.211   3.859
13002TIP3    H138963   0.329   0.274   3.809
13002TIP3    H238964   0.329   0.131   3.859
13003TIP3   OH238965   5.282   0.226   4.444
13003TIP3    H138966   5.370   0.255   4.419
13003TIP3    H238967   5.261   0.156   4.382
13004TIP3   OH238968   6.973   0.963   0.657
13004TIP3    H138969   6.987   0.969   0.751
13004TIP3    H238970   6.878   0.971   0.646
13005TIP3   OH238971   4.159   0.733   1.807
13005TIP3    H138972   4.075   0.721   1.763
13005TIP3    H238973   4.160   0.663   1.874
13006TIP3   OH238974   5.625   1.372   0.902
13006TIP3    H138975   5.714   1.339   0.917
13006TIP3    H238976   5.589   1.314   0.836
13007TIP3   OH238977   5.124   1.617   0.721
13007TIP3    H138978   5.054   1.677   0.747
13007TIP3    H238979   5.112   1.604   0.627
13008TIP3   OH238980   1.837   5.189   1.783
13008TIP3    H138981   1.895   5.114   1.772
13008TIP3    H238982   1.845   5.213   1.875
13009TIP3   OH238983   1.033   2.644   4.922
13009TIP3    H138984   0.948   2.678   4.950
13009TIP3    H238985   1.087   2.647   5.001
13010TIP3   OH238986   0.528   7.268   6.016
13010TIP3    H138987   0.587   7.309   5.953
13010TIP3    H238988   0.447   7.318   6.009
13011TIP3   OH238989   0.153   0.893   4.296
13011TIP3    H138990   0.220   0.864   4.358
13011TIP3    H238991   0.195   0.886   4.210
13012TIP3   OH238992   7.158   7.638   1.708
13012TIP3    H138993   7.099   7.563   1.716
13012TIP3    H238994   7.178   7.643   1.614
13013TIP3   OH238995   4.996   5.293   2.065
13013TIP3    H138996   4.944   5.360   2.020
13013TIP3    H238997   5.073   5.341   2.097
13014TIP3   OH238998   8.157   5.870   2.673
13014TIP3    H138999   8.066   5.854   2.698
13014TIP3    H239000   8.206   5.856   2.754
13015TIP3   OH239001   0.625   0.878   3.931
13015TIP3    H139002   0.706   0.831   3.911
13015TIP3    H239003   0.564   0.849   3.863
13016TIP3   OH239004   7.723   4.160   0.955
13016TIP3    H139005   7.800   4.166   0.898
13016TIP3    H239006   7.679   4.079   0.927
13017TIP3   OH239007   4.233   2.362   2.066
13017TIP3    H139008   4.282   2.424   2.121
13017TIP3    H239009   4.297   2.335   2.000
13018TIP3   OH239010   2.222   1.846   5.917
13018TIP3    H139011   2.283   1.774   5.932
13018TIP3    H239012   2.269   1.905   5.857
13019TIP3   OH239013   5.687   4.897   0.565
13019TIP3    H139014   5.710   4.970   0.508
13019TIP3    H239015   5.700   4.931   0.654
13020TIP3   OH239016   6.964   6.880   4.828
13020TIP3    H139017   7.032   6.908   4.766
13020TIP3    H239018   6.991   6.793   4.856
13021TIP3   OH239019   6.026   7.034   1.683
13021TIP3    H139020   5.940   6.996   1.705
13021TIP3    H239021   6.062   7.063   1.767
13022TIP3   OH239022   4.701   2.601   5.748
13022TIP3    H139023   4.786   2.569   5.714
13022TIP3    H239024   4.704   2.583   5.841
13023TIP3   OH239025   2.913   4.548   5.259
13023TIP3    H139026   2.906   4.519   5.350
13023TIP3    H239027   2.834   4.601   5.245
13024TIP3   OH239028   7.385   3.147   1.630
13024TIP3    H139029   7.416   3.067   1.587
13024TIP3    H239030   7.323   3.117   1.696
13025TIP3   OH239031   8.121   4.283   3.920
13025TIP3    H139032   8.113   4.240   3.835
13025TIP3    H239033   8.212   4.310   3.925
13026TIP3   OH239034   4.089   5.601   2.544
13026TIP3    H139035   3.995   5.610   2.555
13026TIP3    H239036   4.123   5.587   2.633
13027TIP3   OH239037   5.935   5.040   5.825
13027TIP3    H139038   6.027   5.065   5.835
13027TIP3    H239039   5.887   5.113   5.864
13028TIP3   OH239040   6.796   0.100   6.571
13028TIP3    H139041   6.803   0.066   6.660
13028TIP3    H239042   6.855   0.045   6.519
13029TIP3   OH239043   3.960   2.521   3.954
13029TIP3    H139044   3.963   2.474   4.036
13029TIP3    H239045   3.872   2.561   3.952
13030TIP3   OH239046   2.500   4.429   4.823
13030TIP3    H139047   2.552   4.360   4.781
13030TIP3    H239048   2.549   4.451   4.902
13031TIP3   OH239049   6.383   1.602   1.139
13031TIP3    H139050   6.324   1.572   1.069
13031TIP3    H239051   6.325   1.612   1.215
13032TIP3   OH239052   0.139   6.309   6.045
13032TIP3    H139053   0.113   6.223   6.077
13032TIP3    H239054   0.160   6.296   5.953
13033TIP3   OH239055   3.030   4.061   2.273
13033TIP3    H139056   2.935   4.063   2.286
13033TIP3    H239057   3.042   4.030   2.183
13034TIP3   OH239058   0.502   1.622   1.728
13034TIP3    H139059   0.500   1.580   1.641
13034TIP3    H239060   0.579   1.679   1.724
13035TIP3   OH239061   4.941   6.749   2.436
13035TIP3    H139062   4.930   6.690   2.511
13035TIP3    H239063   5.034   6.742   2.413
13036TIP3   OH239064   8.105   5.608   3.167
13036TIP3    H139065   8.139   5.689   3.204
13036TIP3    H239066   8.182   5.553   3.152
13037TIP3   OH239067   1.952   7.008   0.579
13037TIP3    H139068   1.943   7.053   0.662
13037TIP3    H239069   2.005   7.066   0.525
13038TIP3   OH239070   6.440   2.808   5.652
13038TIP3    H139071   6.387   2.779   5.578
13038TIP3    H239072   6.523   2.760   5.642
13039TIP3   OH239073   7.146   0.379   2.382
13039TIP3    H139074   7.189   0.303   2.421
13039TIP3    H239075   7.218   0.438   2.359
13040TIP3   OH239076   1.962   7.478   2.011
13040TIP3    H139077   1.947   7.548   2.074
13040TIP3    H239078   1.952   7.519   1.925
13041TIP3   OH239079   3.823   6.928   2.118
13041TIP3    H139080   3.832   6.958   2.027
13041TIP3    H239081   3.891   6.976   2.165
13042TIP3   OH239082   7.094   7.112   4.058
13042TIP3    H139083   7.042   7.033   4.045
13042TIP3    H239084   7.029   7.182   4.066
13043TIP3   OH239085   1.423   6.620   2.613
13043TIP3    H139086   1.421   6.631   2.708
13043TIP3    H239087   1.443   6.707   2.579
13044TIP3   OH239088   7.675   0.703   1.850
13044TIP3    H139089   7.608   0.635   1.852
13044TIP3    H239090   7.631   0.778   1.810
13045TIP3   OH239091   4.686   4.832   1.919
13045TIP3    H139092   4.697   4.812   1.826
13045TIP3    H239093   4.679   4.927   1.923
13046TIP3   OH239094   4.249   3.528   2.970
13046TIP3    H139095   4.166   3.550   3.013
13046TIP3    H239096   4.231   3.540   2.877
13047TIP3   OH239097   4.696   7.792   6.385
13047TIP3    H139098   4.781   7.750   6.400
13047TIP3    H239099   4.637   7.720   6.363
13048TIP3   OH239100   3.323   6.668   0.543
13048TIP3    H139101   3.239   6.703   0.574
13048TIP3    H239102   3.307   6.646   0.451
13049TIP3   OH239103   7.116   6.613   5.229
13049TIP3    H139104   7.202   6.637   5.263
13049TIP3    H239105   7.106   6.520   5.252
13050TIP3   OH239106   4.309   6.061   1.927
13050TIP3    H139107   4.253   6.054   1.849
13050TIP3    H239108   4.282   5.988   1.982
13051TIP3   OH239109   0.894   3.611   3.763
13051TIP3    H139110   0.943   3.664   3.826
13051TIP3    H239111   0.858   3.539   3.815
13052TIP3   OH239112   6.900   5.000   4.776
13052TIP3    H139113   6.979   4.950   4.796
13052TIP3    H239114   6.827   4.941   4.795
13053TIP3   OH239115   3.478   3.956   6.749
13053TIP3    H139116   3.440   3.870   6.732
13053TIP3    H239117   3.485   3.997   6.663
13054TIP3   OH239118   0.087   2.751   5.933
13054TIP3    H139119   0.031   2.711   6.000
13054TIP3    H239120   0.175   2.744   5.969
13055TIP3   OH239121   1.739   7.353   2.734
13055TIP3    H139122   1.712   7.367   2.644
13055TIP3    H239123   1.734   7.258   2.747
13056TIP3   OH239124   3.550   0.709   0.870
13056TIP3    H139125   3.586   0.691   0.957
13056TIP3    H239126   3.564   0.628   0.821
13057TIP3   OH239127   5.386   1.043   0.707
13057TIP3    H139128   5.356   1.109   0.644
13057TIP3    H239129   5.470   1.076   0.739
13058TIP3   OH239130   0.160   2.340   3.920
13058TIP3    H139131   0.114   2.257   3.935
13058TIP3    H239132   0.238   2.316   3.870
13059TIP3   OH239133   5.175   4.065   4.523
13059TIP3    H139134   5.143   4.092   4.610
13059TIP3    H239135   5.229   4.138   4.495
13060TIP3   OH239136   2.314   5.141   2.458
13060TIP3    H139137   2.307   5.093   2.540
13060TIP3    H239138   2.312   5.233   2.483
13061TIP3   OH239139   2.091   1.608   0.149
13061TIP3    H139140   2.086   1.645   0.061
13061TIP3    H239141   2.008   1.634   0.190
13062TIP3   OH239142   3.919   0.486   3.064
13062TIP3    H139143   4.009   0.455   3.061
13062TIP3    H239144   3.923   0.573   3.024
13063TIP3   OH239145   0.624   0.602   2.232
13063TIP3    H139146   0.601   0.596   2.140
13063TIP3    H239147   0.708   0.648   2.232
13064TIP3   OH239148   8.194   0.798   2.934
13064TIP3    H139149   8.120   0.738   2.943
13064TIP3    H239150   8.170   0.874   2.987
13065TIP3   OH239151   5.626   7.023   1.111
13065TIP3    H139152   5.543   6.992   1.075
13065TIP3    H239153   5.630   7.116   1.086
13066TIP3   OH239154   1.811   4.806   5.015
13066TIP3    H139155   1.772   4.750   5.082
13066TIP3    H239156   1.836   4.745   4.945
13067TIP3   OH239157   3.158   4.508   5.121
13067TIP3    H139158   3.074   4.511   5.167
13067TIP3    H239159   3.216   4.461   5.182
13068TIP3   OH239160   2.737   4.110   4.928
13068TIP3    H139161   2.829   4.134   4.915
13068TIP3    H239162   2.688   4.175   4.877
13069TIP3   OH239163   7.765   3.539   0.750
13069TIP3    H139164   7.697   3.474   0.736
13069TIP3    H239165   7.812   3.510   0.829
13070TIP3   OH239166   5.864   4.216   5.191
13070TIP3    H139167   5.814   4.297   5.188
13070TIP3    H239168   5.844   4.178   5.277
13071TIP3   OH239169   4.613   1.174   5.358
13071TIP3    H139170   4.571   1.120   5.291
13071TIP3    H239171   4.691   1.125   5.383
13072TIP3   OH239172   0.144   0.604   5.162
13072TIP3    H139173   0.111   0.602   5.073
13072TIP3    H239174   0.080   0.656   5.210
13073TIP3   OH239175   6.577   7.043   6.659
13073TIP3    H139176   6.576   7.114   6.723
13073TIP3    H239177   6.602   7.085   6.577
13074TIP3   OH239178   2.694   7.615   0.706
13074TIP3    H139179   2.722   7.542   0.651
13074TIP3    H239180   2.609   7.641   0.669
13075TIP3   OH239181   1.212   7.312   2.487
13075TIP3    H139182   1.230   7.243   2.551
13075TIP3    H239183   1.237   7.274   2.403
13076TIP3   OH239184   6.721   5.912   3.663
13076TIP3    H139185   6.753   5.825   3.687
13076TIP3    H239186   6.743   5.921   3.571
13077TIP3   OH239187   0.203   7.454   2.614
13077TIP3    H139188   0.286   7.421   2.581
13077TIP3    H239189   0.207   7.440   2.708
13078TIP3   OH239190   5.535   2.780   3.590
13078TIP3    H139191   5.498   2.703   3.632
13078TIP3    H239192   5.614   2.800   3.640
13079TIP3   OH239193   0.909   5.370   1.991
13079TIP3    H139194   1.001   5.375   2.017
13079TIP3    H239195   0.889   5.276   1.991
13080TIP3   OH239196   1.512   6.994   3.968
13080TIP3    H139197   1.532   6.957   4.054
13080TIP3    H239198   1.568   7.071   3.962
13081TIP3   OH239199   6.539   0.734   2.535
13081TIP3    H139200   6.447   0.754   2.514
13081TIP3    H239201   6.533   0.670   2.606
13082TIP3   OH239202   1.176   1.254   3.484
13082TIP3    H139203   1.100   1.254   3.425
13082TIP3    H239204   1.217   1.169   3.468
13083TIP3   OH239205   5.531   6.761   0.893
13083TIP3    H139206   5.483   6.801   0.966
13083TIP3    H239207   5.465   6.710   0.846
13084TIP3   OH239208   6.054   4.312   0.086
13084TIP3    H139209   6.004   4.354   0.016
13084TIP3    H239210   6.098   4.385   0.130
13085TIP3   OH239211   0.143   7.788   3.869
13085TIP3    H139212   0.054   7.758   3.850
13085TIP3    H239213   0.182   7.804   3.783
13086TIP3   OH239214   7.256   6.905   0.923
13086TIP3    H139215   7.177   6.944   0.960
13086TIP3    H239216   7.325   6.968   0.943
13087TIP3   OH239217   7.915   5.308   2.357
13087TIP3    H139218   7.837   5.362   2.358
13087TIP3    H239219   7.983   5.363   2.395
13088TIP3   OH239220   3.197   2.742   1.683
13088TIP3    H139221   3.160   2.655   1.669
13088TIP3    H239222   3.269   2.728   1.744
13089TIP3   OH239223   5.707   5.724   5.850
13089TIP3    H139224   5.667   5.768   5.925
13089TIP3    H239225   5.700   5.788   5.779
13090TIP3   OH239226   4.339   3.450   0.075
13090TIP3    H139227   4.316   3.426  -0.015
13090TIP3    H239228   4.434   3.457   0.074
13091TIP3   OH239229   2.587   3.718   5.989
13091TIP3    H139230   2.631   3.731   6.074
13091TIP3    H239231   2.623   3.787   5.933
13092TIP3   OH239232   5.733   2.671   0.820
13092TIP3    H139233   5.749   2.595   0.875
13092TIP3    H239234   5.799   2.664   0.751
13093TIP3   OH239235   6.476   3.010   5.338
13093TIP3    H139236   6.511   3.056   5.262
13093TIP3    H239237   6.397   3.059   5.362
13094TIP3   OH239238   1.988   7.172   4.809
13094TIP3    H139239   2.030   7.228   4.874
13094TIP3    H239240   1.897   7.167   4.836
13095TIP3   OH239241   4.985   1.690   4.497
13095TIP3    H139242   5.044   1.675   4.572
13095TIP3    H239243   4.962   1.783   4.504
13096TIP3   OH239244   0.817   7.746   0.328
13096TIP3    H139245   0.821   7.701   0.413
13096TIP3    H239246   0.898   7.795   0.323
13097TIP3   OH239247   4.734   6.133   5.314
13097TIP3    H139248   4.657   6.077   5.325
13097TIP3    H239249   4.778   6.098   5.237
13098TIP3   OH239250   3.866   6.068   3.744
13098TIP3    H139251   3.848   6.002   3.677
13098TIP3    H239252   3.820   6.147   3.713
13099TIP3   OH239253   6.280   4.823   5.990
13099TIP3    H139254   6.265   4.757   6.058
13099TIP3    H239255   6.298   4.772   5.911
13100TIP3   OH239256   7.117   1.597   0.481
13100TIP3    H139257   7.122   1.635   0.568
13100TIP3    H239258   7.207   1.590   0.451
13101TIP3   OH239259   4.815  -0.057   6.504
13101TIP3    H139260   4.740  -0.005   6.475
13101TIP3    H239261   4.874  -0.058   6.428
13102TIP3   OH239262   2.534   1.930   6.218
13102TIP3    H139263   2.529   1.861   6.153
13102TIP3    H239264   2.601   1.990   6.185
13103TIP3   OH239265   5.108   0.376   5.077
13103TIP3    H139266   5.178   0.437   5.101
13103TIP3    H239267   5.145   0.289   5.092
13104TIP3   OH239268   2.626   7.323   0.857
13104TIP3    H139269   2.683   7.247   0.841
13104TIP3    H239270   2.687   7.394   0.875
13105TIP3   OH239271   7.074   7.165   4.522
13105TIP3    H139272   7.129   7.131   4.451
13105TIP3    H239273   7.133   7.171   4.597
13106TIP3   OH239274   4.714   0.504   5.319
13106TIP3    H139275   4.659   0.579   5.341
13106TIP3    H239276   4.753   0.478   5.402
13107TIP3   OH239277   1.674   0.603   3.705
13107TIP3    H139278   1.697   0.689   3.739
13107TIP3    H239279   1.663   0.549   3.783
13108TIP3   OH239280   5.732   5.502   6.753
13108TIP3    H139281   5.809   5.483   6.699
13108TIP3    H239282   5.751   5.587   6.792
13109TIP3   OH239283   0.712   4.106   1.634
13109TIP3    H139284   0.643   4.046   1.603
13109TIP3    H239285   0.691   4.190   1.593
13110TIP3   OH239286   2.223   3.054   2.476
13110TIP3    H139287   2.303   3.095   2.444
13110TIP3    H239288   2.231   3.058   2.571
13111TIP3   OH239289   6.312   7.774   5.872
13111TIP3    H139290   6.347   7.697   5.827
13111TIP3    H239291   6.382   7.800   5.933
13112TIP3   OH239292   6.596   2.737   6.387
13112TIP3    H139293   6.548   2.799   6.442
13112TIP3    H239294   6.669   2.708   6.442
13113TIP3   OH239295   7.857   3.612   6.518
13113TIP3    H139296   7.912   3.686   6.491
13113TIP3    H239297   7.771   3.651   6.535
13114TIP3   OH239298   2.634   7.447   5.859
13114TIP3    H139299   2.726   7.437   5.883
13114TIP3    H239300   2.627   7.404   5.774
13115TIP3   OH239301   0.757   6.048   0.657
13115TIP3    H139302   0.838   6.026   0.611
13115TIP3    H239303   0.782   6.048   0.749
13116TIP3   OH239304   5.422   3.684   0.120
13116TIP3    H139305   5.359   3.719   0.183
13116TIP3    H239306   5.490   3.751   0.114
13117TIP3   OH239307   7.223   2.719   2.731
13117TIP3    H139308   7.253   2.629   2.744
13117TIP3    H239309   7.203   2.725   2.638
13118TIP3   OH239310   7.543   1.085   4.785
13118TIP3    H139311   7.462   1.094   4.736
13118TIP3    H239312   7.515   1.072   4.876
13119TIP3   OH239313   0.743   2.103   1.089
13119TIP3    H139314   0.752   2.185   1.039
13119TIP3    H239315   0.809   2.110   1.158
13120TIP3   OH239316   3.274   6.917   3.023
13120TIP3    H139317   3.213   6.928   2.951
13120TIP3    H239318   3.320   6.835   3.003
13121TIP3   OH239319   1.425   7.393   2.775
13121TIP3    H139320   1.507   7.442   2.787
13121TIP3    H239321   1.357   7.460   2.776
13122TIP3   OH239322   7.725   0.726   2.836
13122TIP3    H139323   7.650   0.776   2.870
13122TIP3    H239324   7.771   0.786   2.778
13123TIP3   OH239325   2.434   2.963   5.784
13123TIP3    H139326   2.445   3.049   5.826
13123TIP3    H239327   2.451   2.900   5.853
13124TIP3   OH239328   2.904   0.117   5.763
13124TIP3    H139329   2.936   0.169   5.689
13124TIP3    H239330   2.830   0.167   5.797
13125TIP3   OH239331   7.693   5.576   0.777
13125TIP3    H139332   7.659   5.662   0.750
13125TIP3    H239333   7.739   5.543   0.700
13126TIP3   OH239334   8.075   4.316   2.765
13126TIP3    H139335   8.123   4.338   2.685
13126TIP3    H239336   7.982   4.320   2.739
13127TIP3   OH239337   7.206   2.850   3.916
13127TIP3    H139338   7.279   2.886   3.966
13127TIP3    H239339   7.224   2.876   3.825
13128TIP3   OH239340   1.001   4.348   4.547
13128TIP3    H139341   1.046   4.371   4.628
13128TIP3    H239342   1.047   4.398   4.479
13129TIP3   OH239343   6.155   6.495   1.859
13129TIP3    H139344   6.124   6.583   1.880
13129TIP3    H239345   6.124   6.441   1.932
13130TIP3   OH239346   5.074   2.117   6.192
13130TIP3    H139347   5.133   2.087   6.123
13130TIP3    H239348   5.008   2.168   6.146
13131TIP3   OH239349   5.256   3.254   6.220
13131TIP3    H139350   5.346   3.223   6.234
13131TIP3    H239351   5.236   3.228   6.131
13132TIP3   OH239352   5.512  -0.031   4.695
13132TIP3    H139353   5.526   0.045   4.752
13132TIP3    H239354   5.542  -0.003   4.609
13133TIP3   OH239355   7.066   1.574   0.169
13133TIP3    H139356   7.070   1.490   0.123
13133TIP3    H239357   7.147   1.576   0.221
13134TIP3   OH239358   2.985   1.724   5.171
13134TIP3    H139359   3.017   1.680   5.249
13134TIP3    H239360   2.949   1.654   5.117
13135TIP3   OH239361   3.468   2.247   1.744
13135TIP3    H139362   3.410   2.203   1.805
13135TIP3    H239363   3.513   2.176   1.697
13136TIP3   OH239364   6.601   3.688   6.061
13136TIP3    H139365   6.623   3.730   5.979
13136TIP3    H239366   6.536   3.746   6.101
13137TIP3   OH239367   1.288   4.432   0.367
13137TIP3    H139368   1.380   4.438   0.340
13137TIP3    H239369   1.240   4.480   0.299
13138TIP3   OH239370   0.741   6.087   6.756
13138TIP3    H139371   0.687   6.065   6.832
13138TIP3    H239372   0.678   6.109   6.687
13139TIP3   OH239373   1.549   0.107   3.419
13139TIP3    H139374   1.560   0.150   3.334
13139TIP3    H239375   1.467   0.059   3.411
13140TIP3   OH239376   7.558   2.878   2.819
13140TIP3    H139377   7.601   2.833   2.747
13140TIP3    H239378   7.500   2.941   2.777
13141TIP3   OH239379   6.912   0.610   6.361
13141TIP3    H139380   6.955   0.585   6.442
13141TIP3    H239381   6.972   0.671   6.318
13142TIP3   OH239382   2.764   7.364   0.545
13142TIP3    H139383   2.750   7.368   0.450
13142TIP3    H239384   2.857   7.348   0.554
13143TIP3   OH239385   1.852   1.488   0.712
13143TIP3    H139386   1.774   1.444   0.678
13143TIP3    H239387   1.870   1.557   0.648
13144TIP3   OH239388   6.786   1.044   1.696
13144TIP3    H139389   6.718   1.017   1.758
13144TIP3    H239390   6.845   1.099   1.747
13145TIP3   OH239391   6.239   1.399   2.845
13145TIP3    H139392   6.267   1.489   2.826
13145TIP3    H239393   6.227   1.358   2.760
13146TIP3   OH239394   3.098   2.649   0.281
13146TIP3    H139395   3.043   2.572   0.268
13146TIP3    H239396   3.102   2.660   0.376
13147TIP3   OH239397   0.668   2.937   2.018
13147TIP3    H139398   0.671   2.844   1.994
13147TIP3    H239399   0.699   2.939   2.109
13148TIP3   OH239400   0.268   7.482   2.875
13148TIP3    H139401   0.311   7.415   2.929
13148TIP3    H239402   0.332   7.553   2.870
13149TIP3   OH239403   4.320   6.140   5.163
13149TIP3    H139404   4.288   6.076   5.099
13149TIP3    H239405   4.241   6.178   5.201
13150TIP3   OH239406   5.306   6.650   3.635
13150TIP3    H139407   5.317   6.578   3.698
13150TIP3    H239408   5.221   6.633   3.594
13151TIP3   OH239409   2.366   3.942   6.078
13151TIP3    H139410   2.437   3.899   6.125
13151TIP3    H239411   2.294   3.878   6.082
13152TIP3   OH239412   6.757   2.073   5.033
13152TIP3    H139413   6.733   2.092   5.123
13152TIP3    H239414   6.681   2.028   4.996
13153TIP3   OH239415   2.677   3.455   4.421
13153TIP3    H139416   2.653   3.516   4.490
13153TIP3    H239417   2.773   3.456   4.420
13154TIP3   OH239418   8.002   4.536   1.689
13154TIP3    H139419   7.987   4.533   1.784
13154TIP3    H239420   8.086   4.492   1.677
13155TIP3   OH239421   0.230   3.030   5.296
13155TIP3    H139422   0.323   3.042   5.316
13155TIP3    H239423   0.230   2.980   5.214
13156TIP3   OH239424   7.426   5.384   2.956
13156TIP3    H139425   7.416   5.342   3.042
13156TIP3    H239426   7.512   5.426   2.960
13157TIP3   OH239427   5.028   1.948   6.408
13157TIP3    H139428   5.021   2.017   6.342
13157TIP3    H239429   5.117   1.953   6.440
13158TIP3   OH239430   5.723   4.587   3.055
13158TIP3    H139431   5.741   4.518   3.119
13158TIP3    H239432   5.759   4.553   2.973
13159TIP3   OH239433   0.904   4.938   3.560
13159TIP3    H139434   0.840   4.883   3.515
13159TIP3    H239435   0.981   4.883   3.569
13160TIP3   OH239436   7.462   3.491   3.757
13160TIP3    H139437   7.479   3.577   3.718
13160TIP3    H239438   7.416   3.511   3.839
13161TIP3   OH239439   7.439   4.961   1.973
13161TIP3    H139440   7.381   4.990   1.902
13161TIP3    H239441   7.417   4.869   1.985
13162TIP3   OH239442   0.915   5.145   4.326
13162TIP3    H139443   0.989   5.163   4.384
13162TIP3    H239444   0.938   5.064   4.281
13163TIP3   OH239445   8.164   6.707   0.814
13163TIP3    H139446   8.251   6.698   0.775
13163TIP3    H239447   8.125   6.782   0.770
13164TIP3   OH239448   2.252   6.094   2.572
13164TIP3    H139449   2.308   6.089   2.649
13164TIP3    H239450   2.206   6.010   2.571
13165TIP3   OH239451   3.068   4.475   0.857
13165TIP3    H139452   3.052   4.414   0.785
13165TIP3    H239453   3.126   4.428   0.917
13166TIP3   OH239454   2.933   6.053   3.408
13166TIP3    H139455   2.920   6.108   3.486
13166TIP3    H239456   3.016   6.083   3.371
13167TIP3   OH239457   0.791   6.962   3.435
13167TIP3    H139458   0.818   7.037   3.488
13167TIP3    H239459   0.727   6.998   3.374
13168TIP3   OH239460   4.350   1.740   2.802
13168TIP3    H139461   4.269   1.697   2.775
13168TIP3    H239462   4.326   1.792   2.878
13169TIP3   OH239463   5.888   4.506   4.670
13169TIP3    H139464   5.901   4.599   4.652
13169TIP3    H239465   5.794   4.492   4.659
13170TIP3   OH239466   3.655   7.280   2.893
13170TIP3    H139467   3.667   7.368   2.859
13170TIP3    H239468   3.609   7.293   2.976
13171TIP3   OH239469   0.512   6.299   0.393
13171TIP3    H139470   0.446   6.334   0.333
13171TIP3    H239471   0.592   6.346   0.371
13172TIP3   OH239472   0.753   0.577   6.369
13172TIP3    H139473   0.802   0.543   6.293
13172TIP3    H239474   0.821   0.605   6.430
13173TIP3   OH239475   2.752   7.739   2.035
13173TIP3    H139476   2.819   7.704   1.975
13173TIP3    H239477   2.793   7.734   2.121
13174TIP3   OH239478   1.729   1.589   6.420
13174TIP3    H139479   1.767   1.588   6.332
13174TIP3    H239480   1.723   1.496   6.444
13175TIP3   OH239481   1.717   6.404   3.248
13175TIP3    H139482   1.632   6.441   3.227
13175TIP3    H239483   1.735   6.343   3.177
13176TIP3   OH239484   5.894   0.295   0.840
13176TIP3    H139485   5.801   0.309   0.858
13176TIP3    H239486   5.897   0.213   0.791
13177TIP3   OH239487   0.734   0.361   0.081
13177TIP3    H139488   0.687   0.412   0.147
13177TIP3    H239489   0.668   0.303   0.043
13178TIP3   OH239490   1.592   3.156   3.065
13178TIP3    H139491   1.567   3.107   3.143
13178TIP3    H239492   1.541   3.237   3.069
13179TIP3   OH239493   2.044   5.544   0.589
13179TIP3    H139494   2.118   5.542   0.649
13179TIP3    H239495   2.084   5.547   0.502
13180TIP3   OH239496   3.599   5.263   4.363
13180TIP3    H139497   3.597   5.336   4.301
13180TIP3    H239498   3.506   5.242   4.378
13181TIP3   OH239499   0.744   4.890   1.252
13181TIP3    H139500   0.749   4.958   1.185
13181TIP3    H239501   0.799   4.921   1.323
13182TIP3   OH239502   2.594   0.295   5.686
13182TIP3    H139503   2.689   0.294   5.679
13182TIP3    H239504   2.576   0.269   5.776
13183TIP3   OH239505   7.639   5.092   4.436
13183TIP3    H139506   7.635   5.026   4.505
13183TIP3    H239507   7.566   5.070   4.378
13184TIP3   OH239508   1.230   0.809   0.938
13184TIP3    H139509   1.149   0.760   0.925
13184TIP3    H239510   1.223   0.844   1.027
13185TIP3   OH239511   4.979   7.668   1.241
13185TIP3    H139512   5.024   7.732   1.297
13185TIP3    H239513   5.037   7.657   1.165
13186TIP3   OH239514   6.343   4.965   4.978
13186TIP3    H139515   6.273   4.904   4.997
13186TIP3    H239516   6.299   5.040   4.937
13187TIP3   OH239517   3.098   1.218   5.112
13187TIP3    H139518   3.012   1.181   5.132
13187TIP3    H239519   3.106   1.294   5.169
13188TIP3   OH239520   3.762   4.820   1.061
13188TIP3    H139521   3.798   4.908   1.069
13188TIP3    H239522   3.827   4.764   1.103
13189TIP3   OH239523   5.858   4.988   1.709
13189TIP3    H139524   5.938   5.039   1.721
13189TIP3    H239525   5.805   5.041   1.649
13190TIP3   OH239526   5.898   4.126   6.639
13190TIP3    H139527   5.831   4.129   6.571
13190TIP3    H239528   5.870   4.192   6.703
13191TIP3   OH239529   7.657   3.411   1.443
13191TIP3    H139530   7.622   3.484   1.392
13191TIP3    H239531   7.591   3.393   1.509
13192TIP3   OH239532   6.431   6.998   1.519
13192TIP3    H139533   6.501   6.935   1.535
13192TIP3    H239534   6.357   6.966   1.571
13193TIP3   OH239535   1.941   3.232   1.872
13193TIP3    H139536   2.035   3.222   1.888
13193TIP3    H239537   1.936   3.286   1.794
13194TIP3   OH239538   8.019   5.144   1.874
13194TIP3    H139539   8.075   5.202   1.823
13194TIP3    H239540   8.044   5.161   1.965
13195TIP3   OH239541   3.732   0.599   6.609
13195TIP3    H139542   3.783   0.581   6.531
13195TIP3    H239543   3.641   0.598   6.579
13196TIP3   OH239544   1.048   4.279   0.280
13196TIP3    H139545   0.965   4.271   0.233
13196TIP3    H239546   1.099   4.342   0.230
13197TIP3   OH239547   1.059   3.417   5.627
13197TIP3    H139548   1.036   3.385   5.714
13197TIP3    H239549   1.046   3.342   5.570
13198TIP3   OH239550   5.035   2.502   6.724
13198TIP3    H139551   4.998   2.478   6.809
13198TIP3    H239552   5.129   2.500   6.738
13199TIP3   OH239553   7.127   2.577   4.819
13199TIP3    H139554   7.079   2.502   4.783
13199TIP3    H239555   7.186   2.540   4.884
13200TIP3   OH239556   4.606   6.986   1.595
13200TIP3    H139557   4.596   7.080   1.582
13200TIP3    H239558   4.655   6.956   1.518
13201TIP3   OH239559   4.195   3.589   4.669
13201TIP3    H139560   4.239   3.667   4.702
13201TIP3    H239561   4.198   3.598   4.574
13202TIP3   OH239562   4.820   3.771   5.363
13202TIP3    H139563   4.777   3.694   5.400
13202TIP3    H239564   4.757   3.805   5.300
13203TIP3   OH239565   0.637   6.412   5.005
13203TIP3    H139566   0.570   6.348   4.982
13203TIP3    H239567   0.594   6.497   4.997
13204TIP3   OH239568   0.676   7.529   1.840
13204TIP3    H139569   0.599   7.489   1.799
13204TIP3    H239570   0.684   7.615   1.797
13205TIP3   OH239571   4.448   2.213   2.711
13205TIP3    H139572   4.534   2.233   2.747
13205TIP3    H239573   4.386   2.254   2.771
13206TIP3   OH239574   7.002   2.110   6.572
13206TIP3    H139575   7.083   2.161   6.567
13206TIP3    H239576   7.029   2.020   6.556
13207TIP3   OH239577   3.660   4.336   6.641
13207TIP3    H139578   3.613   4.327   6.724
13207TIP3    H239579   3.672   4.246   6.610
13208TIP3   OH239580   1.786   5.592   0.583
13208TIP3    H139581   1.881   5.584   0.587
13208TIP3    H239582   1.769   5.686   0.594
13209TIP3   OH239583   1.476   5.930   5.742
13209TIP3    H139584   1.388   5.967   5.748
13209TIP3    H239585   1.527   5.997   5.695
13210TIP3   OH239586   4.349   1.337   1.377
13210TIP3    H139587   4.406   1.263   1.355
13210TIP3    H239588   4.402   1.414   1.356
13211TIP3   OH239589   4.148   7.663   3.942
13211TIP3    H139590   4.083   7.685   4.009
13211TIP3    H239591   4.098   7.663   3.860
13212TIP3   OH239592   7.262   1.787   5.694
13212TIP3    H139593   7.313   1.817   5.769
13212TIP3    H239594   7.228   1.867   5.654
13213TIP3   OH239595   0.320   4.027   5.485
13213TIP3    H139596   0.299   4.116   5.511
13213TIP3    H239597   0.319   4.029   5.390
13214TIP3   OH239598   7.661   1.837   1.648
13214TIP3    H139599   7.627   1.783   1.577
13214TIP3    H239600   7.684   1.920   1.606
13215TIP3   OH239601   7.268   2.958   0.425
13215TIP3    H139602   7.298   2.881   0.378
13215TIP3    H239603   7.193   2.928   0.477
13216TIP3   OH239604   6.540   3.165   2.673
13216TIP3    H139605   6.464   3.121   2.711
13216TIP3    H239606   6.602   3.173   2.746
13217TIP3   OH239607   2.880   3.725   0.528
13217TIP3    H139608   2.831   3.722   0.610
13217TIP3    H239609   2.932   3.645   0.529
13218TIP3   OH239610   6.020   1.760   6.276
13218TIP3    H139611   6.062   1.838   6.240
13218TIP3    H239612   6.086   1.691   6.266
13219TIP3   OH239613   8.225   1.324   2.404
13219TIP3    H139614   8.184   1.375   2.474
13219TIP3    H239615   8.239   1.388   2.334
13220TIP3   OH239616   6.418   1.087   5.947
13220TIP3    H139617   6.390   1.157   6.006
13220TIP3    H239618   6.512   1.078   5.965
13221TIP3   OH239619   6.440   6.205   2.149
13221TIP3    H139620   6.370   6.200   2.085
13221TIP3    H239621   6.395   6.224   2.232
13222TIP3   OH239622   2.143   4.207   4.963
13222TIP3    H139623   2.202   4.155   5.017
13222TIP3    H239624   2.057   4.167   4.975
13223TIP3   OH239625   3.921   0.934   0.671
13223TIP3    H139626   3.939   0.849   0.710
13223TIP3    H239627   3.972   0.996   0.724
13224TIP3   OH239628   6.647   4.183   5.462
13224TIP3    H139629   6.647   4.222   5.374
13224TIP3    H239630   6.629   4.090   5.448
13225TIP3   OH239631   0.038   4.568   3.159
13225TIP3    H139632  -0.054   4.566   3.185
13225TIP3    H239633   0.075   4.640   3.210
13226TIP3   OH239634   3.655   7.365   1.068
13226TIP3    H139635   3.571   7.373   1.113
13226TIP3    H239636   3.695   7.285   1.103
13227TIP3   OH239637   3.063   3.340   6.291
13227TIP3    H139638   3.069   3.427   6.251
13227TIP3    H239639   2.969   3.318   6.287
13228TIP3   OH239640   7.704   4.931   4.679
13228TIP3    H139641   7.787   4.883   4.674
13228TIP3    H239642   7.639   4.869   4.646
13229TIP3   OH239643   3.723   7.479   4.889
13229TIP3    H139644   3.807   7.434   4.876
13229TIP3    H239645   3.681   7.478   4.803
13230TIP3   OH239646   0.882   3.807   2.467
13230TIP3    H139647   0.866   3.888   2.515
13230TIP3    H239648   0.883   3.833   2.375
13231TIP3   OH239649   1.067   2.738   1.089
13231TIP3    H139650   1.072   2.820   1.137
13231TIP3    H239651   1.050   2.763   0.999
13232TIP3   OH239652   0.301   1.660   0.256
13232TIP3    H139653   0.224   1.682   0.310
13232TIP3    H239654   0.324   1.741   0.213
13233TIP3   OH239655   6.325   3.936   1.248
13233TIP3    H139656   6.280   3.984   1.318
13233TIP3    H239657   6.401   3.991   1.227
13234TIP3   OH239658   3.756   2.168   5.286
13234TIP3    H139659   3.798   2.241   5.242
13234TIP3    H239660   3.801   2.161   5.370
13235TIP3   OH239661   7.650   5.428   0.196
13235TIP3    H139662   7.630   5.520   0.212
13235TIP3    H239663   7.654   5.388   0.283
13236TIP3   OH239664   2.165   5.582   0.341
13236TIP3    H139665   2.219   5.538   0.276
13236TIP3    H239666   2.125   5.655   0.294
13237TIP3   OH239667   1.286   3.334   6.303
13237TIP3    H139668   1.289   3.247   6.262
13237TIP3    H239669   1.204   3.334   6.353
13238TIP3   OH239670   3.003   1.691   4.233
13238TIP3    H139671   3.098   1.703   4.232
13238TIP3    H239672   2.975   1.714   4.145
13239TIP3   OH239673   0.442   3.485   4.694
13239TIP3    H139674   0.378   3.537   4.647
13239TIP3    H239675   0.400   3.400   4.706
13240TIP3   OH239676   5.386   7.111   4.927
13240TIP3    H139677   5.308   7.057   4.946
13240TIP3    H239678   5.459   7.059   4.960
13241TIP3   OH239679   4.747   5.737   6.494
13241TIP3    H139680   4.694   5.814   6.470
13241TIP3    H239681   4.713   5.666   6.440
13242TIP3   OH239682   3.279   5.075   3.780
13242TIP3    H139683   3.244   5.153   3.737
13242TIP3    H239684   3.373   5.078   3.761
13243TIP3   OH239685   2.104   4.703   4.763
13243TIP3    H139686   2.156   4.626   4.739
13243TIP3    H239687   2.065   4.679   4.848
13244TIP3   OH239688   2.958   0.041   4.203
13244TIP3    H139689   2.896   0.114   4.202
13244TIP3    H239690   2.902  -0.037   4.199
13245TIP3   OH239691   2.614   5.632   1.181
13245TIP3    H139692   2.650   5.620   1.093
13245TIP3    H239693   2.690   5.622   1.239
13246TIP3   OH239694   3.800   6.047   4.370
13246TIP3    H139695   3.891   6.070   4.384
13246TIP3    H239696   3.771   6.009   4.453
13247TIP3   OH239697   1.542   6.240   4.849
13247TIP3    H139698   1.605   6.310   4.865
13247TIP3    H239699   1.574   6.196   4.770
13248TIP3   OH239700   7.969   4.947   2.135
13248TIP3    H139701   8.003   4.888   2.068
13248TIP3    H239702   7.905   5.001   2.088
13249TIP3   OH239703   2.160   5.286   5.738
13249TIP3    H139704   2.184   5.231   5.663
13249TIP3    H239705   2.078   5.248   5.770
13250TIP3   OH239706   1.718   3.207   4.278
13250TIP3    H139707   1.718   3.180   4.370
13250TIP3    H239708   1.785   3.151   4.238
13251TIP3   OH239709   3.377   4.873   4.432
13251TIP3    H139710   3.291   4.911   4.418
13251TIP3    H239711   3.408   4.850   4.345
13252TIP3   OH239712   8.362   1.233   3.707
13252TIP3    H139713   8.314   1.181   3.771
13252TIP3    H239714   8.405   1.169   3.651
13253TIP3   OH239715   2.302   2.482   3.845
13253TIP3    H139716   2.397   2.471   3.839
13253TIP3    H239717   2.267   2.435   3.770
13254TIP3   OH239718   2.500   1.975   2.396
13254TIP3    H139719   2.471   2.061   2.368
13254TIP3    H239720   2.424   1.936   2.439
13255TIP3   OH239721   1.791   1.967   5.467
13255TIP3    H139722   1.732   1.976   5.541
13255TIP3    H239723   1.877   1.993   5.500
13256TIP3   OH239724   6.987   4.652   0.108
13256TIP3    H139725   7.070   4.693   0.132
13256TIP3    H239726   7.011   4.563   0.082
13257TIP3   OH239727   8.018   2.730   0.172
13257TIP3    H139728   8.108   2.750   0.144
13257TIP3    H239729   8.028   2.652   0.227
13258TIP3   OH239730   3.965   6.641   1.259
13258TIP3    H139731   3.903   6.632   1.331
13258TIP3    H239732   3.940   6.574   1.196
13259TIP3   OH239733   7.247   3.668   3.167
13259TIP3    H139734   7.217   3.752   3.132
13259TIP3    H239735   7.323   3.691   3.220
13260TIP3   OH239736   0.161   1.200   6.260
13260TIP3    H139737   0.087   1.162   6.307
13260TIP3    H239738   0.122   1.247   6.187
13261TIP3   OH239739   6.278   1.502   4.945
13261TIP3    H139740   6.260   1.560   4.871
13261TIP3    H239741   6.369   1.474   4.932
13262TIP3   OH239742   7.218   5.108   6.362
13262TIP3    H139743   7.277   5.071   6.428
13262TIP3    H239744   7.185   5.188   6.401
13263TIP3   OH239745   1.977   1.472   3.708
13263TIP3    H139746   1.994   1.563   3.683
13263TIP3    H239747   1.967   1.425   3.625
13264TIP3   OH239748   0.978   3.163   0.628
13264TIP3    H139749   0.914   3.136   0.693
13264TIP3    H239750   1.062   3.162   0.674
13265TIP3   OH239751   8.219   3.597   1.564
13265TIP3    H139752   8.186   3.511   1.590
13265TIP3    H239753   8.159   3.626   1.495
13266TIP3   OH239754   4.077   6.053   0.925
13266TIP3    H139755   4.152   6.112   0.923
13266TIP3    H239756   4.041   6.063   1.013
13267TIP3   OH239757   4.934   4.145   3.746
13267TIP3    H139758   4.941   4.237   3.771
13267TIP3    H239759   4.844   4.136   3.714
13268TIP3   OH239760   2.987   5.330   6.588
13268TIP3    H139761   2.894   5.313   6.571
13268TIP3    H239762   3.022   5.246   6.617
13269TIP3   OH239763   3.097   5.867   3.675
13269TIP3    H139764   3.059   5.955   3.681
13269TIP3    H239765   3.191   5.882   3.665
13270TIP3   OH239766   4.471   4.625   4.899
13270TIP3    H139767   4.519   4.622   4.816
13270TIP3    H239768   4.471   4.535   4.930
13271TIP3   OH239769   2.656   4.047   2.497
13271TIP3    H139770   2.666   4.067   2.404
13271TIP3    H239771   2.739   4.006   2.521
13272TIP3   OH239772   5.891   7.666   3.718
13272TIP3    H139773   5.813   7.713   3.748
13272TIP3    H239774   5.937   7.729   3.662
13273TIP3   OH239775   6.571   1.084   2.243
13273TIP3    H139776   6.666   1.080   2.248
13273TIP3    H239777   6.548   1.028   2.168
13274TIP3   OH239778   4.837   2.872   0.384
13274TIP3    H139779   4.790   2.952   0.363
13274TIP3    H239780   4.902   2.863   0.314
13275TIP3   OH239781   4.274   5.662   3.665
13275TIP3    H139782   4.280   5.641   3.758
13275TIP3    H239783   4.216   5.738   3.660
13276TIP3   OH239784   1.994   1.602   3.207
13276TIP3    H139785   2.086   1.587   3.182
13276TIP3    H239786   1.997   1.683   3.258
13277TIP3   OH239787   5.073   1.564   0.449
13277TIP3    H139788   4.981   1.536   0.446
13277TIP3    H239789   5.073   1.649   0.407
13278TIP3   OH239790   0.198   1.168   4.187
13278TIP3    H139791   0.272   1.182   4.127
13278TIP3    H239792   0.199   1.074   4.205
13279TIP3   OH239793   4.499   4.317   6.540
13279TIP3    H139794   4.417   4.330   6.492
13279TIP3    H239795   4.568   4.341   6.477
13280TIP3   OH239796   1.489   0.247   1.460
13280TIP3    H139797   1.436   0.269   1.537
13280TIP3    H239798   1.482   0.323   1.403
13281TIP3   OH239799   6.879   4.893   5.884
13281TIP3    H139800   6.903   4.813   5.837
13281TIP3    H239801   6.872   4.864   5.976
13282TIP3   OH239802   3.988   1.747   1.986
13282TIP3    H139803   3.897   1.755   2.017
13282TIP3    H239804   3.991   1.660   1.946
13283TIP3   OH239805   6.514   4.500   4.273
13283TIP3    H139806   6.450   4.568   4.292
13283TIP3    H239807   6.581   4.509   4.341
13284TIP3   OH239808   1.810   7.156   2.420
13284TIP3    H139809   1.796   7.245   2.386
13284TIP3    H239810   1.840   7.106   2.344
13285TIP3   OH239811   4.134   3.630   0.057
13285TIP3    H139812   4.088   3.602  -0.023
13285TIP3    H239813   4.198   3.561   0.074
13286TIP3   OH239814   8.126   0.812   0.580
13286TIP3    H139815   8.199   0.778   0.632
13286TIP3    H239816   8.124   0.757   0.502
13287TIP3   OH239817   5.357   1.939   2.996
13287TIP3    H139818   5.300   1.895   2.934
13287TIP3    H239819   5.310   2.019   3.020
13288TIP3   OH239820   4.330   7.168   3.747
13288TIP3    H139821   4.344   7.262   3.761
13288TIP3    H239822   4.248   7.149   3.791
13289TIP3   OH239823   6.011   5.027   5.023
13289TIP3    H139824   5.943   5.033   5.090
13289TIP3    H239825   6.051   4.942   5.037
13290TIP3   OH239826   4.532   3.291   3.571
13290TIP3    H139827   4.464   3.349   3.604
13290TIP3    H239828   4.583   3.268   3.649
13291TIP3   OH239829   5.664   3.097   3.203
13291TIP3    H139830   5.746   3.051   3.221
13291TIP3    H239831   5.601   3.061   3.265
13292TIP3   OH239832   0.334   1.103   3.721
13292TIP3    H139833   0.381   1.187   3.724
13292TIP3    H239834   0.300   1.098   3.631
13293TIP3   OH239835   5.925   5.407   3.043
13293TIP3    H139836   5.885   5.328   3.006
13293TIP3    H239837   5.891   5.478   2.988
13294TIP3   OH239838   3.520   5.546   5.554
13294TIP3    H139839   3.481   5.627   5.586
13294TIP3    H239840   3.597   5.575   5.504
13295TIP3   OH239841   4.358   3.362   2.494
13295TIP3    H139842   4.284   3.309   2.523
13295TIP3    H239843   4.345   3.447   2.536
13296TIP3   OH239844   7.606   7.317   2.890
13296TIP3    H139845   7.645   7.260   2.956
13296TIP3    H239846   7.599   7.403   2.932
13297TIP3   OH239847   4.702   1.902   6.561
13297TIP3    H139848   4.681   1.897   6.468
13297TIP3    H239849   4.632   1.957   6.598
13298TIP3   OH239850   1.006   4.994   1.484
13298TIP3    H139851   1.019   4.992   1.389
13298TIP3    H239852   1.087   4.957   1.520
13299TIP3   OH239853   4.358   2.288   4.689
13299TIP3    H139854   4.302   2.361   4.715
13299TIP3    H239855   4.445   2.327   4.680
13300TIP3   OH239856   4.536   6.951   2.056
13300TIP3    H139857   4.498   6.906   1.981
13300TIP3    H239858   4.626   6.921   2.059
13301TIP3   OH239859   4.580   3.228   5.993
13301TIP3    H139860   4.552   3.309   6.036
13301TIP3    H239861   4.604   3.255   5.904
13302TIP3   OH239862   1.163   0.543   4.446
13302TIP3    H139863   1.188   0.578   4.360
13302TIP3    H239864   1.068   0.556   4.450
13303TIP3   OH239865   6.176   1.146   5.021
13303TIP3    H139866   6.237   1.127   4.950
13303TIP3    H239867   6.096   1.100   4.996
13304TIP3   OH239868   0.412   2.267   2.969
13304TIP3    H139869   0.347   2.328   3.004
13304TIP3    H239870   0.419   2.290   2.876
13305TIP3   OH239871   5.639   6.788   6.293
13305TIP3    H139872   5.675   6.721   6.351
13305TIP3    H239873   5.713   6.846   6.275
13306TIP3   OH239874   0.885   2.231   5.373
13306TIP3    H139875   0.861   2.215   5.464
13306TIP3    H239876   0.812   2.280   5.337
13307TIP3   OH239877   7.338   1.729   2.535
13307TIP3    H139878   7.304   1.714   2.447
13307TIP3    H239879   7.349   1.824   2.542
13308TIP3   OH239880   3.635   0.980   0.328
13308TIP3    H139881   3.604   1.069   0.310
13308TIP3    H239882   3.675   0.952   0.246
13309TIP3   OH239883   4.575   3.061   5.558
13309TIP3    H139884   4.595   3.083   5.467
13309TIP3    H239885   4.659   3.033   5.595
13310TIP3   OH239886   5.696   6.647   2.574
13310TIP3    H139887   5.602   6.656   2.559
13310TIP3    H239888   5.724   6.578   2.514
13311TIP3   OH239889   7.910   0.457   4.326
13311TIP3    H139890   7.892   0.400   4.401
13311TIP3    H239891   7.945   0.399   4.259
13312TIP3   OH239892   2.585   3.878   6.349
13312TIP3    H139893   2.598   3.894   6.442
13312TIP3    H239894   2.669   3.844   6.318
13313TIP3   OH239895   3.292   1.283   0.117
13313TIP3    H139896   3.200   1.257   0.120
13313TIP3    H239897   3.295   1.353   0.051
13314TIP3   OH239898   5.330   0.687   5.940
13314TIP3    H139899   5.238   0.662   5.927
13314TIP3    H239900   5.364   0.701   5.851
13315TIP3   OH239901   8.050   4.286   4.334
13315TIP3    H139902   8.061   4.191   4.326
13315TIP3    H239903   8.001   4.311   4.256
13316TIP3   OH239904   1.719   0.917   6.538
13316TIP3    H139905   1.719   0.822   6.540
13316TIP3    H239906   1.650   0.940   6.476
13317TIP3   OH239907   8.030   3.561   5.428
13317TIP3    H139908   8.045   3.469   5.450
13317TIP3    H239909   8.084   3.610   5.490
13318TIP3   OH239910   3.280   4.448   3.278
13318TIP3    H139911   3.281   4.352   3.284
13318TIP3    H239912   3.209   4.468   3.217
13319TIP3   OH239913   5.021   5.677   5.600
13319TIP3    H139914   5.009   5.726   5.519
13319TIP3    H239915   4.933   5.648   5.624
13320TIP3   OH239916   4.133   1.701   5.942
13320TIP3    H139917   4.104   1.706   6.033
13320TIP3    H239918   4.227   1.680   5.947
13321TIP3   OH239919   5.147   6.760   1.515
13321TIP3    H139920   5.198   6.838   1.536
13321TIP3    H239921   5.210   6.689   1.515
13322TIP3   OH239922   0.252   1.501   5.745
13322TIP3    H139923   0.165   1.533   5.722
13322TIP3    H239924   0.255   1.412   5.709
13323TIP3   OH239925   2.612   7.238   1.609
13323TIP3    H139926   2.701   7.271   1.596
13323TIP3    H239927   2.618   7.183   1.687
13324TIP3   OH239928   7.208   5.940   3.310
13324TIP3    H139929   7.161   5.959   3.391
13324TIP3    H239930   7.275   5.876   3.334
13325TIP3   OH239931   0.014   5.804   6.431
13325TIP3    H139932  -0.033   5.793   6.348
13325TIP3    H239933   0.025   5.714   6.464
13326TIP3   OH239934   3.547   1.538   1.968
13326TIP3    H139935   3.479   1.480   2.001
13326TIP3    H239936   3.537   1.536   1.873
13327TIP3   OH239937   4.257   5.905   3.293
13327TIP3    H139938   4.250   5.836   3.228
13327TIP3    H239939   4.186   5.886   3.355
13328TIP3   OH239940   5.085   5.464   3.961
13328TIP3    H139941   5.082   5.374   3.929
13328TIP3    H239942   5.166   5.468   4.012
13329TIP3   OH239943   2.629   2.780   4.236
13329TIP3    H139944   2.587   2.723   4.299
13329TIP3    H239945   2.609   2.741   4.151
13330TIP3   OH239946   5.620   0.781   1.551
13330TIP3    H139947   5.634   0.874   1.567
13330TIP3    H239948   5.707   0.745   1.535
13331TIP3   OH239949   5.743   5.862   0.745
13331TIP3    H139950   5.659   5.881   0.788
13331TIP3    H239951   5.809   5.896   0.805
13332TIP3   OH239952   0.560   4.601   3.609
13332TIP3    H139953   0.476   4.619   3.652
13332TIP3    H239954   0.556   4.508   3.586
13333TIP3   OH239955   0.886   5.608   4.618
13333TIP3    H139956   0.799   5.644   4.606
13333TIP3    H239957   0.927   5.615   4.531
13334TIP3   OH239958   6.500   3.668   0.443
13334TIP3    H139959   6.523   3.616   0.366
13334TIP3    H239960   6.414   3.634   0.470
13335TIP3   OH239961   7.019   4.035   3.921
13335TIP3    H139962   7.004   4.103   3.987
13335TIP3    H239963   6.937   3.987   3.916
13336TIP3   OH239964   3.154   2.465   5.817
13336TIP3    H139965   3.142   2.496   5.728
13336TIP3    H239966   3.231   2.408   5.813
13337TIP3   OH239967   4.504   7.082   3.948
13337TIP3    H139968   4.477   7.100   3.858
13337TIP3    H239969   4.458   7.001   3.971
13338TIP3   OH239970   4.164   3.401   4.111
13338TIP3    H139971   4.135   3.361   4.029
13338TIP3    H239972   4.257   3.378   4.118
13339TIP3   OH239973   6.804   6.618   3.224
13339TIP3    H139974   6.736   6.587   3.164
13339TIP3    H239975   6.885   6.613   3.173
13340TIP3   OH239976   7.750   5.940   4.456
13340TIP3    H139977   7.757   6.004   4.385
13340TIP3    H239978   7.822   5.879   4.441
13341TIP3   OH239979   5.741   6.910   4.064
13341TIP3    H139980   5.774   6.870   4.145
13341TIP3    H239981   5.793   6.989   4.054
13342TIP3   OH239982   1.436   6.285   1.022
13342TIP3    H139983   1.447   6.190   1.021
13342TIP3    H239984   1.378   6.303   0.948
13343TIP3   OH239985   7.385   6.634   2.841
13343TIP3    H139986   7.345   6.644   2.754
13343TIP3    H239987   7.326   6.681   2.899
13344TIP3   OH239988   0.871   4.204   5.130
13344TIP3    H139989   0.878   4.157   5.047
13344TIP3    H239990   0.899   4.142   5.197
13345TIP3   OH239991   6.805   1.933   3.499
13345TIP3    H139992   6.861   1.859   3.475
13345TIP3    H239993   6.863   1.990   3.550
13346TIP3   OH239994   5.793   5.794   6.214
13346TIP3    H139995   5.743   5.864   6.257
13346TIP3    H239996   5.741   5.715   6.227
13347TIP3   OH239997   5.735   3.395   4.454
13347TIP3    H139998   5.784   3.435   4.526
13347TIP3    H239999   5.649   3.437   4.457
13348TIP3   OH240000   4.865   0.720   4.518
13348TIP3    H140001   4.887   0.802   4.474
13348TIP3    H240002   4.911   0.725   4.602
13349TIP3   OH240003   2.556   3.042   3.433
13349TIP3    H140004   2.520   3.094   3.361
13349TIP3    H240005   2.576   2.957   3.393
13350TIP3   OH240006   3.913   3.586   2.299
13350TIP3    H140007   3.960   3.510   2.333
13350TIP3    H240008   3.841   3.599   2.361
13351TIP3   OH240009   5.225   5.429   2.035
13351TIP3    H140010   5.224   5.456   2.127
13351TIP3    H240011   5.237   5.510   1.987
13352TIP3   OH240012   5.132   1.769   4.979
13352TIP3    H140013   5.207   1.738   5.030
13352TIP3    H240014   5.170   1.830   4.916
13353TIP3   OH240015   2.414   3.941   0.993
13353TIP3    H140016   2.439   4.010   0.932
13353TIP3    H240017   2.402   3.987   1.077
13354TIP3   OH240018   5.681   7.145   1.785
13354TIP3    H140019   5.684   7.125   1.879
13354TIP3    H240020   5.674   7.059   1.743
13355TIP3   OH240021   1.128   0.966   1.761
13355TIP3    H140022   1.106   0.974   1.668
13355TIP3    H240023   1.069   0.898   1.794
13356TIP3   OH240024   4.002   1.247   4.166
13356TIP3    H140025   4.005   1.323   4.108
13356TIP3    H240026   4.092   1.214   4.166
13357TIP3   OH240027   5.143   2.934   4.059
13357TIP3    H140028   5.108   2.989   4.129
13357TIP3    H240029   5.076   2.867   4.045
13358TIP3   OH240030   3.305   5.227   4.469
13358TIP3    H140031   3.251   5.164   4.421
13358TIP3    H240032   3.286   5.209   4.561
13359TIP3   OH240033   4.996   7.174   1.797
13359TIP3    H140034   4.936   7.169   1.872
13359TIP3    H240035   5.009   7.083   1.771
13360TIP3   OH240036   5.722   6.172   1.062
13360TIP3    H140037   5.793   6.109   1.049
13360TIP3    H240038   5.689   6.189   0.974
13361TIP3   OH240039   0.587   1.454   6.579
13361TIP3    H140040   0.628   1.410   6.655
13361TIP3    H240041   0.654   1.515   6.549
13362TIP3   OH240042   7.525   4.293   1.273
13362TIP3    H140043   7.461   4.363   1.277
13362TIP3    H240044   7.489   4.223   1.327
13363TIP3   OH240045   7.821   7.132   0.036
13363TIP3    H140046   7.747   7.092  -0.009
13363TIP3    H240047   7.848   7.067   0.102
13364TIP3   OH240048   6.371   1.847   3.243
13364TIP3    H140049   6.385   1.883   3.155
13364TIP3    H240050   6.455   1.808   3.267
13365TIP3   OH240051   8.316   0.569   4.911
13365TIP3    H140052   8.319   0.644   4.851
13365TIP3    H240053   8.285   0.497   4.858
13366TIP3   OH240054   0.126   4.683   3.895
13366TIP3    H140055   0.098   4.752   3.956
13366TIP3    H240056   0.132   4.605   3.950
13367TIP3   OH240057   5.700   1.653   5.104
13367TIP3    H140058   5.637   1.699   5.049
13367TIP3    H240059   5.690   1.561   5.081
13368TIP3   OH240060   1.667   5.010   1.932
13368TIP3    H140061   1.740   5.068   1.951
13368TIP3    H240062   1.609   5.019   2.008
13369TIP3   OH240063   8.175   3.631   4.171
13369TIP3    H140064   8.203   3.622   4.080
13369TIP3    H240065   8.206   3.718   4.196
13370TIP3   OH240066   4.935   1.779   0.804
13370TIP3    H140067   4.974   1.777   0.892
13370TIP3    H240068   4.906   1.870   0.793
13371TIP3   OH240069   6.508   2.372   5.049
13371TIP3    H140070   6.510   2.360   4.955
13371TIP3    H240071   6.537   2.462   5.062
13372TIP3   OH240072   0.763   2.734   3.764
13372TIP3    H140073   0.854   2.744   3.735
13372TIP3    H240074   0.727   2.822   3.761
13373TIP3   OH240075   3.095   1.773   1.757
13373TIP3    H140076   3.177   1.761   1.806
13373TIP3    H240077   3.026   1.769   1.823
13374TIP3   OH240078   3.261   2.177   0.913
13374TIP3    H140079   3.265   2.223   0.997
13374TIP3    H240080   3.177   2.202   0.876
13375TIP3   OH240081   4.213   7.670   0.297
13375TIP3    H140082   4.231   7.673   0.391
13375TIP3    H240083   4.132   7.621   0.289
13376TIP3   OH240084   5.785   1.107   0.330
13376TIP3    H140085   5.852   1.171   0.304
13376TIP3    H240086   5.747   1.078   0.248
13377TIP3   OH240087   2.611   2.166   0.352
13377TIP3    H140088   2.537   2.120   0.311
13377TIP3    H240089   2.594   2.160   0.446
13378TIP3   OH240090   8.172   1.637   4.981
13378TIP3    H140091   8.247   1.579   4.998
13378TIP3    H240092   8.163   1.688   5.062
13379TIP3   OH240093   8.056   6.865   5.224
13379TIP3    H140094   8.016   6.879   5.138
13379TIP3    H240095   8.150   6.873   5.208
13380TIP3   OH240096   2.149   2.819   5.483
13380TIP3    H140097   2.206   2.829   5.408
13380TIP3    H240098   2.164   2.898   5.535
13381TIP3   OH240099   6.414   1.176   1.354
13381TIP3    H140100   6.480   1.241   1.379
13381TIP3    H240101   6.441   1.096   1.400
13382TIP3   OH240102   2.830   5.811   3.483
13382TIP3    H140103   2.896   5.743   3.469
13382TIP3    H240104   2.879   5.893   3.487
13383TIP3   OH240105   1.452   6.901   6.785
13383TIP3    H140106   1.368   6.869   6.753
13383TIP3    H240107   1.442   6.996   6.787
13384TIP3   OH240108   3.353   2.105   1.950
13384TIP3    H140109   3.290   2.090   2.021
13384TIP3    H240110   3.407   2.026   1.950
13385TIP3   OH240111   1.457   4.870   0.476
13385TIP3    H140112   1.441   4.826   0.392
13385TIP3    H240113   1.463   4.963   0.454
13386TIP3   OH240114   2.824   5.332   4.757
13386TIP3    H140115   2.791   5.254   4.802
13386TIP3    H240116   2.778   5.333   4.673
13387TIP3   OH240117   1.584   6.167   3.433
13387TIP3    H140118   1.678   6.154   3.429
13387TIP3    H240119   1.570   6.251   3.388
13388TIP3   OH240120   0.229   2.886   5.048
13388TIP3    H140121   0.185   2.965   5.015
13388TIP3    H240122   0.254   2.839   4.969
13389TIP3   OH240123   4.103   1.451   0.936
13389TIP3    H140124   4.023   1.489   0.972
13389TIP3    H240125   4.073   1.392   0.866
13390TIP3   OH240126   7.672   3.250   5.936
13390TIP3    H140127   7.662   3.322   5.873
13390TIP3    H240128   7.746   3.199   5.903
13391TIP3   OH240129   7.365   7.684   3.369
13391TIP3    H140130   7.310   7.683   3.448
13391TIP3    H240131   7.306   7.659   3.298
13392TIP3   OH240132   1.828   4.027   3.974
13392TIP3    H140133   1.842   4.002   4.065
13392TIP3    H240134   1.825   4.122   3.975
13393TIP3   OH240135   1.889   4.561   0.487
13393TIP3    H140136   1.881   4.474   0.446
13393TIP3    H240137   1.926   4.616   0.419
13394TIP3   OH240138   3.836   7.665   4.637
13394TIP3    H140139   3.841   7.738   4.576
13394TIP3    H240140   3.813   7.706   4.721
13395TIP3   OH240141   7.373   3.045   5.709
13395TIP3    H140142   7.348   3.132   5.679
13395TIP3    H240143   7.361   3.047   5.804
13396TIP3   OH240144   6.782   0.921   6.229
13396TIP3    H140145   6.772   0.887   6.140
13396TIP3    H240146   6.780   1.016   6.219
13397TIP3   OH240147   4.900   0.304   6.333
13397TIP3    H140148   4.985   0.290   6.291
13397TIP3    H240149   4.901   0.395   6.361
13398TIP3   OH240150   4.776   5.027   5.652
13398TIP3    H140151   4.843   4.966   5.623
13398TIP3    H240152   4.712   5.029   5.581
13399TIP3   OH240153   7.709   2.734   2.065
13399TIP3    H140154   7.701   2.643   2.039
13399TIP3    H240155   7.753   2.730   2.151
13400TIP3   OH240156   2.930   1.857   3.969
13400TIP3    H140157   2.837   1.862   3.947
13400TIP3    H240158   2.957   1.770   3.938
13401TIP3   OH240159   3.177   0.275   3.509
13401TIP3    H140160   3.150   0.347   3.565
13401TIP3    H240161   3.185   0.314   3.422
13402TIP3   OH240162   0.966   0.976   3.021
13402TIP3    H140163   0.947   0.890   2.984
13402TIP3    H240164   1.046   1.004   2.977
13403TIP3   OH240165   5.210   0.972   5.522
13403TIP3    H140166   5.203   0.935   5.434
13403TIP3    H240167   5.144   0.927   5.574
13404TIP3   OH240168   4.275   5.920   4.998
13404TIP3    H140169   4.329   5.858   4.950
13404TIP3    H240170   4.195   5.872   5.019
13405TIP3   OH240171   7.752   2.033   5.390
13405TIP3    H140172   7.702   1.953   5.405
13405TIP3    H240173   7.717   2.095   5.454
13406TIP3   OH240174   4.850   7.196   0.543
13406TIP3    H140175   4.861   7.107   0.576
13406TIP3    H240176   4.762   7.222   0.571
13407TIP3   OH240177   5.163   7.397   5.096
13407TIP3    H140178   5.249   7.387   5.136
13407TIP3    H240179   5.103   7.406   5.170
13408TIP3   OH240180   6.725   5.675   6.613
13408TIP3    H140181   6.741   5.769   6.606
13408TIP3    H240182   6.795   5.643   6.671
13409TIP3   OH240183   4.779   2.902   6.284
13409TIP3    H140184   4.726   2.840   6.334
13409TIP3    H240185   4.717   2.968   6.254
13410TIP3   OH240186   5.190   0.666   4.340
13410TIP3    H140187   5.222   0.634   4.256
13410TIP3    H240188   5.126   0.601   4.367
13411TIP3   OH240189   3.435   6.178   5.236
13411TIP3    H140190   3.419   6.153   5.145
13411TIP3    H240191   3.473   6.265   5.231
13412TIP3   OH240192   4.987   5.422   0.535
13412TIP3    H140193   5.051   5.381   0.478
13412TIP3    H240194   5.001   5.382   0.620
13413TIP3   OH240195   1.734   0.211   2.121
13413TIP3    H140196   1.644   0.206   2.087
13413TIP3    H240197   1.724   0.204   2.216
13414TIP3   OH240198   0.422   6.423   3.484
13414TIP3    H140199   0.510   6.438   3.516
13414TIP3    H240200   0.433   6.365   3.409
13415TIP3   OH240201   2.396   5.361   2.064
13415TIP3    H140202   2.369   5.270   2.075
13415TIP3    H240203   2.323   5.403   2.019
13416TIP3   OH240204   6.656   7.204   6.432
13416TIP3    H140205   6.729   7.262   6.410
13416TIP3    H240206   6.578   7.259   6.426
13417TIP3   OH240207   5.056   6.278   1.968
13417TIP3    H140208   5.122   6.275   2.038
13417TIP3    H240209   5.033   6.187   1.953
13418TIP3   OH240210   4.302   6.190   0.855
13418TIP3    H140211   4.335   6.105   0.828
13418TIP3    H240212   4.364   6.253   0.817
13419TIP3   OH240213   4.999   5.082   6.118
13419TIP3    H140214   4.946   5.064   6.195
13419TIP3    H240215   4.944   5.053   6.044
13420TIP3   OH240216   7.120   1.867   6.557
13420TIP3    H140217   7.111   1.837   6.647
13420TIP3    H240218   7.214   1.868   6.541
13421TIP3   OH240219   0.149   5.493   5.512
13421TIP3    H140220   0.211   5.469   5.444
13421TIP3    H240221   0.104   5.411   5.534
13422TIP3   OH240222   5.859   1.386   4.883
13422TIP3    H140223   5.831   1.392   4.975
13422TIP3    H240224   5.791   1.333   4.841
13423TIP3   OH240225   0.107   1.862   1.890
13423TIP3    H140226   0.097   1.768   1.904
13423TIP3    H240227   0.111   1.872   1.795
13424TIP3   OH240228   3.534   2.571   0.739
13424TIP3    H140229   3.458   2.532   0.696
13424TIP3    H240230   3.504   2.588   0.828
13425TIP3   OH240231   1.411   4.231   5.118
13425TIP3    H140232   1.498   4.241   5.080
13425TIP3    H240233   1.359   4.192   5.047
13426TIP3   OH240234   5.826   5.249   3.448
13426TIP3    H140235   5.797   5.237   3.538
13426TIP3    H240236   5.913   5.289   3.456
13427TIP3   OH240237   6.728   2.131   4.145
13427TIP3    H140238   6.745   2.167   4.232
13427TIP3    H240239   6.634   2.146   4.130
13428TIP3   OH240240   2.856   4.193   5.583
13428TIP3    H140241   2.853   4.141   5.503
13428TIP3    H240242   2.947   4.189   5.611
13429TIP3   OH240243   1.576   5.610   0.031
13429TIP3    H140244   1.630   5.605   0.110
13429TIP3    H240245   1.617   5.550  -0.031
13430TIP3   OH240246   3.441   4.729   6.396
13430TIP3    H140247   3.487   4.697   6.474
13430TIP3    H240248   3.358   4.762   6.430
13431TIP3   OH240249   1.909   1.373   0.352
13431TIP3    H140250   1.822   1.335   0.340
13431TIP3    H240251   1.893   1.467   0.361
13432TIP3   OH240252   5.550   4.689   0.425
13432TIP3    H140253   5.590   4.757   0.479
13432TIP3    H240254   5.500   4.737   0.358
13433TIP3   OH240255   2.181   6.905   6.350
13433TIP3    H140256   2.104   6.863   6.389
13433TIP3    H240257   2.191   6.987   6.399
13434TIP3   OH240258   0.659   5.736   4.528
13434TIP3    H140259   0.671   5.826   4.496
13434TIP3    H240260   0.615   5.691   4.456
13435TIP3   OH240261   4.567   5.496   0.907
13435TIP3    H140262   4.628   5.569   0.892
13435TIP3    H240263   4.535   5.511   0.996
13436TIP3   OH240264   7.017   4.059   0.947
13436TIP3    H140265   7.070   4.033   1.022
13436TIP3    H240266   7.004   4.153   0.958
13437TIP3   OH240267   8.081   5.723   1.695
13437TIP3    H140268   8.167   5.728   1.655
13437TIP3    H240269   8.096   5.735   1.788
13438TIP3   OH240270   7.339   3.415   4.125
13438TIP3    H140271   7.374   3.504   4.124
13438TIP3    H240272   7.251   3.424   4.162
13439TIP3   OH240273   5.884   4.316   3.568
13439TIP3    H140274   5.903   4.342   3.658
13439TIP3    H240275   5.913   4.390   3.515
13440TIP3   OH240276   5.742   2.841   3.768
13440TIP3    H140277   5.713   2.825   3.857
13440TIP3    H240278   5.819   2.784   3.757
13441TIP3   OH240279   6.890   0.476   3.461
13441TIP3    H140280   6.876   0.385   3.433
13441TIP3    H240281   6.834   0.527   3.403
13442TIP3   OH240282   6.865   6.707   6.440
13442TIP3    H140283   6.844   6.712   6.533
13442TIP3    H240284   6.845   6.794   6.406
13443TIP3   OH240285   5.098   3.983   1.007
13443TIP3    H140286   5.161   4.048   0.976
13443TIP3    H240287   5.027   3.986   0.942
13444TIP3   OH240288   2.426   5.725   0.537
13444TIP3    H140289   2.420   5.766   0.451
13444TIP3    H240290   2.484   5.782   0.587
13445TIP3   OH240291   0.528   4.202   2.547
13445TIP3    H140292   0.463   4.147   2.590
13445TIP3    H240293   0.537   4.278   2.604
13446TIP3   OH240294   6.494   4.722   4.462
13446TIP3    H140295   6.515   4.799   4.409
13446TIP3    H240296   6.399   4.711   4.452
13447TIP3   OH240297   4.018   6.261   1.786
13447TIP3    H140298   4.010   6.207   1.864
13447TIP3    H240299   4.102   6.306   1.797
13448TIP3   OH240300   3.539   1.023   4.504
13448TIP3    H140301   3.588   0.947   4.474
13448TIP3    H240302   3.456   1.018   4.458
13449TIP3   OH240303   1.574   5.960   5.439
13449TIP3    H140304   1.605   5.880   5.481
13449TIP3    H240305   1.584   6.028   5.506
13450TIP3   OH240306   1.373   0.240   3.931
13450TIP3    H140307   1.416   0.179   3.872
13450TIP3    H240308   1.297   0.192   3.964
13451TIP3   OH240309   7.273   2.189   1.936
13451TIP3    H140310   7.359   2.227   1.914
13451TIP3    H240311   7.276   2.176   2.030
13452TIP3   OH240312   1.671   3.877   3.313
13452TIP3    H140313   1.662   3.961   3.268
13452TIP3    H240314   1.620   3.888   3.394
13453TIP3   OH240315   6.959   3.153   6.366
13453TIP3    H140316   6.963   3.215   6.293
13453TIP3    H240317   6.893   3.089   6.340
13454TIP3   OH240318   4.396   6.137   5.880
13454TIP3    H140319   4.401   6.087   5.962
13454TIP3    H240320   4.322   6.098   5.834
13455TIP3   OH240321   1.338   4.400   2.070
13455TIP3    H140322   1.319   4.407   1.977
13455TIP3    H240323   1.427   4.434   2.079
13456TIP3   OH240324   2.169   3.442   0.987
13456TIP3    H140325   2.112   3.451   0.910
13456TIP3    H240326   2.174   3.348   1.002
13457TIP3   OH240327   4.047   4.943   3.890
13457TIP3    H140328   4.098   4.937   3.970
13457TIP3    H240329   4.092   4.885   3.828
13458TIP3   OH240330   5.203   6.522   5.904
13458TIP3    H140331   5.215   6.445   5.960
13458TIP3    H240332   5.206   6.597   5.963
13459TIP3   OH240333   6.102   5.422   2.796
13459TIP3    H140334   6.012   5.456   2.803
13459TIP3    H240335   6.093   5.328   2.813
13460TIP3   OH240336   6.806   4.071   6.063
13460TIP3    H140337   6.726   4.040   6.022
13460TIP3    H240338   6.803   4.035   6.152
13461TIP3   OH240339   0.054   6.088   4.463
13461TIP3    H140340   0.093   6.070   4.378
13461TIP3    H240341   0.000   6.012   4.482
13462TIP3   OH240342   7.660   5.534   5.739
13462TIP3    H140343   7.688   5.625   5.752
13462TIP3    H240344   7.685   5.514   5.649
13463TIP3   OH240345   4.366   3.617   5.046
13463TIP3    H140346   4.302   3.678   5.009
13463TIP3    H240347   4.380   3.552   4.978
13464TIP3   OH240348   0.171   2.632   0.657
13464TIP3    H140349   0.184   2.726   0.653
13464TIP3    H240350   0.083   2.621   0.692
13465TIP3   OH240351   1.182   7.463   2.184
13465TIP3    H140352   1.211   7.507   2.104
13465TIP3    H240353   1.261   7.420   2.217
13466TIP3   OH240354   4.197   3.573   6.468
13466TIP3    H140355   4.111   3.553   6.431
13466TIP3    H240356   4.210   3.506   6.535
13467TIP3   OH240357   6.375   5.432   0.438
13467TIP3    H140358   6.468   5.409   0.443
13467TIP3    H240359   6.337   5.365   0.382
13468TIP3   OH240360   1.940   5.331   1.566
13468TIP3    H140361   2.021   5.299   1.606
13468TIP3    H240362   1.870   5.293   1.619
13469TIP3   OH240363   3.563   5.463   1.261
13469TIP3    H140364   3.519   5.385   1.226
13469TIP3    H240365   3.649   5.463   1.220
13470TIP3   OH240366   7.150   2.281   5.255
13470TIP3    H140367   7.228   2.228   5.269
13470TIP3    H240368   7.126   2.311   5.343
13471TIP3   OH240369   6.455   1.208   0.714
13471TIP3    H140370   6.476   1.204   0.807
13471TIP3    H240371   6.451   1.301   0.694
13472TIP3   OH240372   2.265   4.346   1.061
13472TIP3    H140373   2.293   4.431   1.096
13472TIP3    H240374   2.339   4.288   1.077
13473TIP3   OH240375   7.717   0.776   4.936
13473TIP3    H140376   7.778   0.703   4.949
13473TIP3    H240377   7.644   0.757   4.994
13474TIP3   OH240378   3.221   3.851   1.596
13474TIP3    H140379   3.132   3.872   1.568
13474TIP3    H240380   3.278   3.906   1.542
13475TIP3   OH240381   3.055   0.519   1.466
13475TIP3    H140382   3.132   0.466   1.444
13475TIP3    H240383   3.063   0.597   1.412
13476TIP3   OH240384   3.682   0.969   5.255
13476TIP3    H140385   3.773   0.996   5.243
13476TIP3    H240386   3.671   0.896   5.193
13477TIP3   OH240387   5.656   2.244   0.070
13477TIP3    H140388   5.649   2.154   0.100
13477TIP3    H240389   5.744   2.272   0.095
13478TIP3   OH240390   1.932   0.042   5.263
13478TIP3    H140391   1.947   0.107   5.195
13478TIP3    H240392   1.837   0.027   5.262
13479TIP3   OH240393   6.653   4.393   4.078
13479TIP3    H140394   6.615   4.441   4.152
13479TIP3    H240395   6.685   4.462   4.019
13480TIP3   OH240396   0.396   0.072   1.942
13480TIP3    H140397   0.320   0.128   1.926
13480TIP3    H240398   0.391   0.050   2.035
13481TIP3   OH240399   3.797   5.130   1.055
13481TIP3    H140400   3.767   5.156   1.142
13481TIP3    H240401   3.884   5.168   1.047
13482TIP3   OH240402   2.652   4.671   1.789
13482TIP3    H140403   2.566   4.682   1.829
13482TIP3    H240404   2.713   4.669   1.862
13483TIP3   OH240405   7.792   4.961   6.699
13483TIP3    H140406   7.705   4.935   6.667
13483TIP3    H240407   7.837   4.995   6.622
13484TIP3   OH240408   6.655   2.496   2.824
13484TIP3    H140409   6.628   2.404   2.818
13484TIP3    H240410   6.647   2.518   2.916
13485TIP3   OH240411   6.060   3.432   2.884
13485TIP3    H140412   5.999   3.412   2.955
13485TIP3    H240413   6.023   3.510   2.842
13486TIP3   OH240414   6.937   0.687   5.072
13486TIP3    H140415   6.971   0.775   5.057
13486TIP3    H240416   6.848   0.701   5.106
13487TIP3   OH240417   2.851   0.133   3.091
13487TIP3    H140418   2.925   0.097   3.141
13487TIP3    H240419   2.786   0.157   3.157
13488TIP3   OH240420   4.251   4.605   5.504
13488TIP3    H140421   4.302   4.564   5.435
13488TIP3    H240422   4.171   4.553   5.510
13489TIP3   OH240423   6.198   4.664   0.404
13489TIP3    H140424   6.118   4.714   0.387
13489TIP3    H240425   6.261   4.729   0.433
13490TIP3   OH240426   5.479   1.544   1.334
13490TIP3    H140427   5.440   1.625   1.366
13490TIP3    H240428   5.405   1.486   1.318
13491TIP3   OH240429   1.135   7.628   6.587
13491TIP3    H140430   1.057   7.581   6.558
13491TIP3    H240431   1.200   7.559   6.601
13492TIP3   OH240432   0.872   2.258   1.574
13492TIP3    H140433   0.932   2.277   1.502
13492TIP3    H240434   0.890   2.325   1.640
13493TIP3   OH240435   5.414   3.056   2.802
13493TIP3    H140436   5.384   2.998   2.732
13493TIP3    H240437   5.381   3.143   2.777
13494TIP3   OH240438   0.752   5.792   6.251
13494TIP3    H140439   0.660   5.769   6.258
13494TIP3    H240440   0.783   5.748   6.172
13495TIP3   OH240441   2.957   6.305   5.529
13495TIP3    H140442   2.956   6.274   5.438
13495TIP3    H240443   2.968   6.225   5.581
13496TIP3   OH240444   3.477   7.811   1.238
13496TIP3    H140445   3.442   7.739   1.290
13496TIP3    H240446   3.544   7.772   1.183
13497TIP3   OH240447   3.696   6.688   5.191
13497TIP3    H140448   3.610   6.726   5.170
13497TIP3    H240449   3.728   6.741   5.264
13498TIP3   OH240450   4.807   4.810   4.456
13498TIP3    H140451   4.859   4.793   4.377
13498TIP3    H240452   4.795   4.905   4.456
13499TIP3   OH240453   0.870   5.084   4.638
13499TIP3    H140454   0.956   5.100   4.676
13499TIP3    H240455   0.854   4.991   4.653
13500TIP3   OH240456   8.259   3.535   4.422
13500TIP3    H140457   8.220   3.448   4.411
13500TIP3    H240458   8.234   3.582   4.343
13501TIP3   OH240459   2.968   4.364   1.337
13501TIP3    H140460   2.933   4.308   1.268
13501TIP3    H240461   2.895   4.419   1.364
13502TIP3   OH240462   8.215   6.386   1.111
13502TIP3    H140463   8.125   6.407   1.085
13502TIP3    H240464   8.219   6.411   1.203
13503TIP3   OH240465   4.389   4.644   6.165
13503TIP3    H140466   4.415   4.720   6.114
13503TIP3    H240467   4.294   4.655   6.178
13504TIP3   OH240468   0.271   2.818   4.761
13504TIP3    H140469   0.187   2.807   4.718
13504TIP3    H240470   0.320   2.877   4.704
13505TIP3   OH240471   6.290   1.659   4.117
13505TIP3    H140472   6.195   1.667   4.125
13505TIP3    H240473   6.324   1.684   4.203
13506TIP3   OH240474   4.851   0.753   3.571
13506TIP3    H140475   4.773   0.797   3.606
13506TIP3    H240476   4.891   0.819   3.513
13507TIP3   OH240477   2.282   3.067   2.738
13507TIP3    H140478   2.313   3.033   2.822
13507TIP3    H240479   2.326   3.152   2.729
13508TIP3   OH240480   2.622   1.147   2.916
13508TIP3    H140481   2.548   1.207   2.906
13508TIP3    H240482   2.643   1.120   2.827
13509TIP3   OH240483   2.657   2.842   4.721
13509TIP3    H140484   2.597   2.910   4.691
13509TIP3    H240485   2.737   2.889   4.744
13510TIP3   OH240486   7.404   1.013   0.612
13510TIP3    H140487   7.369   1.083   0.556
13510TIP3    H240488   7.419   1.056   0.697
13511TIP3   OH240489   1.828   5.079   0.102
13511TIP3    H140490   1.862   5.166   0.123
13511TIP3    H240491   1.769   5.094   0.029
13512TIP3   OH240492   2.181   0.579   4.115
13512TIP3    H140493   2.264   0.599   4.158
13512TIP3    H240494   2.198   0.498   4.066
13513TIP3   OH240495   2.918   7.774   3.663
13513TIP3    H140496   2.829   7.808   3.664
13513TIP3    H240497   2.943   7.771   3.755
13514TIP3   OH240498   3.240   7.287   3.919
13514TIP3    H140499   3.199   7.333   3.846
13514TIP3    H240500   3.311   7.345   3.946
13515TIP3   OH240501   2.032   2.657   1.719
13515TIP3    H140502   2.081   2.727   1.762
13515TIP3    H240503   1.954   2.646   1.773
13516TIP3   OH240504   0.937   1.077   4.872
13516TIP3    H140505   0.862   1.129   4.901
13516TIP3    H240506   0.948   1.010   4.940
13517TIP3   OH240507   2.614   0.654   0.184
13517TIP3    H140508   2.534   0.601   0.185
13517TIP3    H240509   2.582   0.744   0.177
13518TIP3   OH240510   6.096   4.511   3.301
13518TIP3    H140511   6.184   4.541   3.324
13518TIP3    H240512   6.110   4.432   3.250
13519TIP3   OH240513   1.567   1.517   4.746
13519TIP3    H140514   1.589   1.560   4.828
13519TIP3    H240515   1.597   1.578   4.678
13520TIP3   OH240516   6.275   1.953   1.031
13520TIP3    H140517   6.190   1.908   1.034
13520TIP3    H240518   6.272   2.014   1.105
13521TIP3   OH240519   4.686   3.983   4.533
13521TIP3    H140520   4.646   4.053   4.585
13521TIP3    H240521   4.749   4.028   4.478
13522TIP3   OH240522   6.461   0.740   6.770
13522TIP3    H140523   6.368   0.749   6.790
13522TIP3    H240524   6.503   0.815   6.813
13523TIP3   OH240525   0.269   1.810   1.151
13523TIP3    H140526   0.279   1.875   1.221
13523TIP3    H240527   0.204   1.749   1.185
13524TIP3   OH240528   8.111   7.460   4.050
13524TIP3    H140529   8.033   7.507   4.019
13524TIP3    H240530   8.096   7.369   4.025
13525TIP3   OH240531   5.623   6.268   5.378
13525TIP3    H140532   5.627   6.246   5.285
13525TIP3    H240533   5.577   6.194   5.418
13526TIP3   OH240534   3.610   6.520   3.029
13526TIP3    H140535   3.531   6.466   3.023
13526TIP3    H240536   3.636   6.535   2.938
13527TIP3   OH240537   4.325   4.084   3.094
13527TIP3    H140538   4.268   4.047   3.162
13527TIP3    H240539   4.396   4.021   3.085
13528TIP3   OH240540   7.457   2.004   1.163
13528TIP3    H140541   7.408   1.970   1.087
13528TIP3    H240542   7.508   2.077   1.128
13529TIP3   OH240543   7.127   2.259   3.996
13529TIP3    H140544   7.185   2.183   3.987
13529TIP3    H240545   7.186   2.331   4.019
13530TIP3   OH240546   5.739   3.485   3.875
13530TIP3    H140547   5.800   3.416   3.903
13530TIP3    H240548   5.682   3.442   3.812
13531TIP3   OH240549   5.393   7.701   5.977
13531TIP3    H140550   5.445   7.708   6.057
13531TIP3    H240551   5.304   7.724   6.004
13532TIP3   OH240552   7.862   3.179   4.971
13532TIP3    H140553   7.889   3.087   4.973
13532TIP3    H240554   7.829   3.196   5.059
13533TIP3   OH240555   1.030   0.723   2.127
13533TIP3    H140556   1.056   0.689   2.213
13533TIP3    H240557   0.971   0.796   2.148
13534TIP3   OH240558   3.234   7.080   1.281
13534TIP3    H140559   3.250   7.008   1.220
13534TIP3    H240560   3.270   7.157   1.237
13535TIP3   OH240561   2.157   3.597   5.796
13535TIP3    H140562   2.101   3.639   5.862
13535TIP3    H240563   2.232   3.564   5.846
13536TIP3   OH240564   7.416   4.701   3.763
13536TIP3    H140565   7.445   4.614   3.735
13536TIP3    H240566   7.495   4.744   3.795
13537TIP3   OH240567   0.831   5.691   3.391
13537TIP3    H140568   0.867   5.607   3.364
13537TIP3    H240569   0.904   5.736   3.434
13538TIP3   OH240570   5.822   3.282   4.082
13538TIP3    H140571   5.871   3.201   4.089
13538TIP3    H240572   5.733   3.259   4.110
13539TIP3   OH240573   5.653   2.615   4.881
13539TIP3    H140574   5.699   2.666   4.949
13539TIP3    H240575   5.720   2.555   4.848
13540TIP3   OH240576   6.124   5.906   1.936
13540TIP3    H140577   6.114   5.987   1.886
13540TIP3    H240578   6.218   5.890   1.937
13541TIP3   OH240579   0.758   0.325   3.162
13541TIP3    H140580   0.761   0.398   3.224
13541TIP3    H240581   0.681   0.343   3.108
13542TIP3   OH240582   4.269   1.805   4.225
13542TIP3    H140583   4.197   1.742   4.219
13542TIP3    H240584   4.252   1.854   4.305
13543TIP3   OH240585   7.162   6.687   0.422
13543TIP3    H140586   7.155   6.731   0.507
13543TIP3    H240587   7.092   6.727   0.369
13544TIP3   OH240588   1.509   2.562   4.461
13544TIP3    H140589   1.476   2.598   4.543
13544TIP3    H240590   1.567   2.491   4.488
13545TIP3   OH240591   5.598   5.046   6.094
13545TIP3    H140592   5.635   5.132   6.076
13545TIP3    H240593   5.530   5.035   6.027
13546TIP3   OH240594   6.242   6.640   6.786
13546TIP3    H140595   6.151   6.664   6.772
13546TIP3    H240596   6.253   6.557   6.739
13547TIP3   OH240597   3.122   6.768   1.740
13547TIP3    H140598   3.162   6.733   1.660
13547TIP3    H240599   3.171   6.727   1.811
13548TIP3   OH240600   6.525   4.778   3.610
13548TIP3    H140601   6.560   4.860   3.644
13548TIP3    H240602   6.550   4.777   3.518
13549TIP3   OH240603   1.830   2.782   4.584
13549TIP3    H140604   1.772   2.753   4.514
13549TIP3    H240605   1.777   2.840   4.638
13550TIP3   OH240606   5.097   3.727   0.028
13550TIP3    H140607   5.074   3.795  -0.036
13550TIP3    H240608   5.156   3.771   0.090
13551TIP3   OH240609   3.169   0.660   3.390
13551TIP3    H140610   3.110   0.664   3.465
13551TIP3    H240611   3.224   0.738   3.398
13552TIP3   OH240612   8.156   3.570   1.257
13552TIP3    H140613   8.104   3.619   1.193
13552TIP3    H240614   8.102   3.493   1.277
13553TIP3   OH240615   7.496   1.729   5.526
13553TIP3    H140616   7.422   1.775   5.565
13553TIP3    H240617   7.568   1.744   5.588
13554TIP3   OH240618   0.204   5.966   6.650
13554TIP3    H140619   0.164   6.050   6.674
13554TIP3    H240620   0.160   5.940   6.569
13555TIP3   OH240621   6.094   7.603   6.487
13555TIP3    H140622   6.172   7.649   6.522
13555TIP3    H240623   6.099   7.516   6.526
13556TIP3   OH240624   7.008   0.782   2.322
13556TIP3    H140625   6.914   0.787   2.339
13556TIP3    H240626   7.026   0.857   2.265
13557TIP3   OH240627   5.158   6.634   3.273
13557TIP3    H140628   5.070   6.597   3.272
13557TIP3    H240629   5.153   6.712   3.218
13558TIP3   OH240630   8.016   0.467   3.538
13558TIP3    H140631   8.052   0.546   3.577
13558TIP3    H240632   8.092   0.411   3.523
13559TIP3   OH240633   6.547   1.254   1.993
13559TIP3    H140634   6.564   1.212   2.077
13559TIP3    H240635   6.584   1.195   1.927
13560TIP3   OH240636   7.660   6.651   5.422
13560TIP3    H140637   7.628   6.715   5.485
13560TIP3    H240638   7.713   6.591   5.473
13561TIP3   OH240639   5.029   1.908   5.732
13561TIP3    H140640   5.055   1.826   5.692
13561TIP3    H240641   4.934   1.912   5.723
13562TIP3   OH240642   2.751   6.869   1.307
13562TIP3    H140643   2.729   6.777   1.320
13562TIP3    H240644   2.686   6.901   1.244
13563TIP3   OH240645   3.205   2.598   2.824
13563TIP3    H140646   3.160   2.587   2.908
13563TIP3    H240647   3.239   2.511   2.803
13564TIP3   OH240648   1.992   2.068   6.158
13564TIP3    H140649   1.939   2.071   6.237
13564TIP3    H240650   2.046   1.990   6.169
13565TIP3   OH240651   2.438   0.608   4.676
13565TIP3    H140652   2.452   0.659   4.596
13565TIP3    H240653   2.470   0.520   4.653
13566TIP3   OH240654   5.794   3.129   5.170
13566TIP3    H140655   5.744   3.200   5.130
13566TIP3    H240656   5.851   3.098   5.100
13567TIP3   OH240657   3.803   1.173   4.329
13567TIP3    H140658   3.803   1.078   4.328
13567TIP3    H240659   3.880   1.198   4.278
13568TIP3   OH240660   3.851   1.944   1.265
13568TIP3    H140661   3.896   1.869   1.303
13568TIP3    H240662   3.824   1.915   1.178
13569TIP3   OH240663   0.422   2.591   5.718
13569TIP3    H140664   0.346   2.602   5.661
13569TIP3    H240665   0.387   2.552   5.798
13570TIP3   OH240666   3.026   6.685   0.080
13570TIP3    H140667   3.119   6.703   0.067
13570TIP3    H240668   2.986   6.771   0.095
13571TIP3   OH240669   8.135   2.106   0.282
13571TIP3    H140670   8.048   2.140   0.301
13571TIP3    H240671   8.123   2.047   0.207
13572TIP3   OH240672   3.852   0.954   6.067
13572TIP3    H140673   3.904   0.908   6.133
13572TIP3    H240674   3.871   0.909   5.985
13573TIP3   OH240675   0.573   7.444   1.087
13573TIP3    H140676   0.549   7.447   1.180
13573TIP3    H240677   0.491   7.423   1.042
13574TIP3   OH240678   5.847   0.252   4.487
13574TIP3    H140679   5.767   0.291   4.451
13574TIP3    H240680   5.918   0.290   4.435
13575TIP3   OH240681   7.821   1.508   4.989
13575TIP3    H140682   7.797   1.600   5.005
13575TIP3    H240683   7.756   1.458   5.038
13576TIP3   OH240684   5.539   3.617   6.056
13576TIP3    H140685   5.512   3.622   6.148
13576TIP3    H240686   5.589   3.535   6.051
13577TIP3   OH240687   6.582   3.830   4.171
13577TIP3    H140688   6.586   3.921   4.142
13577TIP3    H240689   6.555   3.781   4.093
13578TIP3   OH240690   1.171   2.663   2.302
13578TIP3    H140691   1.221   2.743   2.284
13578TIP3    H240692   1.102   2.662   2.236
13579TIP3   OH240693   7.800   2.735   4.481
13579TIP3    H140694   7.740   2.718   4.408
13579TIP3    H240695   7.818   2.829   4.475
13580TIP3   OH240696   7.934   0.518   6.016
13580TIP3    H140697   8.025   0.542   6.034
13580TIP3    H240698   7.939   0.454   5.945
13581TIP3   OH240699   4.888   1.899   4.251
13581TIP3    H140700   4.819   1.939   4.304
13581TIP3    H240701   4.968   1.912   4.302
13582TIP3   OH240702   1.746   6.656   6.600
13582TIP3    H140703   1.696   6.730   6.634
13582TIP3    H240704   1.700   6.579   6.636
13583TIP3   OH240705   4.426   1.966   6.030
13583TIP3    H140706   4.495   1.902   6.013
13583TIP3    H240707   4.370   1.923   6.095
13584TIP3   OH240708   2.059   1.778   1.172
13584TIP3    H140709   2.028   1.784   1.082
13584TIP3    H240710   2.131   1.840   1.178
13585TIP3   OH240711   2.522   1.423   5.959
13585TIP3    H140712   2.616   1.405   5.950
13585TIP3    H240713   2.502   1.398   6.049
13586TIP3   OH240714   2.154   0.323   0.006
13586TIP3    H140715   2.126   0.413   0.024
13586TIP3    H240716   2.076   0.281  -0.030
13587TIP3   OH240717   5.902   5.044   2.753
13587TIP3    H140718   5.850   5.095   2.690
13587TIP3    H240719   5.874   4.954   2.739
13588TIP3   OH240720   7.788   3.850   2.596
13588TIP3    H140721   7.841   3.846   2.516
13588TIP3    H240722   7.714   3.793   2.578
13589TIP3   OH240723   4.288   3.821   4.776
13589TIP3    H140724   4.270   3.893   4.715
13589TIP3    H240725   4.378   3.796   4.758
13590TIP3   OH240726   7.679   0.173   3.597
13590TIP3    H140727   7.672   0.260   3.637
13590TIP3    H240728   7.770   0.147   3.611
13591TIP3   OH240729   3.657   1.780   3.324
13591TIP3    H140730   3.743   1.738   3.326
13591TIP3    H240731   3.595   1.707   3.324
13592TIP3   OH240732   0.100   1.701   0.444
13592TIP3    H140733   0.132   1.716   0.532
13592TIP3    H240734   0.067   1.787   0.416
13593TIP3   OH240735   5.121   4.062   6.673
13593TIP3    H140736   5.061   4.124   6.715
13593TIP3    H240737   5.152   4.006   6.744
13594TIP3   OH240738   4.119   2.036   6.725
13594TIP3    H140739   4.175   2.113   6.717
13594TIP3    H240740   4.033   2.071   6.750
13595TIP3   OH240741   1.676   0.616   0.813
13595TIP3    H140742   1.719   0.533   0.792
13595TIP3    H240743   1.744   0.668   0.857
13596TIP3   OH240744   7.308   5.676   6.515
13596TIP3    H140745   7.341   5.696   6.428
13596TIP3    H240746   7.379   5.628   6.557
13597TIP3   OH240747   5.946   2.329   4.871
13597TIP3    H140748   6.023   2.273   4.865
13597TIP3    H240749   5.886   2.282   4.929
13598TIP3   OH240750   0.444   7.129   0.237
13598TIP3    H140751   0.420   7.145   0.146
13598TIP3    H240752   0.533   7.092   0.232
13599TIP3   OH240753   2.388   4.566   3.944
13599TIP3    H140754   2.480   4.557   3.917
13599TIP3    H240755   2.350   4.624   3.878
13600TIP3   OH240756   6.074   5.209   3.192
13600TIP3    H140757   6.066   5.241   3.282
13600TIP3    H240758   5.997   5.244   3.148
13601TIP3   OH240759   8.154   5.328   5.348
13601TIP3    H140760   8.113   5.248   5.316
13601TIP3    H240761   8.084   5.393   5.347
13602TIP3   OH240762   6.807   6.639   4.403
13602TIP3    H140763   6.855   6.719   4.382
13602TIP3    H240764   6.798   6.640   4.498
13603TIP3   OH240765   3.583   1.399   4.684
13603TIP3    H140766   3.580   1.405   4.589
13603TIP3    H240767   3.621   1.313   4.702
13604TIP3   OH240768   6.169   1.547   6.293
13604TIP3    H140769   6.177   1.460   6.330
13604TIP3    H240770   6.200   1.538   6.203
13605TIP3   OH240771   1.579   6.700   4.873
13605TIP3    H140772   1.656   6.644   4.864
13605TIP3    H240773   1.505   6.639   4.873
13606TIP3   OH240774   6.079   3.053   0.490
13606TIP3    H140775   6.014   3.077   0.556
13606TIP3    H240776   6.163   3.057   0.536
13607TIP3   OH240777   8.108   4.830   5.496
13607TIP3    H140778   8.052   4.904   5.520
13607TIP3    H240779   8.158   4.861   5.421
13608TIP3   OH240780   1.550   0.670   2.764
13608TIP3    H140781   1.546   0.759   2.799
13608TIP3    H240782   1.486   0.621   2.816
13609TIP3   OH240783   0.150   1.094   5.470
13609TIP3    H140784   0.145   1.146   5.389
13609TIP3    H240785   0.231   1.122   5.512
13610TIP3   OH240786   4.015   5.657   3.339
13610TIP3    H140787   4.013   5.701   3.254
13610TIP3    H240788   4.031   5.727   3.403
13611TIP3   OH240789   1.665   5.334   0.527
13611TIP3    H140790   1.741   5.289   0.491
13611TIP3    H240791   1.700   5.390   0.596
13612TIP3   OH240792   3.767   2.748   6.683
13612TIP3    H140793   3.723   2.831   6.666
13612TIP3    H240794   3.697   2.688   6.709
13613TIP3   OH240795   3.007   2.784   5.149
13613TIP3    H140796   2.918   2.748   5.145
13613TIP3    H240797   3.017   2.832   5.067
13614TIP3   OH240798   5.223   6.657   5.087
13614TIP3    H140799   5.155   6.716   5.119
13614TIP3    H240800   5.261   6.703   5.012
13615TIP3   OH240801   5.624   4.369   4.817
13615TIP3    H140802   5.646   4.399   4.729
13615TIP3    H240803   5.679   4.422   4.875
13616TIP3   OH240804   6.325   4.417   0.983
13616TIP3    H140805   6.278   4.478   1.039
13616TIP3    H240806   6.297   4.330   1.013
13617TIP3   OH240807   0.244   7.730   5.609
13617TIP3    H140808   0.199   7.743   5.525
13617TIP3    H240809   0.218   7.805   5.662
13618TIP3   OH240810   2.738   7.633   4.227
13618TIP3    H140811   2.658   7.603   4.269
13618TIP3    H240812   2.747   7.724   4.253
13619TIP3   OH240813   7.835   7.270   2.352
13619TIP3    H140814   7.835   7.329   2.427
13619TIP3    H240815   7.751   7.285   2.309
13620TIP3   OH240816   4.968   3.843   1.349
13620TIP3    H140817   4.984   3.937   1.348
13620TIP3    H240818   5.043   3.806   1.302
13621TIP3   OH240819   6.276   0.267   5.295
13621TIP3    H140820   6.356   0.225   5.262
13621TIP3    H240821   6.211   0.197   5.296
13622TIP3   OH240822   8.030   1.265   3.045
13622TIP3    H140823   7.989   1.313   2.973
13622TIP3    H240824   8.112   1.312   3.061
13623TIP3   OH240825   0.622   2.649   6.463
13623TIP3    H140826   0.645   2.650   6.370
13623TIP3    H240827   0.652   2.733   6.496
13624TIP3   OH240828   2.497   1.192   4.229
13624TIP3    H140829   2.479   1.275   4.272
13624TIP3    H240830   2.591   1.179   4.239
13625TIP3   OH240831   4.412   4.000   4.373
13625TIP3    H140832   4.406   3.978   4.280
13625TIP3    H240833   4.497   3.966   4.401
13626TIP3   OH240834   3.114   1.966   4.510
13626TIP3    H140835   3.155   1.915   4.580
13626TIP3    H240836   3.146   1.926   4.429
13627TIP3   OH240837   4.484   5.345   0.292
13627TIP3    H140838   4.453   5.372   0.379
13627TIP3    H240839   4.518   5.425   0.252
13628TIP3   OH240840   4.786   0.708   0.284
13628TIP3    H140841   4.806   0.728   0.375
13628TIP3    H240842   4.753   0.790   0.248
13629TIP3   OH240843   4.113   6.889   0.981
13629TIP3    H140844   4.140   6.811   0.933
13629TIP3    H240845   4.031   6.865   1.023
13630TIP3   OH240846   8.294   3.383   5.746
13630TIP3    H140847   8.201   3.402   5.755
13630TIP3    H240848   8.325   3.443   5.678
13631TIP3   OH240849   7.497   7.520   0.748
13631TIP3    H140850   7.428   7.494   0.686
13631TIP3    H240851   7.576   7.527   0.695
13632TIP3   OH240852   6.549   7.571   4.419
13632TIP3    H140853   6.486   7.601   4.483
13632TIP3    H240854   6.559   7.477   4.437
13633TIP3   OH240855   4.869   1.399   4.724
13633TIP3    H140856   4.847   1.425   4.814
13633TIP3    H240857   4.790   1.415   4.674
13634TIP3   OH240858   5.206   7.439   0.927
13634TIP3    H140859   5.192   7.522   0.882
13634TIP3    H240860   5.230   7.463   1.016
13635TIP3   OH240861   2.588   2.886   5.139
13635TIP3    H140862   2.591   2.806   5.086
13635TIP3    H240863   2.671   2.887   5.187
13636TIP3   OH240864   4.082   4.278   3.266
13636TIP3    H140865   4.085   4.187   3.298
13636TIP3    H240866   4.065   4.270   3.172
13637TIP3   OH240867   7.355   5.636   3.648
13637TIP3    H140868   7.403   5.645   3.730
13637TIP3    H240869   7.354   5.542   3.632
13638TIP3   OH240870   1.610   0.857   0.388
13638TIP3    H140871   1.535   0.823   0.436
13638TIP3    H240872   1.675   0.787   0.391
13639TIP3   OH240873   5.612   4.882   6.371
13639TIP3    H140874   5.591   4.794   6.402
13639TIP3    H240875   5.531   4.932   6.385
13640TIP3   OH240876   6.625   4.076   2.989
13640TIP3    H140877   6.677   4.153   3.010
13640TIP3    H240878   6.662   4.007   3.044
13641TIP3   OH240879   3.641   1.244   1.056
13641TIP3    H140880   3.559   1.288   1.081
13641TIP3    H240881   3.648   1.259   0.961
13642TIP3   OH240882   3.944   0.652   1.653
13642TIP3    H140883   3.854   0.647   1.684
13642TIP3    H240884   3.940   0.708   1.575
13643TIP3   OH240885   0.442   5.291   0.156
13643TIP3    H140886   0.395   5.349   0.216
13643TIP3    H240887   0.395   5.208   0.160
13644TIP3   OH240888   3.560   4.422   2.222
13644TIP3    H140889   3.485   4.460   2.267
13644TIP3    H240890   3.565   4.470   2.139
13645TIP3   OH240891   1.635   4.654   6.323
13645TIP3    H140892   1.596   4.706   6.393
13645TIP3    H240893   1.568   4.590   6.300
13646TIP3   OH240894   3.352   0.270   0.269
13646TIP3    H140895   3.302   0.273   0.350
13646TIP3    H240896   3.443   0.261   0.297
13647TIP3   OH240897   8.012   2.012   2.414
13647TIP3    H140898   8.104   2.035   2.424
13647TIP3    H240899   7.994   1.951   2.486
13648TIP3   OH240900   6.695   5.045   0.152
13648TIP3    H140901   6.653   5.076   0.072
13648TIP3    H240902   6.779   5.009   0.124
13649TIP3   OH240903   2.793   1.205   5.630
13649TIP3    H140904   2.853   1.150   5.679
13649TIP3    H240905   2.707   1.167   5.644
13650TIP3   OH240906   5.050   3.318   1.494
13650TIP3    H140907   5.102   3.397   1.507
13650TIP3    H240908   5.114   3.247   1.493
13651TIP3   OH240909   1.023   2.861   0.859
13651TIP3    H140910   1.054   2.848   0.769
13651TIP3    H240911   1.086   2.921   0.898
13652TIP3   OH240912   4.881   1.085   2.774
13652TIP3    H140913   4.903   1.156   2.715
13652TIP3    H240914   4.793   1.058   2.748
13653TIP3   OH240915   7.503   5.882   5.269
13653TIP3    H140916   7.552   5.806   5.237
13653TIP3    H240917   7.571   5.944   5.295
13654TIP3   OH240918   0.605   2.713   5.852
13654TIP3    H140919   0.629   2.623   5.830
13654TIP3    H240920   0.534   2.735   5.792
13655TIP3   OH240921   2.054   2.145   0.644
13655TIP3    H140922   2.127   2.205   0.632
13655TIP3    H240923   1.978   2.192   0.609
13656TIP3   OH240924   0.826   4.558   0.288
13656TIP3    H140925   0.893   4.624   0.271
13656TIP3    H240926   0.745   4.608   0.299
13657TIP3   OH240927   1.591   2.770   2.210
13657TIP3    H140928   1.529   2.767   2.283
13657TIP3    H240929   1.641   2.689   2.217
13658TIP3   OH240930   2.243   0.430   1.791
13658TIP3    H140931   2.214   0.423   1.700
13658TIP3    H240932   2.191   0.500   1.829
13659TIP3   OH240933   2.696   5.396   6.434
13659TIP3    H140934   2.628   5.426   6.375
13659TIP3    H240935   2.745   5.330   6.385
13660TIP3   OH240936   3.502   5.799   5.706
13660TIP3    H140937   3.439   5.865   5.678
13660TIP3    H240938   3.587   5.834   5.679
13661TIP3   OH240939   2.105   3.633   3.973
13661TIP3    H140940   2.053   3.556   3.993
13661TIP3    H240941   2.191   3.599   3.948
13662TIP3   OH240942   0.803   0.018   2.825
13662TIP3    H140943   0.713   0.043   2.845
13662TIP3    H240944   0.848   0.101   2.808
13663TIP3   OH240945   4.260   4.825   2.884
13663TIP3    H140946   4.283   4.840   2.792
13663TIP3    H240947   4.344   4.820   2.930
13664TIP3   OH240948   0.930   3.841   4.702
13664TIP3    H140949   0.980   3.804   4.775
13664TIP3    H240950   0.922   3.769   4.639
13665TIP3   OH240951   7.489   0.174   2.113
13665TIP3    H140952   7.436   0.237   2.064
13665TIP3    H240953   7.549   0.138   2.048
13666TIP3   OH240954   0.589   0.169   4.540
13666TIP3    H140955   0.516   0.143   4.484
13666TIP3    H240956   0.598   0.264   4.526
13667TIP3   OH240957   0.867   5.448   5.881
13667TIP3    H140958   0.866   5.409   5.794
13667TIP3    H240959   0.868   5.543   5.865
13668TIP3   OH240960   5.714   6.830   2.873
13668TIP3    H140961   5.739   6.760   2.812
13668TIP3    H240962   5.794   6.848   2.922
13669TIP3   OH240963   4.635   4.052   6.399
13669TIP3    H140964   4.652   3.959   6.384
13669TIP3    H240965   4.613   4.087   6.313
13670TIP3   OH240966   2.453   2.063   5.358
13670TIP3    H140967   2.541   2.055   5.395
13670TIP3    H240968   2.423   2.149   5.385
13671TIP3   OH240969   4.733   1.560   0.148
13671TIP3    H140970   4.677   1.605   0.212
13671TIP3    H240971   4.722   1.467   0.169
13672TIP3   OH240972   7.568   0.316   1.359
13672TIP3    H140973   7.561   0.367   1.440
13672TIP3    H240974   7.562   0.225   1.387
13673TIP3   OH240975   5.471   5.340   3.588
13673TIP3    H140976   5.530   5.395   3.639
13673TIP3    H240977   5.493   5.359   3.497
13674TIP3   OH240978   0.834   2.724   5.089
13674TIP3    H140979   0.768   2.744   5.156
13674TIP3    H240980   0.876   2.808   5.072
13675TIP3   OH240981   6.648   4.411   3.564
13675TIP3    H140982   6.694   4.492   3.541
13675TIP3    H240983   6.605   4.431   3.647
13676TIP3   OH240984   6.849   7.415   4.737
13676TIP3    H140985   6.923   7.358   4.757
13676TIP3    H240986   6.818   7.446   4.822
13677TIP3   OH240987   1.330   7.544   5.877
13677TIP3    H140988   1.242   7.568   5.906
13677TIP3    H240989   1.377   7.627   5.871
13678TIP3   OH240990   1.184   4.509   0.099
13678TIP3    H140991   1.104   4.561   0.098
13678TIP3    H240992   1.187   4.468   0.013
13679TIP3   OH240993   3.690   6.217   1.159
13679TIP3    H140994   3.698   6.210   1.255
13679TIP3    H240995   3.599   6.194   1.141
13680TIP3   OH240996   0.083   0.583   0.019
13680TIP3    H140997   0.006   0.640   0.015
13680TIP3    H240998   0.157   0.641   0.001
13681TIP3   OH240999   6.338   1.793   1.893
13681TIP3    H141000   6.420   1.766   1.853
13681TIP3    H241001   6.297   1.711   1.921
13682TIP3   OH241002   7.895   3.203   0.905
13682TIP3    H141003   7.899   3.224   0.998
13682TIP3    H241004   7.932   3.115   0.898
13683TIP3   OH241005   6.810   5.005   1.376
13683TIP3    H141006   6.777   4.915   1.371
13683TIP3    H241007   6.899   4.999   1.339
13684TIP3   OH241008   7.948   3.865   5.593
13684TIP3    H141009   7.978   3.856   5.503
13684TIP3    H241010   7.929   3.958   5.603
13685TIP3   OH241011   4.222   0.168   2.138
13685TIP3    H141012   4.162   0.242   2.131
13685TIP3    H241013   4.192   0.107   2.072
13686TIP3   OH241014   5.452   0.260   0.705
13686TIP3    H141015   5.501   0.178   0.696
13686TIP3    H241016   5.444   0.293   0.616
13687TIP3   OH241017   6.371   7.695   1.866
13687TIP3    H141018   6.276   7.687   1.865
13687TIP3    H241019   6.389   7.784   1.835
13688TIP3   OH241020   8.160   3.915   4.525
13688TIP3    H141021   8.126   3.865   4.451
13688TIP3    H241022   8.083   3.947   4.571
13689TIP3   OH241023   2.283   4.074   5.147
13689TIP3    H141024   2.361   4.026   5.176
13689TIP3    H241025   2.222   4.066   5.220
13690TIP3   OH241026   6.606   4.401   2.933
13690TIP3    H141027   6.608   4.353   2.850
13690TIP3    H241028   6.526   4.372   2.976
13691TIP3   OH241029   6.710   5.695  -0.015
13691TIP3    H141030   6.776   5.750  -0.057
13691TIP3    H241031   6.729   5.701   0.078
13692TIP3   OH241032   5.893   0.503   2.806
13692TIP3    H141033   5.811   0.460   2.831
13692TIP3    H241034   5.881   0.523   2.713
13693TIP3   OH241035   0.070   6.534   4.204
13693TIP3    H141036   0.022   6.581   4.272
13693TIP3    H241037   0.128   6.600   4.166
13694TIP3   OH241038   8.060   4.662   6.569
13694TIP3    H141039   7.979   4.614   6.583
13694TIP3    H241040   8.127   4.608   6.612
13695TIP3   OH241041   1.079   4.335   2.365
13695TIP3    H141042   1.121   4.408   2.319
13695TIP3    H241043   1.151   4.289   2.408
13696TIP3   OH241044   2.309   5.993   1.732
13696TIP3    H141045   2.255   5.918   1.757
13696TIP3    H241046   2.373   5.957   1.671
13697TIP3   OH241047   1.645   0.550   4.793
13697TIP3    H141048   1.552   0.532   4.812
13697TIP3    H241049   1.644   0.591   4.707
13698TIP3   OH241050   1.460   1.863   5.772
13698TIP3    H141051   1.551   1.885   5.748
13698TIP3    H241052   1.425   1.817   5.696
13699TIP3   OH241053   7.052   4.324   5.561
13699TIP3    H141054   6.966   4.287   5.543
13699TIP3    H241055   7.088   4.344   5.474
13700TIP3   OH241056   3.875   1.599   2.307
13700TIP3    H141057   3.896   1.505   2.313
13700TIP3    H241058   3.958   1.640   2.282
13701TIP3   OH241059   3.119   5.697   4.800
13701TIP3    H141060   3.169   5.738   4.729
13701TIP3    H241061   3.040   5.752   4.808
13702TIP3   OH241062   1.967   5.368   3.831
13702TIP3    H141063   1.941   5.373   3.739
13702TIP3    H241064   2.058   5.337   3.829
13703TIP3   OH241065   3.723   7.046   5.713
13703TIP3    H141066   3.761   6.958   5.721
13703TIP3    H241067   3.640   7.040   5.760
13704TIP3   OH241068   5.220   2.746   2.082
13704TIP3    H141069   5.212   2.841   2.076
13704TIP3    H241070   5.291   2.724   2.022
13705TIP3   OH241071   0.941   5.851   1.286
13705TIP3    H141072   1.016   5.817   1.334
13705TIP3    H241073   0.867   5.844   1.347
13706TIP3   OH241074   4.320   4.431   5.273
13706TIP3    H141075   4.350   4.430   5.182
13706TIP3    H241076   4.225   4.417   5.267
13707TIP3   OH241077   0.898   6.263   2.715
13707TIP3    H141078   0.952   6.201   2.764
13707TIP3    H241079   0.846   6.309   2.781
13708TIP3   OH241080   3.576   3.512   0.140
13708TIP3    H141081   3.553   3.420   0.152
13708TIP3    H241082   3.592   3.544   0.229
13709TIP3   OH241083   4.691   0.679   3.102
13709TIP3    H141084   4.749   0.616   3.058
13709TIP3    H241085   4.676   0.641   3.188
13710TIP3   OH241086   7.678   1.308   3.480
13710TIP3    H141087   7.772   1.294   3.489
13710TIP3    H241088   7.639   1.223   3.502
13711TIP3   OH241089   7.569   2.845   1.718
13711TIP3    H141090   7.573   2.924   1.771
13711TIP3    H241091   7.513   2.868   1.644
13712TIP3   OH241092   3.592   5.581   5.113
13712TIP3    H141093   3.562   5.572   5.023
13712TIP3    H241094   3.631   5.496   5.134
13713TIP3   OH241095   3.696   6.510   2.400
13713TIP3    H141096   3.602   6.495   2.390
13713TIP3    H241097   3.710   6.598   2.364
13714TIP3   OH241098   6.500   4.047   4.954
13714TIP3    H141099   6.431   3.997   4.999
13714TIP3    H241100   6.485   4.030   4.861
13715TIP3   OH241101   1.707   7.545   4.777
13715TIP3    H141102   1.737   7.623   4.824
13715TIP3    H241103   1.787   7.503   4.746
13716TIP3   OH241104   3.623   5.252   6.538
13716TIP3    H141105   3.713   5.283   6.530
13716TIP3    H241106   3.624   5.193   6.614
13717TIP3   OH241107   1.348   7.269   5.055
13717TIP3    H141108   1.399   7.334   5.103
13717TIP3    H241109   1.338   7.306   4.967
13718TIP3   OH241110   1.292   4.581   2.812
13718TIP3    H141111   1.204   4.601   2.844
13718TIP3    H241112   1.284   4.584   2.717
13719TIP3   OH241113   7.040   2.727   0.946
13719TIP3    H141114   7.058   2.674   0.869
13719TIP3    H241115   7.009   2.811   0.912
13720TIP3   OH241116   3.817   0.269   4.329
13720TIP3    H141117   3.873   0.282   4.252
13720TIP3    H241118   3.841   0.182   4.361
13721TIP3   OH241119   7.360   4.226   6.054
13721TIP3    H141120   7.453   4.237   6.032
13721TIP3    H241121   7.320   4.310   6.032
13722TIP3   OH241122   6.262   3.792   5.450
13722TIP3    H141123   6.265   3.755   5.362
13722TIP3    H241124   6.352   3.786   5.482
13723TIP3   OH241125   6.563   3.160   6.721
13723TIP3    H141126   6.583   3.157   6.627
13723TIP3    H241127   6.569   3.253   6.744
13724TIP3   OH241128   6.490   1.193   4.176
13724TIP3    H141129   6.447   1.117   4.215
13724TIP3    H241130   6.584   1.174   4.183
13725TIP3   OH241131   0.849   0.731   3.836
13725TIP3    H141132   0.923   0.753   3.780
13725TIP3    H241133   0.781   0.700   3.776
13726TIP3   OH241134   4.707   4.417   4.073
13726TIP3    H141135   4.692   4.504   4.110
13726TIP3    H241136   4.620   4.377   4.070
13727TIP3   OH241137   4.118   3.492   5.775
13727TIP3    H141138   4.023   3.495   5.783
13727TIP3    H241139   4.134   3.424   5.710
13728TIP3   OH241140   1.756   5.352   2.333
13728TIP3    H141141   1.668   5.318   2.346
13728TIP3    H241142   1.813   5.280   2.360
13729TIP3   OH241143   5.699   0.886   4.243
13729TIP3    H141144   5.708   0.974   4.278
13729TIP3    H241145   5.621   0.851   4.287
13730TIP3   OH241146   2.071   7.062   2.510
13730TIP3    H141147   1.999   7.117   2.477
13730TIP3    H241148   2.114   7.029   2.432
13731TIP3   OH241149   1.932   1.577   2.195
13731TIP3    H141150   2.005   1.547   2.141
13731TIP3    H241151   1.954   1.667   2.218
13732TIP3   OH241152   4.234   6.878   3.870
13732TIP3    H141153   4.264   6.888   3.960
13732TIP3    H241154   4.166   6.944   3.860
13733TIP3   OH241155   3.855   3.740   6.683
13733TIP3    H141156   3.784   3.768   6.624
13733TIP3    H241157   3.809   3.701   6.758
13734TIP3   OH241158   3.801   4.721   4.051
13734TIP3    H141159   3.886   4.715   4.006
13734TIP3    H241160   3.743   4.761   3.987
13735TIP3   OH241161   4.945   5.298   4.331
13735TIP3    H141162   4.993   5.345   4.263
13735TIP3    H241163   4.854   5.326   4.320
13736TIP3   OH241164   6.868   5.795   0.548
13736TIP3    H141165   6.888   5.777   0.457
13736TIP3    H241166   6.883   5.712   0.593
13737TIP3   OH241167   7.002   5.894   5.966
13737TIP3    H141168   7.016   5.830   6.035
13737TIP3    H241169   6.938   5.955   6.002
13738TIP3   OH241170   2.698   7.021   5.764
13738TIP3    H141171   2.778   6.984   5.727
13738TIP3    H241172   2.727   7.064   5.845
13739TIP3   OH241173   3.560   1.662   4.296
13739TIP3    H141174   3.639   1.713   4.277
13739TIP3    H241175   3.532   1.693   4.382
13740TIP3   OH241176   0.932   3.473   6.099
13740TIP3    H141177   0.951   3.551   6.046
13740TIP3    H241178   0.957   3.498   6.188
13741TIP3   OH241179   6.041   7.555   0.838
13741TIP3    H141180   6.063   7.607   0.761
13741TIP3    H241181   5.958   7.513   0.816
13742TIP3   OH241182   6.483   1.491   1.706
13742TIP3    H141183   6.524   1.429   1.645
13742TIP3    H241184   6.500   1.577   1.667
13743TIP3   OH241185   1.885   6.246   6.436
13743TIP3    H141186   1.827   6.206   6.371
13743TIP3    H241187   1.882   6.339   6.416
13744TIP3   OH241188   0.304   0.301   0.349
13744TIP3    H141189   0.214   0.327   0.332
13744TIP3    H241190   0.299   0.207   0.367
13745TIP3   OH241191   7.720   5.646   2.727
13745TIP3    H141192   7.778   5.570   2.722
13745TIP3    H241193   7.666   5.630   2.805
13746TIP3   OH241194   1.237   0.872   3.209
13746TIP3    H141195   1.326   0.908   3.202
13746TIP3    H241196   1.183   0.932   3.159
13747TIP3   OH241197   6.498   7.003   2.081
13747TIP3    H141198   6.475   7.084   2.035
13747TIP3    H241199   6.430   6.941   2.054
13748TIP3   OH241200   0.813   4.430   1.315
13748TIP3    H141201   0.898   4.466   1.291
13748TIP3    H241202   0.810   4.344   1.273
13749TIP3   OH241203   0.363   4.497   1.578
13749TIP3    H141204   0.396   4.408   1.576
13749TIP3    H241205   0.433   4.548   1.619
13750TIP3   OH241206   8.085   6.141   5.964
13750TIP3    H141207   8.081   6.191   6.045
13750TIP3    H241208   8.040   6.058   5.985
13751TIP3   OH241209   5.750   1.711   0.458
13751TIP3    H141210   5.739   1.616   0.453
13751TIP3    H241211   5.834   1.723   0.501
13752TIP3   OH241212   5.005   5.670   0.360
13752TIP3    H141213   5.066   5.732   0.400
13752TIP3    H241214   5.014   5.591   0.414
13753TIP3   OH241215   4.226   4.011   1.047
13753TIP3    H141216   4.271   4.092   1.074
13753TIP3    H241217   4.139   4.017   1.086
13754TIP3   OH241218   3.302   4.016   3.776
13754TIP3    H141219   3.232   3.967   3.819
13754TIP3    H241220   3.274   4.108   3.783
13755TIP3   OH241221   4.025   5.644   6.115
13755TIP3    H141222   3.952   5.591   6.082
13755TIP3    H241223   3.997   5.672   6.202
13756TIP3   OH241224   6.627   1.759   3.295
13756TIP3    H141225   6.650   1.691   3.231
13756TIP3    H241226   6.708   1.806   3.312
13757TIP3   OH241227   6.874   6.471   5.930
13757TIP3    H141228   6.878   6.544   5.869
13757TIP3    H241229   6.961   6.431   5.925
13758TIP3   OH241230   2.446   3.561   1.659
13758TIP3    H141231   2.379   3.495   1.640
13758TIP3    H241232   2.506   3.556   1.585
13759TIP3   OH241233   5.284   2.195   4.198
13759TIP3    H141234   5.305   2.199   4.291
13759TIP3    H241235   5.346   2.256   4.157
13760TIP3   OH241236   3.562   7.032   3.111
13760TIP3    H141237   3.535   7.123   3.119
13760TIP3    H241238   3.510   6.998   3.038
13761TIP3   OH241239   0.086   1.759   3.345
13761TIP3    H141240   0.142   1.706   3.288
13761TIP3    H241241   0.037   1.695   3.396
13762TIP3   OH241242   3.257   5.305   3.319
13762TIP3    H141243   3.206   5.335   3.244
13762TIP3    H241244   3.270   5.383   3.372
13763TIP3   OH241245   3.566   6.443   5.220
13763TIP3    H141246   3.630   6.514   5.220
13763TIP3    H241247   3.482   6.486   5.204
13764TIP3   OH241248   5.763   6.031   6.428
13764TIP3    H141249   5.858   6.028   6.415
13764TIP3    H241250   5.749   5.996   6.516
13765TIP3   OH241251   7.706   5.447   2.255
13765TIP3    H141252   7.676   5.384   2.190
13765TIP3    H241253   7.760   5.509   2.207
13766TIP3   OH241254   0.165   5.439   0.560
13766TIP3    H141255   0.211   5.516   0.527
13766TIP3    H241256   0.104   5.473   0.624
13767TIP3   OH241257   6.484   6.684   5.070
13767TIP3    H141258   6.529   6.754   5.023
13767TIP3    H241259   6.416   6.728   5.120
13768TIP3   OH241260   7.542   1.909   4.896
13768TIP3    H141261   7.601   1.838   4.920
13768TIP3    H241262   7.485   1.870   4.829
13769TIP3   OH241263   1.005   6.325   1.224
13769TIP3    H141264   1.017   6.331   1.318
13769TIP3    H241265   1.070   6.384   1.187
13770TIP3   OH241266   5.203   3.365   0.481
13770TIP3    H141267   5.149   3.286   0.473
13770TIP3    H241268   5.193   3.409   0.397
13771TIP3   OH241269  -0.009   1.541   4.530
13771TIP3    H141270   0.052   1.484   4.483
13771TIP3    H241271  -0.085   1.485   4.549
13772TIP3   OH241272   5.544   5.853   6.014
13772TIP3    H141273   5.486   5.815   6.080
13772TIP3    H241274   5.490   5.919   5.970
13773TIP3   OH241275   3.898   4.128   2.569
13773TIP3    H141276   3.821   4.144   2.515
13773TIP3    H241277   3.929   4.215   2.594
13774TIP3   OH241278   5.455   1.615   0.821
13774TIP3    H141279   5.377   1.570   0.788
13774TIP3    H241280   5.506   1.547   0.864
13775TIP3   OH241281   2.729   1.427   2.891
13775TIP3    H141282   2.700   1.428   2.800
13775TIP3    H241283   2.703   1.341   2.923
13776TIP3   OH241284   5.522   7.591   0.932
13776TIP3    H141285   5.489   7.624   0.848
13776TIP3    H241286   5.473   7.641   0.998
13777TIP3   OH241287   1.379   4.784   4.669
13777TIP3    H141288   1.395   4.697   4.632
13777TIP3    H241289   1.389   4.843   4.595
13778TIP3   OH241290   2.441   1.101   0.713
13778TIP3    H141291   2.397   1.142   0.787
13778TIP3    H241292   2.371   1.062   0.661
13779TIP3   OH241293   7.496   2.128   2.987
13779TIP3    H141294   7.481   2.035   2.969
13779TIP3    H241295   7.581   2.147   2.946
13780TIP3   OH241296   7.260   1.436   4.371
13780TIP3    H141297   7.295   1.386   4.296
13780TIP3    H241298   7.168   1.411   4.375
13781TIP3   OH241299   7.482   2.700   0.767
13781TIP3    H141300   7.468   2.658   0.852
13781TIP3    H241301   7.502   2.791   0.788
13782TIP3   OH241302   2.978   7.199   3.702
13782TIP3    H141303   3.018   7.139   3.764
13782TIP3    H241304   2.884   7.194   3.720
13783TIP3   OH241305   8.149   4.326   0.549
13783TIP3    H141306   8.101   4.363   0.624
13783TIP3    H241307   8.231   4.375   0.547
13784TIP3   OH241308   1.976   4.706   2.329
13784TIP3    H141309   1.938   4.707   2.416
13784TIP3    H241310   2.030   4.785   2.326
13785TIP3   OH241311   5.527   1.385   3.826
13785TIP3    H141312   5.482   1.330   3.761
13785TIP3    H241313   5.502   1.475   3.802
13786TIP3   OH241314   3.999   1.995   1.813
13786TIP3    H141315   3.995   1.914   1.863
13786TIP3    H241316   3.931   1.986   1.747
13787TIP3   OH241317   3.722   2.954   0.193
13787TIP3    H141318   3.627   2.953   0.199
13787TIP3    H241319   3.743   2.878   0.139
13788TIP3   OH241320   7.947   1.250   1.297
13788TIP3    H141321   7.894   1.319   1.338
13788TIP3    H241322   7.885   1.199   1.245
13789TIP3   OH241323   7.510   3.454   0.915
13789TIP3    H141324   7.521   3.386   0.849
13789TIP3    H241325   7.437   3.507   0.884
13790TIP3   OH241326   7.733   7.131   1.445
13790TIP3    H141327   7.739   7.171   1.532
13790TIP3    H241328   7.725   7.037   1.463
13791TIP3   OH241329   8.107   5.263   4.497
13791TIP3    H141330   8.019   5.241   4.466
13791TIP3    H241331   8.156   5.182   4.488
13792TIP3   OH241332   5.504   2.161   2.179
13792TIP3    H141333   5.486   2.249   2.145
13792TIP3    H241334   5.565   2.176   2.252
13793TIP3   OH241335  -0.030   2.214   4.715
13793TIP3    H141336   0.003   2.300   4.687
13793TIP3    H241337   0.015   2.152   4.658
13794TIP3   OH241338   2.536   4.804   3.364
13794TIP3    H141339   2.538   4.789   3.458
13794TIP3    H241340   2.624   4.782   3.334
13795TIP3   OH241341   1.361   0.736   3.562
13795TIP3    H141342   1.421   0.697   3.498
13795TIP3    H241343   1.387   0.699   3.646
13796TIP3   OH241344   3.111   6.645   6.250
13796TIP3    H141345   3.093   6.625   6.342
13796TIP3    H241346   3.048   6.714   6.228
13797TIP3   OH241347   6.992   1.168   1.822
13797TIP3    H141348   7.059   1.202   1.881
13797TIP3    H241349   6.928   1.239   1.816
13798TIP3   OH241350   4.028   7.068   6.088
13798TIP3    H141351   3.938   7.101   6.085
13798TIP3    H241352   4.024   6.982   6.046
13799TIP3   OH241353   5.046   6.166   3.728
13799TIP3    H141354   5.036   6.106   3.802
13799TIP3    H241355   5.040   6.111   3.650
13800TIP3   OH241356   6.279   1.727   6.470
13800TIP3    H141357   6.238   1.676   6.400
13800TIP3    H241358   6.205   1.766   6.517
13801TIP3   OH241359   0.667   0.880   5.196
13801TIP3    H141360   0.673   0.788   5.224
13801TIP3    H241361   0.576   0.904   5.214
13802TIP3   OH241362   1.249   0.449   5.278
13802TIP3    H141363   1.274   0.439   5.369
13802TIP3    H241364   1.274   0.539   5.256
13803TIP3   OH241365   3.268   6.446   4.030
13803TIP3    H141366   3.230   6.488   3.953
13803TIP3    H241367   3.278   6.517   4.094
13804TIP3   OH241368   3.026   1.205   0.083
13804TIP3    H141369   2.947   1.260   0.088
13804TIP3    H241370   3.019   1.161  -0.001
13805TIP3   OH241371   1.627   5.716   5.119
13805TIP3    H141372   1.648   5.731   5.211
13805TIP3    H241373   1.638   5.802   5.078
13806TIP3   OH241374   4.992   0.293   0.106
13806TIP3    H141375   5.033   0.332   0.029
13806TIP3    H241376   4.931   0.360   0.137
13807TIP3   OH241377   5.931   3.603   1.177
13807TIP3    H141378   5.914   3.509   1.179
13807TIP3    H241379   5.858   3.642   1.224
13808TIP3   OH241380   7.099   5.497   2.836
13808TIP3    H141381   7.016   5.544   2.850
13808TIP3    H241382   7.163   5.547   2.887
13809TIP3   OH241383   4.919   5.621   0.099
13809TIP3    H141384   4.909   5.543   0.045
13809TIP3    H241385   4.848   5.679   0.072
13810TIP3   OH241386   8.139   3.855   5.405
13810TIP3    H141387   8.217   3.883   5.357
13810TIP3    H241388   8.117   3.931   5.460
13811TIP3   OH241389   6.037   6.250   3.941
13811TIP3    H141390   6.045   6.247   4.036
13811TIP3    H241391   5.943   6.238   3.924
13812TIP3   OH241392   6.954   5.578   0.682
13812TIP3    H141393   6.923   5.587   0.772
13812TIP3    H241394   7.048   5.563   0.690
13813TIP3   OH241395   4.989   0.480   0.398
13813TIP3    H141396   4.939   0.514   0.325
13813TIP3    H241397   4.987   0.385   0.387
13814TIP3   OH241398   7.763   1.907   6.376
13814TIP3    H141399   7.798   1.828   6.334
13814TIP3    H241400   7.694   1.937   6.317
13815TIP3   OH241401   1.948   4.539   4.941
13815TIP3    H141402   1.983   4.568   5.025
13815TIP3    H241403   2.010   4.474   4.910
13816TIP3   OH241404   6.770   7.324   3.870
13816TIP3    H141405   6.681   7.354   3.852
13816TIP3    H241406   6.825   7.374   3.809
13817TIP3   OH241407   3.120   2.763   4.399
13817TIP3    H141408   3.091   2.677   4.429
13817TIP3    H241409   3.151   2.807   4.478
13818TIP3   OH241410   5.385   4.481   0.189
13818TIP3    H141411   5.293   4.484   0.163
13818TIP3    H241412   5.424   4.559   0.150
13819TIP3   OH241413   7.739   3.535   4.661
13819TIP3    H141414   7.708   3.553   4.573
13819TIP3    H241415   7.816   3.480   4.649
13820TIP3   OH241416   4.845   0.972   4.421
13820TIP3    H141417   4.751   0.989   4.418
13820TIP3    H241418   4.881   1.044   4.473
13821TIP3   OH241419   2.873   1.717   6.418
13821TIP3    H141420   2.865   1.628   6.453
13821TIP3    H241421   2.953   1.751   6.457
13822TIP3   OH241422   5.699   0.182   0.024
13822TIP3    H141423   5.683   0.101   0.073
13822TIP3    H241424   5.640   0.176  -0.051
13823TIP3   OH241425   4.883   1.580   5.527
13823TIP3    H141426   4.807   1.637   5.537
13823TIP3    H241427   4.861   1.502   5.578
13824TIP3   OH241428   2.459   0.577   3.011
13824TIP3    H141429   2.546   0.615   3.024
13824TIP3    H241430   2.436   0.599   2.921
13825TIP3   OH241431   4.053   0.033   2.792
13825TIP3    H141432   4.045  -0.041   2.852
13825TIP3    H241433   4.013   0.002   2.711
13826TIP3   OH241434   7.714   1.793   6.640
13826TIP3    H141435   7.784   1.730   6.629
13826TIP3    H241436   7.715   1.845   6.559
13827TIP3   OH241437   1.198   2.504   5.406
13827TIP3    H141438   1.257   2.508   5.331
13827TIP3    H241439   1.180   2.410   5.417
13828TIP3   OH241440   5.542   1.016   4.559
13828TIP3    H141441   5.557   1.072   4.483
13828TIP3    H241442   5.460   0.970   4.540
13829TIP3   OH241443   1.457   5.609   1.542
13829TIP3    H141444   1.552   5.612   1.547
13829TIP3    H241445   1.439   5.563   1.459
13830TIP3   OH241446   7.685   3.504   5.340
13830TIP3    H141447   7.758   3.458   5.299
13830TIP3    H241448   7.708   3.597   5.335
13831TIP3   OH241449   1.825   5.280   4.971
13831TIP3    H141450   1.816   5.375   4.962
13831TIP3    H241451   1.735   5.249   4.984
13832TIP3   OH241452   3.596   4.168   5.702
13832TIP3    H141453   3.625   4.211   5.782
13832TIP3    H241454   3.501   4.171   5.706
13833TIP3   OH241455   7.720   5.917   4.096
13833TIP3    H141456   7.714   5.892   4.004
13833TIP3    H241457   7.715   5.835   4.144
13834TIP3   OH241458   3.023   3.314   2.918
13834TIP3    H141459   3.028   3.269   2.834
13834TIP3    H241460   2.941   3.364   2.915
13835TIP3   OH241461   8.088   7.763   2.518
13835TIP3    H141462   8.103   7.704   2.592
13835TIP3    H241463   8.109   7.850   2.552
13836TIP3   OH241464   4.531   6.256   1.380
13836TIP3    H141465   4.589   6.315   1.332
13836TIP3    H241466   4.467   6.228   1.314
13837TIP3   OH241467   7.491   3.416   4.736
13837TIP3    H141468   7.441   3.495   4.715
13837TIP3    H241469   7.580   3.435   4.709
13838TIP3   OH241470   1.409   3.944   5.742
13838TIP3    H141471   1.445   4.032   5.748
13838TIP3    H241472   1.354   3.946   5.664
13839TIP3   OH241473   8.238   0.931   3.398
13839TIP3    H141474   8.150   0.931   3.358
13839TIP3    H241475   8.287   0.997   3.349
13840TIP3   OH241476   7.716   0.519   0.176
13840TIP3    H141477   7.734   0.576   0.251
13840TIP3    H241478   7.757   0.563   0.102
13841TIP3   OH241479   5.209   6.819   1.170
13841TIP3    H141480   5.294   6.793   1.206
13841TIP3    H241481   5.172   6.878   1.236
13842TIP3   OH241482   4.978   3.848   4.777
13842TIP3    H141483   5.071   3.863   4.764
13842TIP3    H241484   4.967   3.753   4.766
13843TIP3   OH241485   3.353   5.877   6.739
13843TIP3    H141486   3.447   5.861   6.725
13843TIP3    H241487   3.348   5.922   6.823
13844TIP3   OH241488   0.699   5.236   6.267
13844TIP3    H141489   0.730   5.146   6.280
13844TIP3    H241490   0.659   5.236   6.180
13845TIP3   OH241491   2.800   1.449   4.775
13845TIP3    H141492   2.844   1.463   4.859
13845TIP3    H241493   2.712   1.419   4.799
13846TIP3   OH241494   0.513   3.595   0.845
13846TIP3    H141495   0.497   3.619   0.754
13846TIP3    H241496   0.435   3.544   0.870
13847TIP3   OH241497   7.125   6.514   0.859
13847TIP3    H141498   7.093   6.425   0.847
13847TIP3    H241499   7.191   6.526   0.790
13848TIP3   OH241500   4.141   5.617   0.217
13848TIP3    H141501   4.122   5.549   0.281
13848TIP3    H241502   4.057   5.661   0.203
13849TIP3   OH241503   1.080   5.272   5.939
13849TIP3    H141504   1.151   5.335   5.931
13849TIP3    H241505   1.000   5.324   5.927
13850TIP3   OH241506   1.364   2.865   5.434
13850TIP3    H141507   1.389   2.831   5.348
13850TIP3    H241508   1.429   2.932   5.453
13851TIP3   OH241509   0.687   2.991   3.771
13851TIP3    H141510   0.632   3.037   3.707
13851TIP3    H241511   0.775   3.025   3.756
13852TIP3   OH241512   0.423   1.323   4.548
13852TIP3    H141513   0.422   1.229   4.566
13852TIP3    H241514   0.515   1.347   4.544
13853TIP3   OH241515   1.611   6.211   4.595
13853TIP3    H141516   1.664   6.154   4.539
13853TIP3    H241517   1.619   6.297   4.555
13854TIP3   OH241518   8.011   4.585   2.471
13854TIP3    H141519   8.058   4.661   2.506
13854TIP3    H241520   7.921   4.616   2.459
13855TIP3   OH241521   7.881   4.000   0.570
13855TIP3    H141522   7.916   4.078   0.611
13855TIP3    H241523   7.856   3.943   0.643
13856TIP3   OH241524   4.970   5.952   2.483
13856TIP3    H141525   4.894   5.904   2.517
13856TIP3    H241526   4.932   6.023   2.432
13857TIP3   OH241527   5.505   3.368   3.753
13857TIP3    H141528   5.414   3.385   3.728
13857TIP3    H241529   5.513   3.273   3.751
13858TIP3   OH241530   0.806   4.700   1.037
13858TIP3    H141531   0.901   4.695   1.045
13858TIP3    H241532   0.776   4.734   1.121
13859TIP3   OH241533   7.546   3.832   3.882
13859TIP3    H141534   7.599   3.793   3.952
13859TIP3    H241535   7.581   3.794   3.802
13860TIP3   OH241536   2.773   2.289   2.363
13860TIP3    H141537   2.868   2.293   2.375
13860TIP3    H241538   2.741   2.242   2.440
13861TIP3   OH241539   6.408   0.310   2.122
13861TIP3    H141540   6.438   0.349   2.204
13861TIP3    H241541   6.318   0.342   2.112
13862TIP3   OH241542   6.540   6.686   0.577
13862TIP3    H141543   6.467   6.740   0.550
13862TIP3    H241544   6.552   6.706   0.670
13863TIP3   OH241545   8.049   4.251   1.963
13863TIP3    H141546   8.110   4.286   1.898
13863TIP3    H241547   8.106   4.213   2.030
13864TIP3   OH241548   6.531   1.667   6.499
13864TIP3    H141549   6.468   1.736   6.481
13864TIP3    H241550   6.518   1.646   6.592
13865TIP3   OH241551   4.327   3.550   5.543
13865TIP3    H141552   4.279   3.608   5.602
13865TIP3    H241553   4.280   3.556   5.460
13866TIP3   OH241554   1.573   6.359   2.435
13866TIP3    H141555   1.615   6.289   2.384
13866TIP3    H241556   1.564   6.431   2.373
13867TIP3   OH241557   0.787   3.323   0.524
13867TIP3    H141558   0.864   3.279   0.561
13867TIP3    H241559   0.717   3.258   0.531
13868TIP3   OH241560   3.133   5.051   3.241
13868TIP3    H141561   3.168   5.126   3.289
13868TIP3    H241562   3.055   5.085   3.196
13869TIP3   OH241563   0.371   1.409   5.511
13869TIP3    H141564   0.373   1.415   5.416
13869TIP3    H241565   0.384   1.499   5.541
13870TIP3   OH241566   7.687   3.514   2.189
13870TIP3    H141567   7.630   3.441   2.164
13870TIP3    H241568   7.681   3.517   2.285
13871TIP3   OH241569   4.019   5.398   5.199
13871TIP3    H141570   4.065   5.391   5.115
13871TIP3    H241571   4.082   5.366   5.264
13872TIP3   OH241572   6.731   5.950   1.871
13872TIP3    H141573   6.695   6.036   1.848
13872TIP3    H241574   6.825   5.963   1.874
13873TIP3   OH241575   7.789   6.014   0.761
13873TIP3    H141576   7.839   6.095   0.757
13873TIP3    H241577   7.704   6.039   0.798
13874TIP3   OH241578   1.126   1.326   1.608
13874TIP3    H141579   1.156   1.410   1.573
13874TIP3    H241580   1.072   1.289   1.537
13875TIP3   OH241581   7.765   6.466   3.523
13875TIP3    H141582   7.674   6.496   3.517
13875TIP3    H241583   7.805   6.492   3.441
13876TIP3   OH241584   4.474   6.844   3.728
13876TIP3    H141585   4.399   6.874   3.676
13876TIP3    H241586   4.437   6.822   3.814
13877TIP3   OH241587   2.701   7.172   6.220
13877TIP3    H141588   2.683   7.258   6.183
13877TIP3    H241589   2.653   7.170   6.302
13878TIP3   OH241590   5.332   3.469   1.172
13878TIP3    H141591   5.288   3.390   1.140
13878TIP3    H241592   5.341   3.454   1.266
13879TIP3   OH241593   3.991   0.821   3.044
13879TIP3    H141594   4.061   0.846   2.983
13879TIP3    H241595   4.034   0.821   3.130
13880TIP3   OH241596   2.200   0.330   3.935
13880TIP3    H141597   2.137   0.280   3.882
13880TIP3    H241598   2.282   0.326   3.885
13881TIP3   OH241599   8.103   3.649   0.863
13881TIP3    H141600   8.111   3.554   0.871
13881TIP3    H241601   8.178   3.684   0.910
13882TIP3   OH241602   5.380   7.143   5.564
13882TIP3    H141603   5.285   7.149   5.550
13882TIP3    H241604   5.408   7.233   5.578
13883TIP3   OH241605   1.108   6.947   3.725
13883TIP3    H141606   1.189   6.909   3.691
13883TIP3    H241607   1.137   7.007   3.794
13884TIP3   OH241608   2.675   5.854   3.896
13884TIP3    H141609   2.687   5.925   3.833
13884TIP3    H241610   2.751   5.797   3.882
13885TIP3   OH241611   5.989   5.114   5.457
13885TIP3    H141612   5.948   5.120   5.371
13885TIP3    H241613   6.037   5.032   5.455
13886TIP3   OH241614   3.016   2.612   3.053
13886TIP3    H141615   3.013   2.538   3.114
13886TIP3    H241616   3.049   2.685   3.105
13887TIP3   OH241617   6.767   0.825   3.406
13887TIP3    H141618   6.721   0.909   3.417
13887TIP3    H241619   6.852   0.849   3.369
13888TIP3   OH241620   4.914   6.177   5.067
13888TIP3    H141621   4.963   6.255   5.041
13888TIP3    H241622   4.855   6.161   4.993
13889TIP3   OH241623   7.586   4.730   2.803
13889TIP3    H141624   7.531   4.659   2.771
13889TIP3    H241625   7.599   4.787   2.727
13890TIP3   OH241626   5.778   3.942   4.348
13890TIP3    H141627   5.749   3.938   4.256
13890TIP3    H241628   5.844   4.011   4.349
13891TIP3   OH241629   2.639   0.555   1.188
13891TIP3    H141630   2.682   0.560   1.274
13891TIP3    H241631   2.566   0.496   1.201
13892TIP3   OH241632   0.198   6.231   4.920
13892TIP3    H141633   0.274   6.255   4.973
13892TIP3    H241634   0.193   6.299   4.853
13893TIP3   OH241635   2.960   4.534   3.258
13893TIP3    H141636   2.876   4.490   3.246
13893TIP3    H241637   3.014   4.504   3.185
13894TIP3   OH241638   6.596   0.962   1.512
13894TIP3    H141639   6.653   0.991   1.584
13894TIP3    H241640   6.648   0.976   1.433
13895TIP3   OH241641   5.693   4.432   5.182
13895TIP3    H141642   5.650   4.368   5.239
13895TIP3    H241643   5.622   4.489   5.152
13896TIP3   OH241644   3.046   0.770   0.142
13896TIP3    H141645   2.984   0.769   0.215
13896TIP3    H241646   3.118   0.714   0.171
13897TIP3   OH241647   2.978   7.470   4.183
13897TIP3    H141648   2.890   7.502   4.202
13897TIP3    H241649   2.992   7.401   4.248
13898TIP3   OH241650   4.426   5.321   4.085
13898TIP3    H141651   4.412   5.235   4.125
13898TIP3    H241652   4.443   5.301   3.993
13899TIP3   OH241653   5.775   6.374   5.816
13899TIP3    H141654   5.681   6.355   5.828
13899TIP3    H241655   5.795   6.339   5.729
13900TIP3   OH241656   0.343   4.115   2.182
13900TIP3    H141657   0.381   4.197   2.213
13900TIP3    H241658   0.325   4.130   2.090
13901TIP3   OH241659   3.261   3.733   6.021
13901TIP3    H141660   3.350   3.745   6.055
13901TIP3    H241661   3.221   3.820   6.027
13902TIP3   OH241662   4.476   0.056   6.451
13902TIP3    H141663   4.480   0.046   6.546
13902TIP3    H241664   4.556   0.103   6.428
13903TIP3   OH241665   0.688   3.985   4.739
13903TIP3    H141666   0.625   4.009   4.670
13903TIP3    H241667   0.759   3.942   4.691
13904TIP3   OH241668   4.254   2.646   2.880
13904TIP3    H141669   4.266   2.553   2.861
13904TIP3    H241670   4.237   2.650   2.974
13905TIP3   OH241671   3.398   0.863   2.337
13905TIP3    H141672   3.400   0.949   2.379
13905TIP3    H241673   3.440   0.804   2.400
13906TIP3   OH241674   5.024   5.428   5.746
13906TIP3    H141675   5.045   5.467   5.661
13906TIP3    H241676   4.943   5.378   5.731
13907TIP3   OH241677   5.212   4.340   0.540
13907TIP3    H141678   5.190   4.352   0.447
13907TIP3    H241679   5.278   4.270   0.540
13908TIP3   OH241680   1.886   1.371   4.901
13908TIP3    H141681   1.869   1.279   4.881
13908TIP3    H241682   1.855   1.382   4.991
13909TIP3   OH241683   3.545   3.937   1.118
13909TIP3    H141684   3.616   3.876   1.099
13909TIP3    H241685   3.561   3.964   1.208
13910TIP3   OH241686   0.520   4.797   1.868
13910TIP3    H141687   0.567   4.876   1.894
13910TIP3    H241688   0.431   4.811   1.899
13911TIP3   OH241689   1.122   3.061   1.078
13911TIP3    H141690   1.034   3.042   1.110
13911TIP3    H241691   1.148   3.140   1.125
13912TIP3   OH241692   0.582   7.100   4.068
13912TIP3    H141693   0.562   7.047   3.991
13912TIP3    H241694   0.510   7.162   4.075
13913TIP3   OH241695   6.963   3.808   0.835
13913TIP3    H141696   6.971   3.772   0.923
13913TIP3    H241697   7.000   3.896   0.842
13914TIP3   OH241698   2.854   0.903   0.863
13914TIP3    H141699   2.940   0.943   0.856
13914TIP3    H241700   2.796   0.963   0.816
13915TIP3   OH241701   7.276   4.487   6.081
13915TIP3    H141702   7.184   4.484   6.108
13915TIP3    H241703   7.284   4.570   6.033
13916TIP3   OH241704   3.732   0.846   3.011
13916TIP3    H141705   3.825   0.834   2.993
13916TIP3    H241706   3.727   0.850   3.107
13917TIP3   OH241707   2.520   7.521   2.185
13917TIP3    H141708   2.478   7.511   2.270
13917TIP3    H241709   2.529   7.432   2.151
13918TIP3   OH241710   1.470   7.168   5.952
13918TIP3    H141711   1.466   7.261   5.974
13918TIP3    H241712   1.564   7.147   5.955
13919TIP3   OH241713   2.477   7.851   4.269
13919TIP3    H141714   2.442   7.768   4.301
13919TIP3    H241715   2.449   7.856   4.178
13920TIP3   OH241716   7.805   5.159   0.038
13920TIP3    H141717   7.804   5.252   0.059
13920TIP3    H241718   7.789   5.115   0.121
13921TIP3   OH241719   4.892   2.860   4.121
13921TIP3    H141720   4.923   2.841   4.209
13921TIP3    H241721   4.854   2.948   4.127
13922TIP3   OH241722   0.306   3.323   4.374
13922TIP3    H141723   0.344   3.247   4.418
13922TIP3    H241724   0.259   3.370   4.443
13923TIP3   OH241725   0.677   6.786   3.886
13923TIP3    H141726   0.683   6.712   3.826
13923TIP3    H241727   0.700   6.750   3.971
13924TIP3   OH241728   2.487   2.630   4.437
13924TIP3    H141729   2.417   2.571   4.464
13924TIP3    H241730   2.567   2.579   4.450
13925TIP3   OH241731   6.479   0.961   6.506
13925TIP3    H141732   6.423   0.894   6.545
13925TIP3    H241733   6.558   0.914   6.481
13926TIP3   OH241734   2.432   4.598   4.421
13926TIP3    H141735   2.392   4.588   4.335
13926TIP3    H241736   2.373   4.551   4.480
13927TIP3   OH241737   5.030   3.559   4.787
13927TIP3    H141738   4.956   3.524   4.738
13927TIP3    H241739   5.102   3.559   4.724
13928TIP3   OH241740   5.131   3.683   1.220
13928TIP3    H141741   5.211   3.632   1.227
13928TIP3    H241742   5.077   3.635   1.158
13929TIP3   OH241743   0.862   6.198   5.352
13929TIP3    H141744   0.929   6.176   5.288
13929TIP3    H241745   0.790   6.137   5.335
13930TIP3   OH241746   1.703   7.163   4.707
13930TIP3    H141747   1.646   7.148   4.782
13930TIP3    H241748   1.681   7.093   4.646
13931TIP3   OH241749   5.071   0.591   5.856
13931TIP3    H141750   5.082   0.498   5.834
13931TIP3    H241751   4.977   0.601   5.867
13932TIP3   OH241752   0.406   4.177   4.148
13932TIP3    H141753   0.472   4.131   4.199
13932TIP3    H241754   0.420   4.269   4.167
13933TIP3   OH241755   1.501   4.947   3.116
13933TIP3    H141756   1.585   4.927   3.075
13933TIP3    H241757   1.522   5.013   3.182
13934TIP3   OH241758   1.640   7.463   1.968
13934TIP3    H141759   1.604   7.413   1.895
13934TIP3    H241760   1.725   7.494   1.938
13935TIP3   OH241761   1.337   2.126   2.542
13935TIP3    H141762   1.266   2.178   2.503
13935TIP3    H241763   1.371   2.181   2.612
13936TIP3   OH241764   2.375   6.673   1.713
13936TIP3    H141765   2.312   6.679   1.784
13936TIP3    H241766   2.427   6.753   1.719
13937TIP3   OH241767   6.836   2.528   6.241
13937TIP3    H141768   6.848   2.454   6.182
13937TIP3    H241769   6.861   2.495   6.327
13938TIP3   OH241770   2.585   4.124   4.271
13938TIP3    H141771   2.565   4.090   4.358
13938TIP3    H241772   2.561   4.217   4.275
13939TIP3   OH241773   2.317   7.376   4.209
13939TIP3    H141774   2.318   7.452   4.151
13939TIP3    H241775   2.227   7.344   4.205
13940TIP3   OH241776   2.916   0.670   5.713
13940TIP3    H141777   2.870   0.732   5.657
13940TIP3    H241778   2.883   0.584   5.685
13941TIP3   OH241779   0.256   3.865  -0.006
13941TIP3    H141780   0.261   3.959   0.011
13941TIP3    H241781   0.163   3.847  -0.018
13942TIP3   OH241782   4.055   2.813   5.684
13942TIP3    H141783   4.124   2.821   5.619
13942TIP3    H241784   4.094   2.847   5.765
13943TIP3   OH241785   5.784   2.217   6.415
13943TIP3    H141786   5.697   2.223   6.376
13943TIP3    H241787   5.768   2.178   6.502
13944TIP3   OH241788   3.253   6.797   6.552
13944TIP3    H141789   3.312   6.721   6.551
13944TIP3    H241790   3.293   6.860   6.493
13945TIP3   OH241791   1.572   3.050   2.027
13945TIP3    H141792   1.582   3.141   2.055
13945TIP3    H241793   1.626   2.999   2.087
13946TIP3   OH241794   6.229   1.113   2.130
13946TIP3    H141795   6.202   1.152   2.047
13946TIP3    H241796   6.311   1.068   2.109
13947TIP3   OH241797   5.497   1.828   0.579
13947TIP3    H141798   5.583   1.786   0.578
13947TIP3    H241799   5.454   1.793   0.657
13948TIP3   OH241800   7.403   7.680   1.527
13948TIP3    H141801   7.315   7.656   1.499
13948TIP3    H241802   7.401   7.775   1.535
13949TIP3   OH241803   3.039   2.140   3.435
13949TIP3    H141804   2.952   2.180   3.432
13949TIP3    H241805   3.023   2.052   3.471
13950TIP3   OH241806   7.714   3.379   3.745
13950TIP3    H141807   7.625   3.414   3.747
13950TIP3    H241808   7.759   3.430   3.677
13951TIP3   OH241809   3.858   1.178   3.736
13951TIP3    H141810   3.920   1.110   3.710
13951TIP3    H241811   3.908   1.234   3.795
13952TIP3   OH241812   3.315   5.022   5.298
13952TIP3    H141813   3.409   5.011   5.306
13952TIP3    H241814   3.304   5.080   5.223
13953TIP3   OH241815   7.942   7.693   3.247
13953TIP3    H141816   7.880   7.647   3.191
13953TIP3    H241817   7.981   7.761   3.190
13954TIP3   OH241818   3.965   3.492   4.308
13954TIP3    H141819   3.899   3.462   4.245
13954TIP3    H241820   4.044   3.503   4.255
13955TIP3   OH241821   3.801   3.171   6.161
13955TIP3    H141822   3.734   3.168   6.093
13955TIP3    H241823   3.842   3.257   6.152
13956TIP3   OH241824   5.293   4.894   5.655
13956TIP3    H141825   5.286   4.810   5.699
13956TIP3    H241826   5.280   4.874   5.562
13957TIP3   OH241827   1.216   6.520   0.018
13957TIP3    H141828   1.239   6.509   0.111
13957TIP3    H241829   1.189   6.432  -0.010
13958TIP3   OH241830   7.563   5.557   4.626
13958TIP3    H141831   7.563   5.652   4.629
13958TIP3    H241832   7.656   5.533   4.625
13959TIP3   OH241833   8.114   1.761   2.387
13959TIP3    H141834   8.063   1.841   2.370
13959TIP3    H241835   8.174   1.755   2.313
13960TIP3   OH241836   7.520   7.143   1.287
13960TIP3    H141837   7.600   7.158   1.337
13960TIP3    H241838   7.512   7.047   1.282
13961TIP3   OH241839   4.715   7.469   2.508
13961TIP3    H141840   4.768   7.433   2.579
13961TIP3    H241841   4.656   7.397   2.483
13962TIP3   OH241842   8.121   4.052   6.700
13962TIP3    H141843   8.098   4.132   6.652
13962TIP3    H241844   8.123   3.984   6.633
13963TIP3   OH241845   1.292   1.557   0.581
13963TIP3    H141846   1.372   1.609   0.578
13963TIP3    H241847   1.315   1.474   0.539
13964TIP3   OH241848   0.645   5.647   5.136
13964TIP3    H141849   0.720   5.596   5.105
13964TIP3    H241850   0.621   5.702   5.062
13965TIP3   OH241851   4.899   5.291   5.039
13965TIP3    H141852   4.982   5.273   5.083
13965TIP3    H241853   4.885   5.216   4.982
13966TIP3   OH241854   6.973   4.741   5.491
13966TIP3    H141855   6.951   4.834   5.483
13966TIP3    H241856   7.036   4.737   5.563
13967TIP3   OH241857   1.209   0.044   1.694
13967TIP3    H141858   1.222   0.072   1.785
13967TIP3    H241859   1.196  -0.050   1.700
13968TIP3   OH241860   5.399   6.775   4.903
13968TIP3    H141861   5.457   6.719   4.852
13968TIP3    H241862   5.431   6.864   4.886
13969TIP3   OH241863   0.125   3.709   6.502
13969TIP3    H141864   0.185   3.645   6.464
13969TIP3    H241865   0.170   3.793   6.494
13970TIP3   OH241866   6.246   3.729   1.892
13970TIP3    H141867   6.151   3.728   1.878
13970TIP3    H241868   6.260   3.664   1.961
13971TIP3   OH241869   0.862   1.877   1.391
13971TIP3    H141870   0.877   1.845   1.302
13971TIP3    H241871   0.769   1.861   1.407
13972TIP3   OH241872   0.706   3.191   0.248
13972TIP3    H141873   0.785   3.239   0.272
13972TIP3    H241874   0.721   3.163   0.158
13973TIP3   OH241875   3.287   0.325   2.319
13973TIP3    H141876   3.320   0.244   2.279
13973TIP3    H241877   3.230   0.295   2.390
13974TIP3   OH241878   0.944   2.908   0.164
13974TIP3    H141879   0.980   2.971   0.226
13974TIP3    H241880   1.012   2.842   0.154
13975TIP3   OH241881   1.749   5.902   2.336
13975TIP3    H141882   1.727   5.809   2.345
13975TIP3    H241883   1.842   5.906   2.360
13976TIP3   OH241884   4.444   0.377   4.961
13976TIP3    H141885   4.479   0.391   5.049
13976TIP3    H241886   4.425   0.465   4.928
13977TIP3   OH241887   6.205   1.061   2.418
13977TIP3    H141888   6.283   1.102   2.454
13977TIP3    H241889   6.219   1.060   2.323
13978TIP3   OH241890   4.833   4.405   5.998
13978TIP3    H141891   4.747   4.431   6.031
13978TIP3    H241892   4.894   4.437   6.064
13979TIP3   OH241893   1.931   1.286   5.940
13979TIP3    H141894   2.017   1.276   5.979
13979TIP3    H241895   1.871   1.286   6.015
13980TIP3   OH241896   7.715   7.462   1.848
13980TIP3    H141897   7.782   7.453   1.917
13980TIP3    H241898   7.665   7.539   1.874
13981TIP3   OH241899   6.403   1.615   3.564
13981TIP3    H141900   6.495   1.622   3.591
13981TIP3    H241901   6.356   1.594   3.644
13982TIP3   OH241902   2.537   5.606   2.210
13982TIP3    H141903   2.465   5.660   2.242
13982TIP3    H241904   2.496   5.545   2.149
13983TIP3   OH241905   2.101   1.101   5.624
13983TIP3    H141906   2.190   1.120   5.652
13983TIP3    H241907   2.047   1.163   5.673
13984TIP3   OH241908   7.191   5.078   0.292
13984TIP3    H141909   7.116   5.025   0.316
13984TIP3    H241910   7.246   5.078   0.371
13985TIP3   OH241911   4.826   4.520   5.743
13985TIP3    H141912   4.832   4.454   5.812
13985TIP3    H241913   4.735   4.516   5.713
13986TIP3   OH241914   7.287   4.808   5.074
13986TIP3    H141915   7.373   4.840   5.103
13986TIP3    H241916   7.224   4.859   5.124
13987TIP3   OH241917   0.075   3.121   0.653
13987TIP3    H141918   0.142   3.081   0.597
13987TIP3    H241919   0.014   3.163   0.592
13988TIP3   OH241920   8.248   1.519   2.215
13988TIP3    H141921   8.215   1.453   2.154
13988TIP3    H241922   8.258   1.598   2.162
13989TIP3   OH241923   3.908   5.385   6.449
13989TIP3    H141924   3.915   5.480   6.439
13989TIP3    H241925   3.939   5.368   6.538
13990TIP3   OH241926   1.445   2.769   3.605
13990TIP3    H141927   1.403   2.811   3.529
13990TIP3    H241928   1.489   2.693   3.568
13991TIP3   OH241929   7.925   0.152   2.847
13991TIP3    H141930   8.011   0.114   2.833
13991TIP3    H241931   7.871   0.117   2.777
13992TIP3   OH241932   1.465   2.324   5.912
13992TIP3    H141933   1.523   2.400   5.903
13992TIP3    H241934   1.474   2.277   5.829
13993TIP3   OH241935   6.417   6.184   0.158
13993TIP3    H141936   6.480   6.119   0.188
13993TIP3    H241937   6.332   6.150   0.188
13994TIP3   OH241938   3.461   7.414   0.525
13994TIP3    H141939   3.438   7.355   0.453
13994TIP3    H241940   3.522   7.363   0.579
13995TIP3   OH241941   0.671   5.270   5.417
13995TIP3    H141942   0.724   5.348   5.397
13995TIP3    H241943   0.581   5.299   5.405
13996TIP3   OH241944   1.213   6.137   2.323
13996TIP3    H141945   1.237   6.226   2.348
13996TIP3    H241946   1.131   6.120   2.370
13997TIP3   OH241947   4.538   5.842   3.289
13997TIP3    H141948   4.561   5.810   3.376
13997TIP3    H241949   4.442   5.846   3.289
13998TIP3   OH241950   2.300   2.718   2.885
13998TIP3    H141951   2.363   2.788   2.897
13998TIP3    H241952   2.219   2.750   2.924
13999TIP3   OH241953   7.581   6.414   6.333
13999TIP3    H141954   7.492   6.382   6.318
13999TIP3    H241955   7.625   6.403   6.249
14000TIP3   OH241956   3.001   0.154   1.402
14000TIP3    H141957   3.039   0.207   1.332
14000TIP3    H241958   2.987   0.068   1.361
14001TIP3   OH241959   2.713   6.462   3.216
14001TIP3    H141960   2.761   6.514   3.151
14001TIP3    H241961   2.739   6.372   3.199
14002TIP3   OH241962   2.633   3.053   2.428
14002TIP3    H141963   2.591   2.968   2.440
14002TIP3    H241964   2.563   3.109   2.394
14003TIP3   OH241965   0.488   0.491   0.286
14003TIP3    H141966   0.447   0.577   0.275
14003TIP3    H241967   0.419   0.437   0.325
14004TIP3   OH241968   0.082   5.392   5.161
14004TIP3    H141969   0.008   5.385   5.221
14004TIP3    H241970   0.159   5.377   5.216
14005TIP3   OH241971   4.996   4.453   3.385
14005TIP3    H141972   4.990   4.416   3.297
14005TIP3    H241973   5.026   4.379   3.439
14006TIP3   OH241974   2.602   7.274   5.648
14006TIP3    H141975   2.519   7.252   5.606
14006TIP3    H241976   2.642   7.189   5.667
14007TIP3   OH241977   5.297   5.532   6.064
14007TIP3    H141978   5.323   5.510   5.975
14007TIP3    H241979   5.204   5.556   6.056
14008TIP3   OH241980   0.791   4.879   0.165
14008TIP3    H141981   0.814   4.876   0.258
14008TIP3    H241982   0.724   4.948   0.159
14009TIP3   OH241983   5.360   3.596   2.705
14009TIP3    H141984   5.366   3.688   2.728
14009TIP3    H241985   5.438   3.556   2.743
14010TIP3   OH241986   1.773   6.166   1.754
14010TIP3    H141987   1.770   6.090   1.813
14010TIP3    H241988   1.837   6.225   1.795
14011TIP3   OH241989   4.469   0.051   3.635
14011TIP3    H141990   4.518  -0.028   3.610
14011TIP3    H241991   4.521   0.089   3.707
14012TIP3   OH241992   5.436   4.657   4.794
14012TIP3    H141993   5.447   4.606   4.714
14012TIP3    H241994   5.519   4.648   4.840
14013TIP3   OH241995   2.115   4.952   2.297
14013TIP3    H141996   2.063   5.010   2.352
14013TIP3    H241997   2.190   5.005   2.269
14014TIP3   OH241998   1.827   5.241   0.819
14014TIP3    H141999   1.741   5.265   0.853
14014TIP3    H242000   1.860   5.176   0.882
14015TIP3   OH242001   5.710   6.378   4.621
14015TIP3    H142002   5.802   6.404   4.611
14015TIP3    H242003   5.689   6.334   4.538
14016TIP3   OH242004   1.464   6.031   6.462
14016TIP3    H142005   1.386   5.990   6.499
14016TIP3    H242006   1.431   6.099   6.404
14017TIP3   OH242007   1.003   7.710   2.240
14017TIP3    H142008   0.976   7.665   2.320
14017TIP3    H242009   1.098   7.721   2.250
14018TIP3   OH242010   2.600   6.819   2.093
14018TIP3    H142011   2.559   6.891   2.046
14018TIP3    H242012   2.690   6.817   2.060
14019TIP3   OH242013   0.629   4.006   1.119
14019TIP3    H142014   0.698   3.984   1.182
14019TIP3    H242015   0.662   3.971   1.036
14020TIP3   OH242016   7.683   2.415   0.141
14020TIP3    H142017   7.768   2.375   0.126
14020TIP3    H242018   7.703   2.503   0.172
14021TIP3   OH242019   7.081   3.985   2.213
14021TIP3    H142020   7.053   3.942   2.132
14021TIP3    H242021   7.176   3.997   2.203
14022TIP3   OH242022   2.691   1.232   1.863
14022TIP3    H142023   2.686   1.315   1.816
14022TIP3    H242024   2.625   1.238   1.931
14023TIP3   OH242025   6.013   0.441   6.257
14023TIP3    H142026   6.077   0.390   6.306
14023TIP3    H242027   6.038   0.532   6.272
14024TIP3   OH242028   5.486   4.945   0.894
14024TIP3    H142029   5.496   4.860   0.938
14024TIP3    H242030   5.575   4.977   0.883
14025TIP3   OH242031   5.726   3.500   0.513
14025TIP3    H142032   5.767   3.425   0.470
14025TIP3    H242033   5.661   3.531   0.450
14026TIP3   OH242034   4.060   6.338   2.132
14026TIP3    H142035   4.006   6.321   2.210
14026TIP3    H242036   4.005   6.394   2.077
14027TIP3   OH242037   4.743   7.153   0.844
14027TIP3    H142038   4.677   7.215   0.874
14027TIP3    H242039   4.823   7.206   0.835
14028TIP3   OH242040   3.161   1.633   5.681
14028TIP3    H142041   3.132   1.542   5.684
14028TIP3    H242042   3.098   1.680   5.735
14029TIP3   OH242043   3.429   3.878   3.369
14029TIP3    H142044   3.462   3.916   3.451
14029TIP3    H242045   3.433   3.783   3.384
14030TIP3   OH242046   1.673   0.358   1.884
14030TIP3    H142047   1.679   0.263   1.886
14030TIP3    H242048   1.727   0.385   1.810
14031TIP3   OH242049   6.174   2.302   2.696
14031TIP3    H142050   6.191   2.396   2.702
14031TIP3    H242051   6.119   2.293   2.618
14032TIP3   OH242052   1.434   4.656   1.707
14032TIP3    H142053   1.496   4.597   1.663
14032TIP3    H242054   1.425   4.730   1.648
14033TIP3   OH242055   7.451   2.179   5.760
14033TIP3    H142056   7.380   2.235   5.792
14033TIP3    H242057   7.528   2.208   5.810
14034TIP3   OH242058   0.329   5.413   6.447
14034TIP3    H142059   0.403   5.457   6.407
14034TIP3    H242060   0.324   5.328   6.404
14035TIP3   OH242061   3.315   1.954   5.007
14035TIP3    H142062   3.360   2.034   4.980
14035TIP3    H242063   3.265   1.980   5.085
14036TIP3   OH242064   7.078   7.329   2.687
14036TIP3    H142065   7.036   7.293   2.765
14036TIP3    H242066   7.042   7.417   2.679
14037TIP3   OH242067   5.485   2.229   3.482
14037TIP3    H142068   5.507   2.168   3.412
14037TIP3    H242069   5.431   2.296   3.440
14038TIP3   OH242070   2.550   0.427   2.063
14038TIP3    H142071   2.626   0.428   2.006
14038TIP3    H242072   2.586   0.420   2.152
14039TIP3   OH242073   7.692   0.941   0.102
14039TIP3    H142074   7.701   1.010   0.167
14039TIP3    H242075   7.617   0.890   0.131
14040TIP3   OH242076   0.128   2.627   6.217
14040TIP3    H142077   0.200   2.582   6.174
14040TIP3    H242078   0.169   2.703   6.259
14041TIP3   OH242079   1.545   3.595   5.643
14041TIP3    H142080   1.464   3.546   5.655
14041TIP3    H242081   1.593   3.583   5.725
14042TIP3   OH242082   0.741   2.777   6.157
14042TIP3    H142083   0.672   2.735   6.106
14042TIP3    H242084   0.736   2.870   6.133
14043TIP3   OH242085   0.312   7.397   4.967
14043TIP3    H142086   0.264   7.315   4.980
14043TIP3    H242087   0.391   7.387   5.021
14044TIP3   OH242088   4.601   2.369   6.419
14044TIP3    H142089   4.663   2.311   6.461
14044TIP3    H242090   4.533   2.311   6.384
14045TIP3   OH242091   6.105   5.920   1.200
14045TIP3    H142092   6.148   5.870   1.130
14045TIP3    H242093   6.046   5.980   1.154
14046TIP3   OH242094   1.297   6.924   6.425
14046TIP3    H142095   1.361   6.854   6.413
14046TIP3    H242096   1.319   6.988   6.357
14047TIP3   OH242097   6.572   7.304   4.464
14047TIP3    H142098   6.579   7.274   4.555
14047TIP3    H242099   6.499   7.254   4.428
14048TIP3   OH242100   0.705   0.417   2.410
14048TIP3    H142101   0.734   0.343   2.358
14048TIP3    H242102   0.669   0.479   2.347
14049TIP3   OH242103   5.469   0.936   2.977
14049TIP3    H142104   5.517   1.018   2.966
14049TIP3    H242105   5.450   0.932   3.071
14050TIP3   OH242106   1.307   4.369   3.833
14050TIP3    H142107   1.283   4.321   3.912
14050TIP3    H242108   1.392   4.408   3.854
14051TIP3   OH242109   6.947   4.379   3.242
14051TIP3    H142110   6.979   4.336   3.162
14051TIP3    H242111   6.959   4.472   3.225
14052TIP3   OH242112   0.836   5.366   4.744
14052TIP3    H142113   0.918   5.340   4.786
14052TIP3    H242114   0.854   5.451   4.704
14053TIP3   OH242115   1.360   7.460   1.116
14053TIP3    H142116   1.438   7.486   1.067
14053TIP3    H242117   1.287   7.477   1.056
14054TIP3   OH242118   3.727   7.716   3.643
14054TIP3    H142119   3.753   7.776   3.713
14054TIP3    H242120   3.695   7.773   3.573
14055TIP3   OH242121   3.401   4.061   2.153
14055TIP3    H142122   3.466   4.117   2.195
14055TIP3    H242123   3.327   4.060   2.214
14056TIP3   OH242124   2.683   0.126   5.446
14056TIP3    H142125   2.598   0.161   5.473
14056TIP3    H242126   2.742   0.201   5.446
14057TIP3   OH242127   6.382   4.570   3.140
14057TIP3    H142128   6.475   4.569   3.162
14057TIP3    H242129   6.360   4.663   3.134
14058TIP3   OH242130   4.410   5.793   4.795
14058TIP3    H142131   4.348   5.735   4.751
14058TIP3    H242132   4.398   5.878   4.751
14059TIP3   OH242133   0.616   6.070   5.296
14059TIP3    H142134   0.591   6.015   5.222
14059TIP3    H242135   0.540   6.069   5.354
14060TIP3   OH242136   6.611   2.629   4.771
14060TIP3    H142137   6.706   2.626   4.781
14060TIP3    H242138   6.577   2.609   4.858
14061TIP3   OH242139   1.277   3.960   5.477
14061TIP3    H142140   1.268   3.916   5.392
14061TIP3    H242141   1.228   4.042   5.467
14062TIP3   OH242142   8.120   4.965   3.595
14062TIP3    H142143   8.056   5.010   3.541
14062TIP3    H242144   8.154   4.895   3.540
14063TIP3   OH242145   7.866   4.803   3.357
14063TIP3    H142146   7.868   4.758   3.272
14063TIP3    H242147   7.850   4.895   3.334
14064TIP3   OH242148   6.606   2.003   0.404
14064TIP3    H142149   6.590   2.034   0.315
14064TIP3    H242150   6.544   1.931   0.415
14065TIP3   OH242151   6.785   3.800   6.451
14065TIP3    H142152   6.833   3.874   6.413
14065TIP3    H242153   6.699   3.803   6.409
14066TIP3   OH242154   3.783   3.398   1.536
14066TIP3    H142155   3.714   3.404   1.602
14066TIP3    H242156   3.832   3.319   1.560
14067TIP3   OH242157   5.975   0.910   1.216
14067TIP3    H142158   6.049   0.887   1.160
14067TIP3    H242159   5.934   0.827   1.238
14068TIP3   OH242160   7.812   4.877   0.529
14068TIP3    H142161   7.883   4.938   0.549
14068TIP3    H242162   7.821   4.807   0.594
14069TIP3   OH242163   3.320   3.467   2.271
14069TIP3    H142164   3.239   3.506   2.237
14069TIP3    H242165   3.362   3.427   2.194
14070TIP3   OH242166   2.740   1.459   4.189
14070TIP3    H142167   2.817   1.498   4.231
14070TIP3    H242168   2.754   1.364   4.197
14071TIP3   OH242169   2.717   4.924   2.665
14071TIP3    H142170   2.656   4.965   2.726
14071TIP3    H242171   2.708   4.975   2.584
14072TIP3   OH242172   3.967   6.672   5.503
14072TIP3    H142173   4.038   6.714   5.455
14072TIP3    H242174   4.010   6.632   5.579
14073TIP3   OH242175   1.092   2.067   1.683
14073TIP3    H142176   1.015   2.105   1.642
14073TIP3    H242177   1.066   2.053   1.774
14074TIP3   OH242178   8.153   6.900   6.309
14074TIP3    H142179   8.072   6.864   6.346
14074TIP3    H242180   8.123   6.969   6.250
14075TIP3   OH242181   8.077   1.835   1.939
14075TIP3    H142182   8.134   1.909   1.959
14075TIP3    H242183   8.136   1.768   1.904
14076TIP3   OH242184   2.999   7.555   3.468
14076TIP3    H142185   3.056   7.617   3.513
14076TIP3    H242186   3.053   7.477   3.457
14077TIP3   OH242187   4.289   6.620   1.674
14077TIP3    H142188   4.379   6.589   1.672
14077TIP3    H242189   4.278   6.666   1.591
14078TIP3   OH242190   5.649   1.798   4.384
14078TIP3    H142191   5.627   1.774   4.294
14078TIP3    H242192   5.686   1.886   4.377
14079TIP3   OH242193   4.958   1.055   3.029
14079TIP3    H142194   4.876   1.096   3.055
14079TIP3    H242195   4.961   1.067   2.934
14080TIP3   OH242196   7.496   4.100   3.453
14080TIP3    H142197   7.477   4.025   3.396
14080TIP3    H242198   7.411   4.141   3.468
14081TIP3   OH242199   4.711   1.597   6.338
14081TIP3    H142200   4.649   1.539   6.380
14081TIP3    H242201   4.657   1.664   6.296
14082TIP3   OH242202   1.042   3.043   0.379
14082TIP3    H142203   1.034   3.087   0.463
14082TIP3    H242204   1.107   3.094   0.331
14083TIP3   OH242205   2.975   5.118   3.518
14083TIP3    H142206   2.949   5.030   3.544
14083TIP3    H242207   2.907   5.147   3.458
14084TIP3   OH242208   5.790   1.898   6.344
14084TIP3    H142209   5.816   1.975   6.394
14084TIP3    H242210   5.865   1.839   6.349
14085TIP3   OH242211   2.947   5.755   4.266
14085TIP3    H142212   2.918   5.795   4.349
14085TIP3    H242213   2.953   5.828   4.205
14086TIP3   OH242214   1.149   7.606   0.055
14086TIP3    H142215   1.110   7.630  -0.029
14086TIP3    H242216   1.150   7.510   0.055
14087TIP3   OH242217   0.409   1.127   5.594
14087TIP3    H142218   0.425   1.212   5.554
14087TIP3    H242219   0.483   1.073   5.566
14088TIP3   OH242220   5.732   1.373   4.387
14088TIP3    H142221   5.679   1.325   4.323
14088TIP3    H242222   5.671   1.437   4.424
14089TIP3   OH242223   1.942   4.077   0.197
14089TIP3    H142224   1.884   4.005   0.223
14089TIP3    H242225   1.902   4.113   0.118
14090TIP3   OH242226   5.869   6.875   1.154
14090TIP3    H142227   5.782   6.906   1.129
14090TIP3    H242228   5.853   6.807   1.219
14091TIP3   OH242229   4.138   3.246   5.589
14091TIP3    H142230   4.229   3.270   5.571
14091TIP3    H242231   4.135   3.151   5.576
14092TIP3   OH242232   0.871   4.604   1.881
14092TIP3    H142233   0.856   4.646   1.796
14092TIP3    H242234   0.842   4.669   1.945
14093TIP3   OH242235   8.096   2.908   0.541
14093TIP3    H142236   8.058   2.820   0.546
14093TIP3    H242237   8.191   2.894   0.539
14094TIP3   OH242238   2.611   7.703   1.063
14094TIP3    H142239   2.546   7.751   1.010
14094TIP3    H242240   2.665   7.772   1.101
14095TIP3   OH242241   7.626   7.772   2.020
14095TIP3    H142242   7.541   7.747   2.057
14095TIP3    H242243   7.627   7.868   2.023
14096TIP3   OH242244   7.064   6.017   5.246
14096TIP3    H142245   7.075   5.933   5.203
14096TIP3    H242246   7.074   5.999   5.340
14097TIP3   OH242247   6.423   2.887   5.012
14097TIP3    H142248   6.460   2.974   5.027
14097TIP3    H242249   6.347   2.883   5.070
14098TIP3   OH242250   1.179   6.684   4.234
14098TIP3    H142251   1.167   6.596   4.198
14098TIP3    H242252   1.116   6.690   4.305
14099TIP3   OH242253   5.008   4.169   1.901
14099TIP3    H142254   5.040   4.217   1.824
14099TIP3    H242255   4.955   4.099   1.865
14100TIP3   OH242256   0.934   4.194   4.062
14100TIP3    H142257   0.904   4.188   4.152
14100TIP3    H242258   1.023   4.229   4.068
14101TIP3   OH242259   2.735   1.094   3.193
14101TIP3    H142260   2.669   1.094   3.124
14101TIP3    H242261   2.685   1.085   3.275
14102TIP3   OH242262   5.007   4.830   2.357
14102TIP3    H142263   5.084   4.785   2.392
14102TIP3    H242264   4.981   4.778   2.281
14103TIP3   OH242265   1.560   3.702   5.236
14103TIP3    H142266   1.573   3.609   5.252
14103TIP3    H242267   1.635   3.744   5.279
14104TIP3   OH242268   6.179   4.551   2.857
14104TIP3    H142269   6.176   4.492   2.782
14104TIP3    H242270   6.272   4.570   2.869
14105TIP3   OH242271   1.326   7.000   0.998
14105TIP3    H142272   1.234   7.019   0.982
14105TIP3    H242273   1.351   6.942   0.926
14106TIP3   OH242274   3.259   2.089   1.566
14106TIP3    H142275   3.301   2.174   1.550
14106TIP3    H242276   3.326   2.025   1.541
14107TIP3   OH242277   6.363   7.663   4.161
14107TIP3    H142278   6.310   7.741   4.146
14107TIP3    H242279   6.392   7.671   4.252
14108TIP3   OH242280   1.689   0.065   5.522
14108TIP3    H142281   1.729  -0.004   5.471
14108TIP3    H242282   1.677   0.137   5.460
14109TIP3   OH242283   4.524   0.097   2.705
14109TIP3    H142284   4.429   0.087   2.697
14109TIP3    H242285   4.536   0.183   2.746
14110TIP3   OH242286   4.504   3.602   6.386
14110TIP3    H142287   4.428   3.546   6.374
14110TIP3    H242288   4.521   3.600   6.480
14111TIP3   OH242289   1.863   7.778   4.144
14111TIP3    H142290   1.826   7.725   4.215
14111TIP3    H242291   1.791   7.788   4.082
14112TIP3   OH242292   1.963   5.606   1.856
14112TIP3    H142293   1.913   5.596   1.775
14112TIP3    H242294   1.910   5.665   1.910
14113TIP3   OH242295   7.585   2.636   3.825
14113TIP3    H142296   7.637   2.688   3.887
14113TIP3    H242297   7.642   2.564   3.800
14114TIP3   OH242298   6.861   0.716   0.064
14114TIP3    H142299   6.951   0.693   0.040
14114TIP3    H242300   6.814   0.633   0.059
14115TIP3   OH242301   5.251   4.808   2.115
14115TIP3    H142302   5.327   4.763   2.153
14115TIP3    H242303   5.193   4.737   2.086
14116TIP3   OH242304   2.559   3.609   6.639
14116TIP3    H142305   2.628   3.648   6.586
14116TIP3    H242306   2.536   3.677   6.702
14117TIP3   OH242307   0.084   7.345   0.549
14117TIP3    H142308   0.061   7.327   0.640
14117TIP3    H242309   0.177   7.323   0.543
14118TIP3   OH242310   7.360   3.672   2.342
14118TIP3    H142311   7.351   3.582   2.310
14118TIP3    H242312   7.419   3.714   2.280
14119TIP3   OH242313   5.409   1.783   5.811
14119TIP3    H142314   5.346   1.728   5.764
14119TIP3    H242315   5.393   1.871   5.778
14120TIP3   OH242316   7.925   3.905   2.360
14120TIP3    H142317   8.018   3.892   2.382
14120TIP3    H242318   7.895   3.818   2.334
14121TIP3   OH242319   2.358   7.320   1.515
14121TIP3    H142320   2.413   7.287   1.585
14121TIP3    H242321   2.274   7.339   1.556
14122TIP3   OH242322   1.035   2.534   3.543
14122TIP3    H142323   1.060   2.486   3.621
14122TIP3    H242324   1.064   2.624   3.560
14123TIP3   OH242325   0.775   1.211   5.086
14123TIP3    H142326   0.816   1.297   5.072
14123TIP3    H242327   0.803   1.185   5.173
14124TIP3   OH242328   1.608   3.852   4.178
14124TIP3    H142329   1.635   3.775   4.128
14124TIP3    H242330   1.670   3.857   4.251
14125TIP3   OH242331   1.554   5.342   5.390
14125TIP3    H142332   1.463   5.340   5.419
14125TIP3    H242333   1.569   5.434   5.366
14126TIP3   OH242334   4.135   1.642   0.219
14126TIP3    H142335   4.077   1.714   0.193
14126TIP3    H242336   4.103   1.615   0.305
14127TIP3   OH242337   6.656   2.236   2.855
14127TIP3    H142338   6.752   2.228   2.860
14127TIP3    H242339   6.630   2.174   2.787
14128TIP3   OH242340   0.249   2.175   5.213
14128TIP3    H142341   0.266   2.269   5.203
14128TIP3    H242342   0.162   2.170   5.253
14129TIP3   OH242343   3.928   6.001   6.004
14129TIP3    H142344   3.883   6.070   5.955
14129TIP3    H242345   3.880   5.921   5.982
14130TIP3   OH242346   7.569   1.097   5.973
14130TIP3    H142347   7.519   1.088   6.055
14130TIP3    H242348   7.590   1.007   5.948
14131TIP3   OH242349   6.318   7.186   1.350
14131TIP3    H142350   6.364   7.121   1.404
14131TIP3    H242351   6.340   7.161   1.260
14132TIP3   OH242352   2.340   0.975   5.455
14132TIP3    H142353   2.284   1.008   5.385
14132TIP3    H242354   2.371   1.053   5.500
14133TIP3   OH242355   3.446   5.057   3.372
14133TIP3    H142356   3.536   5.088   3.372
14133TIP3    H242357   3.394   5.132   3.399
14134TIP3   OH242358   3.868   5.937   2.053
14134TIP3    H142359   3.807   5.977   1.992
14134TIP3    H242360   3.824   5.857   2.082
14135TIP3   OH242361   4.777   0.880   1.066
14135TIP3    H142362   4.822   0.818   1.123
14135TIP3    H242363   4.847   0.934   1.029
14136TIP3   OH242364   5.591   1.202   5.795
14136TIP3    H142365   5.546   1.285   5.777
14136TIP3    H242366   5.664   1.200   5.733
14137TIP3   OH242367   1.208   4.115   2.142
14137TIP3    H142368   1.149   4.136   2.214
14137TIP3    H242369   1.209   4.194   2.088
14138TIP3   OH242370   1.490   5.736   3.864
14138TIP3    H142371   1.451   5.817   3.831
14138TIP3    H242372   1.416   5.685   3.897
14139TIP3   OH242373   2.070   0.598   0.806
14139TIP3    H142374   2.163   0.609   0.823
14139TIP3    H242375   2.026   0.649   0.874
14140TIP3   OH242376   4.469   4.891   4.899
14140TIP3    H142377   4.455   4.796   4.903
14140TIP3    H242378   4.546   4.901   4.844
14141TIP3   OH242379   1.449   4.252   3.309
14141TIP3    H142380   1.484   4.240   3.397
14141TIP3    H242381   1.360   4.217   3.313
14142TIP3   OH242382   2.949   4.608   2.341
14142TIP3    H142383   2.899   4.535   2.377
14142TIP3    H242384   2.952   4.672   2.412
14143TIP3   OH242385   6.217   2.037   2.749
14143TIP3    H142386   6.183   2.025   2.660
14143TIP3    H242387   6.212   2.131   2.765
14144TIP3   OH242388   2.928   0.004   2.167
14144TIP3    H142389   2.835   0.022   2.181
14144TIP3    H242390   2.956   0.072   2.106
14145TIP3   OH242391   0.119   1.060   1.755
14145TIP3    H142392   0.051   1.008   1.798
14145TIP3    H242393   0.148   1.122   1.822
14146TIP3   OH242394   7.693   6.868   1.470
14146TIP3    H142395   7.692   6.829   1.557
14146TIP3    H242396   7.636   6.812   1.417
14147TIP3   OH242397   3.575   5.253   2.808
14147TIP3    H142398   3.513   5.319   2.839
14147TIP3    H242399   3.522   5.196   2.751
14148TIP3   OH242400   5.853   2.100   0.453
14148TIP3    H142401   5.897   2.180   0.426
14148TIP3    H242402   5.863   2.098   0.548
14149TIP3   OH242403   7.817   2.274   0.668
14149TIP3    H142404   7.830   2.196   0.722
14149TIP3    H242405   7.797   2.344   0.730
14150TIP3   OH242406   1.284   5.419   6.655
14150TIP3    H142407   1.246   5.498   6.616
14150TIP3    H242408   1.218   5.351   6.640
14151TIP3   OH242409   2.096   3.360   2.232
14151TIP3    H142410   2.129   3.278   2.196
14151TIP3    H242411   2.039   3.334   2.304
14152TIP3   OH242412   1.524   3.600   1.050
14152TIP3    H142413   1.493   3.690   1.055
14152TIP3    H242414   1.480   3.565   0.972
14153TIP3   OH242415   5.052   5.628   2.356
14153TIP3    H142416   4.991   5.631   2.429
14153TIP3    H242417   5.112   5.556   2.378
14154TIP3   OH242418   3.438   3.260   0.735
14154TIP3    H142419   3.524   3.298   0.752
14154TIP3    H242420   3.444   3.170   0.769
14155TIP3   OH242421   6.844   5.163   2.646
14155TIP3    H142422   6.871   5.251   2.620
14155TIP3    H242423   6.898   5.104   2.593
14156TIP3   OH242424   1.352   0.155   0.575
14156TIP3    H142425   1.279   0.195   0.529
14156TIP3    H242426   1.328   0.160   0.668
14157TIP3   OH242427   5.672   7.414   2.257
14157TIP3    H142428   5.753   7.381   2.295
14157TIP3    H242429   5.686   7.409   2.162
14158TIP3   OH242430   7.383   2.991   3.614
14158TIP3    H142431   7.406   2.911   3.662
14158TIP3    H242432   7.312   2.964   3.556
14159TIP3   OH242433   3.555   6.029   5.920
14159TIP3    H142434   3.571   6.041   5.826
14159TIP3    H242435   3.583   6.111   5.960
14160TIP3   OH242436   0.218   5.777   6.124
14160TIP3    H142437   0.310   5.763   6.101
14160TIP3    H242438   0.197   5.862   6.087
14161TIP3   OH242439   4.655   6.145   5.863
14161TIP3    H142440   4.563   6.121   5.867
14161TIP3    H242441   4.656   6.234   5.828
14162TIP3   OH242442   3.569   7.061   3.679
14162TIP3    H142443   3.633   7.046   3.609
14162TIP3    H242444   3.562   7.157   3.684
14163TIP3   OH242445   7.887   3.809   4.732
14163TIP3    H142446   7.878   3.811   4.827
14163TIP3    H242447   7.853   3.723   4.706
14164TIP3   OH242448   5.463   2.557   3.745
14164TIP3    H142449   5.435   2.611   3.819
14164TIP3    H242450   5.408   2.479   3.750
14165TIP3   OH242451   1.655   6.789   4.086
14165TIP3    H142452   1.726   6.786   4.151
14165TIP3    H242453   1.575   6.788   4.139
14166TIP3   OH242454   1.065   1.397   2.042
14166TIP3    H142455   1.057   1.475   1.987
14166TIP3    H242456   1.083   1.432   2.129
14167TIP3   OH242457   6.174   2.736   5.974
14167TIP3    H142458   6.095   2.789   5.987
14167TIP3    H242459   6.242   2.799   5.950
14168TIP3   OH242460   4.762   3.707   5.037
14168TIP3    H142461   4.707   3.754   4.974
14168TIP3    H242462   4.843   3.757   5.040
14169TIP3   OH242463   7.978   7.603   3.517
14169TIP3    H142464   7.925   7.614   3.438
14169TIP3    H242465   7.966   7.684   3.566
14170TIP3   OH242466   2.629   7.551   1.400
14170TIP3    H142467   2.568   7.488   1.361
14170TIP3    H242468   2.700   7.497   1.436
14171TIP3   OH242469   7.039   0.587   1.272
14171TIP3    H142470   7.132   0.606   1.262
14171TIP3    H242471   7.018   0.529   1.199
14172TIP3   OH242472   1.806   1.338   2.923
14172TIP3    H142473   1.855   1.417   2.945
14172TIP3    H242474   1.798   1.341   2.828
14173TIP3   OH242475   0.528   0.456   3.003
14173TIP3    H142476   0.557   0.545   2.986
14173TIP3    H242477   0.518   0.417   2.916
14174TIP3   OH242478   2.141   4.656   6.296
14174TIP3    H142479   2.046   4.644   6.307
14174TIP3    H242480   2.151   4.674   6.203
14175TIP3   OH242481   4.397   0.741   0.299
14175TIP3    H142482   4.479   0.782   0.268
14175TIP3    H242483   4.418   0.711   0.387
14176TIP3   OH242484   3.843   3.966   2.819
14176TIP3    H142485   3.905   3.997   2.753
14176TIP3    H242486   3.806   3.886   2.782
14177TIP3   OH242487   0.994   6.008   0.543
14177TIP3    H142488   1.025   6.077   0.485
14177TIP3    H242489   1.073   5.976   0.587
14178TIP3   OH242490   3.760   2.735   1.110
14178TIP3    H142491   3.830   2.673   1.130
14178TIP3    H242492   3.790   2.818   1.146
14179TIP3   OH242493   0.339   7.758   0.301
14179TIP3    H142494   0.419   7.706   0.309
14179TIP3    H242495   0.347   7.825   0.369
14180TIP3   OH242496   2.895   2.695   2.820
14180TIP3    H142497   2.900   2.791   2.823
14180TIP3    H242498   2.925   2.667   2.907
14181TIP3   OH242499   2.566   5.782   3.554
14181TIP3    H142500   2.536   5.855   3.607
14181TIP3    H242501   2.656   5.804   3.531
14182TIP3   OH242502   0.315   1.615   4.532
14182TIP3    H142503   0.235   1.622   4.583
14182TIP3    H242504   0.330   1.521   4.522
14183TIP3   OH242505   0.536   7.205   2.683
14183TIP3    H142506   0.602   7.241   2.741
14183TIP3    H242507   0.559   7.113   2.673
14184TIP3   OH242508   4.340   3.393   6.279
14184TIP3    H142509   4.304   3.326   6.221
14184TIP3    H242510   4.264   3.428   6.326
14185TIP3   OH242511   0.346   3.560   1.509
14185TIP3    H142512   0.288   3.601   1.445
14185TIP3    H242513   0.288   3.524   1.576
14186TIP3   OH242514   7.112   1.050   6.740
14186TIP3    H142515   7.156   1.071   6.658
14186TIP3    H242516   7.173   0.993   6.787
14187TIP3   OH242517   1.559   7.521   1.313
14187TIP3    H142518   1.485   7.577   1.334
14187TIP3    H242519   1.540   7.488   1.225
14188TIP3   OH242520   3.456   4.297   1.674
14188TIP3    H142521   3.367   4.269   1.654
14188TIP3    H242522   3.469   4.270   1.765
14189TIP3   OH242523   2.314   1.805   2.534
14189TIP3    H142524   2.369   1.784   2.610
14189TIP3    H242525   2.325   1.729   2.475
14190TIP3   OH242526   2.847   0.639   6.045
14190TIP3    H142527   2.864   0.599   5.960
14190TIP3    H242528   2.930   0.632   6.092
14191TIP3   OH242529   3.932   1.282   0.434
14191TIP3    H142530   3.936   1.187   0.427
14191TIP3    H242531   3.838   1.303   0.427
14192TIP3   OH242532   4.932   6.498   1.492
14192TIP3    H142533   5.023   6.485   1.519
14192TIP3    H242534   4.929   6.461   1.403
14193TIP3   OH242535   3.205   4.806   6.106
14193TIP3    H142536   3.173   4.737   6.048
14193TIP3    H242537   3.126   4.843   6.145
14194TIP3   OH242538   0.356   1.343   2.595
14194TIP3    H142539   0.355   1.282   2.669
14194TIP3    H242540   0.312   1.296   2.525
14195TIP3   OH242541   4.250   7.400   5.490
14195TIP3    H142542   4.265   7.363   5.403
14195TIP3    H242543   4.192   7.337   5.533
14196TIP3   OH242544   7.678   1.713   3.094
14196TIP3    H142545   7.606   1.760   3.136
14196TIP3    H242546   7.641   1.678   3.014
14197TIP3   OH242547   6.685   7.554   0.311
14197TIP3    H142548   6.704   7.645   0.287
14197TIP3    H242549   6.672   7.557   0.406
14198TIP3   OH242550   7.300   6.551   4.024
14198TIP3    H142551   7.268   6.519   4.109
14198TIP3    H242552   7.284   6.479   3.963
14199TIP3   OH242553   5.641   0.335   2.806
14199TIP3    H142554   5.580   0.367   2.872
14199TIP3    H242555   5.647   0.241   2.823
14200TIP3   OH242556   0.302   4.065   6.193
14200TIP3    H142557   0.257   4.115   6.125
14200TIP3    H242558   0.350   4.131   6.242
14201TIP3   OH242559   2.525   4.957   0.693
14201TIP3    H142560   2.539   5.030   0.633
14201TIP3    H242561   2.440   4.921   0.667
14202TIP3   OH242562   1.736   1.687   0.939
14202TIP3    H142563   1.660   1.630   0.939
14202TIP3    H242564   1.751   1.707   1.032
14203TIP3   OH242565   6.497   5.577   2.516
14203TIP3    H142566   6.570   5.537   2.563
14203TIP3    H242567   6.480   5.659   2.562
14204TIP3   OH242568   0.597   3.100   0.566
14204TIP3    H142569   0.656   3.026   0.580
14204TIP3    H242570   0.599   3.115   0.471
14205TIP3   OH242571   7.050   2.791   5.135
14205TIP3    H142572   7.096   2.855   5.188
14205TIP3    H242573   6.965   2.781   5.178
14206TIP3   OH242574   5.235   6.210   4.929
14206TIP3    H142575   5.307   6.237   4.871
14206TIP3    H242576   5.278   6.192   5.012
14207TIP3   OH242577   8.080   4.215   5.312
14207TIP3    H142578   8.149   4.166   5.267
14207TIP3    H242579   8.000   4.167   5.291
14208TIP3   OH242580   7.708   4.731   3.568
14208TIP3    H142581   7.791   4.697   3.534
14208TIP3    H242582   7.682   4.799   3.505
14209TIP3   OH242583   7.512   6.665   6.047
14209TIP3    H142584   7.544   6.732   6.107
14209TIP3    H242585   7.429   6.636   6.085
14210TIP3   OH242586   6.484   0.454   4.461
14210TIP3    H142587   6.394   0.421   4.462
14210TIP3    H242588   6.476   0.545   4.488
14211TIP3   OH242589   1.815   2.975   3.737
14211TIP3    H142590   1.802   3.065   3.767
14211TIP3    H242591   1.831   2.983   3.643
14212TIP3   OH242592   7.754   6.085   4.696
14212TIP3    H142593   7.840   6.075   4.738
14212TIP3    H242594   7.746   6.008   4.640
14213TIP3   OH242595   1.034   1.275   4.244
14213TIP3    H142596   1.125   1.276   4.273
14213TIP3    H242597   1.039   1.254   4.151
14214TIP3   OH242598   2.802   7.758   2.342
14214TIP3    H142599   2.811   7.663   2.351
14214TIP3    H242600   2.710   7.775   2.361
14215TIP3   OH242601   7.745   3.569   3.003
14215TIP3    H142602   7.814   3.563   2.937
14215TIP3    H242603   7.694   3.646   2.978
14216TIP3   OH242604   4.729   7.527   0.484
14216TIP3    H142605   4.679   7.446   0.478
14216TIP3    H242606   4.664   7.595   0.498
14217TIP3   OH242607   3.392   0.500   2.142
14217TIP3    H142608   3.362   0.431   2.202
14217TIP3    H242609   3.460   0.546   2.190
14218TIP3   OH242610   5.895   1.612   0.961
14218TIP3    H142611   5.804   1.603   0.989
14218TIP3    H242612   5.946   1.567   1.028
14219TIP3   OH242613   6.961   4.297   2.177
14219TIP3    H142614   7.024   4.259   2.239
14219TIP3    H242615   6.897   4.342   2.233
14220TIP3   OH242616   3.903   5.233   1.616
14220TIP3    H142617   3.952   5.213   1.537
14220TIP3    H242618   3.966   5.277   1.673
14221TIP3   OH242619   2.241   3.081   4.168
14221TIP3    H142620   2.320   3.094   4.115
14221TIP3    H242621   2.231   2.986   4.174
14222TIP3   OH242622   5.175   5.370   0.802
14222TIP3    H142623   5.233   5.404   0.734
14222TIP3    H242624   5.234   5.327   0.864
14223TIP3   OH242625   6.508   6.390   6.545
14223TIP3    H142626   6.579   6.359   6.488
14223TIP3    H242627   6.550   6.450   6.606
14224TIP3   OH242628   0.216   2.348   5.447
14224TIP3    H142629   0.212   2.441   5.467
14224TIP3    H242630   0.307   2.333   5.421
14225TIP3   OH242631   2.741   5.569   6.041
14225TIP3    H142632   2.674   5.593   6.105
14225TIP3    H242633   2.693   5.559   5.959
14226TIP3   OH242634   7.791   6.639   2.162
14226TIP3    H142635   7.768   6.553   2.197
14226TIP3    H242636   7.820   6.689   2.238
14227TIP3   OH242637   4.166   2.629   1.014
14227TIP3    H142638   4.172   2.674   0.930
14227TIP3    H242639   4.117   2.549   0.996
14228TIP3   OH242640   1.103   5.362   4.186
14228TIP3    H142641   1.196   5.368   4.209
14228TIP3    H242642   1.059   5.341   4.269
14229TIP3   OH242643   0.409   6.020   0.405
14229TIP3    H142644   0.457   6.091   0.364
14229TIP3    H242645   0.319   6.032   0.376
14230TIP3   OH242646   3.146   0.766   6.076
14230TIP3    H142647   3.210   0.695   6.064
14230TIP3    H242648   3.120   0.790   5.987
14231TIP3   OH242649   3.377   7.537   5.315
14231TIP3    H142650   3.472   7.546   5.314
14231TIP3    H242651   3.361   7.455   5.363
14232TIP3   OH242652   3.261   3.735   0.351
14232TIP3    H142653   3.179   3.737   0.400
14232TIP3    H242654   3.291   3.644   0.357
14233TIP3   OH242655   2.663   6.260   4.988
14233TIP3    H142656   2.698   6.170   4.985
14233TIP3    H242657   2.599   6.258   5.059
14234TIP3   OH242658   2.531   3.270   2.116
14234TIP3    H142659   2.497   3.331   2.050
14234TIP3    H242660   2.606   3.228   2.073
14235TIP3   OH242661   7.684   0.140   2.590
14235TIP3    H142662   7.648   0.051   2.583
14235TIP3    H242663   7.653   0.171   2.675
14236TIP3   OH242664   0.623   4.006   3.252
14236TIP3    H142665   0.655   3.945   3.318
14236TIP3    H242666   0.701   4.057   3.227
14237TIP3   OH242667   6.078   5.105   0.099
14237TIP3    H142668   6.086   5.010   0.093
14237TIP3    H242669   6.093   5.136   0.009
14238TIP3   OH242670   3.317   1.512   0.260
14238TIP3    H142671   3.334   1.432   0.212
14238TIP3    H242672   3.236   1.496   0.307
14239TIP3   OH242673   5.479   5.962   1.207
14239TIP3    H142674   5.545   6.010   1.257
14239TIP3    H242675   5.419   6.029   1.176
14240TIP3   OH242676   6.768   1.458   3.984
14240TIP3    H142677   6.675   1.459   4.009
14240TIP3    H242678   6.812   1.506   4.054
14241TIP3   OH242679   0.584   5.751   1.071
14241TIP3    H142680   0.659   5.747   1.011
14241TIP3    H242681   0.606   5.821   1.132
14242TIP3   OH242682   7.168   3.389   0.704
14242TIP3    H142683   7.108   3.427   0.640
14242TIP3    H242684   7.161   3.294   0.691
14243TIP3   OH242685   7.816   7.101   5.573
14243TIP3    H142686   7.790   7.061   5.656
14243TIP3    H242687   7.747   7.164   5.554
14244TIP3   OH242688   3.728   6.567   3.836
14244TIP3    H142689   3.737   6.495   3.898
14244TIP3    H242690   3.700   6.641   3.889
14245TIP3   OH242691   3.970   3.029   2.804
14245TIP3    H142692   3.958   3.041   2.710
14245TIP3    H242693   4.065   3.021   2.815
14246TIP3   OH242694   6.383   7.622   6.333
14246TIP3    H142695   6.321   7.672   6.385
14246TIP3    H242696   6.463   7.621   6.385
14247TIP3   OH242697   3.023   6.295   1.458
14247TIP3    H142698   3.019   6.274   1.551
14247TIP3    H242699   2.934   6.320   1.435
14248TIP3   OH242700   7.393   4.989   3.962
14248TIP3    H142701   7.475   4.998   3.914
14248TIP3    H242702   7.326   4.981   3.893
14249TIP3   OH242703   7.152   1.621   3.471
14249TIP3    H142704   7.073   1.660   3.509
14249TIP3    H242705   7.160   1.537   3.516
14250TIP3   OH242706   1.576   5.311   3.108
14250TIP3    H142707   1.669   5.325   3.093
14250TIP3    H242708   1.542   5.280   3.023
14251TIP3   OH242709   0.490   2.645   4.820
14251TIP3    H142710   0.426   2.575   4.814
14251TIP3    H242711   0.439   2.723   4.841
14252TIP3   OH242712   0.852   6.754   1.903
14252TIP3    H142713   0.799   6.707   1.968
14252TIP3    H242714   0.789   6.807   1.854
14253TIP3   OH242715   4.924   5.007   4.924
14253TIP3    H142716   4.862   4.990   4.853
14253TIP3    H242717   5.010   4.986   4.887
14254TIP3   OH242718   1.359   2.859   3.913
14254TIP3    H142719   1.397   2.930   3.965
14254TIP3    H242720   1.280   2.897   3.875
14255TIP3   OH242721   2.551   4.347   0.655
14255TIP3    H142722   2.585   4.270   0.609
14255TIP3    H242723   2.599   4.421   0.617
14256TIP3   OH242724   7.053   0.893   1.830
14256TIP3    H142725   7.014   0.980   1.823
14256TIP3    H242726   6.977   0.834   1.832
14257TIP3   OH242727   4.328   1.374   0.442
14257TIP3    H142728   4.295   1.463   0.456
14257TIP3    H242729   4.298   1.351   0.354
14258TIP3   OH242730   0.425   0.338   6.285
14258TIP3    H142731   0.340   0.381   6.296
14258TIP3    H242732   0.443   0.300   6.371
14259TIP3   OH242733   4.015   2.254   6.407
14259TIP3    H142734   4.111   2.249   6.404
14259TIP3    H242735   3.996   2.290   6.493
14260TIP3   OH242736   3.045   3.508   0.560
14260TIP3    H142737   3.125   3.558   0.575
14260TIP3    H242738   3.070   3.417   0.577
14261TIP3   OH242739   5.013   7.595   4.084
14261TIP3    H142740   4.935   7.598   4.029
14261TIP3    H242741   5.007   7.673   4.139
14262TIP3   OH242742   5.891   4.145   1.475
14262TIP3    H142743   5.876   4.114   1.564
14262TIP3    H242744   5.983   4.127   1.458
14263TIP3   OH242745   2.459   3.965   4.100
14263TIP3    H142746   2.526   4.011   4.151
14263TIP3    H242747   2.440   3.886   4.151
14264TIP3   OH242748   1.882   2.679   6.402
14264TIP3    H142749   1.973   2.650   6.408
14264TIP3    H242750   1.833   2.601   6.377
14265TIP3   OH242751   1.239   4.114   4.928
14265TIP3    H142752   1.145   4.101   4.917
14265TIP3    H242753   1.278   4.028   4.915
14266TIP3   OH242754   4.758   6.950   2.719
14266TIP3    H142755   4.717   6.871   2.682
14266TIP3    H242756   4.799   6.919   2.800
14267TIP3   OH242757   7.390   6.186   6.605
14267TIP3    H142758   7.299   6.196   6.635
14267TIP3    H242759   7.383   6.169   6.511
14268TIP3   OH242760   0.667   0.037   4.009
14268TIP3    H142761   0.601   0.107   4.006
14268TIP3    H242762   0.716   0.047   3.927
14269TIP3   OH242763   0.258   2.595   3.954
14269TIP3    H142764   0.346   2.579   3.989
14269TIP3    H242765   0.211   2.513   3.969
14270TIP3   OH242766   4.056   5.085   2.860
14270TIP3    H142767   4.134   5.104   2.807
14270TIP3    H242768   3.997   5.158   2.843
14271TIP3   OH242769   6.990   1.012   2.723
14271TIP3    H142770   7.010   1.103   2.746
14271TIP3    H242771   6.965   1.016   2.631
14272TIP3   OH242772   5.793   7.574   1.713
14272TIP3    H142773   5.774   7.495   1.662
14272TIP3    H242774   5.880   7.558   1.749
14273TIP3   OH242775   2.489   4.366   4.126
14273TIP3    H142776   2.488   4.297   4.059
14273TIP3    H242777   2.408   4.415   4.113
14274TIP3   OH242778   2.470   0.818   4.001
14274TIP3    H142779   2.565   0.825   4.011
14274TIP3    H242780   2.435   0.857   4.082
14275TIP3   OH242781   3.363   2.379   6.254
14275TIP3    H142782   3.342   2.304   6.198
14275TIP3    H242783   3.331   2.354   6.340
14276TIP3   OH242784   3.369   0.296   1.967
14276TIP3    H142785   3.362   0.302   1.871
14276TIP3    H242786   3.385   0.386   1.995
14277TIP3   OH242787   0.404   5.160   6.181
14277TIP3    H142788   0.356   5.110   6.115
14277TIP3    H242789   0.375   5.124   6.265
14278TIP3   OH242790   0.313   5.166   4.737
14278TIP3    H142791   0.310   5.146   4.831
14278TIP3    H242792   0.404   5.189   4.721
14279TIP3   OH242793   6.137   4.559   5.407
14279TIP3    H142794   6.141   4.480   5.354
14279TIP3    H242795   6.217   4.557   5.459
14280TIP3   OH242796   6.080   4.553   1.261
14280TIP3    H142797   6.025   4.482   1.227
14280TIP3    H242798   6.068   4.625   1.199
14281TIP3   OH242799   4.865   3.906   1.724
14281TIP3    H142800   4.824   3.971   1.668
14281TIP3    H242801   4.921   3.856   1.666
14282TIP3   OH242802   0.931   6.880   0.519
14282TIP3    H142803   0.951   6.852   0.609
14282TIP3    H242804   1.012   6.921   0.489
14283TIP3   OH242805   7.697   5.356   0.941
14283TIP3    H142806   7.668   5.440   0.907
14283TIP3    H242807   7.791   5.366   0.954
14284TIP3   OH242808   5.944   7.286   2.613
14284TIP3    H142809   5.946   7.230   2.690
14284TIP3    H242810   6.036   7.307   2.597
14285TIP3   OH242811   2.637   0.178   2.598
14285TIP3    H142812   2.729   0.204   2.593
14285TIP3    H242813   2.605   0.221   2.678
14286TIP3   OH242814   5.680   5.318   1.283
14286TIP3    H142815   5.589   5.346   1.294
14286TIP3    H242816   5.732   5.395   1.305
14287TIP3   OH242817   7.106   2.024   6.277
14287TIP3    H142818   7.156   1.987   6.350
14287TIP3    H242819   7.172   2.071   6.226
14288TIP3   OH242820   3.781   1.738   5.610
14288TIP3    H142821   3.785   1.823   5.655
14288TIP3    H242822   3.704   1.744   5.554
14289TIP3   OH242823   5.638   3.275   0.344
14289TIP3    H142824   5.554   3.234   0.322
14289TIP3    H242825   5.626   3.367   0.323
14290TIP3   OH242826   0.424   3.091   1.433
14290TIP3    H142827   0.397   3.141   1.510
14290TIP3    H242828   0.348   3.095   1.374
14291TIP3   OH242829   2.695   3.078   4.234
14291TIP3    H142830   2.669   3.122   4.315
14291TIP3    H242831   2.675   2.986   4.250
14292TIP3   OH242832   5.597   1.769   4.107
14292TIP3    H142833   5.566   1.723   4.029
14292TIP3    H242834   5.600   1.861   4.080
14293TIP3   OH242835   4.108   2.896   1.945
14293TIP3    H142836   4.145   2.983   1.930
14293TIP3    H242837   4.019   2.913   1.976
14294TIP3   OH242838   2.063   1.815   4.773
14294TIP3    H142839   2.078   1.750   4.841
14294TIP3    H242840   2.093   1.897   4.811
14295TIP3   OH242841   5.203   6.613   6.435
14295TIP3    H142842   5.160   6.568   6.508
14295TIP3    H242843   5.253   6.684   6.476
14296TIP3   OH242844   1.270   7.737   3.357
14296TIP3    H142845   1.352   7.783   3.342
14296TIP3    H242846   1.273   7.711   3.449
14297TIP3   OH242847   7.202   1.573   4.955
14297TIP3    H142848   7.264   1.630   5.000
14297TIP3    H242849   7.256   1.507   4.912
14298TIP3   OH242850   4.732   7.526   2.233
14298TIP3    H142851   4.715   7.510   2.325
14298TIP3    H242852   4.668   7.472   2.186
14299TIP3   OH242853   7.584   3.139   3.433
14299TIP3    H142854   7.652   3.076   3.457
14299TIP3    H242855   7.509   3.115   3.488
14300TIP3   OH242856   6.488   6.212   4.109
14300TIP3    H142857   6.411   6.155   4.105
14300TIP3    H242858   6.546   6.171   4.173
14301TIP3   OH242859   7.355   1.893   6.451
14301TIP3    H142860   7.412   1.820   6.473
14301TIP3    H242861   7.383   1.921   6.364
14302TIP3   OH242862   7.688   3.502   1.101
14302TIP3    H142863   7.640   3.554   1.165
14302TIP3    H242864   7.624   3.482   1.033
14303TIP3   OH242865   7.498   0.566   1.201
14303TIP3    H142866   7.511   0.650   1.159
14303TIP3    H242867   7.429   0.582   1.266
14304TIP3   OH242868   6.854   7.195   3.570
14304TIP3    H142869   6.936   7.179   3.523
14304TIP3    H242870   6.874   7.265   3.631
14305TIP3   OH242871   6.528   4.124   1.213
14305TIP3    H142872   6.525   4.218   1.230
14305TIP3    H242873   6.604   4.113   1.156
14306TIP3   OH242874   6.446   3.236   1.049
14306TIP3    H142875   6.468   3.307   0.988
14306TIP3    H242876   6.489   3.159   1.011
14307TIP3   OH242877   1.368   1.188   3.698
14307TIP3    H142878   1.306   1.237   3.753
14307TIP3    H242879   1.320   1.172   3.617
14308TIP3   OH242880   2.201  -0.033   5.898
14308TIP3    H142881   2.222   0.006   5.813
14308TIP3    H242882   2.218   0.037   5.962
14309TIP3   OH242883   6.633   3.606   1.850
14309TIP3    H142884   6.704   3.621   1.787
14309TIP3    H242885   6.609   3.694   1.879
14310TIP3   OH242886   4.196   2.382   3.863
14310TIP3    H142887   4.115   2.431   3.853
14310TIP3    H242888   4.261   2.431   3.812
14311TIP3   OH242889   6.630   3.500   6.269
14311TIP3    H142890   6.551   3.491   6.322
14311TIP3    H242891   6.607   3.563   6.201
14312TIP3   OH242892   4.690   4.855   0.746
14312TIP3    H142893   4.641   4.925   0.790
14312TIP3    H242894   4.624   4.812   0.691
14313TIP3   OH242895   4.596   7.280   0.609
14313TIP3    H142896   4.590   7.199   0.659
14313TIP3    H242897   4.505   7.311   0.602
14314TIP3   OH242898   1.232   1.264   5.744
14314TIP3    H142899   1.221   1.170   5.735
14314TIP3    H242900   1.316   1.283   5.703
14315TIP3   OH242901   7.502   6.901   5.278
14315TIP3    H142902   7.476   6.821   5.232
14315TIP3    H242903   7.564   6.870   5.345
14316TIP3   OH242904   5.448   4.099   6.697
14316TIP3    H142905   5.459   4.013   6.737
14316TIP3    H242906   5.362   4.095   6.654
14317TIP3   OH242907   5.847   3.052   5.699
14317TIP3    H142908   5.877   2.996   5.771
14317TIP3    H242909   5.775   3.004   5.659
14318TIP3   OH242910   2.298   6.061   0.623
14318TIP3    H142911   2.369   6.119   0.650
14318TIP3    H242912   2.333   6.016   0.546
14319TIP3   OH242913   8.162   5.820   4.864
14319TIP3    H142914   8.225   5.886   4.894
14319TIP3    H242915   8.121   5.789   4.945
14320TIP3   OH242916   5.064   4.798   6.114
14320TIP3    H142917   5.148   4.758   6.091
14320TIP3    H242918   5.075   4.891   6.097
14321TIP3   OH242919   2.044   5.659   5.731
14321TIP3    H142920   1.967   5.634   5.782
14321TIP3    H242921   2.045   5.597   5.658
14322TIP3   OH242922   0.655   4.343   2.758
14322TIP3    H142923   0.630   4.424   2.802
14322TIP3    H242924   0.680   4.371   2.670
14323TIP3   OH242925   5.274   4.533   3.917
14323TIP3    H142926   5.305   4.508   4.004
14323TIP3    H242927   5.341   4.501   3.857
14324TIP3   OH242928   7.812   4.360   3.230
14324TIP3    H142929   7.806   4.304   3.152
14324TIP3    H242930   7.850   4.304   3.297
14325TIP3   OH242931   0.748   7.016   4.965
14325TIP3    H142932   0.780   7.045   5.050
14325TIP3    H242933   0.664   6.974   4.984
14326TIP3   OH242934   1.619   4.019   2.131
14326TIP3    H142935   1.544   3.970   2.096
14326TIP3    H242936   1.684   4.017   2.062
14327TIP3   OH242937   1.215   3.234   0.252
14327TIP3    H142938   1.236   3.233   0.345
14327TIP3    H242939   1.287   3.284   0.212
14328TIP3   OH242940   0.095   7.705   6.263
14328TIP3    H142941   0.121   7.660   6.183
14328TIP3    H242942   0.168   7.763   6.283
14329TIP3   OH242943   3.072   4.728   4.561
14329TIP3    H142944   2.997   4.773   4.523
14329TIP3    H242945   3.045   4.637   4.569
14330TIP3   OH242946   2.706   5.187   5.828
14330TIP3    H142947   2.707   5.248   5.902
14330TIP3    H242948   2.719   5.243   5.751
14331TIP3   OH242949   2.315   2.275   1.423
14331TIP3    H142950   2.248   2.322   1.473
14331TIP3    H242951   2.310   2.185   1.453
14332TIP3   OH242952   1.007   0.373   2.406
14332TIP3    H142953   0.931   0.314   2.401
14332TIP3    H242954   0.969   0.459   2.422
14333TIP3   OH242955   0.723   6.718   3.543
14333TIP3    H142956   0.762   6.803   3.523
14333TIP3    H242957   0.646   6.713   3.487
14334TIP3   OH242958   5.528   2.665   5.867
14334TIP3    H142959   5.546   2.756   5.892
14334TIP3    H242960   5.452   2.671   5.810
14335TIP3   OH242961   6.425   6.678   1.396
14335TIP3    H142962   6.498   6.687   1.456
14335TIP3    H242963   6.351   6.653   1.451
14336TIP3   OH242964   7.974   4.395   5.793
14336TIP3    H142965   7.993   4.429   5.705
14336TIP3    H242966   8.045   4.430   5.847
14337TIP3   OH242967   6.942   0.587   4.134
14337TIP3    H142968   6.998   0.549   4.066
14337TIP3    H242969   6.854   0.581   4.098
14338TIP3   OH242970   5.294   7.252   6.696
14338TIP3    H142971   5.329   7.267   6.608
14338TIP3    H242972   5.200   7.246   6.684
14339TIP3   OH242973   6.083   7.775   0.988
14339TIP3    H142974   5.997   7.811   0.963
14339TIP3    H242975   6.090   7.694   0.936
14340TIP3   OH242976   4.801   2.101   0.615
14340TIP3    H142977   4.821   2.104   0.708
14340TIP3    H242978   4.862   2.164   0.576
14341TIP3   OH242979   7.125   5.348   1.393
14341TIP3    H142980   7.041   5.394   1.396
14341TIP3    H242981   7.188   5.409   1.431
14342TIP3   OH242982   1.991   3.585   2.080
14342TIP3    H142983   2.051   3.550   2.146
14342TIP3    H242984   1.941   3.652   2.125
14343TIP3   OH242985   2.008   4.197   1.115
14343TIP3    H142986   2.096   4.225   1.091
14343TIP3    H242987   1.958   4.279   1.124
14344TIP3   OH242988   5.411   4.181   0.595
14344TIP3    H142989   5.446   4.174   0.684
14344TIP3    H242990   5.471   4.241   0.551
14345TIP3   OH242991   8.279   2.371   1.180
14345TIP3    H142992   8.234   2.292   1.207
14345TIP3    H242993   8.336   2.343   1.108
14346TIP3   OH242994   4.560   7.808   0.481
14346TIP3    H142995   4.504   7.752   0.535
14346TIP3    H242996   4.517   7.893   0.481
14347TIP3   OH242997   5.626   5.876   2.288
14347TIP3    H142998   5.555   5.935   2.263
14347TIP3    H242999   5.617   5.801   2.228
14348TIP3   OH243000   8.281   2.423   0.381
14348TIP3    H143001   8.349   2.372   0.339
14348TIP3    H243002   8.248   2.367   0.451
14349TIP3   OH243003   7.021   4.124   5.031
14349TIP3    H143004   6.995   4.202   4.983
14349TIP3    H243005   6.945   4.065   5.025
14350TIP3   OH243006   1.697   6.556   5.775
14350TIP3    H143007   1.712   6.498   5.850
14350TIP3    H243008   1.780   6.557   5.728
14351TIP3   OH243009   8.113   1.016   3.635
14351TIP3    H143010   8.088   1.091   3.581
14351TIP3    H243011   8.149   0.953   3.573
14352TIP3   OH243012   3.237   6.264   1.299
14352TIP3    H143013   3.159   6.290   1.347
14352TIP3    H243014   3.309   6.282   1.359
14353TIP3   OH243015   4.886   0.614   6.434
14353TIP3    H143016   4.875   0.595   6.527
14353TIP3    H243017   4.816   0.678   6.415
14354TIP3   OH243018   7.322   5.096   3.187
14354TIP3    H143019   7.328   5.079   3.093
14354TIP3    H243020   7.390   5.162   3.204
14355TIP3   OH243021   3.808   5.130   5.047
14355TIP3    H143022   3.877   5.180   5.003
14355TIP3    H243023   3.853   5.086   5.120
14356TIP3   OH243024   5.620   6.187   6.267
14356TIP3    H143025   5.580   6.252   6.325
14356TIP3    H243026   5.684   6.142   6.322
14357TIP3   OH243027   3.340   1.270   6.604
14357TIP3    H143028   3.284   1.227   6.539
14357TIP3    H243029   3.334   1.363   6.582
14358TIP3   OH243030   3.296   0.806   4.533
14358TIP3    H143031   3.338   0.801   4.447
14358TIP3    H243032   3.266   0.897   4.539
14359TIP3   OH243033   0.157   0.838   1.610
14359TIP3    H143034   0.163   0.919   1.659
14359TIP3    H243035   0.207   0.774   1.661
14360TIP3   OH243036   4.334   4.061   5.665
14360TIP3    H143037   4.405   4.062   5.601
14360TIP3    H243038   4.282   4.138   5.644
14361TIP3   OH243039   3.432   2.423   0.073
14361TIP3    H143040   3.376   2.346   0.077
14361TIP3    H243041   3.387   2.481   0.011
14362TIP3   OH243042   7.907   0.004   1.383
14362TIP3    H143043   7.996  -0.031   1.388
14362TIP3    H243044   7.903   0.069   1.453
14363TIP3   OH243045   4.061   2.934   6.181
14363TIP3    H143046   4.023   2.991   6.247
14363TIP3    H243047   3.986   2.908   6.126
14364TIP3   OH243048   6.462   5.584   5.070
14364TIP3    H143049   6.478   5.490   5.082
14364TIP3    H243050   6.492   5.602   4.981
14365TIP3   OH243051   3.816   3.923   3.529
14365TIP3    H143052   3.721   3.909   3.523
14365TIP3    H243053   3.828   4.015   3.505
14366TIP3   OH243054   7.803   4.821   5.014
14366TIP3    H143055   7.859   4.899   5.011
14366TIP3    H243056   7.863   4.750   5.036
14367TIP3   OH243057   2.988   3.411   2.396
14367TIP3    H143058   3.049   3.339   2.379
14367TIP3    H243059   2.917   3.398   2.333
14368TIP3   OH243060   2.629   6.421   0.888
14368TIP3    H143061   2.553   6.409   0.944
14368TIP3    H243062   2.621   6.510   0.855
14369TIP3   OH243063   2.077   4.275   1.497
14369TIP3    H143064   2.040   4.192   1.467
14369TIP3    H243065   2.168   4.273   1.467
14370TIP3   OH243066   5.661   3.852   0.174
14370TIP3    H143067   5.697   3.809   0.251
14370TIP3    H243068   5.706   3.937   0.172
14371TIP3   OH243069   4.596   7.409   4.541
14371TIP3    H143070   4.523   7.448   4.590
14371TIP3    H243071   4.641   7.484   4.501
14372TIP3   OH243072   7.393   5.899   3.899
14372TIP3    H143073   7.354   5.981   3.928
14372TIP3    H243074   7.380   5.898   3.804
14373TIP3   OH243075   4.041   7.369   6.751
14373TIP3    H143076   4.072   7.381   6.662
14373TIP3    H243077   4.057   7.277   6.771
14374TIP3   OH243078   2.780   4.830   3.094
14374TIP3    H143079   2.749   4.745   3.063
14374TIP3    H243080   2.834   4.810   3.170
14375TIP3   OH243081   2.036   4.994   4.090
14375TIP3    H143082   2.057   4.977   3.998
14375TIP3    H243083   1.986   4.917   4.118
14376TIP3   OH243084   0.080  -0.010   1.329
14376TIP3    H143085   0.084   0.037   1.412
14376TIP3    H243086   0.168   0.000   1.292
14377TIP3   OH243087   1.065   7.739   5.621
14377TIP3    H143088   1.023   7.676   5.680
14377TIP3    H243089   0.992   7.781   5.575
14378TIP3   OH243090   4.608   0.904   3.282
14378TIP3    H143091   4.613   0.837   3.214
14378TIP3    H243092   4.585   0.855   3.361
14379TIP3   OH243093   5.633   3.073   2.107
14379TIP3    H143094   5.595   2.995   2.147
14379TIP3    H243095   5.727   3.054   2.103
14380TIP3   OH243096   3.123   0.774   4.756
14380TIP3    H143097   3.178   0.775   4.677
14380TIP3    H243098   3.158   0.843   4.811
14381TIP3   OH243099   5.258   0.383   1.915
14381TIP3    H143100   5.299   0.317   1.971
14381TIP3    H243101   5.331   0.420   1.865
14382TIP3   OH243102   4.250   6.331   2.861
14382TIP3    H143103   4.187   6.352   2.792
14382TIP3    H243104   4.212   6.257   2.907
14383TIP3   OH243105   5.364   4.375   2.739
14383TIP3    H143106   5.330   4.314   2.804
14383TIP3    H243107   5.318   4.352   2.658
14384TIP3   OH243108   1.095   4.498   1.325
14384TIP3    H143109   1.062   4.566   1.384
14384TIP3    H243110   1.187   4.487   1.351
14385TIP3   OH243111   1.364   5.157   6.335
14385TIP3    H143112   1.431   5.194   6.392
14385TIP3    H243113   1.310   5.232   6.310
14386TIP3   OH243114   0.374   3.554   5.390
14386TIP3    H143115   0.379   3.562   5.486
14386TIP3    H243116   0.326   3.631   5.362
14387TIP3   OH243117   7.907   6.606   0.257
14387TIP3    H143118   7.833   6.573   0.308
14387TIP3    H243119   7.871   6.626   0.171
14388TIP3   OH243120   1.649   7.478   2.970
14388TIP3    H143121   1.689   7.430   2.898
14388TIP3    H243122   1.656   7.570   2.945
14389TIP3   OH243123   6.247   0.211   0.863
14389TIP3    H143124   6.194   0.156   0.922
14389TIP3    H243125   6.184   0.244   0.799
14390TIP3   OH243126   1.762   5.958   4.192
14390TIP3    H143127   1.718   5.875   4.174
14390TIP3    H243128   1.842   5.955   4.139
14391TIP3   OH243129   7.031   5.944   3.542
14391TIP3    H143130   7.006   5.855   3.563
14391TIP3    H243131   6.953   5.981   3.500
14392TIP3   OH243132   2.096   5.370   0.941
14392TIP3    H143133   2.026   5.316   0.905
14392TIP3    H243134   2.064   5.395   1.028
14393TIP3   OH243135   0.704   5.631   3.091
14393TIP3    H143136   0.769   5.563   3.106
14393TIP3    H243137   0.642   5.622   3.163
14394TIP3   OH243138   3.344   4.794   5.787
14394TIP3    H143139   3.397   4.803   5.708
14394TIP3    H243140   3.405   4.808   5.859
14395TIP3   OH243141   4.456   4.410   3.851
14395TIP3    H143142   4.541   4.427   3.810
14395TIP3    H243143   4.463   4.321   3.886
14396TIP3   OH243144   3.220   6.031   6.544
14396TIP3    H143145   3.285   6.062   6.480
14396TIP3    H243146   3.268   5.972   6.601
14397TIP3   OH243147   2.846   5.972   6.518
14397TIP3    H143148   2.809   5.887   6.494
14397TIP3    H243149   2.779   6.035   6.493
14398TIP3   OH243150   3.073   4.128   1.045
14398TIP3    H143151   3.133   4.203   1.054
14398TIP3    H243152   3.130   4.051   1.051
14399TIP3   OH243153   7.549   4.352   1.554
14399TIP3    H143154   7.641   4.374   1.562
14399TIP3    H243155   7.547   4.276   1.496
14400TIP3   OH243156   6.958   0.127   0.539
14400TIP3    H143157   6.895   0.186   0.498
14400TIP3    H243158   7.040   0.143   0.493
14401TIP3   OH243159   3.283   7.354   2.366
14401TIP3    H143160   3.289   7.292   2.438
14401TIP3    H243161   3.349   7.421   2.387
14402TIP3   OH243162   6.821   0.601   0.394
14402TIP3    H143163   6.816   0.673   0.332
14402TIP3    H243164   6.843   0.525   0.341
14403TIP3   OH243165   1.454   1.626   3.199
14403TIP3    H143166   1.419   1.583   3.277
14403TIP3    H243167   1.546   1.641   3.219
14404TIP3   OH243168   6.988   7.650   5.329
14404TIP3    H143169   6.918   7.588   5.310
14404TIP3    H243170   7.018   7.626   5.417
14405TIP3   OH243171   0.154   5.792   2.263
14405TIP3    H143172   0.249   5.796   2.273
14405TIP3    H243173   0.135   5.699   2.248
14406TIP3   OH243174   0.732   7.247   0.148
14406TIP3    H143175   0.794   7.194   0.097
14406TIP3    H243176   0.720   7.326   0.095
14407TIP3   OH243177   4.572   4.496   6.016
14407TIP3    H143178   4.516   4.548   6.073
14407TIP3    H243179   4.511   4.445   5.962
14408TIP3   OH243180   5.693   6.087   0.316
14408TIP3    H143181   5.764   6.057   0.258
14408TIP3    H243182   5.659   6.165   0.273
14409TIP3   OH243183   6.817   3.676   2.562
14409TIP3    H143184   6.735   3.725   2.565
14409TIP3    H243185   6.862   3.709   2.484
14410TIP3   OH243186   3.462   4.460   4.583
14410TIP3    H143187   3.514   4.509   4.647
14410TIP3    H243188   3.393   4.521   4.557
14411TIP3   OH243189   1.317   1.000   1.328
14411TIP3    H143190   1.390   1.047   1.368
14411TIP3    H243191   1.326   1.017   1.234
14412TIP3   OH243192   4.869   0.769   0.553
14412TIP3    H143193   4.961   0.752   0.574
14412TIP3    H243194   4.823   0.761   0.637
14413TIP3   OH243195   6.736   5.679   1.488
14413TIP3    H143196   6.738   5.583   1.495
14413TIP3    H243197   6.811   5.708   1.541
14414TIP3   OH243198   2.304   7.782   2.462
14414TIP3    H143199   2.239   7.791   2.393
14414TIP3    H243200   2.253   7.768   2.542
14415TIP3   OH243201   4.847   3.472   0.338
14415TIP3    H143202   4.823   3.397   0.393
14415TIP3    H243203   4.794   3.545   0.372
14416TIP3   OH243204   7.380   7.393   5.766
14416TIP3    H143205   7.364   7.328   5.698
14416TIP3    H243206   7.414   7.469   5.719
14417TIP3   OH243207   1.128   5.437   1.289
14417TIP3    H143208   1.122   5.396   1.375
14417TIP3    H243209   1.066   5.510   1.292
14418TIP3   OH243210   4.589   7.808   2.318
14418TIP3    H143211   4.630   7.881   2.271
14418TIP3    H243212   4.520   7.777   2.260
14419TIP3   OH243213   3.242   0.735   2.746
14419TIP3    H143214   3.292   0.816   2.745
14419TIP3    H243215   3.289   0.677   2.687
14420TIP3   OH243216   0.765   0.377   5.900
14420TIP3    H143217   0.723   0.311   5.956
14420TIP3    H243218   0.773   0.335   5.815
14421TIP3   OH243219   4.399   5.986   6.368
14421TIP3    H143220   4.347   5.963   6.291
14421TIP3    H243221   4.489   5.970   6.343
14422TIP3   OH243222   4.501   0.638   2.291
14422TIP3    H143223   4.582   0.671   2.330
14422TIP3    H243224   4.460   0.714   2.250
14423TIP3   OH243225   1.383   4.015   4.196
14423TIP3    H143226   1.469   3.974   4.194
14423TIP3    H243227   1.396   4.096   4.245
14424TIP3   OH243228   5.559   3.986   4.989
14424TIP3    H143229   5.497   4.045   5.033
14424TIP3    H243230   5.521   3.899   4.999
14425TIP3   OH243231   1.209   1.159   1.987
14425TIP3    H143232   1.149   1.119   2.049
14425TIP3    H243233   1.203   1.253   2.005
14426TIP3   OH243234   6.618   6.004  -0.011
14426TIP3    H143235   6.552   5.939  -0.035
14426TIP3    H243236   6.615   6.008   0.084
14427TIP3   OH243237   7.265   2.542   3.866
14427TIP3    H143238   7.247   2.631   3.895
14427TIP3    H243239   7.203   2.529   3.793
14428TIP3   OH243240   7.623   6.551   5.823
14428TIP3    H143241   7.584   6.589   5.901
14428TIP3    H243242   7.597   6.610   5.752
14429TIP3   OH243243   1.435   6.403   3.204
14429TIP3    H143244   1.468   6.413   3.114
14429TIP3    H243245   1.365   6.468   3.211
14430TIP3   OH243246   2.678   0.904   3.668
14430TIP3    H143247   2.733   0.958   3.725
14430TIP3    H243248   2.589   0.934   3.684
14431TIP3   OH243249   0.684   5.004   6.411
14431TIP3    H143250   0.689   4.975   6.502
14431TIP3    H243251   0.595   5.038   6.401
14432TIP3   OH243252   2.480   7.525   0.242
14432TIP3    H143253   2.480   7.588   0.171
14432TIP3    H243254   2.550   7.464   0.221
14433TIP3   OH243255   5.324   0.453   3.829
14433TIP3    H143256   5.232   0.427   3.830
14433TIP3    H243257   5.365   0.393   3.767
14434TIP3   OH243258   2.988   6.807   2.563
14434TIP3    H143259   3.058   6.789   2.626
14434TIP3    H243260   2.909   6.817   2.616
14435TIP3   OH243261   3.396   0.837   6.338
14435TIP3    H143262   3.444   0.852   6.256
14435TIP3    H243263   3.310   0.877   6.323
14436TIP3   OH243264   2.236   2.115   4.352
14436TIP3    H143265   2.180   2.187   4.323
14436TIP3    H243266   2.186   2.036   4.330
14437TIP3   OH243267   8.047   7.457   4.330
14437TIP3    H143268   8.124   7.420   4.374
14437TIP3    H243269   8.063   7.442   4.237
14438TIP3   OH243270   5.863   1.357   6.300
14438TIP3    H143271   5.797   1.391   6.361
14438TIP3    H243272   5.922   1.306   6.355
14439TIP3   OH243273   1.092   0.072   3.117
14439TIP3    H143274   1.121  -0.017   3.098
14439TIP3    H243275   0.997   0.066   3.126
14440TIP3   OH243276   7.026   0.947   5.065
14440TIP3    H143277   6.944   0.983   5.098
14440TIP3    H243278   7.053   1.008   4.996
14441TIP3   OH243279   5.426   3.866   5.954
14441TIP3    H143280   5.452   3.780   5.987
14441TIP3    H243281   5.498   3.924   5.979
14442TIP3   OH243282   4.676   6.327   6.194
14442TIP3    H143283   4.744   6.296   6.134
14442TIP3    H243284   4.597   6.332   6.140
14443TIP3   OH243285   4.939   1.367   2.256
14443TIP3    H143286   4.861   1.362   2.310
14443TIP3    H243287   4.929   1.297   2.192
14444TIP3   OH243288   8.102   3.303   1.413
14444TIP3    H143289   8.187   3.264   1.393
14444TIP3    H243290   8.046   3.279   1.340
14445TIP3   OH243291   4.754   2.263   5.543
14445TIP3    H143292   4.703   2.306   5.612
14445TIP3    H243293   4.774   2.333   5.481
14446TIP3   OH243294   0.084   1.792   3.850
14446TIP3    H143295   0.145   1.807   3.777
14446TIP3    H243296  -0.002   1.811   3.814
14447TIP3   OH243297   8.118   7.192   4.549
14447TIP3    H143298   8.151   7.280   4.570
14447TIP3    H243299   8.086   7.158   4.632
14448TIP3   OH243300   1.119   7.490   0.988
14448TIP3    H143301   1.033   7.491   1.030
14448TIP3    H243302   1.129   7.399   0.959
14449TIP3   OH243303   3.239   0.431   3.283
14449TIP3    H143304   3.205   0.406   3.197
14449TIP3    H243305   3.212   0.522   3.293
14450TIP3   OH243306   7.708   5.497   6.414
14450TIP3    H143307   7.710   5.423   6.353
14450TIP3    H243308   7.763   5.469   6.487
14451TIP3   OH243309   2.573   4.848   4.203
14451TIP3    H143310   2.594   4.903   4.278
14451TIP3    H243311   2.486   4.880   4.175
14452TIP3   OH243312   0.228   4.272   5.492
14452TIP3    H143313   0.167   4.328   5.540
14452TIP3    H243314   0.262   4.328   5.422
14453TIP3   OH243315   1.204   3.890   4.008
14453TIP3    H143316   1.266   3.911   4.078
14453TIP3    H243317   1.207   3.795   4.000
14454TIP3   OH243318   1.588   3.742   0.533
14454TIP3    H143319   1.628   3.778   0.612
14454TIP3    H243320   1.509   3.794   0.520
14455TIP3   OH243321   2.208   6.904   1.275
14455TIP3    H143322   2.236   6.943   1.192
14455TIP3    H243323   2.257   6.822   1.281
14456TIP3   OH243324   8.169   5.486   0.679
14456TIP3    H143325   8.152   5.512   0.589
14456TIP3    H243326   8.093   5.520   0.728
14457TIP3   OH243327   3.992   2.294   3.166
14457TIP3    H143328   3.929   2.291   3.094
14457TIP3    H243329   3.969   2.373   3.215
14458TIP3   OH243330   4.469   6.088   2.525
14458TIP3    H143331   4.556   6.124   2.509
14458TIP3    H243332   4.460   6.087   2.620
14459TIP3   OH243333   7.261   5.745   2.944
14459TIP3    H143334   7.356   5.737   2.942
14459TIP3    H243335   7.245   5.840   2.949
14460TIP3   OH243336   0.838   4.177   2.871
14460TIP3    H143337   0.777   4.244   2.841
14460TIP3    H243338   0.850   4.194   2.964
14461TIP3   OH243339   5.882   3.154   4.515
14461TIP3    H143340   5.822   3.100   4.463
14461TIP3    H243341   5.856   3.244   4.496
14462TIP3   OH243342   4.177   6.921   1.251
14462TIP3    H143343   4.163   6.888   1.162
14462TIP3    H243344   4.270   6.945   1.253
14463TIP3   OH243345   3.239   4.334   6.656
14463TIP3    H143346   3.160   4.356   6.606
14463TIP3    H243347   3.310   4.339   6.591
14464TIP3   OH243348   2.119   3.433   6.546
14464TIP3    H143349   2.194   3.487   6.520
14464TIP3    H243350   2.099   3.461   6.635
14465TIP3   OH243351   1.212   3.631   0.422
14465TIP3    H143352   1.265   3.587   0.356
14465TIP3    H243353   1.137   3.667   0.373
14466TIP3   OH243354   8.268   2.108   3.866
14466TIP3    H143355   8.264   2.083   3.774
14466TIP3    H243356   8.281   2.026   3.913
14467TIP3   OH243357   5.283   3.024   2.051
14467TIP3    H143358   5.345   3.075   1.999
14467TIP3    H243359   5.282   3.066   2.137
14468TIP3   OH243360   0.801   0.105   3.774
14468TIP3    H143361   0.837   0.051   3.703
14468TIP3    H243362   0.842   0.191   3.761
14469TIP3   OH243363   1.875   2.923   1.202
14469TIP3    H143364   1.909   2.860   1.138
14469TIP3    H243365   1.936   2.917   1.276
14470TIP3   OH243366   7.399   3.984   5.875
14470TIP3    H143367   7.344   4.037   5.818
14470TIP3    H243368   7.439   4.047   5.935
14471TIP3   OH243369   3.621   0.241   0.018
14471TIP3    H143370   3.708   0.237  -0.021
14471TIP3    H243371   3.636   0.264   0.110
14472TIP3   OH243372   5.991   1.591   6.502
14472TIP3    H143373   6.046   1.637   6.438
14472TIP3    H243374   5.970   1.508   6.461
14473TIP3   OH243375   6.803   4.647   2.367
14473TIP3    H143376   6.792   4.673   2.276
14473TIP3    H243377   6.884   4.690   2.395
14474TIP3   OH243378   4.222   5.683   3.939
14474TIP3    H143379   4.149   5.711   3.994
14474TIP3    H243380   4.295   5.672   4.000
14475TIP3   OH243381   1.787   2.619   4.246
14475TIP3    H143382   1.720   2.686   4.234
14475TIP3    H243383   1.757   2.545   4.194
14476TIP3   OH243384   0.959   0.820   6.165
14476TIP3    H143385   0.953   0.743   6.109
14476TIP3    H243386   1.029   0.798   6.227
14477TIP3   OH243387   0.654   0.768   6.047
14477TIP3    H143388   0.589   0.740   5.982
14477TIP3    H243389   0.661   0.863   6.035
14478TIP3   OH243390   3.428   6.189   4.329
14478TIP3    H143391   3.478   6.189   4.247
14478TIP3    H243392   3.374   6.110   4.324
14479TIP3   OH243393   0.824   4.394   2.286
14479TIP3    H143394   0.906   4.371   2.331
14479TIP3    H243395   0.850   4.406   2.194
14480TIP3   OH243396   6.514   1.724   1.545
14480TIP3    H143397   6.601   1.740   1.508
14480TIP3    H243398   6.472   1.810   1.544
14481TIP3   OH243399   1.062   4.647   4.500
14481TIP3    H143400   1.101   4.596   4.428
14481TIP3    H243401   1.079   4.594   4.578
14482TIP3   OH243402   0.184   1.475   3.834
14482TIP3    H143403   0.111   1.471   3.895
14482TIP3    H243404   0.195   1.384   3.803
14483TIP3   OH243405   3.222   7.013   5.605
14483TIP3    H143406   3.188   7.087   5.656
14483TIP3    H243407   3.227   6.941   5.667
14484TIP3   OH243408   3.797   5.410   6.211
14484TIP3    H143409   3.706   5.438   6.226
14484TIP3    H243410   3.821   5.364   6.292
14485TIP3   OH243411   1.349   0.306   5.039
14485TIP3    H143412   1.333   0.323   5.132
14485TIP3    H243413   1.262   0.293   5.001
14486TIP3   OH243414   0.655   0.450   3.920
14486TIP3    H143415   0.691   0.486   3.839
14486TIP3    H243416   0.718   0.477   3.988
14487TIP3   OH243417   2.218   4.225   4.654
14487TIP3    H143418   2.224   4.131   4.667
14487TIP3    H243419   2.125   4.243   4.647
14488TIP3   OH243420   4.496   4.208   2.846
14488TIP3    H143421   4.455   4.283   2.888
14488TIP3    H243422   4.588   4.231   2.838
14489TIP3   OH243423   1.501   2.641   1.070
14489TIP3    H143424   1.497   2.710   1.136
14489TIP3    H243425   1.503   2.559   1.120
14490TIP3   OH243426   0.962   4.984   4.948
14490TIP3    H143427   1.003   4.967   4.864
14490TIP3    H243428   0.954   4.898   4.989
14491TIP3   OH243429   5.861   7.043   5.969
14491TIP3    H143430   5.895   6.999   5.891
14491TIP3    H243431   5.774   7.006   5.981
14492TIP3   OH243432   0.364   1.772   6.772
14492TIP3    H143433   0.344   1.705   6.707
14492TIP3    H243434   0.374   1.853   6.722
14493TIP3   OH243435   5.009   2.156   5.262
14493TIP3    H143436   5.085   2.099   5.271
14493TIP3    H243437   4.940   2.099   5.229
14494TIP3   OH243438   8.166   4.538   2.896
14494TIP3    H143439   8.254   4.536   2.934
14494TIP3    H243440   8.156   4.452   2.854
14495TIP3   OH243441   5.619   3.988   5.564
14495TIP3    H143442   5.625   3.970   5.657
14495TIP3    H243443   5.591   3.905   5.525
14496TIP3   OH243444   0.886   5.591   5.036
14496TIP3    H143445   0.951   5.522   5.024
14496TIP3    H243446   0.882   5.636   4.952
14497TIP3   OH243447   0.333   4.305   2.904
14497TIP3    H143448   0.256   4.264   2.943
14497TIP3    H243449   0.406   4.252   2.935
14498TIP3   OH243450   6.835   1.376   1.748
14498TIP3    H143451   6.883   1.440   1.696
14498TIP3    H243452   6.770   1.340   1.687
14499TIP3   OH243453   3.045   2.657   3.650
14499TIP3    H143454   2.995   2.718   3.595
14499TIP3    H243455   3.010   2.671   3.738
14500TIP3   OH243456   0.759   2.918   5.702
14500TIP3    H143457   0.834   2.947   5.753
14500TIP3    H243458   0.689   2.906   5.767
14501TIP3   OH243459   5.729   2.526   6.035
14501TIP3    H143460   5.740   2.598   6.097
14501TIP3    H243461   5.651   2.550   5.984
14502TIP3   OH243462   1.546   6.533   0.813
14502TIP3    H143463   1.633   6.518   0.851
14502TIP3    H243464   1.564   6.566   0.726
14503TIP3   OH243465   0.982   1.863   4.337
14503TIP3    H143466   0.887   1.869   4.325
14503TIP3    H243467   1.017   1.880   4.249
14504TIP3   OH243468   6.119   4.867   1.228
14504TIP3    H143469   6.159   4.922   1.295
14504TIP3    H243470   6.094   4.929   1.159
14505TIP3   OH243471   4.791   1.896   6.025
14505TIP3    H143472   4.729   1.858   5.963
14505TIP3    H243473   4.820   1.822   6.078
14506TIP3   OH243474   5.973   2.890   6.584
14506TIP3    H143475   6.058   2.846   6.585
14506TIP3    H243476   5.917   2.831   6.534
14507TIP3   OH243477   3.767   4.600   0.197
14507TIP3    H143478   3.795   4.513   0.168
14507TIP3    H243479   3.846   4.639   0.234
14508TIP3   OH243480   3.328   2.224   5.081
14508TIP3    H143481   3.376   2.188   5.156
14508TIP3    H243482   3.392   2.276   5.033
14509TIP3   OH243483   8.012   3.817   4.335
14509TIP3    H143484   7.917   3.817   4.349
14509TIP3    H243485   8.024   3.869   4.256
14510TIP3   OH243486   5.637   4.245   5.410
14510TIP3    H143487   5.551   4.243   5.452
14510TIP3    H243488   5.676   4.160   5.431
14511TIP3   OH243489   2.316   3.705   3.655
14511TIP3    H143490   2.357   3.762   3.721
14511TIP3    H243491   2.355   3.732   3.572
14512TIP3   OH243492   1.750   1.464   1.795
14512TIP3    H143493   1.731   1.498   1.707
14512TIP3    H243494   1.742   1.369   1.786
14513TIP3   OH243495   4.822   5.034   3.334
14513TIP3    H143496   4.913   5.025   3.306
14513TIP3    H243497   4.806   5.128   3.336
14514TIP3   OH243498   3.923   7.128   1.657
14514TIP3    H143499   3.831   7.105   1.668
14514TIP3    H243500   3.947   7.094   1.571
14515TIP3   OH243501   6.294   1.073   3.802
14515TIP3    H143502   6.289   1.104   3.712
14515TIP3    H243503   6.206   1.040   3.820
14516TIP3   OH243504   4.089   5.214   3.954
14516TIP3    H143505   4.100   5.219   4.049
14516TIP3    H243506   4.099   5.120   3.935
14517TIP3   OH243507   3.199   0.264   4.583
14517TIP3    H143508   3.284   0.249   4.543
14517TIP3    H243509   3.190   0.360   4.587
14518TIP3   OH243510   0.929   4.641   5.770
14518TIP3    H143511   0.901   4.732   5.764
14518TIP3    H243512   1.024   4.646   5.783
14519TIP3   OH243513   2.792   2.565   1.509
14519TIP3    H143514   2.734   2.524   1.574
14519TIP3    H243515   2.827   2.491   1.459
14520TIP3   OH243516   3.382   0.877   5.107
14520TIP3    H143517   3.474   0.850   5.102
14520TIP3    H243518   3.340   0.808   5.159
14521TIP3   OH243519   7.197   2.004   3.432
14521TIP3    H143520   7.263   2.050   3.381
14521TIP3    H243521   7.129   2.069   3.449
14522TIP3   OH243522   3.486   3.015   5.475
14522TIP3    H143523   3.418   3.076   5.504
14522TIP3    H243524   3.568   3.054   5.504
14523TIP3   OH243525   0.875   1.208   6.403
14523TIP3    H143526   0.932   1.193   6.478
14523TIP3    H243527   0.843   1.122   6.378
14524TIP3   OH243528   3.873   3.914   0.087
14524TIP3    H143529   3.957   3.920   0.042
14524TIP3    H243530   3.865   3.823   0.113
14525TIP3   OH243531   0.736   6.262   2.151
14525TIP3    H143532   0.819   6.242   2.110
14525TIP3    H243533   0.679   6.288   2.079
14526TIP3   OH243534   5.090   3.677   5.267
14526TIP3    H143535   5.133   3.636   5.343
14526TIP3    H243536   5.001   3.694   5.296
14527TIP3   OH243537   3.913   4.851   2.369
14527TIP3    H143538   3.930   4.851   2.463
14527TIP3    H243539   3.821   4.825   2.361
14528TIP3   OH243540   0.104   4.821   3.261
14528TIP3    H143541   0.107   4.822   3.357
14528TIP3    H243542   0.138   4.907   3.235
14529TIP3   OH243543   1.135   0.014   0.205
14529TIP3    H143544   1.195   0.015   0.131
14529TIP3    H243545   1.062   0.069   0.178
14530TIP3   OH243546   6.989   5.300   5.758
14530TIP3    H143547   6.931   5.372   5.732
14530TIP3    H243548   7.027   5.329   5.841
14531TIP3   OH243549   0.903   3.860   1.582
14531TIP3    H143550   0.898   3.955   1.567
14531TIP3    H243551   0.863   3.848   1.668
14532TIP3   OH243552   0.487   2.811   1.419
14532TIP3    H143553   0.471   2.905   1.427
14532TIP3    H243554   0.400   2.773   1.405
14533TIP3   OH243555   3.339   5.705   0.186
14533TIP3    H143556   3.263   5.705   0.129
14533TIP3    H243557   3.392   5.778   0.155
14534TIP3   OH243558   4.876   2.316   4.757
14534TIP3    H143559   4.878   2.386   4.692
14534TIP3    H243560   4.968   2.302   4.781
14535TIP3   OH243561   0.058   2.864   6.595
14535TIP3    H143562  -0.021   2.843   6.545
14535TIP3    H243563   0.095   2.778   6.618
14536TIP3   OH243564   1.931   2.747   3.278
14536TIP3    H143565   1.983   2.739   3.197
14536TIP3    H243566   1.970   2.821   3.324
14537TIP3   OH243567   6.328   0.293   2.867
14537TIP3    H143568   6.284   0.305   2.783
14537TIP3    H243569   6.275   0.341   2.930
14538TIP3   OH243570   0.514   1.393   0.963
14538TIP3    H143571   0.481   1.304   0.951
14538TIP3    H243572   0.568   1.409   0.885
14539TIP3   OH243573   4.051   1.317   0.164
14539TIP3    H143574   3.994   1.374   0.112
14539TIP3    H243575   4.020   1.327   0.254
14540TIP3   OH243576   4.108   6.592   0.932
14540TIP3    H143577   4.112   6.516   0.990
14540TIP3    H243578   4.059   6.562   0.855
14541TIP3   OH243579   6.381   4.742   5.614
14541TIP3    H143580   6.335   4.818   5.650
14541TIP3    H243581   6.364   4.746   5.520
14542TIP3   OH243582   0.991   1.601   0.844
14542TIP3    H143583   0.987   1.630   0.753
14542TIP3    H243584   1.002   1.506   0.839
14543TIP3   OH243585   2.679   7.473   4.815
14543TIP3    H143586   2.669   7.388   4.772
14543TIP3    H243587   2.685   7.452   4.908
14544TIP3   OH243588   4.143   5.684   0.584
14544TIP3    H143589   4.139   5.595   0.550
14544TIP3    H243590   4.232   5.713   0.565
14545TIP3   OH243591   2.347   7.124   6.220
14545TIP3    H143592   2.395   7.116   6.303
14545TIP3    H243593   2.320   7.216   6.218
14546TIP3   OH243594   2.138   2.009   2.880
14546TIP3    H143595   2.055   1.961   2.879
14546TIP3    H243596   2.121   2.085   2.934
14547TIP3   OH243597   4.456   3.686   3.278
14547TIP3    H143598   4.447   3.658   3.369
14547TIP3    H243599   4.367   3.712   3.252
14548TIP3   OH243600   5.211   2.048   2.690
14548TIP3    H143601   5.170   2.012   2.612
14548TIP3    H243602   5.146   2.108   2.727
14549TIP3   OH243603   3.530   5.126   3.110
14549TIP3    H143604   3.601   5.071   3.143
14549TIP3    H243605   3.467   5.131   3.182
14550TIP3   OH243606   6.414   1.804   0.436
14550TIP3    H143607   6.363   1.780   0.514
14550TIP3    H243608   6.349   1.814   0.367
14551TIP3   OH243609   4.566   3.675   3.684
14551TIP3    H143610   4.606   3.686   3.598
14551TIP3    H243611   4.599   3.750   3.735
14552TIP3   OH243612   6.100   4.341   5.239
14552TIP3    H143613   6.020   4.288   5.242
14552TIP3    H243614   6.159   4.290   5.183
14553TIP3   OH243615   5.675   0.745   0.929
14553TIP3    H143616   5.667   0.653   0.903
14553TIP3    H243617   5.770   0.761   0.932
14554TIP3   OH243618   2.793   4.587   5.744
14554TIP3    H143619   2.859   4.582   5.812
14554TIP3    H243620   2.737   4.661   5.770
14555TIP3   OH243621   5.035   4.391   3.849
14555TIP3    H143622   5.118   4.439   3.846
14555TIP3    H243623   5.023   4.371   3.942
14556TIP3   OH243624   6.066   2.838   0.762
14556TIP3    H143625   5.980   2.881   0.769
14556TIP3    H243626   6.129   2.909   0.772
14557TIP3   OH243627   3.653   7.627   0.792
14557TIP3    H143628   3.684   7.695   0.731
14557TIP3    H243629   3.562   7.612   0.767
14558TIP3   OH243630   6.309   4.635   4.780
14558TIP3    H143631   6.302   4.727   4.754
14558TIP3    H243632   6.389   4.630   4.832
14559TIP3   OH243633   5.806   4.007   0.541
14559TIP3    H143634   5.803   4.102   0.551
14559TIP3    H243635   5.884   3.980   0.590
14560TIP3   OH243636   5.137   5.308   1.530
14560TIP3    H143637   5.166   5.389   1.488
14560TIP3    H243638   5.181   5.307   1.614
14561TIP3   OH243639   2.469   4.828   1.203
14561TIP3    H143640   2.446   4.873   1.284
14561TIP3    H243641   2.503   4.897   1.146
14562TIP3   OH243642   8.208   6.585   1.816
14562TIP3    H143643   8.186   6.605   1.725
14562TIP3    H243644   8.146   6.637   1.868
14563TIP3   OH243645   2.493   0.560   2.672
14563TIP3    H143646   2.450   0.634   2.630
14563TIP3    H243647   2.587   0.582   2.669
14564TIP3   OH243648   8.083   0.093   3.543
14564TIP3    H143649   8.043   0.048   3.468
14564TIP3    H243650   8.009   0.115   3.599
14565TIP3   OH243651   8.152   1.741   1.039
14565TIP3    H143652   8.075   1.736   1.095
14565TIP3    H243653   8.153   1.832   1.007
14566TIP3   OH243654   3.939   2.201   1.163
14566TIP3    H143655   3.917   2.123   1.214
14566TIP3    H243656   4.035   2.208   1.170
14567TIP3   OH243657   3.751   5.540   3.279
14567TIP3    H143658   3.795   5.506   3.201
14567TIP3    H243659   3.812   5.603   3.317
14568TIP3   OH243660   8.088   2.795   1.724
14568TIP3    H143661   8.027   2.827   1.792
14568TIP3    H243662   8.054   2.709   1.700
14569TIP3   OH243663   0.847   7.198   5.807
14569TIP3    H143664   0.779   7.130   5.814
14569TIP3    H243665   0.802   7.279   5.834
14570TIP3   OH243666   1.567   2.392   2.026
14570TIP3    H143667   1.635   2.441   2.073
14570TIP3    H243668   1.600   2.303   2.021
14571TIP3   OH243669   7.518   7.051   5.570
14571TIP3    H143670   7.438   7.099   5.594
14571TIP3    H243671   7.570   7.114   5.521
14572TIP3   OH243672   1.285   7.618   4.952
14572TIP3    H143673   1.211   7.559   4.945
14572TIP3    H243674   1.359   7.571   4.913
14573TIP3   OH243675   0.885   5.432   3.408
14573TIP3    H143676   0.810   5.416   3.350
14573TIP3    H243677   0.962   5.421   3.352
14574TIP3   OH243678   7.417   4.479   0.756
14574TIP3    H143679   7.472   4.476   0.835
14574TIP3    H243680   7.453   4.411   0.700
14575TIP3   OH243681   7.462   3.875   3.286
14575TIP3    H143682   7.548   3.833   3.281
14575TIP3    H243683   7.465   3.944   3.220
14576TIP3   OH243684   3.923   2.559   5.757
14576TIP3    H143685   4.008   2.527   5.789
14576TIP3    H243686   3.859   2.526   5.820
14577TIP3   OH243687   7.327   5.784   6.250
14577TIP3    H143688   7.413   5.817   6.278
14577TIP3    H243689   7.269   5.860   6.259
14578TIP3   OH243690   2.138   7.191   1.324
14578TIP3    H143691   2.142   7.171   1.231
14578TIP3    H243692   2.219   7.153   1.360
14579TIP3   OH243693   3.409   0.919   4.283
14579TIP3    H143694   3.319   0.906   4.253
14579TIP3    H243695   3.443   0.988   4.227
14580TIP3   OH243696   2.717   1.899   2.233
14580TIP3    H143697   2.687   1.849   2.158
14580TIP3    H243698   2.640   1.904   2.290
14581TIP3   OH243699   4.902   6.552   5.488
14581TIP3    H143700   4.820   6.587   5.454
14581TIP3    H243701   4.964   6.557   5.415
14582TIP3   OH243702   4.098   0.489   5.183
14582TIP3    H143703   4.108   0.395   5.167
14582TIP3    H243704   4.186   0.525   5.170
14583TIP3   OH243705   7.026   7.368   5.677
14583TIP3    H143706   7.081   7.371   5.599
14583TIP3    H243707   7.088   7.356   5.749
14584TIP3   OH243708   6.498   0.116   2.328
14584TIP3    H143709   6.449   0.137   2.408
14584TIP3    H243710   6.586   0.096   2.358
14585TIP3   OH243711   5.062   7.101   0.950
14585TIP3    H143712   5.020   7.172   0.902
14585TIP3    H243713   5.102   7.046   0.883
14586TIP3   OH243714   4.836   5.755   0.553
14586TIP3    H143715   4.847   5.848   0.536
14586TIP3    H243716   4.870   5.712   0.474
14587TIP3   OH243717   7.457   0.075   1.474
14587TIP3    H143718   7.407   0.132   1.416
14587TIP3    H243719   7.412   0.079   1.558
14588TIP3   OH243720   0.718   5.915   3.801
14588TIP3    H143721   0.764   5.940   3.721
14588TIP3    H243722   0.778   5.939   3.872
14589TIP3   OH243723   7.105   0.253   6.239
14589TIP3    H143724   7.082   0.206   6.159
14589TIP3    H243725   7.110   0.345   6.213
14590TIP3   OH243726   3.573   6.434   4.420
14590TIP3    H143727   3.657   6.410   4.459
14590TIP3    H243728   3.527   6.351   4.409
14591TIP3   OH243729   3.327   5.608   1.651
14591TIP3    H143730   3.302   5.587   1.561
14591TIP3    H243731   3.283   5.691   1.669
14592TIP3   OH243732   1.466   1.230   1.387
14592TIP3    H143733   1.433   1.319   1.399
14592TIP3    H243734   1.552   1.242   1.347
14593TIP3   OH243735   7.241   2.084   0.134
14593TIP3    H143736   7.155   2.104   0.172
14593TIP3    H243737   7.261   1.996   0.168
14594TIP3   OH243738   0.743   2.870   0.610
14594TIP3    H143739   0.817   2.872   0.672
14594TIP3    H243740   0.780   2.832   0.530
14595TIP3   OH243741   6.830   5.858   4.445
14595TIP3    H143742   6.906   5.902   4.407
14595TIP3    H243743   6.860   5.828   4.531
14596TIP3   OH243744   4.660   5.990   6.316
14596TIP3    H143745   4.696   5.959   6.233
14596TIP3    H243746   4.700   6.076   6.329
14597TIP3   OH243747   6.803   7.432   5.321
14597TIP3    H143748   6.794   7.398   5.410
14597TIP3    H243749   6.867   7.374   5.280
14598TIP3   OH243750   8.152   1.319   2.043
14598TIP3    H143751   8.097   1.307   1.966
14598TIP3    H243752   8.237   1.284   2.018
14599TIP3   OH243753   6.065   1.092   6.691
14599TIP3    H143754   5.970   1.087   6.703
14599TIP3    H243755   6.100   1.103   6.779
14600TIP3   OH243756   6.885   5.187   1.767
14600TIP3    H143757   6.884   5.102   1.812
14600TIP3    H243758   6.820   5.177   1.697
14601TIP3   OH243759   6.113   5.541   0.362
14601TIP3    H143760   6.169   5.480   0.410
14601TIP3    H243761   6.107   5.504   0.274
14602TIP3   OH243762   2.982   4.789   0.474
14602TIP3    H143763   2.921   4.836   0.417
14602TIP3    H243764   2.944   4.796   0.561
14603TIP3   OH243765   6.222   1.382   3.679
14603TIP3    H143766   6.138   1.412   3.644
14603TIP3    H243767   6.232   1.431   3.761
14604TIP3   OH243768   4.787   7.426   6.581
14604TIP3    H143769   4.719   7.445   6.646
14604TIP3    H243770   4.834   7.509   6.570
14605TIP3   OH243771   6.961   2.214   0.910
14605TIP3    H143772   6.990   2.126   0.937
14605TIP3    H243773   7.027   2.273   0.947
14606TIP3   OH243774   2.735   3.263   1.651
14606TIP3    H143775   2.818   3.216   1.648
14606TIP3    H243776   2.757   3.353   1.629
14607TIP3   OH243777   4.637   4.885   3.847
14607TIP3    H143778   4.614   4.823   3.777
14607TIP3    H243779   4.553   4.909   3.886
14608TIP3   OH243780   1.845   0.679   2.759
14608TIP3    H143781   1.864   0.585   2.760
14608TIP3    H243782   1.773   0.688   2.697
14609TIP3   OH243783   7.923   7.633   0.746
14609TIP3    H143784   7.894   7.699   0.810
14609TIP3    H243785   7.994   7.675   0.698
14610TIP3   OH243786   7.424   4.035   1.670
14610TIP3    H143787   7.401   4.084   1.749
14610TIP3    H243788   7.381   3.950   1.681
14611TIP3   OH243789   1.416   0.480   1.284
14611TIP3    H143790   1.480   0.484   1.213
14611TIP3    H243791   1.393   0.571   1.301
14612TIP3   OH243792   6.111   5.798   6.429
14612TIP3    H143793   6.083   5.800   6.337
14612TIP3    H243794   6.102   5.707   6.455
14613TIP3   OH243795   0.856   3.896   1.232
14613TIP3    H143796   0.936   3.926   1.276
14613TIP3    H243797   0.840   3.808   1.268
14614TIP3   OH243798   3.811   6.764   3.419
14614TIP3    H143799   3.859   6.695   3.373
14614TIP3    H243800   3.873   6.798   3.483
14615TIP3   OH243801   5.120   3.108   5.984
14615TIP3    H143802   5.027   3.124   5.968
14615TIP3    H243803   5.165   3.168   5.925
14616TIP3   OH243804   5.742   4.502   5.572
14616TIP3    H143805   5.742   4.438   5.501
14616TIP3    H243806   5.800   4.465   5.638
14617TIP3   OH243807   2.251   2.356   1.167
14617TIP3    H143808   2.279   2.291   1.231
14617TIP3    H243809   2.166   2.385   1.198
14618TIP3   OH243810   5.276   6.261   0.784
14618TIP3    H143811   5.190   6.222   0.797
14618TIP3    H243812   5.306   6.225   0.700
14619TIP3   OH243813   3.990   6.021   1.176
14619TIP3    H143814   4.033   6.008   1.261
14619TIP3    H243815   3.911   6.070   1.196
14620TIP3   OH243816   5.316   4.510   2.254
14620TIP3    H143817   5.356   4.428   2.225
14620TIP3    H243818   5.240   4.521   2.197
14621TIP3   OH243819   7.202   7.263   1.854
14621TIP3    H143820   7.284   7.297   1.817
14621TIP3    H243821   7.219   7.258   1.948
14622TIP3   OH243822   6.829   7.092   4.512
14622TIP3    H143823   6.923   7.108   4.524
14622TIP3    H243824   6.796   7.174   4.476
14623TIP3   OH243825   7.113   4.780   3.516
14623TIP3    H143826   7.191   4.814   3.471
14623TIP3    H243827   7.137   4.691   3.541
14624TIP3   OH243828   4.120   1.318   5.577
14624TIP3    H143829   4.071   1.352   5.652
14624TIP3    H243830   4.064   1.336   5.502
14625TIP3   OH243831   3.750   3.204   2.749
14625TIP3    H143832   3.828   3.162   2.784
14625TIP3    H243833   3.730   3.274   2.810
14626TIP3   OH243834   2.271   1.608   1.653
14626TIP3    H143835   2.264   1.588   1.560
14626TIP3    H243836   2.196   1.563   1.693
14627TIP3   OH243837   7.749   7.312   0.724
14627TIP3    H143838   7.714   7.237   0.772
14627TIP3    H243839   7.819   7.347   0.780
14628TIP3   OH243840   2.938   1.672   1.547
14628TIP3    H143841   2.856   1.642   1.588
14628TIP3    H243842   2.994   1.697   1.620
14629TIP3   OH243843   5.599   0.026   0.617
14629TIP3    H143844   5.563  -0.061   0.633
14629TIP3    H243845   5.618   0.027   0.523
14630TIP3   OH243846   2.508   2.261   5.902
14630TIP3    H143847   2.604   2.261   5.907
14630TIP3    H243848   2.480   2.315   5.976
14631TIP3   OH243849   6.254   0.738   1.481
14631TIP3    H143850   6.204   0.659   1.504
14631TIP3    H243851   6.343   0.719   1.511
14632TIP3   OH243852   5.885   2.622   4.488
14632TIP3    H143853   5.975   2.625   4.520
14632TIP3    H243854   5.840   2.691   4.537
14633TIP3   OH243855   4.982   0.240   4.298
14633TIP3    H143856   4.987   0.330   4.264
14633TIP3    H243857   4.969   0.251   4.392
14634TIP3   OH243858   5.380   0.690   1.634
14634TIP3    H143859   5.329   0.770   1.641
14634TIP3    H243860   5.460   0.716   1.587
14635TIP3   OH243861   1.031   5.703   2.521
14635TIP3    H143862   1.018   5.763   2.447
14635TIP3    H243863   0.987   5.623   2.495
14636TIP3   OH243864   5.383   1.592   2.789
14636TIP3    H143865   5.365   1.570   2.880
14636TIP3    H243866   5.449   1.661   2.794
14637TIP3   OH243867   7.984   4.520   0.685
14637TIP3    H143868   7.982   4.531   0.780
14637TIP3    H243869   8.037   4.593   0.653
14638TIP3   OH243870   5.241   1.300   4.081
14638TIP3    H143871   5.156   1.303   4.125
14638TIP3    H243872   5.220   1.284   3.989
14639TIP3   OH243873   8.138   0.470   6.346
14639TIP3    H143874   8.172   0.554   6.316
14639TIP3    H243875   8.044   0.485   6.358
14640TIP3   OH243876   1.142   4.265   2.817
14640TIP3    H143877   1.154   4.336   2.754
14640TIP3    H243878   1.152   4.306   2.903
14641TIP3   OH243879   2.221   7.297   4.571
14641TIP3    H143880   2.144   7.241   4.572
14641TIP3    H243881   2.276   7.262   4.501
14642TIP3   OH243882   2.358   6.606   4.612
14642TIP3    H143883   2.389   6.685   4.656
14642TIP3    H243884   2.274   6.587   4.655
14643TIP3   OH243885   3.948   1.562   4.166
14643TIP3    H143886   3.914   1.650   4.181
14643TIP3    H243887   3.878   1.517   4.120
14644TIP3   OH243888   7.792   6.568   6.469
14644TIP3    H143889   7.812   6.490   6.418
14644TIP3    H243890   7.699   6.585   6.452
14645TIP3   OH243891   5.547   4.654   5.939
14645TIP3    H143892   5.533   4.604   6.020
14645TIP3    H243893   5.642   4.666   5.935
14646TIP3   OH243894   3.263   2.066   3.285
14646TIP3    H143895   3.334   2.127   3.267
14646TIP3    H243896   3.205   2.114   3.345
14647TIP3   OH243897   4.838   2.739   6.585
14647TIP3    H143898   4.806   2.690   6.661
14647TIP3    H243899   4.863   2.671   6.522
14648TIP3   OH243900   2.358   5.713   1.237
14648TIP3    H143901   2.449   5.685   1.228
14648TIP3    H243902   2.334   5.688   1.326
14649TIP3   OH243903   0.894   0.982   4.543
14649TIP3    H143904   0.861   1.032   4.468
14649TIP3    H243905   0.818   0.971   4.600
14650TIP3   OH243906   7.199   2.403   4.381
14650TIP3    H143907   7.232   2.351   4.454
14650TIP3    H243908   7.277   2.431   4.333
14651TIP3   OH243909   2.213   7.326   2.046
14651TIP3    H143910   2.244   7.359   2.130
14651TIP3    H243911   2.123   7.357   2.040
14652TIP3   OH243912   2.582   2.968   2.744
14652TIP3    H143913   2.671   2.954   2.777
14652TIP3    H243914   2.581   2.926   2.658
14653TIP3   OH243915   4.373   3.410   5.249
14653TIP3    H143916   4.404   3.415   5.340
14653TIP3    H243917   4.322   3.490   5.237
14654TIP3   OH243918   0.377   1.693   0.880
14654TIP3    H143919   0.340   1.713   0.794
14654TIP3    H243920   0.335   1.611   0.907
14655TIP3   OH243921   5.739   6.909   1.690
14655TIP3    H143922   5.723   6.867   1.774
14655TIP3    H243923   5.665   6.882   1.635
14656TIP3   OH243924   5.508   4.147   4.688
14656TIP3    H143925   5.420   4.159   4.725
14656TIP3    H243926   5.559   4.218   4.726
14657TIP3   OH243927   4.508   2.772   5.153
14657TIP3    H143928   4.497   2.851   5.100
14657TIP3    H243929   4.463   2.791   5.235
14658TIP3   OH243930   2.725   4.331   1.625
14658TIP3    H143931   2.793   4.397   1.619
14658TIP3    H243932   2.772   4.248   1.636
14659TIP3   OH243933   1.265   5.664   2.894
14659TIP3    H143934   1.277   5.720   2.971
14659TIP3    H243935   1.170   5.648   2.892
14660TIP3   OH243936   6.617   6.814   5.896
14660TIP3    H143937   6.696   6.788   5.848
14660TIP3    H243938   6.551   6.751   5.867
14661TIP3   OH243939   4.117   1.495   1.485
14661TIP3    H143940   4.105   1.509   1.579
14661TIP3    H243941   4.197   1.444   1.479
14662TIP3   OH243942   5.669   7.294   2.512
14662TIP3    H143943   5.653   7.332   2.425
14662TIP3    H243944   5.757   7.257   2.506
14663TIP3   OH243945   4.623   3.903   4.909
14663TIP3    H143946   4.536   3.931   4.939
14663TIP3    H243947   4.681   3.974   4.935
14664TIP3   OH243948   8.045   2.987   3.871
14664TIP3    H143949   7.983   2.925   3.832
14664TIP3    H243950   8.022   3.071   3.833
14665TIP3   OH243951   6.621   4.582   0.448
14665TIP3    H143952   6.628   4.487   0.437
14665TIP3    H243953   6.708   4.614   0.425
14666TIP3   OH243954   0.705   6.668   1.066
14666TIP3    H143955   0.692   6.575   1.087
14666TIP3    H243956   0.661   6.679   0.981
14667TIP3   OH243957   1.975   1.143   0.833
14667TIP3    H143958   2.029   1.197   0.776
14667TIP3    H243959   1.961   1.062   0.785
14668TIP3   OH243960   1.377   3.868   0.655
14668TIP3    H143961   1.283   3.853   0.648
14668TIP3    H243962   1.403   3.821   0.734
14669TIP3   OH243963   5.897   2.693   4.182
14669TIP3    H143964   5.900   2.693   4.278
14669TIP3    H243965   5.837   2.621   4.161
14670TIP3   OH243966   0.363   6.855   0.236
14670TIP3    H143967   0.394   6.930   0.184
14670TIP3    H243968   0.283   6.886   0.277
14671TIP3   OH243969   3.295   4.903   4.951
14671TIP3    H143970   3.250   4.897   4.867
14671TIP3    H243971   3.364   4.968   4.936
14672TIP3   OH243972   4.889   5.770   1.505
14672TIP3    H143973   4.878   5.836   1.574
14672TIP3    H243974   4.864   5.688   1.547
14673TIP3   OH243975   3.461   2.345   3.003
14673TIP3    H143976   3.442   2.322   3.093
14673TIP3    H243977   3.541   2.399   3.008
14674TIP3   OH243978   1.508   7.205   1.049
14674TIP3    H143979   1.445   7.260   1.096
14674TIP3    H243980   1.462   7.121   1.038
14675TIP3   OH243981   1.143   1.103   0.872
14675TIP3    H143982   1.122   1.070   0.959
14675TIP3    H243983   1.079   1.061   0.814
14676TIP3   OH243984   3.014   5.208   4.556
14676TIP3    H143985   2.919   5.220   4.559
14676TIP3    H243986   3.048   5.270   4.622
14677TIP3   OH243987   7.712   7.006   3.522
14677TIP3    H143988   7.737   6.921   3.559
14677TIP3    H243989   7.746   7.005   3.433
14678TIP3   OH243990   2.135   3.344   3.245
14678TIP3    H143991   2.090   3.426   3.267
14678TIP3    H243992   2.225   3.370   3.226
14679TIP3   OH243993   8.271   0.336  -0.019
14679TIP3    H143994   8.179   0.359  -0.008
14679TIP3    H243995   8.317   0.419  -0.015
14680TIP3   OH243996   2.566   0.327   6.686
14680TIP3    H143997   2.480   0.359   6.714
14680TIP3    H243998   2.585   0.254   6.745
14681TIP3   OH243999   2.665   2.368   4.974
14681TIP3    H144000   2.575   2.379   4.944
14681TIP3    H244001   2.707   2.452   4.956
14682TIP3   OH244002   5.065   6.903   3.163
14682TIP3    H144003   5.047   6.958   3.239
14682TIP3    H244004   5.127   6.954   3.110
14683TIP3   OH244005   3.510   4.610   0.319
14683TIP3    H144006   3.504   4.541   0.385
14683TIP3    H244007   3.601   4.609   0.291
14684TIP3   OH244008   5.865   5.148   1.212
14684TIP3    H144009   5.895   5.148   1.121
14684TIP3    H244010   5.784   5.199   1.211
14685TIP3   OH244011   2.886   5.317   1.943
14685TIP3    H144012   2.909   5.232   1.979
14685TIP3    H244013   2.790   5.318   1.944
14686TIP3   OH244014   2.999   2.234   0.934
14686TIP3    H144015   2.903   2.237   0.936
14686TIP3    H244016   3.026   2.297   1.000
14687TIP3   OH244017   6.649   7.557   1.305
14687TIP3    H144018   6.631   7.502   1.381
14687TIP3    H244019   6.664   7.645   1.341
14688TIP3   OH244020   3.258   6.844   5.379
14688TIP3    H144021   3.262   6.883   5.467
14688TIP3    H244022   3.195   6.899   5.332
14689TIP3   OH244023   2.606   0.513   4.285
14689TIP3    H144024   2.702   0.519   4.288
14689TIP3    H244025   2.587   0.476   4.199
14690TIP3   OH244026   3.872   2.312   2.676
14690TIP3    H144027   3.933   2.289   2.606
14690TIP3    H244028   3.789   2.328   2.631
14691TIP3   OH244029   1.494   3.494   1.308
14691TIP3    H144030   1.531   3.408   1.288
14691TIP3    H244031   1.479   3.535   1.223
14692TIP3   OH244032   3.740   5.783   3.803
14692TIP3    H144033   3.680   5.746   3.738
14692TIP3    H244034   3.815   5.815   3.753
14693TIP3   OH244035   4.633   2.282   5.823
14693TIP3    H144036   4.649   2.338   5.899
14693TIP3    H244037   4.703   2.217   5.824
14694TIP3   OH244038   4.513   1.527   1.254
14694TIP3    H144039   4.493   1.514   1.161
14694TIP3    H244040   4.507   1.622   1.266
14695TIP3   OH244041   3.770   0.916   5.743
14695TIP3    H144042   3.805   0.858   5.676
14695TIP3    H244043   3.847   0.957   5.783
14696TIP3   OH244044   7.838   0.360   1.967
14696TIP3    H144045   7.919   0.385   2.010
14696TIP3    H244046   7.784   0.322   2.036
14697TIP3   OH244047   7.880   7.585   6.234
14697TIP3    H144048   7.787   7.603   6.245
14697TIP3    H244049   7.923   7.666   6.259
14698TIP3   OH244050   0.014   1.384   0.698
14698TIP3    H144051  -0.015   1.451   0.760
14698TIP3    H244052   0.079   1.428   0.644
14699TIP3   OH244053   7.853   1.415   2.274
14699TIP3    H144054   7.833   1.461   2.355
14699TIP3    H244055   7.904   1.339   2.301
14700TIP3   OH244056   1.364   0.717   5.242
14700TIP3    H144057   1.457   0.726   5.222
14700TIP3    H244058   1.320   0.741   5.160
14701TIP3   OH244059   5.496   0.337   6.186
14701TIP3    H144060   5.564   0.396   6.218
14701TIP3    H244061   5.509   0.333   6.091
14702TIP3   OH244062   7.841   6.942   3.287
14702TIP3    H144063   7.822   7.018   3.233
14702TIP3    H244064   7.867   6.874   3.225
14703TIP3   OH244065   4.874   1.129   4.638
14703TIP3    H144066   4.827   1.087   4.710
14703TIP3    H244067   4.880   1.221   4.663
14704TIP3   OH244068   2.156   2.342   4.131
14704TIP3    H144069   2.148   2.250   4.105
14704TIP3    H244070   2.236   2.372   4.088
14705TIP3   OH244071   6.984   3.406   3.142
14705TIP3    H144072   7.011   3.448   3.060
14705TIP3    H244073   7.020   3.317   3.135
14706TIP3   OH244074   5.971   4.125   5.758
14706TIP3    H144075   5.933   4.124   5.845
14706TIP3    H244076   5.954   4.038   5.723
14707TIP3   OH244077   2.269   0.430   5.875
14707TIP3    H144078   2.240   0.341   5.899
14707TIP3    H244079   2.274   0.429   5.780
14708TIP3   OH244080   0.662   0.527   1.385
14708TIP3    H144081   0.587   0.496   1.333
14708TIP3    H244082   0.738   0.486   1.344
14709TIP3   OH244083   1.201   5.377   2.998
14709TIP3    H144084   1.251   5.316   2.943
14709TIP3    H244085   1.252   5.458   2.996
14710TIP3   OH244086   1.445   0.581   5.758
14710TIP3    H144087   1.441   0.545   5.669
14710TIP3    H244088   1.474   0.671   5.745
14711TIP3   OH244089   0.160   0.404   3.753
14711TIP3    H144090   0.140   0.437   3.840
14711TIP3    H244091   0.104   0.456   3.694
14712TIP3   OH244092   5.678   1.665   1.886
14712TIP3    H144093   5.675   1.629   1.974
14712TIP3    H244094   5.621   1.742   1.889
14713TIP3   OH244095   1.379   5.058   4.490
14713TIP3    H144096   1.375   5.152   4.475
14713TIP3    H244097   1.354   5.019   4.406
14714TIP3   OH244098   3.976   5.785   4.079
14714TIP3    H144099   3.911   5.718   4.059
14714TIP3    H244100   3.953   5.817   4.166
14715TIP3   OH244101   4.511   3.518   3.089
14715TIP3    H144102   4.504   3.552   3.178
14715TIP3    H244103   4.423   3.529   3.052
14716TIP3   OH244104   0.525   2.071   1.278
14716TIP3    H144105   0.551   2.162   1.293
14716TIP3    H244106   0.553   2.054   1.188
14717TIP3   OH244107   1.832   7.113   3.911
14717TIP3    H144108   1.809   7.046   3.847
14717TIP3    H244109   1.842   7.193   3.859
14718TIP3   OH244110   1.133   7.213   5.849
14718TIP3    H144111   1.138   7.294   5.899
14718TIP3    H244112   1.040   7.189   5.852
14719TIP3   OH244113   2.897   2.663   4.749
14719TIP3    H144114   2.907   2.755   4.773
14719TIP3    H244115   2.859   2.666   4.661
14720TIP3   OH244116   3.345   5.646   3.711
14720TIP3    H144117   3.436   5.623   3.730
14720TIP3    H244118   3.343   5.742   3.715
14721TIP3   OH244119   7.025   4.981   0.742
14721TIP3    H144120   6.992   4.939   0.821
14721TIP3    H244121   7.014   5.075   0.759
14722TIP3   OH244122   3.962   3.659   2.995
14722TIP3    H144123   3.876   3.693   2.971
14722TIP3    H244124   3.944   3.596   3.064
14723TIP3   OH244125   7.008   2.212   0.194
14723TIP3    H144126   6.924   2.219   0.150
14723TIP3    H244127   7.031   2.302   0.218
14724TIP3   OH244128   2.507   2.103   0.592
14724TIP3    H144129   2.465   2.020   0.571
14724TIP3    H244130   2.559   2.085   0.670
14725TIP3   OH244131   4.784   3.359   6.738
14725TIP3    H144132   4.868   3.404   6.749
14725TIP3    H244133   4.801   3.294   6.670
14726TIP3   OH244134   1.843   0.935   5.520
14726TIP3    H144135   1.923   0.922   5.570
14726TIP3    H244136   1.866   1.000   5.453
14727TIP3   OH244137   6.679   1.649   4.906
14727TIP3    H144138   6.655   1.692   4.988
14727TIP3    H244139   6.774   1.641   4.909
14728TIP3   OH244140   7.450   3.475   5.687
14728TIP3    H144141   7.412   3.562   5.698
14728TIP3    H244142   7.436   3.432   5.772
14729TIP3   OH244143   6.407   5.673   1.183
14729TIP3    H144144   6.364   5.590   1.159
14729TIP3    H244145   6.446   5.704   1.102
14730TIP3   OH244146   0.929   0.307   4.628
14730TIP3    H144147   0.893   0.305   4.540
14730TIP3    H244148   0.918   0.217   4.660
14731TIP3   OH244149   7.908   3.466   5.196
14731TIP3    H144150   7.981   3.432   5.144
14731TIP3    H244151   7.949   3.531   5.253
14732TIP3   OH244152   6.197   5.758   5.046
14732TIP3    H144153   6.116   5.711   5.027
14732TIP3    H244154   6.256   5.691   5.082
14733TIP3   OH244155   2.632   1.523   1.953
14733TIP3    H144156   2.582   1.595   1.993
14733TIP3    H244157   2.700   1.503   2.017
14734TIP3   OH244158   4.004   4.270   1.000
14734TIP3    H144159   3.973   4.191   1.045
14734TIP3    H244160   3.939   4.337   1.021
14735TIP3   OH244161   8.070   1.391   4.550
14735TIP3    H144162   8.053   1.299   4.531
14735TIP3    H244163   8.050   1.400   4.643
14736TIP3   OH244164   0.392   5.659   2.776
14736TIP3    H144165   0.374   5.731   2.716
14736TIP3    H244166   0.488   5.650   2.774
14737TIP3   OH244167   5.526   4.711   1.528
14737TIP3    H144168   5.454   4.765   1.563
14737TIP3    H244169   5.538   4.644   1.595
14738TIP3   OH244170   5.107   0.617   6.251
14738TIP3    H144171   5.024   0.620   6.298
14738TIP3    H244172   5.112   0.527   6.217
14739TIP3   OH244173   1.303   1.287   4.352
14739TIP3    H144174   1.366   1.233   4.305
14739TIP3    H244175   1.353   1.364   4.379
14740TIP3   OH244176   4.408   7.550   2.450
14740TIP3    H144177   4.359   7.537   2.531
14740TIP3    H244178   4.496   7.576   2.479
14741TIP3   OH244179   5.693   2.017   5.171
14741TIP3    H144180   5.733   2.018   5.258
14741TIP3    H244181   5.604   1.987   5.187
14742TIP3   OH244182   4.034   7.486   0.530
14742TIP3    H144183   4.065   7.395   0.527
14742TIP3    H244184   4.028   7.506   0.624
14743TIP3   OH244185   7.024   5.304   2.255
14743TIP3    H144186   7.016   5.261   2.171
14743TIP3    H244187   7.104   5.356   2.248
14744TIP3   OH244188   0.676   2.942   6.545
14744TIP3    H144189   0.655   2.985   6.462
14744TIP3    H244190   0.618   2.983   6.609
14745TIP3   OH244191   1.330   1.017   3.473
14745TIP3    H144192   1.363   0.938   3.515
14745TIP3    H244193   1.391   1.033   3.401
14746TIP3   OH244194   1.686   6.380   1.603
14746TIP3    H144195   1.672   6.351   1.513
14746TIP3    H244196   1.714   6.301   1.650
14747TIP3   OH244197   5.817   4.813   6.127
14747TIP3    H144198   5.873   4.754   6.176
14747TIP3    H244199   5.825   4.785   6.036
14748TIP3   OH244200   3.619   2.631   0.479
14748TIP3    H144201   3.665   2.715   0.478
14748TIP3    H244202   3.596   2.618   0.571
14749TIP3   OH244203   5.638   2.288   5.965
14749TIP3    H144204   5.682   2.370   5.986
14749TIP3    H244205   5.605   2.256   6.049
14750TIP3   OH244206   2.564   3.226   4.026
14750TIP3    H144207   2.529   3.309   4.059
14750TIP3    H244208   2.620   3.193   4.096
14751TIP3   OH244209   6.672   7.503   6.066
14751TIP3    H144210   6.608   7.433   6.077
14751TIP3    H244211   6.737   7.467   6.006
14752TIP3   OH244212   6.283   7.442   1.486
14752TIP3    H144213   6.310   7.367   1.433
14752TIP3    H244214   6.353   7.453   1.550
14753TIP3   OH244215   7.387   1.158   1.169
14753TIP3    H144216   7.435   1.145   1.250
14753TIP3    H244217   7.380   1.070   1.131
14754TIP3   OH244218   4.883   2.423   1.043
14754TIP3    H144219   4.963   2.475   1.046
14754TIP3    H244220   4.901   2.348   1.099
14755TIP3   OH244221   4.158   5.962   2.935
14755TIP3    H144222   4.139   6.008   2.853
14755TIP3    H244223   4.202   5.881   2.908
14756TIP3   OH244224   3.257   0.520   4.013
14756TIP3    H144225   3.261   0.469   4.094
14756TIP3    H244226   3.314   0.595   4.029
14757TIP3   OH244227   0.580   7.321   4.524
14757TIP3    H144228   0.599   7.331   4.431
14757TIP3    H244229   0.641   7.254   4.554
14758TIP3   OH244230   0.803   1.965   1.784
14758TIP3    H144231   0.778   1.881   1.745
14758TIP3    H244232   0.733   2.025   1.758
14759TIP3   OH244233   4.733   5.112   2.971
14759TIP3    H144234   4.719   5.123   2.877
14759TIP3    H244235   4.824   5.139   2.985
14760TIP3   OH244236   8.162   4.501   6.305
14760TIP3    H144237   8.166   4.538   6.394
14760TIP3    H244238   8.222   4.556   6.254
14761TIP3   OH244239   8.026   0.845   6.407
14761TIP3    H144240   8.068   0.779   6.462
14761TIP3    H244241   7.976   0.795   6.342
14762TIP3   OH244242   1.402   1.489   1.399
14762TIP3    H144243   1.354   1.545   1.460
14762TIP3    H244244   1.370   1.513   1.312
14763TIP3   OH244245   0.992   5.779   4.818
14763TIP3    H144246   1.083   5.750   4.826
14763TIP3    H244247   0.954   5.722   4.751
14764TIP3   OH244248   4.536   2.168   1.459
14764TIP3    H144249   4.530   2.216   1.376
14764TIP3    H244250   4.456   2.117   1.463
14765TIP3   OH244251   7.225   2.286   3.030
14765TIP3    H144252   7.265   2.372   3.016
14765TIP3    H244253   7.297   2.224   3.019
14766TIP3   OH244254   7.813   5.765   5.763
14766TIP3    H144255   7.814   5.818   5.683
14766TIP3    H244256   7.847   5.823   5.831
14767TIP3   OH244257   5.614   4.239   2.967
14767TIP3    H144258   5.529   4.266   3.001
14767TIP3    H244259   5.677   4.269   3.034
14768TIP3   OH244260   8.122   6.994   3.411
14768TIP3    H144261   8.102   6.901   3.412
14768TIP3    H244262   8.036   7.037   3.415
14769TIP3   OH244263   7.272   1.107   1.468
14769TIP3    H144264   7.220   1.182   1.497
14769TIP3    H244265   7.362   1.141   1.462
14770TIP3   OH244266   2.349   3.242   0.762
14770TIP3    H144267   2.313   3.256   0.675
14770TIP3    H244268   2.442   3.264   0.753
14771TIP3   OH244269   3.515   3.621   0.810
14771TIP3    H144270   3.435   3.671   0.824
14771TIP3    H244271   3.534   3.581   0.895
14772TIP3   OH244272   7.075   3.762   1.752
14772TIP3    H144273   7.101   3.810   1.673
14772TIP3    H244274   7.157   3.724   1.784
14773TIP3   OH244275   2.648   7.337   4.541
14773TIP3    H144276   2.612   7.291   4.617
14773TIP3    H244277   2.586   7.408   4.525
14774TIP3   OH244278   5.041   3.767   3.274
14774TIP3    H144279   5.101   3.806   3.339
14774TIP3    H244280   4.966   3.827   3.273
14775TIP3   OH244281   7.724   6.662   2.480
14775TIP3    H144282   7.683   6.619   2.555
14775TIP3    H244283   7.664   6.733   2.459
14776TIP3   OH244284   0.438   0.748   4.926
14776TIP3    H144285   0.534   0.747   4.919
14776TIP3    H244286   0.420   0.727   5.017
14777TIP3   OH244287   4.691   0.909   3.965
14777TIP3    H144288   4.717   0.821   3.994
14777TIP3    H244289   4.596   0.907   3.965
14778TIP3   OH244290   6.124   5.296   2.221
14778TIP3    H144291   6.197   5.287   2.283
14778TIP3    H244292   6.089   5.207   2.211
14779TIP3   OH244293   6.332   2.038   5.068
14779TIP3    H144294   6.270   2.080   5.128
14779TIP3    H244295   6.304   2.066   4.981
14780TIP3   OH244296   1.692   4.519   6.013
14780TIP3    H144297   1.750   4.444   6.013
14780TIP3    H244298   1.667   4.531   5.921
14781TIP3   OH244299   2.889   6.700   5.267
14781TIP3    H144300   2.820   6.729   5.326
14781TIP3    H244301   2.862   6.612   5.240
14782TIP3   OH244302   5.835   6.701   1.353
14782TIP3    H144303   5.758   6.650   1.376
14782TIP3    H244304   5.909   6.642   1.367
14783TIP3   OH244305   0.074   5.887   3.793
14783TIP3    H144306   0.083   5.792   3.798
14783TIP3    H244307   0.128   5.912   3.718
14784TIP3   OH244308   4.527   4.769   5.707
14784TIP3    H144309   4.504   4.823   5.632
14784TIP3    H244310   4.571   4.693   5.670
14785TIP3   OH244311   3.973   6.961   1.434
14785TIP3    H144312   4.068   6.957   1.426
14785TIP3    H244313   3.941   6.926   1.352
14786TIP3   OH244314   8.063   7.087   4.300
14786TIP3    H144315   7.999   7.017   4.316
14786TIP3    H244316   8.073   7.130   4.385
14787TIP3   OH244317   7.186   6.196   3.220
14787TIP3    H144318   7.131   6.192   3.141
14787TIP3    H244319   7.201   6.105   3.243
14788TIP3   OH244320   7.402   3.635   0.209
14788TIP3    H144321   7.474   3.630   0.146
14788TIP3    H244322   7.369   3.725   0.199
14789TIP3   OH244323   0.545   2.901   0.805
14789TIP3    H144324   0.516   2.817   0.839
14789TIP3    H244325   0.616   2.879   0.745
14790TIP3   OH244326   3.981   4.290   4.992
14790TIP3    H144327   3.929   4.299   5.071
14790TIP3    H244328   3.988   4.379   4.957
14791TIP3   OH244329   2.404   5.351   1.281
14791TIP3    H144330   2.379   5.358   1.189
14791TIP3    H244331   2.497   5.330   1.279
14792TIP3   OH244332   8.120   4.368   4.996
14792TIP3    H144333   8.089   4.279   4.980
14792TIP3    H244334   8.168   4.391   4.917
14793TIP3   OH244335   1.620   2.572   3.020
14793TIP3    H144336   1.559   2.640   3.049
14793TIP3    H244337   1.612   2.503   3.086
14794TIP3   OH244338   6.123   4.373   4.312
14794TIP3    H144339   6.211   4.354   4.279
14794TIP3    H244340   6.071   4.390   4.233
14795TIP3   OH244341   1.846   0.987   3.604
14795TIP3    H144342   1.839   0.939   3.686
14795TIP3    H244343   1.914   0.940   3.555
14796TIP3   OH244344   0.907   6.219   3.877
14796TIP3    H144345   0.974   6.256   3.818
14796TIP3    H244346   0.937   6.130   3.893
14797TIP3   OH244347   2.679   0.045   4.366
14797TIP3    H144348   2.762   0.079   4.331
14797TIP3    H244349   2.628   0.021   4.289
14798TIP3   OH244350   1.376   1.341   0.425
14798TIP3    H144351   1.328   1.314   0.347
14798TIP3    H244352   1.412   1.260   0.461
14799TIP3   OH244353   5.561   2.402   0.691
14799TIP3    H144354   5.530   2.356   0.613
14799TIP3    H244355   5.651   2.371   0.704
14800TIP3   OH244356   1.426   4.765   1.959
14800TIP3    H144357   1.447   4.730   1.872
14800TIP3    H244358   1.496   4.732   2.015
14801TIP3   OH244359   0.779   1.095   1.950
14801TIP3    H144360   0.835   1.151   1.897
14801TIP3    H244361   0.725   1.047   1.887
14802TIP3   OH244362   7.850   4.363   1.528
14802TIP3    H144363   7.903   4.409   1.593
14802TIP3    H244364   7.878   4.272   1.533
14803TIP3   OH244365   3.082   6.099   3.900
14803TIP3    H144366   3.169   6.130   3.876
14803TIP3    H244367   3.083   6.094   3.995
14804TIP3   OH244368   5.260   0.771   1.186
14804TIP3    H144369   5.273   0.860   1.218
14804TIP3    H244370   5.330   0.757   1.123
14805TIP3   OH244371   5.468   2.575   6.247
14805TIP3    H144372   5.416   2.521   6.188
14805TIP3    H244373   5.471   2.526   6.329
14806TIP3   OH244374   3.784   4.703   2.843
14806TIP3    H144375   3.708   4.708   2.901
14806TIP3    H244376   3.821   4.615   2.859
14807TIP3   OH244377   1.260   0.875   5.443
14807TIP3    H144378   1.247   0.966   5.415
14807TIP3    H244379   1.280   0.829   5.361
14808TIP3   OH244380   3.824   3.660   0.119
14808TIP3    H144381   3.751   3.601   0.139
14808TIP3    H244382   3.879   3.609   0.060
14809TIP3   OH244383   6.712   2.293   6.137
14809TIP3    H144384   6.745   2.245   6.062
14809TIP3    H244385   6.750   2.249   6.213
14810TIP3   OH244386   7.972   3.441   4.336
14810TIP3    H144387   7.881   3.468   4.351
14810TIP3    H244388   8.010   3.512   4.284
14811TIP3   OH244389   4.939   1.309   4.120
14811TIP3    H144390   4.848   1.278   4.114
14811TIP3    H244391   4.953   1.357   4.039
14812TIP3   OH244392   1.031   3.043   6.402
14812TIP3    H144393   0.988   2.972   6.354
14812TIP3    H244394   1.064   3.003   6.482
14813TIP3   OH244395   8.003   4.470   4.530
14813TIP3    H144396   7.927   4.422   4.564
14813TIP3    H244397   8.041   4.411   4.464
14814TIP3   OH244398   6.827   3.057   2.314
14814TIP3    H144399   6.834   3.151   2.296
14814TIP3    H244400   6.791   3.052   2.402
14815TIP3   OH244401   4.868   1.668   5.002
14815TIP3    H144402   4.876   1.600   5.069
14815TIP3    H244403   4.956   1.708   4.999
14816TIP3   OH244404   2.258   7.319   3.427
14816TIP3    H144405   2.176   7.335   3.474
14816TIP3    H244406   2.326   7.322   3.495
14817TIP3   OH244407   2.620   2.061   1.184
14817TIP3    H144408   2.714   2.048   1.191
14817TIP3    H244409   2.595   2.104   1.266
14818TIP3   OH244410   6.372   1.264   6.157
14818TIP3    H144411   6.419   1.334   6.203
14818TIP3    H244412   6.301   1.309   6.110
14819TIP3   OH244413   7.467   7.107   6.767
14819TIP3    H144414   7.557   7.115   6.736
14819TIP3    H244415   7.475   7.063   6.852
14820TIP3   OH244416   2.663   2.756   1.323
14820TIP3    H144417   2.578   2.713   1.332
14820TIP3    H244418   2.706   2.742   1.408
14821TIP3   OH244419   6.464   3.818   2.958
14821TIP3    H144420   6.389   3.821   2.897
14821TIP3    H244421   6.523   3.886   2.926
14822TIP3   OH244422   4.702   0.194   4.238
14822TIP3    H144423   4.793   0.189   4.267
14822TIP3    H244424   4.680   0.103   4.214
14823TIP3   OH244425   0.457   6.909   3.794
14823TIP3    H144426   0.472   7.004   3.797
14823TIP3    H244427   0.538   6.871   3.826
14824TIP3   OH244428   1.441   1.497   4.493
14824TIP3    H144429   1.527   1.514   4.455
14824TIP3    H244430   1.455   1.503   4.588
14825TIP3   OH244431   5.726   6.573   6.450
14825TIP3    H144432   5.694   6.519   6.522
14825TIP3    H244433   5.807   6.531   6.421
14826TIP3   OH244434   2.184   1.034   0.548
14826TIP3    H144435   2.117   1.009   0.611
14826TIP3    H244436   2.152   1.116   0.510
14827TIP3   OH244437   5.856   3.029   0.690
14827TIP3    H144438   5.854   3.117   0.654
14827TIP3    H244439   5.809   3.035   0.773
14828TIP3   OH244440   7.124   1.023   4.705
14828TIP3    H144441   7.181   0.949   4.684
14828TIP3    H244442   7.167   1.067   4.778
14829TIP3   OH244443   0.090   4.811   3.522
14829TIP3    H144444   0.003   4.773   3.535
14829TIP3    H244445   0.146   4.764   3.585
14830TIP3   OH244446   5.307   1.111   1.802
14830TIP3    H144447   5.345   1.196   1.827
14830TIP3    H244448   5.267   1.078   1.883
14831TIP3   OH244449   6.495   4.719   5.248
14831TIP3    H144450   6.536   4.774   5.182
14831TIP3    H244451   6.566   4.663   5.281
14832TIP3   OH244452   6.025   2.197   2.003
14832TIP3    H144453   6.080   2.134   2.049
14832TIP3    H244454   6.040   2.280   2.049
14833TIP3   OH244455   4.848   3.948   2.139
14833TIP3    H144456   4.860   3.906   2.225
14833TIP3    H244457   4.904   4.026   2.143
14834TIP3   OH244458   8.060   4.517   3.214
14834TIP3    H144459   7.997   4.445   3.205
14834TIP3    H244460   8.025   4.586   3.157
14835TIP3   OH244461   6.421   7.185   1.883
14835TIP3    H144462   6.460   7.137   1.811
14835TIP3    H244463   6.483   7.255   1.902
14836TIP3   OH244464   1.285   5.146   5.691
14836TIP3    H144465   1.306   5.191   5.773
14836TIP3    H244466   1.366   5.100   5.668
14837TIP3   OH244467   5.384   1.556   2.038
14837TIP3    H144468   5.479   1.561   2.047
14837TIP3    H244469   5.359   1.638   1.996
   8.29734   7.82280   6.77474   0.00000   0.00000  -2.76578   0.00000  -2.76578  -3.91140
