Title
44463
    1GLY      N    1   2.303   3.232   3.989  0.2283  0.7067  0.1788
    1GLY    HT1    2   2.238   3.286   4.049  0.4635  1.2093 -0.0158
    1GLY    HT2    3   2.273   3.251   3.892  1.8662  1.3101 -0.2451
    1GLY    HT3    4   2.402   3.258   4.011  1.8515 -3.0889 -1.6847
    1GLY     CA    5   2.296   3.089   4.024  0.2630 -0.2403 -0.4719
    1GLY    HA1    6   2.287   3.034   3.932  0.7038  0.5909 -1.0162
    1GLY    HA2    7   2.204   3.082   4.080 -0.2864  0.8164 -1.2323
    1GLY      C    8   2.408   3.036   4.116  0.7394  0.7574 -0.1752
    1GLY      O    9   2.503   3.108   4.146 -0.1523  1.0040  0.5635
    2PRO      N   10   2.390   2.913   4.149 -0.7022 -0.0679 -0.4636
    2PRO     CD   11   2.299   2.819   4.082  0.4789 -0.1156  0.0018
    2PRO    HD1   12   2.347   2.788   3.987  0.4903 -1.0247  0.2934
    2PRO    HD2   13   2.198   2.860   4.061  0.5322  0.3560  0.6376
    2PRO     CA   14   2.476   2.848   4.246  0.1244  0.9172 -0.1409
    2PRO     HA   15   2.449   2.902   4.336 -0.7602  0.7791 -0.3142
    2PRO     CB   16   2.418   2.700   4.249  0.6534  0.7610 -0.7955
    2PRO    HB1   17   2.401   2.658   4.350  1.6713 -0.0821 -0.9634
    2PRO    HB2   18   2.492   2.632   4.202 -1.0595 -2.4821  0.8906
    2PRO     CG   19   2.283   2.696   4.173  0.1278  0.3228  0.1563
    2PRO    HG1   20   2.272   2.599   4.121  0.7780 -0.3415  1.2244
    2PRO    HG2   21   2.197   2.713   4.241  0.1483  3.0850 -0.3768
    2PRO      C   22   2.620   2.848   4.221 -0.3708  0.2431 -0.6169
    2PRO      O   23   2.655   2.841   4.106 -0.2544  0.4922  0.2266
    3GLY      N   24   2.701   2.853   4.328 -0.2650 -0.1675 -0.2383
    3GLY     HN   25   2.675   2.834   4.422  0.6326 -0.4966 -0.0533
    3GLY     CA   26   2.847   2.856   4.320  0.0540 -0.3809  0.6494
    3GLY    HA1   27   2.890   2.877   4.417 -1.8115 -1.3361  1.7248
    3GLY    HA2   28   2.880   2.934   4.252 -1.3481 -1.9081 -1.9421
    3GLY      C   29   2.916   2.735   4.268  0.3606  0.4735 -0.8105
    3GLY      O   30   2.859   2.633   4.232  0.6074 -0.4100  0.4505
    4ASP      N   31   3.049   2.737   4.268  0.5014 -0.3083  0.7680
    4ASP     HN   32   3.103   2.821   4.267 -0.9905  0.8107 -3.1633
    4ASP     CA   33   3.136   2.628   4.228  0.3855  1.0017 -0.2233
    4ASP     HA   34   3.111   2.600   4.126  0.6997 -1.7536  0.3759
    4ASP     CB   35   3.285   2.676   4.206 -0.0163 -0.3713 -0.3532
    4ASP    HB1   36   3.354   2.588   4.204 -0.0153 -0.3568 -1.0954
    4ASP    HB2   37   3.312   2.733   4.298 -0.6370  0.3956 -0.6362
    4ASP     CG   38   3.314   2.754   4.082 -0.1252  0.4569  0.2575
    4ASP    OD1   39   3.244   2.758   3.979 -0.8990 -0.0390  0.0241
    4ASP    OD2   40   3.415   2.827   4.091  0.1589 -0.4642 -0.2957
    4ASP      C   41   3.133   2.506   4.318  0.0503 -0.2603 -0.7237
    4ASP      O   42   3.107   2.534   4.435 -0.2607 -0.2075  0.1108
    5PRO      N   43   3.155   2.376   4.282  0.2775 -0.0764  0.1871
    5PRO     CD   44   3.150   2.337   4.142  0.0794  0.5762  0.6256
    5PRO    HD1   45   3.241   2.380   4.094  1.1023 -0.4903  1.5641
    5PRO    HD2   46   3.064   2.382   4.088  1.4885  0.9302 -1.4276
    5PRO     CA   47   3.136   2.255   4.365  0.2889 -0.5266  0.3677
    5PRO     HA   48   3.031   2.245   4.385 -0.1054  0.9200 -0.8079
    5PRO     CB   49   3.195   2.145   4.271  0.0008 -0.2927  0.2177
    5PRO    HB1   50   3.150   2.044   4.284 -1.3974  0.0448 -1.5829
    5PRO    HB2   51   3.305   2.150   4.260 -0.1520  1.7127 -0.7116
    5PRO     CG   52   3.141   2.184   4.133 -0.0815  0.0691 -0.6541
    5PRO    HG1   53   3.196   2.149   4.042 -0.9716 -0.1674 -1.1123
    5PRO    HG2   54   3.035   2.151   4.127 -0.9410  2.5882 -0.6447
    5PRO      C   55   3.215   2.246   4.497  0.2388  0.3584 -0.1042
    5PRO      O   56   3.324   2.301   4.514 -0.1177  0.0541 -0.7276
    6GLY      N   57   3.150   2.188   4.601 -0.2890  0.1262  0.6426
    6GLY     HN   58   3.063   2.141   4.584 -0.1376  0.6716 -2.1723
    6GLY     CA   59   3.199   2.163   4.730  1.0072 -0.2211 -0.0634
    6GLY    HA1   60   3.115   2.174   4.796  1.4460 -1.5770  0.7531
    6GLY    HA2   61   3.284   2.226   4.753  3.1240 -1.8799 -2.6728
    6GLY      C   62   3.247   2.016   4.743 -0.4246  0.4554  0.2055
    6GLY      O   63   3.255   1.943   4.640 -0.2376 -0.2324 -0.3059
    7PRO      N   64   3.266   1.965   4.869 -0.5389 -0.4700  0.1233
    7PRO     CD   65   3.259   2.046   4.989 -0.4932 -0.7207 -0.4322
    7PRO    HD1   66   3.157   2.050   5.033 -0.1018  1.8524  0.4035
    7PRO    HD2   67   3.303   2.148   4.986 -3.0371  0.4386 -1.6126
    7PRO     CA   68   3.303   1.826   4.895  1.0190 -0.1197  0.4035
    7PRO     HA   69   3.399   1.810   4.849  0.8471 -2.6115  0.7930
    7PRO     CB   70   3.320   1.820   5.044  0.0666  0.3445 -0.4884
    7PRO    HB1   71   3.416   1.767   5.065 -0.8016 -0.4570  1.7864
    7PRO    HB2   72   3.236   1.769   5.096  0.3278  1.8532  1.5682
    7PRO     CG   73   3.343   1.965   5.091 -0.0294  0.5591  0.1488
    7PRO    HG1   74   3.314   1.980   5.197 -2.0908  1.4975 -0.4937
    7PRO    HG2   75   3.450   1.992   5.072  1.2548 -2.8628  1.7410
    7PRO      C   76   3.207   1.725   4.836 -1.3372 -0.4406 -0.7702
    7PRO      O   77   3.090   1.744   4.832 -0.3309  0.0945  0.1682
    8GLY      N   78   3.266   1.615   4.784  0.0793  0.1176  0.6283
    8GLY     HN   79   3.362   1.592   4.796 -0.0706 -1.7394 -1.1630
    8GLY     CA   80   3.196   1.511   4.715  0.4552  0.0062 -0.1013
    8GLY    HA1   81   3.121   1.475   4.783  0.5433  2.6191  1.4608
    8GLY    HA2   82   3.258   1.424   4.694  1.1840  0.5050 -0.0509
    8GLY      C   83   3.128   1.555   4.588  0.2145  0.4129  0.3848
    8GLY      O   84   3.136   1.669   4.547 -0.1013 -0.5826 -0.1165
    9ASP      N   85   3.067   1.457   4.515 -0.2244 -0.0053 -0.1829
    9ASP     HN   86   3.076   1.362   4.544  0.3257 -0.3047 -1.2586
    9ASP     CA   87   3.003   1.473   4.385 -0.4463  0.2657  1.1249
    9ASP     HA   88   3.077   1.509   4.315 -0.0383 -1.6262  0.5438
    9ASP     CB   89   2.958   1.348   4.319 -0.3087  1.1141 -0.0428
    9ASP    HB1   90   2.906   1.356   4.221  2.1287  0.8793 -1.4600
    9ASP    HB2   91   2.905   1.282   4.391  0.7730 -1.2716 -1.2884
    9ASP     CG   92   3.081   1.258   4.292  0.1002  0.1304 -0.1983
    9ASP    OD1   93   3.116   1.247   4.176  0.1704 -0.1572 -0.1779
    9ASP    OD2   94   3.132   1.191   4.387 -0.2312  0.9465  0.2017
    9ASP      C   95   2.883   1.574   4.397 -0.3103 -0.5265  0.2411
    9ASP      O   96   2.805   1.548   4.489 -0.2463 -0.2900 -0.0853
   10PRO      N   97   2.868   1.688   4.331 -0.6232 -0.1251  0.5395
   10PRO     CD   98   2.964   1.747   4.235  0.0716 -0.5138 -0.1350
   10PRO    HD1   99   2.980   1.679   4.149  1.8387  0.7816 -0.8992
   10PRO    HD2  100   3.061   1.765   4.287 -1.0534  0.6082  1.6956
   10PRO     CA  101   2.734   1.756   4.330 -0.0587  0.3573  0.1074
   10PRO     HA  102   2.731   1.810   4.423  0.1125  1.0416 -0.2721
   10PRO     CB  103   2.745   1.872   4.224 -0.5274  0.4655  0.1230
   10PRO    HB1  104   2.703   1.970   4.256 -0.2060  1.1874 -1.6087
   10PRO    HB2  105   2.709   1.843   4.123  1.4496 -1.0658 -0.2167
   10PRO     CG  106   2.900   1.883   4.200  0.4870  0.0052 -0.8436
   10PRO    HG1  107   2.897   1.906   4.092 -1.9367  3.2559 -0.2770
   10PRO    HG2  108   2.951   1.968   4.251  2.5715 -1.3209 -0.6056
   10PRO      C  109   2.602   1.677   4.311  0.5283 -0.4902 -0.2033
   10PRO      O  110   2.597   1.584   4.225  0.3178 -0.3879 -0.3207
   11GLY      N  111   2.492   1.717   4.379 -0.1261 -0.8223  0.2866
   11GLY     HN  112   2.501   1.801   4.432  0.5984 -0.9481  0.3810
   11GLY     CA  113   2.354   1.667   4.354 -0.9026 -0.1613  0.3123
   11GLY    HA1  114   2.325   1.682   4.251 -1.1513 -0.3989  0.3480
   11GLY    HA2  115   2.291   1.713   4.429  0.4842 -1.4555  2.3795
   11GLY      C  116   2.331   1.518   4.380  0.1911  0.3097  0.2857
   11GLY      O  117   2.428   1.447   4.421 -0.0568  0.3742  0.5265
   12PRO      N  118   2.202   1.467   4.357  0.0804 -0.7013 -0.1451
   12PRO     CD  119   2.096   1.550   4.296  0.3624 -0.0463 -0.6741
   12PRO    HD1  120   2.125   1.572   4.191 -0.0773  4.4464 -0.0537
   12PRO    HD2  121   2.083   1.644   4.353  0.1079 -0.6595  0.3068
   12PRO     CA  122   2.147   1.340   4.402  0.7668  0.0950  0.0629
   12PRO     HA  123   2.116   1.362   4.503  2.4982  0.6718  0.4986
   12PRO     CB  124   2.028   1.320   4.314  0.2155  0.1754 -0.2308
   12PRO    HB1  125   1.953   1.248   4.352  1.1576 -0.1979  0.9734
   12PRO    HB2  126   2.060   1.281   4.215  0.2006  0.4634 -0.3485
   12PRO     CG  127   1.974   1.457   4.300  0.1955 -0.5557  0.4699
   12PRO    HG1  128   1.913   1.471   4.209 -0.4427 -3.7318  0.2985
   12PRO    HG2  129   1.912   1.494   4.384 -0.2632  1.9968 -0.8872
   12PRO      C  130   2.243   1.219   4.413 -0.2079 -0.3724 -0.0573
   12PRO      O  131   2.321   1.199   4.320  0.6119  0.3990  0.1749
   13GLY      N  132   2.231   1.139   4.525  0.1346  0.0918  0.1351
   13GLY     HN  133   2.152   1.155   4.585  0.0098 -1.8115  0.5604
   13GLY     CA  134   2.309   1.020   4.567 -0.0588  0.4221 -0.0436
   13GLY    HA1  135   2.310   1.010   4.674 -0.1978 -1.9256 -0.2156
   13GLY    HA2  136   2.409   1.027   4.527  0.5012 -0.4520  1.1548
   13GLY      C  137   2.266   0.886   4.510 -0.5458 -0.3915 -0.3878
   13GLY      O  138   2.203   0.876   4.407 -0.6662  0.1049  0.1208
   14ASP      N  139   2.300   0.777   4.581  0.2492  0.5976  0.9925
   14ASP     HN  140   2.338   0.788   4.672 -1.9547  1.3555  1.8912
   14ASP     CA  141   2.278   0.639   4.534 -0.3189 -0.1057 -0.1243
   14ASP     HA  142   2.263   0.636   4.427 -0.2877  0.6248 -0.1551
   14ASP     CB  143   2.404   0.552   4.565 -1.0846 -0.0826 -0.5463
   14ASP    HB1  144   2.387   0.446   4.538 -2.0914 -0.4012  1.1769
   14ASP    HB2  145   2.422   0.572   4.673 -1.2646 -1.9795 -0.1321
   14ASP     CG  146   2.531   0.598   4.491  0.6293  0.4095  0.0630
   14ASP    OD1  147   2.534   0.643   4.380 -0.2328  0.2664 -0.1620
   14ASP    OD2  148   2.638   0.562   4.545  0.1537 -0.5302 -0.3972
   14ASP      C  149   2.161   0.567   4.602 -0.3107 -0.2122 -0.1554
   14ASP      O  150   2.143   0.578   4.724 -0.1829 -0.0914 -0.5265
   15PRO      N  151   2.072   0.496   4.529 -0.0784  0.2128  0.6159
   15PRO     CD  152   2.051   0.521   4.385 -0.2340  0.0739  0.5357
   15PRO    HD1  153   2.111   0.452   4.321  0.2061  1.7022 -0.8974
   15PRO    HD2  154   2.071   0.627   4.356  0.2206 -0.5195 -1.5065
   15PRO     CA  155   1.961   0.428   4.586  0.3147  0.3810  0.3473
   15PRO     HA  156   1.914   0.492   4.658  1.3901  1.9330 -0.2834
   15PRO     CB  157   1.878   0.397   4.465  0.1151 -0.3531  0.1678
   15PRO    HB1  158   1.771   0.375   4.485  0.4181 -0.4862  1.7920
   15PRO    HB2  159   1.916   0.304   4.419 -2.1065 -0.3355 -1.9172
   15PRO     CG  160   1.903   0.503   4.367 -0.3077  1.0469  0.1668
   15PRO    HG1  161   1.880   0.451   4.271  0.7391  0.0530  0.4210
   15PRO    HG2  162   1.859   0.600   4.399  0.7452  0.8170  2.5576
   15PRO      C  163   2.003   0.310   4.662 -0.2855  0.1558  0.3974
   15PRO    OT1  164   2.102   0.240   4.619 -0.2012 -0.3540 -0.1791
   15PRO    OT2  165   1.953   0.281   4.771  0.3648 -0.2181 -0.3805
   16LIT    LIT  166   2.116   0.217   4.823  0.4868 -1.1047  0.0484
   17LIT    LIT  167   1.309   2.000   5.420 -1.0830 -0.6736  0.2571
   18LIT    LIT  168   2.855   7.244   1.141 -0.1101 -0.4908  0.7833
   19LIT    LIT  169   5.926   5.762   4.346 -0.9039 -0.2956 -0.8747
   20LIT    LIT  170   1.989   5.154   2.541  0.3126 -0.0871 -0.5166
   21LIT    LIT  171   1.687   2.823   3.546  0.6711  0.3266  0.3775
   22LIT    LIT  172   1.102   1.335   4.508  0.7196  0.3050  0.4788
   23LIT    LIT  173   2.473   2.839   1.933 -0.5427  0.0544 -0.1898
   24LIT    LIT  174   7.456   1.489   6.532  0.8909 -1.5260  0.7469
   25LIT    LIT  175   3.960   1.029   3.483 -0.4685  0.5013 -0.9634
   26LIT    LIT  176   5.912   2.236   4.718 -0.3405 -0.7900  0.7964
   27LIT    LIT  177   4.287   7.639   0.162  0.2707 -0.2665  0.6535
   28LIT    LIT  178   5.131   1.732   4.728  0.4423  0.4071 -0.6714
   29LIT    LIT  179   3.054   4.978   1.643 -0.3696  0.0232  0.3175
   30LIT    LIT  180   7.293   6.880   6.664  0.4752  0.6919  0.5469
   31LIT    LIT  181   7.728   6.065   6.015 -0.5735  0.5343  0.3159
   32LIT    LIT  182   5.101   3.973   0.274 -0.3542 -0.4095 -0.0262
   33LIT    LIT  183   6.849   1.891   2.446 -0.8487  0.8563 -0.8601
   34LIT    LIT  184   4.282   6.275   2.596 -0.3685 -0.6083 -0.1919
   35LIT    LIT  185   4.405   7.156   5.214  0.1764  0.8845 -0.1762
   36LIT    LIT  186   0.851   6.858   4.357 -0.1173  0.0718  0.5027
   37LIT    LIT  187   0.970   5.504   1.206 -0.2866  0.2610 -0.0823
   38LIT    LIT  188   3.512   6.969   4.455  1.1758  0.1912  0.3645
   39LIT    LIT  189   2.312   0.981   4.053  0.2868 -0.1550 -0.4927
   40LIT    LIT  190   2.099   2.011   3.742  0.2155  1.1723 -0.1802
   41LIT    LIT  191   5.120   0.349   3.351 -0.3739 -0.4720  0.9234
   42LIT    LIT  192   0.976   1.669   0.046  0.2130  0.3989  1.2226
   43LIT    LIT  193   3.984   3.531   1.631 -0.4159  0.5409  0.1621
   44LIT    LIT  194   5.244   7.809   6.117 -0.0402  0.0369  0.5562
   45LIT    LIT  195   6.265   6.985   3.175 -0.9139  0.0804  0.0576
   46LIT    LIT  196   4.916   0.921   5.644 -0.1308 -0.4167  1.4740
   47LIT    LIT  197   0.758   5.823   2.599  1.0347 -0.1443 -0.3445
   48LIT    LIT  198   7.037   1.081   4.755  0.1320  0.5090  0.5438
   49LIT    LIT  199   1.491   0.033   6.104 -0.4827 -0.3177  0.2444
   50LIT    LIT  200   7.903   1.706   3.411  0.2304 -0.0095 -0.7451
   51LIT    LIT  201   1.880   1.797   2.096  0.2392  0.1306  0.6023
   52LIT    LIT  202   3.755   3.047   6.001  0.5410  0.1656  0.7646
   53LIT    LIT  203   0.323   3.085   0.005  0.3256 -0.2643 -0.7844
   54LIT    LIT  204   7.583   3.818   2.907  0.3548 -0.4052 -1.1120
   55LIT    LIT  205   4.843   7.497   3.235 -0.0105  0.0216 -0.0531
   56LIT    LIT  206   6.437   1.303   2.615  0.8753  0.3509 -0.5772
   57LIT    LIT  207   6.836   6.243   0.404  0.1991 -0.4757 -0.0269
   58LIT    LIT  208   2.721   0.623   4.358  0.8068  0.1255 -0.5447
   59LIT    LIT  209   0.211   5.187   4.064 -0.6355  0.1090 -0.0979
   60LIT    LIT  210   2.622   4.525   4.070 -0.2801  1.4846  0.6895
   61CLA    CLA  211   0.368   6.014   2.751 -0.0051 -0.2036 -0.0633
   62CLA    CLA  212   2.004   6.236   5.491  0.1401  0.6816  0.0923
   63CLA    CLA  213   0.665   1.318   4.684 -0.3458  0.2896 -0.1505
   64CLA    CLA  214   6.856   3.766   0.640 -0.0711  0.2789  0.1750
   65CLA    CLA  215   1.278   0.868   1.059  0.0369 -0.0908 -0.1521
   66CLA    CLA  216   1.076   1.481   5.593 -0.7086 -0.0293 -0.2542
   67CLA    CLA  217   7.479   7.101   5.733 -0.0497  0.2165  0.0608
   68CLA    CLA  218   6.477   0.527   3.563  0.2997  0.5392 -0.1057
   69CLA    CLA  219   3.667   3.691   4.778  0.5802 -0.3017 -0.3200
   70CLA    CLA  220   6.314   5.653   6.190  0.2071  0.2583 -0.1878
   71CLA    CLA  221   7.610   5.863   4.762 -0.6676 -0.3504 -0.1293
   72CLA    CLA  222   2.113   5.351   1.243 -0.4926  0.4126 -0.3686
   73CLA    CLA  223   0.326   3.836   2.579  0.1596  0.3431  0.3751
   74CLA    CLA  224   0.693   4.506   4.995  0.0220 -0.0601  0.0203
   75CLA    CLA  225   3.689   7.188   4.867 -0.1572  0.0878  0.1195
   76CLA    CLA  226   3.070   0.426   2.183 -0.0771  0.1241 -0.7452
   77CLA    CLA  227   2.314   5.644   4.360 -0.1925 -0.0639  0.0554
   78CLA    CLA  228   5.888   6.110   2.077 -0.1715  0.3338  0.0397
   79CLA    CLA  229   6.226   1.496   5.321 -0.0108  0.0269  0.3942
   80CLA    CLA  230   0.756   6.096   1.355 -0.0719 -0.0332 -0.0766
   81CLA    CLA  231   4.204   7.008   5.578 -0.1620 -0.4728  0.2223
   82CLA    CLA  232   0.865   0.395   6.687  0.3988 -0.2012  0.2937
   83CLA    CLA  233   3.526   4.790   0.967 -0.0492 -0.2555  0.0108
   84CLA    CLA  234   7.348   1.859   0.715 -0.3921 -0.3863 -0.0626
   85CLA    CLA  235   3.029   6.388   5.247  0.2799 -0.1653 -0.0912
   86CLA    CLA  236   7.356   4.434   2.730 -0.0791  0.4402  0.2721
   87CLA    CLA  237   3.313   6.678   2.160  0.0018  0.2461 -0.2390
   88CLA    CLA  238   4.634   3.412   0.763 -0.5378 -0.2455  0.0652
   89CLA    CLA  239   1.387   6.096   0.131 -0.0059 -0.0403 -0.3156
   90CLA    CLA  240   5.618   2.672   0.708  0.3293  0.0208  0.1150
   91CLA    CLA  241   4.484   3.452   4.589 -0.0329  0.5770 -0.4590
   92CLA    CLA  242   6.415   7.024   5.567  0.1539 -0.0049 -0.4540
   93CLA    CLA  243   4.269   1.872   4.842 -0.0456  0.4105 -0.0786
   94CLA    CLA  244   1.121   2.195   5.806 -0.2657 -0.1682  0.1822
   95CLA    CLA  245   3.059   6.183   1.653 -0.0142 -0.0847 -0.3540
   96CLA    CLA  246   8.179   2.144   2.937 -0.2514 -0.0965 -0.1119
   97CLA    CLA  247   0.583   2.131   4.061 -0.2877  0.1693 -0.5049
   98CLA    CLA  248   2.035   6.819   6.199  0.2181  0.1622 -0.0294
   99CLA    CLA  249   6.815   1.676   2.390  0.0677 -0.4284 -0.2515
  100CLA    CLA  250   2.910   3.211   4.515 -0.2535  0.0287  0.0688
  101CLA    CLA  251   1.581   2.904   3.738 -0.4109  0.1882  0.3359
  102CLA    CLA  252   7.115   7.793   3.603 -0.0921  0.2802 -0.4165
  103TIP3   OH2  253   3.682   5.326   1.041 -0.2410  0.4329 -0.3688
  103TIP3    H1  254   3.698   5.280   1.123 -1.9129  1.6112  0.6862
  103TIP3    H2  255   3.765   5.321   0.994  0.0919 -2.2818  0.3439
  104TIP3   OH2  256   0.756   2.140   2.080  0.4446  0.1176  0.7195
  104TIP3    H1  257   0.820   2.131   2.151  0.4876 -0.1437  0.6517
  104TIP3    H2  258   0.671   2.144   2.125  0.4692 -0.0832  0.7857
  105TIP3   OH2  259   6.916   0.940   2.652  0.6294  0.0495  0.5039
  105TIP3    H1  260   6.904   0.939   2.557  0.4700 -1.5747  0.5105
  105TIP3    H2  261   6.903   1.031   2.677  1.3107  0.6156 -1.1086
  106TIP3   OH2  262   6.046   6.493   0.099 -0.0958  0.6810  0.3789
  106TIP3    H1  263   5.971   6.548   0.122 -0.8870 -0.5028  0.7458
  106TIP3    H2  264   6.047   6.492   0.004  0.3326  1.8476  0.3592
  107TIP3   OH2  265   1.876   3.036   1.600 -0.2854  0.4021  0.3937
  107TIP3    H1  266   1.820   3.095   1.651  0.9322  1.0781  0.9893
  107TIP3    H2  267   1.878   2.955   1.651 -1.7464 -0.1168 -0.2937
  108TIP3   OH2  268   2.701   7.538   6.164  0.4360 -0.2966 -0.2751
  108TIP3    H1  269   2.652   7.456   6.154  1.3193 -0.8714 -0.0869
  108TIP3    H2  270   2.635   7.607   6.159 -0.4661 -1.0707  0.5941
  109TIP3   OH2  271   2.179   1.730   3.453 -0.5762  0.1473  0.4302
  109TIP3    H1  272   2.098   1.680   3.440 -0.1279 -0.4008 -0.3440
  109TIP3    H2  273   2.247   1.675   3.413  0.2115  0.4982  1.2698
  110TIP3   OH2  274   3.719   4.518   4.905 -0.0709 -0.7950  0.0095
  110TIP3    H1  275   3.626   4.503   4.920 -0.0021 -0.3981  0.8841
  110TIP3    H2  276   3.722   4.582   4.834 -0.5002  0.1014  0.7836
  111TIP3   OH2  277   6.283   5.582   4.429  0.0677  0.2648 -0.1454
  111TIP3    H1  278   6.240   5.510   4.382 -0.3623 -0.3694  1.1782
  111TIP3    H2  279   6.375   5.575   4.404  0.3195 -1.7407  1.1319
  112TIP3   OH2  280   7.726   7.040   1.499 -0.1027 -0.0799 -0.2844
  112TIP3    H1  281   7.718   7.091   1.579 -1.2627 -1.9910  0.8731
  112TIP3    H2  282   7.746   6.952   1.528 -0.6640 -0.8519 -2.0909
  113TIP3   OH2  283   0.407   7.169   1.718 -0.5731  0.2081  0.2793
  113TIP3    H1  284   0.378   7.131   1.801 -2.1920  0.8992  0.0669
  113TIP3    H2  285   0.475   7.232   1.742  0.4656 -1.0887  0.8499
  114TIP3   OH2  286   7.442   7.406   0.244 -0.5497 -0.5263 -0.0125
  114TIP3    H1  287   7.351   7.387   0.224 -1.4859  3.4827 -0.3300
  114TIP3    H2  288   7.439   7.467   0.317  1.9959 -1.3011  0.8406
  115TIP3   OH2  289   2.634   7.715   4.209 -0.4055 -0.3581  0.3226
  115TIP3    H1  290   2.647   7.797   4.162  1.7936 -1.4591 -1.1869
  115TIP3    H2  291   2.686   7.651   4.160 -0.0397 -2.1346  2.8252
  116TIP3   OH2  292   0.998   1.546   4.918 -0.3346 -0.6519 -0.1940
  116TIP3    H1  293   1.008   1.555   5.012  0.1891 -0.3818 -0.2719
  116TIP3    H2  294   0.904   1.536   4.904 -0.2867 -2.2758  0.4861
  117TIP3   OH2  295   7.735   2.665   3.731  0.1893  0.1228 -0.3835
  117TIP3    H1  296   7.809   2.604   3.730 -1.6098 -2.4679  3.0105
  117TIP3    H2  297   7.689   2.647   3.649  0.2521 -2.5895  0.0677
  118TIP3   OH2  298   1.089   2.260   1.164 -0.0072 -0.5321  0.0033
  118TIP3    H1  299   1.037   2.234   1.088 -1.5824  2.7669 -0.2175
  118TIP3    H2  300   1.128   2.344   1.140  1.5731 -0.6279  1.9358
  119TIP3   OH2  301   2.743   7.696   4.943 -0.6437  0.1459 -0.5613
  119TIP3    H1  302   2.702   7.756   4.881  2.6416  0.7481 -2.4226
  119TIP3    H2  303   2.718   7.609   4.912 -1.3501  0.4841 -0.9634
  120TIP3   OH2  304   3.168   0.866   4.873  0.0277  0.0252 -0.4505
  120TIP3    H1  305   3.096   0.912   4.829  0.7985  0.0159 -1.7679
  120TIP3    H2  306   3.228   0.842   4.802  1.0487 -0.4801  0.5574
  121TIP3   OH2  307   1.720   4.803   3.074 -0.1982  0.2483 -0.6641
  121TIP3    H1  308   1.761   4.759   3.000  0.0160  1.6656 -1.4330
  121TIP3    H2  309   1.699   4.890   3.041 -2.1027  0.1940  0.2914
  122TIP3   OH2  310   4.935   5.982   4.643 -0.0931  0.0124 -0.7148
  122TIP3    H1  311   4.992   6.059   4.644  0.8259 -0.5994  1.7546
  122TIP3    H2  312   4.955   5.938   4.561  2.0038  0.5708 -0.5582
  123TIP3   OH2  313   4.751   3.389   0.152  0.0106  0.7884 -0.1952
  123TIP3    H1  314   4.831   3.410   0.104  0.6512  0.7687  0.8382
  123TIP3    H2  315   4.770   3.307   0.197 -1.1679 -0.0758 -1.1997
  124TIP3   OH2  316   1.085   5.248   4.300 -0.4019  0.3046 -0.5975
  124TIP3    H1  317   1.160   5.307   4.307 -1.3567  1.5909 -0.7662
  124TIP3    H2  318   1.010   5.306   4.283 -1.5546 -0.8752  0.2411
  125TIP3   OH2  319   8.087   6.832   4.906 -0.0493  0.0790 -0.2975
  125TIP3    H1  320   8.022   6.809   4.972 -0.3876  0.1928 -0.5856
  125TIP3    H2  321   8.035   6.855   4.828  0.3322  0.2140 -0.5159
  126TIP3   OH2  322   8.127   2.827   0.855 -0.1505  0.1597  0.2824
  126TIP3    H1  323   8.088   2.768   0.789 -0.4777  0.2615  0.3813
  126TIP3    H2  324   8.121   2.778   0.937  0.4594 -0.0566  0.2021
  127TIP3   OH2  325   7.207   1.227   0.636 -0.1138  0.1222  0.0828
  127TIP3    H1  326   7.219   1.177   0.556  1.5858 -0.0927  0.4267
  127TIP3    H2  327   7.140   1.292   0.614  1.0844  0.7838 -1.8644
  128TIP3   OH2  328   3.601   1.524   1.995 -0.0760  0.4316 -0.6415
  128TIP3    H1  329   3.641   1.442   2.022  0.0692  0.5719 -0.4360
  128TIP3    H2  330   3.548   1.500   1.919  2.2870  0.6619 -2.4775
  129TIP3   OH2  331   0.918   1.906   1.079 -0.3151  0.3353 -0.0915
  129TIP3    H1  332   0.884   1.821   1.106  1.2295  0.2973  1.9739
  129TIP3    H2  333   0.978   1.886   1.008  1.5271 -0.6117  1.6444
  130TIP3   OH2  334   7.604   2.671   1.024 -0.0985  0.0058  0.1734
  130TIP3    H1  335   7.631   2.663   0.933  0.6025 -1.3532  0.4727
  130TIP3    H2  336   7.678   2.714   1.067 -1.0698  2.1088 -0.1563
  131TIP3   OH2  337   5.610   5.504   5.214  0.2292 -0.3088 -0.5952
  131TIP3    H1  338   5.694   5.508   5.261 -0.3072  0.8164  0.3139
  131TIP3    H2  339   5.559   5.438   5.261  0.4086 -0.6103 -0.8212
  132TIP3   OH2  340   5.870   3.827   2.987  0.3805  0.1610  0.0995
  132TIP3    H1  341   5.870   3.918   2.957 -0.1351 -0.5704 -2.3722
  132TIP3    H2  342   5.790   3.790   2.949  0.3641 -1.2355  1.4196
  133TIP3   OH2  343   1.848   5.847   6.363 -0.6459 -0.0221  0.0349
  133TIP3    H1  344   1.870   5.941   6.361  1.1201 -0.4073 -0.7166
  133TIP3    H2  345   1.896   5.813   6.439 -0.8586 -0.4180 -0.0077
  134TIP3   OH2  346   7.813   6.925   3.420  0.5118 -0.1761 -0.3420
  134TIP3    H1  347   7.750   6.941   3.490  0.9568 -0.3956  0.1142
  134TIP3    H2  348   7.764   6.875   3.355 -0.9882  3.0375 -1.9038
  135TIP3   OH2  349   4.686   4.279   5.358 -0.2894 -0.2900 -0.1551
  135TIP3    H1  350   4.628   4.279   5.281  0.6439 -1.4328 -0.8915
  135TIP3    H2  351   4.626   4.286   5.432 -1.1560  2.1554 -0.9739
  136TIP3   OH2  352   2.428   2.716   2.636 -0.1444  0.5103  0.6802
  136TIP3    H1  353   2.372   2.771   2.691 -0.1036  1.3160 -0.0638
  136TIP3    H2  354   2.443   2.768   2.557 -0.8408 -0.9476 -0.4530
  137TIP3   OH2  355   2.752   4.371   1.725 -0.0412 -0.0140 -0.5062
  137TIP3    H1  356   2.680   4.335   1.674  0.0604 -1.0893  0.0921
  137TIP3    H2  357   2.712   4.395   1.809  0.3945 -1.1323  0.0349
  138TIP3   OH2  358   5.238   5.700   5.124 -0.5086  0.6424  0.2245
  138TIP3    H1  359   5.180   5.776   5.121  0.1100  1.1030 -1.7769
  138TIP3    H2  360   5.317   5.729   5.078  0.0437 -0.9780  0.1091
  139TIP3   OH2  361   7.049   1.047   5.432 -0.0877 -0.4759 -0.6887
  139TIP3    H1  362   7.080   1.002   5.511  0.1682  2.2578  0.8908
  139TIP3    H2  363   7.127   1.089   5.396 -0.4002 -0.8469 -1.8359
  140TIP3   OH2  364   3.308   0.753   1.247  0.2455  0.2095 -0.1577
  140TIP3    H1  365   3.243   0.820   1.224  0.1777 -0.4143 -1.9630
  140TIP3    H2  366   3.273   0.672   1.208  0.9146 -0.6319  0.9408
  141TIP3   OH2  367   3.935   5.967   1.877  0.0571 -0.1595  0.3663
  141TIP3    H1  368   4.003   6.029   1.906 -0.6409  0.8587 -0.1200
  141TIP3    H2  369   3.856   5.994   1.924 -0.9424  1.1201 -1.9063
  142TIP3   OH2  370   4.926   6.610   3.322  0.1011  0.2510  0.2139
  142TIP3    H1  371   4.876   6.573   3.250  1.2524  1.4719 -1.3056
  142TIP3    H2  372   4.887   6.696   3.337  0.0860  0.1425  0.8279
  143TIP3   OH2  373   8.135   6.687   1.253  0.2765  0.0756  0.2498
  143TIP3    H1  374   8.158   6.745   1.180  1.9860 -1.1467 -0.2459
  143TIP3    H2  375   8.186   6.608   1.238 -0.2146 -0.6675  2.1773
  144TIP3   OH2  376   0.307   4.895   3.383 -0.1749 -0.0784  0.3166
  144TIP3    H1  377   0.334   4.814   3.426  2.1881 -0.4504 -1.6308
  144TIP3    H2  378   0.306   4.873   3.290  0.8282  2.1837 -0.2813
  145TIP3   OH2  379   0.812   7.723   0.321  0.5860  0.3924  0.1004
  145TIP3    H1  380   0.905   7.718   0.301  0.3519  0.0341 -0.9812
  145TIP3    H2  381   0.803   7.676   0.404  1.0119 -1.9443 -1.0961
  146TIP3   OH2  382   4.270   7.707   3.235 -0.1234  0.1918 -0.1457
  146TIP3    H1  383   4.286   7.621   3.274  0.1111 -0.2307 -1.1455
  146TIP3    H2  384   4.204   7.691   3.167 -1.2714  1.0886  0.7169
  147TIP3   OH2  385   0.817   4.363   4.003  0.1049 -0.2202  0.6182
  147TIP3    H1  386   0.722   4.377   4.005  0.1262  0.1512 -0.3151
  147TIP3    H2  387   0.842   4.355   4.095 -0.6054  1.3075  0.9812
  148TIP3   OH2  388   4.284   2.920   6.617  0.2504  0.0031 -0.4096
  148TIP3    H1  389   4.209   2.881   6.661 -0.0638 -1.2374 -1.9428
  148TIP3    H2  390   4.304   2.999   6.668 -0.6227 -0.8751  1.3720
  149TIP3   OH2  391   4.097   4.587   0.512  0.1949  0.0730  0.3987
  149TIP3    H1  392   4.117   4.495   0.497  0.1233  0.2139 -0.6522
  149TIP3    H2  393   4.010   4.599   0.473  0.1896  0.5759  0.5563
  150TIP3   OH2  394   6.846   5.780   4.217 -0.5137  0.1911 -0.3489
  150TIP3    H1  395   6.872   5.826   4.137 -0.8657  0.6045 -0.2301
  150TIP3    H2  396   6.759   5.815   4.238 -2.0665 -2.4889 -1.7566
  151TIP3   OH2  397   2.662   5.058   4.672  0.0033  0.3060  0.3403
  151TIP3    H1  398   2.704   5.027   4.753  1.0136  1.8214  0.4341
  151TIP3    H2  399   2.703   5.143   4.655 -0.0549 -0.0672 -1.8885
  152TIP3   OH2  400   4.688   3.607   5.506  0.4684 -0.1691  0.1833
  152TIP3    H1  401   4.626   3.536   5.493 -0.3582  0.1955  1.8607
  152TIP3    H2  402   4.648   3.682   5.462  0.5299 -0.3324 -0.1548
  153TIP3   OH2  403   7.485   5.208   1.874 -0.1936 -0.3681  0.1383
  153TIP3    H1  404   7.497   5.242   1.786 -1.6990 -2.1525 -0.8425
  153TIP3    H2  405   7.566   5.160   1.892 -0.6237 -1.6557 -1.1378
  154TIP3   OH2  406   6.176   7.592   3.744  0.7503  0.3833  0.6960
  154TIP3    H1  407   6.127   7.557   3.670 -0.6715  0.0025  1.7590
  154TIP3    H2  408   6.179   7.686   3.729  0.7573  0.2796  0.0120
  155TIP3   OH2  409   5.398   1.468   2.570  0.0226  0.3029  0.2075
  155TIP3    H1  410   5.468   1.532   2.565  0.3831 -0.0119  0.9812
  155TIP3    H2  411   5.352   1.475   2.486  1.3808  0.0361 -0.5824
  156TIP3   OH2  412   7.349   2.938   6.427  0.5390 -0.1806 -0.5030
  156TIP3    H1  413   7.383   2.862   6.380  1.5381  0.5855 -1.0454
  156TIP3    H2  414   7.292   2.982   6.364  0.7465  0.0652 -0.5174
  157TIP3   OH2  415   7.860   3.098   3.134 -0.0486 -0.0219 -0.5028
  157TIP3    H1  416   7.905   3.038   3.194 -1.5241 -1.5862 -0.8900
  157TIP3    H2  417   7.928   3.122   3.070  1.5254  1.6029  1.6137
  158TIP3   OH2  418   2.817   4.531   2.454  0.0854 -0.2040  0.5235
  158TIP3    H1  419   2.757   4.592   2.497 -0.2735 -0.2863  0.1543
  158TIP3    H2  420   2.760   4.462   2.420  0.2907  0.1335 -0.5434
  159TIP3   OH2  421   0.299   1.346   2.193 -0.0383  0.2359 -0.1957
  159TIP3    H1  422   0.363   1.277   2.180  1.2595  1.2672  0.5551
  159TIP3    H2  423   0.239   1.311   2.259  1.1245  0.1507  0.8416
  160TIP3   OH2  424   2.427   4.619   0.450 -0.0322 -0.2572 -0.5100
  160TIP3    H1  425   2.491   4.618   0.379 -0.3987 -0.5291 -0.8423
  160TIP3    H2  426   2.356   4.674   0.417 -1.7715 -3.0414 -1.7837
  161TIP3   OH2  427   0.578   0.382   4.413  0.1566  0.1616 -0.0068
  161TIP3    H1  428   0.602   0.309   4.470 -0.4117 -0.3059 -0.3561
  161TIP3    H2  429   0.538   0.446   4.472  2.2077  0.9735  0.5963
  162TIP3   OH2  430   6.975   2.233   0.918 -0.0254 -0.2146  0.1657
  162TIP3    H1  431   7.011   2.151   0.952  2.4995  0.7321 -0.0224
  162TIP3    H2  432   7.047   2.273   0.869 -0.8123  2.6033  1.0790
  163TIP3   OH2  433   6.148   3.101   3.877 -0.0987  0.6156 -0.1364
  163TIP3    H1  434   6.157   3.186   3.833 -0.8566  0.8326  0.1148
  163TIP3    H2  435   6.054   3.089   3.886  0.0282  0.2028  0.7188
  164TIP3   OH2  436   5.453   1.537   5.237  0.2794 -0.1018  0.5614
  164TIP3    H1  437   5.502   1.611   5.274  2.9623 -1.7282  0.5361
  164TIP3    H2  438   5.436   1.480   5.311  0.0633 -0.4049  0.2813
  165TIP3   OH2  439   3.635   4.180   5.567 -0.8743 -0.0951 -0.1355
  165TIP3    H1  440   3.617   4.263   5.522  1.2397  0.4021 -0.2084
  165TIP3    H2  441   3.595   4.113   5.513 -1.6251  0.7906 -0.7010
  166TIP3   OH2  442   1.823   6.870   6.676 -0.0175  0.3200 -0.3869
  166TIP3    H1  443   1.830   6.952   6.628  2.5144  0.5400  0.2359
  166TIP3    H2  444   1.912   6.850   6.704 -0.5392 -2.6451 -0.4895
  167TIP3   OH2  445   0.152   1.603   5.788 -0.3444 -0.3237 -0.1691
  167TIP3    H1  446   0.101   1.537   5.835 -0.9945 -1.1624 -1.9544
  167TIP3    H2  447   0.111   1.686   5.813 -1.1693 -0.8058  0.1402
  168TIP3   OH2  448   2.541   7.273   1.986 -0.3946 -0.1011  0.1049
  168TIP3    H1  449   2.458   7.244   1.948  1.0607 -0.6045 -2.9324
  168TIP3    H2  450   2.593   7.193   1.993  0.6782  0.5422 -0.3358
  169TIP3   OH2  451   6.742   1.030   6.259 -0.1035 -0.6186 -0.1382
  169TIP3    H1  452   6.785   1.070   6.334  0.6157 -1.6114 -0.0039
  169TIP3    H2  453   6.650   1.054   6.269  0.3789  1.6109 -0.4838
  170TIP3   OH2  454   2.318   0.960   1.252 -0.3335  0.4247  0.1489
  170TIP3    H1  455   2.354   0.882   1.210 -1.1082  0.8155 -1.3076
  170TIP3    H2  456   2.256   0.927   1.316  0.5824 -0.1828  0.7365
  171TIP3   OH2  457   5.865   4.452   5.932  0.7556 -0.0997 -0.2603
  171TIP3    H1  458   5.900   4.534   5.897 -1.2136  0.8016 -0.2072
  171TIP3    H2  459   5.844   4.401   5.854  0.2977  0.1900 -0.3285
  172TIP3   OH2  460   1.080   7.744   1.709 -0.0359  0.5237  0.0236
  172TIP3    H1  461   1.129   7.756   1.790 -0.1811 -0.8651  0.3404
  172TIP3    H2  462   1.140   7.697   1.651 -0.5723 -0.1746  0.0141
  173TIP3   OH2  463   8.062   1.455   1.737  0.1044 -0.2045 -0.3131
  173TIP3    H1  464   8.066   1.535   1.684  0.1900  0.1580  0.2382
  173TIP3    H2  465   8.111   1.476   1.816 -1.6486 -0.0752  0.7885
  174TIP3   OH2  466   6.998   5.595   3.840 -0.5132 -0.3037 -0.2629
  174TIP3    H1  467   6.976   5.505   3.814  0.3856 -1.1305  1.6578
  174TIP3    H2  468   7.065   5.622   3.778  1.7131 -2.2868  1.1289
  175TIP3   OH2  469   4.274   7.259   0.935 -0.4668 -0.0670  0.0892
  175TIP3    H1  470   4.368   7.276   0.945 -0.7076  0.9729  0.6690
  175TIP3    H2  471   4.264   7.234   0.843  0.1202  1.6618 -0.4750
  176TIP3   OH2  472   6.846   3.346   5.459 -0.2790  0.3919 -0.3776
  176TIP3    H1  473   6.886   3.428   5.431  1.2390  0.5975  2.0263
  176TIP3    H2  474   6.760   3.371   5.492  0.5180  1.2419  1.1772
  177TIP3   OH2  475   1.700   6.250   4.871 -0.3131 -0.0532 -0.4504
  177TIP3    H1  476   1.608   6.238   4.895  0.2819 -1.2536  1.4623
  177TIP3    H2  477   1.705   6.342   4.842 -2.2866 -0.2581 -1.7299
  178TIP3   OH2  478   4.066   6.267   1.142 -0.0800 -0.0784 -0.2429
  178TIP3    H1  479   4.059   6.340   1.204  0.3311 -0.5948  0.4256
  178TIP3    H2  480   3.987   6.214   1.158  1.4075 -1.8062  1.9610
  179TIP3   OH2  481   8.036   3.774   4.910  0.1580 -0.5827 -0.5169
  179TIP3    H1  482   8.025   3.824   4.991 -0.9545 -1.1219 -0.3103
  179TIP3    H2  483   8.130   3.760   4.902  0.5177  1.5666 -0.6067
  180TIP3   OH2  484   2.468   1.687   5.961  0.5137 -0.3917 -0.0913
  180TIP3    H1  485   2.373   1.699   5.956  0.7484  1.2489 -2.6744
  180TIP3    H2  486   2.481   1.622   6.030 -2.5449 -1.5571 -0.4643
  181TIP3   OH2  487   2.160   4.157   1.094 -0.0228 -0.1966  0.2728
  181TIP3    H1  488   2.144   4.107   1.015  1.6813  0.2691 -0.4249
  181TIP3    H2  489   2.196   4.240   1.063  1.1927 -0.2083  1.5310
  182TIP3   OH2  490   2.022   5.503   1.650  0.5240  0.7649  0.0652
  182TIP3    H1  491   1.993   5.578   1.599  0.5015  1.6678  1.3440
  182TIP3    H2  492   2.011   5.531   1.741 -0.9927 -1.3357  0.6208
  183TIP3   OH2  493   1.474   5.787   6.039 -0.0313  0.2789  0.0831
  183TIP3    H1  494   1.422   5.863   6.012 -1.1714 -0.2762  0.6190
  183TIP3    H2  495   1.552   5.790   5.984 -0.0386  1.8481  0.1257
  184TIP3   OH2  496   7.532   6.415   3.097 -0.0388  0.2634  0.1511
  184TIP3    H1  497   7.502   6.337   3.050  0.9824  0.0653 -0.2166
  184TIP3    H2  498   7.475   6.420   3.174 -0.5104 -0.5023 -0.1293
  185TIP3   OH2  499   4.989   2.445   2.448  0.3463  0.2282  0.2189
  185TIP3    H1  500   5.032   2.419   2.367  3.7954  0.2725  1.8443
  185TIP3    H2  501   4.902   2.407   2.443  1.0525 -1.2430 -2.7182
  186TIP3   OH2  502   7.110   0.744   4.301  0.3239 -0.1958  0.1669
  186TIP3    H1  503   7.043   0.803   4.336 -0.7799 -1.2033 -0.1769
  186TIP3    H2  504   7.157   0.798   4.237 -0.3023  0.4799  0.2539
  187TIP3   OH2  505   1.390   2.724   6.121 -0.7224  0.2600 -0.5834
  187TIP3    H1  506   1.449   2.688   6.054 -1.5989 -1.0484 -0.6992
  187TIP3    H2  507   1.444   2.729   6.200 -0.8048 -2.5513 -0.2280
  188TIP3   OH2  508   3.487   2.849   5.212  0.5913  0.0309 -0.1177
  188TIP3    H1  509   3.565   2.819   5.166 -0.7794  0.6232 -2.9988
  188TIP3    H2  510   3.443   2.768   5.239  1.5366 -0.3225  0.4162
  189TIP3   OH2  511   5.679   0.048   0.765  0.0670  0.1674 -0.3034
  189TIP3    H1  512   5.651  -0.042   0.781 -0.0068  0.2549  0.0718
  189TIP3    H2  513   5.600   0.100   0.776  0.4319  0.4679  1.2377
  190TIP3   OH2  514   2.717   2.873   5.480  0.2488 -0.0862 -0.0288
  190TIP3    H1  515   2.810   2.855   5.467  0.5086  1.7819 -1.1651
  190TIP3    H2  516   2.675   2.841   5.401  0.4480  2.1109 -1.1152
  191TIP3   OH2  517   3.732   3.845   6.097  0.0136 -0.1686 -0.2900
  191TIP3    H1  518   3.807   3.787   6.110  1.1048  0.8334 -1.8196
  191TIP3    H2  519   3.730   3.863   6.003 -1.2756  0.9801 -0.0901
  192TIP3   OH2  520   6.876   4.186   5.634 -0.3226  0.4127 -0.0786
  192TIP3    H1  521   6.846   4.098   5.657  0.4566  0.2115  0.1964
  192TIP3    H2  522   6.972   4.180   5.635 -0.2622  0.9746 -1.2125
  193TIP3   OH2  523   0.443   1.227   0.578 -0.5759  0.1961  0.2087
  193TIP3    H1  524   0.394   1.308   0.561  0.6089  0.6990 -0.9332
  193TIP3    H2  525   0.483   1.241   0.664 -0.1292  0.9593 -0.1156
  194TIP3   OH2  526   8.026   4.034   3.847 -0.2361  0.1357 -0.3020
  194TIP3    H1  527   8.121   4.034   3.836 -0.2488  1.0906 -0.4622
  194TIP3    H2  528   7.998   4.119   3.813 -1.2517 -0.5133 -1.1672
  195TIP3   OH2  529   7.608   2.273   0.091  0.1201  0.0622  0.1622
  195TIP3    H1  530   7.667   2.334   0.135 -1.0803  0.4335  1.3248
  195TIP3    H2  531   7.612   2.193   0.144 -1.5177  0.5914  1.1495
  196TIP3   OH2  532   5.831   3.501   4.309 -0.0383 -0.4279 -0.5661
  196TIP3    H1  533   5.813   3.595   4.313 -2.7226 -0.9165  1.7750
  196TIP3    H2  534   5.888   3.485   4.384 -0.1865 -0.7590 -0.5237
  197TIP3   OH2  535   6.503   1.808   1.415 -0.9157  0.3339 -0.0891
  197TIP3    H1  536   6.549   1.789   1.334 -2.7941  2.8434 -1.8804
  197TIP3    H2  537   6.486   1.722   1.454 -1.0417 -1.0417 -2.9623
  198TIP3   OH2  538   4.347   6.339   0.427  0.1707 -0.5511  0.1570
  198TIP3    H1  539   4.252   6.348   0.432 -0.0424 -2.3332  0.0409
  198TIP3    H2  540   4.372   6.383   0.346 -0.5279  0.0056  0.2364
  199TIP3   OH2  541   6.601   4.821   5.804 -0.0922  0.4546  0.3525
  199TIP3    H1  542   6.540   4.876   5.854  0.0887  1.1744 -0.2029
  199TIP3    H2  543   6.669   4.798   5.867  1.2190  3.0147 -0.0021
  200TIP3   OH2  544   0.808   3.311   3.387  0.4153 -0.4118  0.3124
  200TIP3    H1  545   0.789   3.401   3.358 -1.1174 -0.9457 -0.4902
  200TIP3    H2  546   0.758   3.256   3.326  2.4088 -1.8910 -0.0778
  201TIP3   OH2  547   6.893   4.932   5.370 -0.3268  0.0896  0.4923
  201TIP3    H1  548   6.964   4.982   5.328 -0.0567 -1.3947 -0.8827
  201TIP3    H2  549   6.835   4.908   5.299  0.0355 -2.3448  0.9408
  202TIP3   OH2  550   2.456   2.273   0.802 -0.2170 -0.7738  0.2693
  202TIP3    H1  551   2.363   2.257   0.784 -0.4047  0.5842 -0.0373
  202TIP3    H2  552   2.479   2.345   0.744  0.1508  1.2412  2.7747
  203TIP3   OH2  553   4.442   4.053   5.727  0.6551 -0.3519 -0.4915
  203TIP3    H1  554   4.429   3.958   5.726  2.1726 -0.5818 -0.3825
  203TIP3    H2  555   4.482   4.073   5.643  2.8446 -0.2370  0.5070
  204TIP3   OH2  556   3.557   2.765   3.274 -0.3793  0.2943  0.0911
  204TIP3    H1  557   3.589   2.679   3.249  0.4637  0.2583  1.2137
  204TIP3    H2  558   3.548   2.761   3.369  1.7262  2.0441  0.4695
  205TIP3   OH2  559   1.381   5.768   4.711  0.6045  0.2182 -0.1030
  205TIP3    H1  560   1.353   5.753   4.621  1.7368 -2.2805 -0.1130
  205TIP3    H2  561   1.476   5.775   4.707  0.8905 -2.0334  1.0556
  206TIP3   OH2  562   3.751   5.170   5.196  0.5701 -0.0873  0.3277
  206TIP3    H1  563   3.840   5.136   5.193  0.4609 -0.2714 -1.4096
  206TIP3    H2  564   3.754   5.240   5.261  2.2422  0.6505 -0.5089
  207TIP3   OH2  565   5.333   7.188   4.874 -0.6429  0.1578 -0.1698
  207TIP3    H1  566   5.402   7.166   4.811 -0.4427  2.3796 -0.8153
  207TIP3    H2  567   5.374   7.252   4.932 -1.2854 -0.7430  1.3381
  208TIP3   OH2  568   6.836   0.719   1.452  0.3119 -0.3620  0.1593
  208TIP3    H1  569   6.752   0.675   1.438  0.9753 -1.4760 -0.4736
  208TIP3    H2  570   6.825   0.805   1.411 -1.4536  0.6639  2.5666
  209TIP3   OH2  571   6.516   3.535   1.074  0.1622  0.1481 -0.0593
  209TIP3    H1  572   6.597   3.549   1.123  0.1433  1.0251 -0.2624
  209TIP3    H2  573   6.546   3.518   0.985  0.1582 -0.5142  0.0629
  210TIP3   OH2  574   6.724   1.502   6.207  0.1943 -0.6106 -0.5554
  210TIP3    H1  575   6.771   1.479   6.287 -0.1961  0.6960  0.0848
  210TIP3    H2  576   6.653   1.559   6.237 -0.1181 -0.3114 -1.8061
  211TIP3   OH2  577   5.024   0.095   4.609 -0.1464 -0.2155 -0.1120
  211TIP3    H1  578   4.957   0.072   4.673  0.6328 -1.8105  0.1744
  211TIP3    H2  579   5.107   0.077   4.652  0.5419  2.0036 -0.3568
  212TIP3   OH2  580   7.462   6.634   0.132 -0.4809  0.1165  0.5474
  212TIP3    H1  581   7.448   6.656   0.224 -1.2883 -1.5444  0.8664
  212TIP3    H2  582   7.515   6.554   0.134  1.1977  1.1541 -0.4987
  213TIP3   OH2  583   5.703   0.140   0.266 -0.0626 -0.5499 -0.3739
  213TIP3    H1  584   5.762   0.078   0.308  0.4380 -0.0024 -0.2554
  213TIP3    H2  585   5.733   0.144   0.175  1.5104  1.3554  0.1630
  214TIP3   OH2  586   6.910   6.900   1.376 -0.0537 -0.1781  0.8244
  214TIP3    H1  587   6.910   6.808   1.350 -1.8208  0.0695 -0.2355
  214TIP3    H2  588   6.843   6.906   1.444 -0.3813  0.4249  0.4564
  215TIP3   OH2  589   8.048   4.112   2.814 -0.1195  0.2187 -0.0360
  215TIP3    H1  590   7.968   4.141   2.858 -0.2798 -1.9339  1.2076
  215TIP3    H2  591   8.019   4.049   2.748  0.5501 -1.4336  1.1730
  216TIP3   OH2  592   3.035   3.339   5.215  0.1767 -0.3047  0.4184
  216TIP3    H1  593   3.121   3.296   5.220  0.2369 -0.0691  2.0211
  216TIP3    H2  594   3.047   3.407   5.149  1.4083  0.0669  0.9872
  217TIP3   OH2  595   3.917   6.772   5.198 -0.0299  0.1796 -0.1174
  217TIP3    H1  596   3.969   6.809   5.269 -0.9917 -1.2015  1.3557
  217TIP3    H2  597   3.939   6.679   5.198 -2.4695 -0.4657  0.5799
  218TIP3   OH2  598   6.702   5.958   3.318 -0.2234  0.3839 -0.2194
  218TIP3    H1  599   6.678   6.042   3.357  1.1437  0.6448  0.1156
  218TIP3    H2  600   6.653   5.955   3.235 -0.2971  1.5047 -0.2286
  219TIP3   OH2  601   5.990   0.401   0.972  0.3308  0.5918  0.3370
  219TIP3    H1  602   6.035   0.461   1.032  3.6798 -0.8949 -0.4518
  219TIP3    H2  603   6.005   0.439   0.885  0.7076 -0.3064 -0.0003
  220TIP3   OH2  604   3.092   2.623   0.839 -0.1312  0.0098  0.6055
  220TIP3    H1  605   3.155   2.694   0.825 -0.7805  0.8639  1.8052
  220TIP3    H2  606   3.045   2.615   0.756 -2.2896  3.2837  1.3174
  221TIP3   OH2  607   3.716   1.605   2.431  0.4765 -0.2844 -0.3544
  221TIP3    H1  608   3.766   1.577   2.508 -0.9845 -0.8727  0.4194
  221TIP3    H2  609   3.646   1.540   2.422 -1.0930  1.3213 -0.4562
  222TIP3   OH2  610   7.025   4.972   3.033 -0.3804 -0.5144 -0.1056
  222TIP3    H1  611   6.979   5.040   3.082 -0.1291 -0.6125  0.2713
  222TIP3    H2  612   6.956   4.925   2.987 -0.7056 -0.9018  0.7494
  223TIP3   OH2  613   0.648   3.051   5.934 -0.2879 -0.1797  0.4900
  223TIP3    H1  614   0.633   3.047   6.029  0.0277  1.0801  0.6101
  223TIP3    H2  615   0.715   2.984   5.918  0.1185  0.0320  1.2600
  224TIP3   OH2  616   4.105   5.177   5.576  0.5005 -0.6267  0.8708
  224TIP3    H1  617   4.026   5.163   5.523 -0.5095 -1.6565  2.5379
  224TIP3    H2  618   4.176   5.187   5.512 -1.1137  1.5498 -0.7230
  225TIP3   OH2  619   4.391   5.428   1.623 -0.4780  0.3154 -0.0109
  225TIP3    H1  620   4.365   5.464   1.538 -0.4528  1.9233  0.6355
  225TIP3    H2  621   4.339   5.477   1.687 -0.8551 -1.2118  0.9000
  226TIP3   OH2  622   1.076   5.101   4.043 -0.6393  0.1542  0.3209
  226TIP3    H1  623   1.090   5.144   4.128 -1.6377  3.0204 -0.8504
  226TIP3    H2  624   1.160   5.061   4.023  0.9997  3.0865  0.7815
  227TIP3   OH2  625   1.941   4.880   0.242  0.0820  0.3350 -0.1600
  227TIP3    H1  626   1.883   4.826   0.296  0.9664 -1.7224 -1.1444
  227TIP3    H2  627   1.997   4.925   0.305 -0.0172 -0.7038  0.7131
  228TIP3   OH2  628   0.962   7.236   2.785 -0.6169  1.0217  0.3572
  228TIP3    H1  629   1.020   7.275   2.720  0.6782 -1.8979 -0.4006
  228TIP3    H2  630   0.891   7.196   2.734 -1.1462  1.1482  0.9752
  229TIP3   OH2  631   7.729   2.389   5.886  0.8828  0.2828 -0.2460
  229TIP3    H1  632   7.814   2.355   5.915 -0.3159 -1.7139  1.2660
  229TIP3    H2  633   7.688   2.422   5.966  0.1623  1.0480 -0.9169
  230TIP3   OH2  634   6.389   2.546   3.365 -0.4474 -0.3336  0.0059
  230TIP3    H1  635   6.370   2.465   3.412 -0.1563  0.4149  1.4866
  230TIP3    H2  636   6.429   2.518   3.282 -0.5585 -1.6907  0.3949
  231TIP3   OH2  637   4.392   5.963   0.403  0.0354 -0.1560 -0.1713
  231TIP3    H1  638   4.303   5.928   0.410  0.0138 -0.1237 -0.2759
  231TIP3    H2  639   4.406   6.010   0.485  1.0149 -2.5464  1.1276
  232TIP3   OH2  640   2.951   2.868   5.714 -0.6322 -0.8801 -0.4695
  232TIP3    H1  641   2.855   2.870   5.714 -0.6472 -1.2796  0.3202
  232TIP3    H2  642   2.973   2.780   5.742 -0.0341 -0.7033 -0.3755
  233TIP3   OH2  643   0.283   4.092   6.766 -0.1266  0.6111  0.0331
  233TIP3    H1  644   0.374   4.075   6.743 -0.1394  0.9865 -0.3037
  233TIP3    H2  645   0.233   4.031   6.711 -0.1644  1.5972 -1.0687
  234TIP3   OH2  646   0.655   7.475   5.612  0.7060  0.4576  0.0673
  234TIP3    H1  647   0.573   7.513   5.642 -0.3755 -0.5303 -1.4818
  234TIP3    H2  648   0.716   7.549   5.607 -0.8999  1.7609 -1.3934
  235TIP3   OH2  649   2.535   3.849   0.378  0.0470 -0.0810 -0.2841
  235TIP3    H1  650   2.619   3.826   0.339  0.0888 -0.2862 -0.0702
  235TIP3    H2  651   2.536   3.808   0.465 -1.5742 -2.8041 -1.4460
  236TIP3   OH2  652   4.980   2.654   4.651 -0.1913 -0.2598 -0.4373
  236TIP3    H1  653   5.075   2.657   4.642 -0.0599  0.4910  0.9227
  236TIP3    H2  654   4.957   2.562   4.641  1.0245 -0.9030  2.0156
  237TIP3   OH2  655   4.536   6.339   5.776  0.1391 -0.4731  0.1855
  237TIP3    H1  656   4.496   6.410   5.826 -0.7406 -0.3814 -0.6223
  237TIP3    H2  657   4.592   6.294   5.839  0.1021  0.4581  0.9034
  238TIP3   OH2  658   3.011   5.728   0.829  0.2527  0.3060  0.6734
  238TIP3    H1  659   2.994   5.733   0.923 -0.9275  0.9835  0.4300
  238TIP3    H2  660   3.095   5.682   0.823  0.0541 -0.2892  2.0324
  239TIP3   OH2  661   3.667   3.248   4.176 -0.0116  0.6494 -0.8393
  239TIP3    H1  662   3.720   3.323   4.150  1.0780  0.4707  0.7392
  239TIP3    H2  663   3.625   3.275   4.258 -0.4829 -0.0661 -0.8356
  240TIP3   OH2  664   2.702   1.851   5.635  0.5560 -0.3497 -0.5457
  240TIP3    H1  665   2.686   1.902   5.556 -0.1645  2.1042  1.0615
  240TIP3    H2  666   2.621   1.802   5.649 -1.2494  2.7784  1.0382
  241TIP3   OH2  667   4.122   7.429   4.737 -0.1571  0.2025  0.3045
  241TIP3    H1  668   4.118   7.505   4.795 -0.0814  1.0307 -0.7495
  241TIP3    H2  669   4.050   7.443   4.675  1.7509  1.0773 -1.8483
  242TIP3   OH2  670   3.802   4.235   4.949  0.1946  0.4682 -0.0796
  242TIP3    H1  671   3.738   4.197   4.889 -0.1964 -0.6187  0.9826
  242TIP3    H2  672   3.786   4.329   4.946 -0.4736  0.3384 -0.9205
  243TIP3   OH2  673   5.174   7.590   2.534 -0.1587  0.1776  0.6583
  243TIP3    H1  674   5.095   7.588   2.479 -1.2900  0.8929  2.1982
  243TIP3    H2  675   5.237   7.535   2.487 -1.0401  0.8192 -1.3724
  244TIP3   OH2  676   3.265   3.095   3.420 -0.2800  0.8345  0.8128
  244TIP3    H1  677   3.172   3.075   3.409 -0.3382 -0.0216  2.4600
  244TIP3    H2  678   3.276   3.105   3.515  1.2492  1.2466  0.6157
  245TIP3   OH2  679   5.952   0.982   0.516 -0.2615 -0.1746 -0.2993
  245TIP3    H1  680   6.028   0.995   0.459 -0.7712  0.5650 -0.8307
  245TIP3    H2  681   5.988   0.942   0.595  0.7098  0.2969 -0.4818
  246TIP3   OH2  682   6.170   4.756   5.626 -0.6189 -0.0136 -0.2011
  246TIP3    H1  683   6.079   4.728   5.638 -1.0714  1.6006  0.3142
  246TIP3    H2  684   6.164   4.849   5.606  0.9234  0.0560 -0.4499
  247TIP3   OH2  685   1.742   6.467   6.577  0.0367  0.2779 -0.3470
  247TIP3    H1  686   1.666   6.514   6.611 -0.5679 -1.0889  0.2505
  247TIP3    H2  687   1.792   6.534   6.529 -1.6190  1.1613 -0.9134
  248TIP3   OH2  688   5.467   2.366   2.827  0.4864 -0.1827 -0.2609
  248TIP3    H1  689   5.441   2.455   2.805 -0.1361 -0.5356 -1.0201
  248TIP3    H2  690   5.459   2.318   2.745  0.6437 -0.9783  0.1805
  249TIP3   OH2  691   6.214   5.017   0.207  0.0490 -0.6077 -0.1992
  249TIP3    H1  692   6.255   4.931   0.208  1.9234  0.2501  0.1503
  249TIP3    H2  693   6.229   5.050   0.118  1.4875  0.3038  0.3494
  250TIP3   OH2  694   4.470   1.054   5.910  0.6465 -0.2324 -0.4823
  250TIP3    H1  695   4.417   1.124   5.949  0.1052 -0.8291 -0.1254
  250TIP3    H2  696   4.478   1.078   5.818  1.4348  0.8903 -0.1353
  251TIP3   OH2  697   3.707   6.476   3.769 -0.1117 -0.1081  0.4463
  251TIP3    H1  698   3.679   6.519   3.688  0.3033  1.9487  1.3383
  251TIP3    H2  699   3.786   6.428   3.745 -2.0243 -2.7105 -1.1929
  252TIP3   OH2  700   1.924   2.964   4.095 -0.0309 -0.0818  0.2580
  252TIP3    H1  701   1.951   2.922   4.013  1.0037  2.0901 -0.5980
  252TIP3    H2  702   1.898   2.892   4.152  2.8449 -2.0061 -0.6456
  253TIP3   OH2  703   2.107   3.139   0.916  0.3254 -0.1706  0.2166
  253TIP3    H1  704   2.065   3.166   0.835  2.3998  0.4097 -0.7386
  253TIP3    H2  705   2.152   3.057   0.894  1.1113  0.1217  0.7040
  254TIP3   OH2  706   4.745   0.355   4.837 -0.4724 -0.3201  0.0734
  254TIP3    H1  707   4.747   0.447   4.863  0.0030  0.1690 -1.5985
  254TIP3    H2  708   4.706   0.355   4.749 -1.4805 -1.8375  0.4676
  255TIP3   OH2  709   6.584   4.435   2.172  0.0750 -0.2394 -0.5083
  255TIP3    H1  710   6.573   4.341   2.187 -1.4634 -0.1494 -0.8413
  255TIP3    H2  711   6.678   4.448   2.161  0.6825 -1.2702  2.5539
  256TIP3   OH2  712   6.342   1.948   2.193 -0.4844 -0.3574  0.2510
  256TIP3    H1  713   6.436   1.934   2.198 -0.1157  2.1823  2.4739
  256TIP3    H2  714   6.332   2.020   2.131 -0.9195 -0.2764  0.4085
  257TIP3   OH2  715   0.393   4.538   0.677 -0.2397 -0.0453 -0.0187
  257TIP3    H1  716   0.361   4.629   0.680 -2.1050 -0.6661  0.2201
  257TIP3    H2  717   0.488   4.547   0.678 -0.3669  1.9057  0.1878
  258TIP3   OH2  718   3.625   4.699   1.265  0.2060  0.3386  0.6093
  258TIP3    H1  719   3.606   4.773   1.324  2.0002  1.8573 -0.6197
  258TIP3    H2  720   3.588   4.727   1.181 -1.6193 -1.4650  0.7332
  259TIP3   OH2  721   0.192   3.346   3.729 -0.2516  0.5684  0.1530
  259TIP3    H1  722   0.199   3.251   3.714 -1.4849  0.4184  0.3482
  259TIP3    H2  723   0.281   3.379   3.723  0.1585 -0.5737 -0.1927
  260TIP3   OH2  724   5.106   2.647   0.550  0.4960 -0.3822 -0.1424
  260TIP3    H1  725   5.143   2.733   0.530 -0.1549 -0.0965 -0.1135
  260TIP3    H2  726   5.182   2.589   0.551  1.0869  0.3668  0.8665
  261TIP3   OH2  727   0.081   6.287   1.515  0.0653  0.5125 -0.0042
  261TIP3    H1  728   0.135   6.354   1.474 -0.8899  1.1166 -0.3019
  261TIP3    H2  729   0.085   6.212   1.455  3.8825 -1.0665  1.9085
  262TIP3   OH2  730   5.290   3.534   6.273 -0.2977 -0.3357  0.0288
  262TIP3    H1  731   5.368   3.505   6.226 -0.9509 -2.8637  0.3805
  262TIP3    H2  732   5.314   3.526   6.366 -0.4172  0.6076  0.1551
  263TIP3   OH2  733   7.182   0.520   2.303  0.1638  0.5280 -0.1344
  263TIP3    H1  734   7.264   0.482   2.334  0.7728  0.6580 -1.5278
  263TIP3    H2  735   7.122   0.511   2.377  0.7110 -1.8076  0.0987
  264TIP3   OH2  736   4.886   4.858   3.686  0.4245 -0.2314 -0.3944
  264TIP3    H1  737   4.927   4.944   3.697 -1.1333  0.5231 -0.2566
  264TIP3    H2  738   4.959   4.796   3.694  1.4809  1.0276  0.1748
  265TIP3   OH2  739   7.809   5.425   1.879 -0.5141  0.0160 -0.0933
  265TIP3    H1  740   7.882   5.447   1.820  0.6001 -1.8878  0.4852
  265TIP3    H2  741   7.786   5.335   1.857  0.2941 -0.9840  2.6276
  266TIP3   OH2  742   6.625   5.883   3.904  0.3335 -0.2668  0.0731
  266TIP3    H1  743   6.668   5.968   3.912 -0.1690  0.0419 -0.4709
  266TIP3    H2  744   6.655   5.849   3.819 -0.9457  0.2146 -0.5874
  267TIP3   OH2  745   5.897   6.218   3.899 -0.8849  0.2693  0.8224
  267TIP3    H1  746   5.914   6.274   3.975  1.0270  0.5159  0.2471
  267TIP3    H2  747   5.960   6.246   3.833  0.3028 -2.6341  0.5670
  268TIP3   OH2  748   5.851   3.887   5.880  0.3422 -0.0455  0.3788
  268TIP3    H1  749   5.769   3.913   5.922 -0.7814 -0.8170 -1.2250
  268TIP3    H2  750   5.857   3.942   5.802 -0.1692 -1.8820 -1.0518
  269TIP3   OH2  751   3.462   7.362   0.829  0.2755  0.2797 -0.2512
  269TIP3    H1  752   3.485   7.278   0.790  1.8096  0.6914 -0.3201
  269TIP3    H2  753   3.532   7.378   0.893  0.4675  1.8502 -0.7980
  270TIP3   OH2  754   8.305   0.319   5.886  0.0130 -0.0440 -0.2470
  270TIP3    H1  755   8.314   0.315   5.981 -3.1824 -1.7142  0.1015
  270TIP3    H2  756   8.258   0.400   5.869  0.6402  0.2879 -0.4547
  271TIP3   OH2  757   5.403   1.688   3.885 -0.1288 -0.5774  0.2910
  271TIP3    H1  758   5.423   1.717   3.796 -0.8259  0.0626  0.3285
  271TIP3    H2  759   5.463   1.739   3.940 -0.5623 -0.0355  0.2715
  272TIP3   OH2  760   2.104   0.898   4.790 -0.0674 -0.2367 -0.4622
  272TIP3    H1  761   2.149   0.813   4.789 -0.1790 -0.3769  1.8385
  272TIP3    H2  762   2.014   0.877   4.814 -0.7123  0.3475 -2.1978
  273TIP3   OH2  763   3.948   7.041   2.562  0.7091 -0.4207 -0.0593
  273TIP3    H1  764   3.994   6.979   2.504  1.4815  1.4471 -1.5423
  273TIP3    H2  765   3.855   7.024   2.546  0.9095 -0.0355 -1.7959
  274TIP3   OH2  766   1.371   0.621   5.918  0.2886  0.6606  0.6101
  274TIP3    H1  767   1.364   0.703   5.968  0.9700  2.2150 -1.6562
  274TIP3    H2  768   1.449   0.579   5.952  0.5236  1.4735  1.1150
  275TIP3   OH2  769   4.706   6.865   3.387  0.1069 -0.3794 -0.5603
  275TIP3    H1  770   4.653   6.944   3.384 -0.7769 -0.9251  0.1081
  275TIP3    H2  771   4.793   6.893   3.358 -0.2063  0.8083 -0.4044
  276TIP3   OH2  772   0.570   0.088   3.766 -0.7449 -0.1749  0.0573
  276TIP3    H1  773   0.529   0.173   3.749 -0.4755  0.3327  1.7216
  276TIP3    H2  774   0.642   0.108   3.826  0.0021 -1.4536 -0.3799
  277TIP3   OH2  775   5.238   0.879   4.787 -0.0056  0.6402 -0.3076
  277TIP3    H1  776   5.222   0.785   4.775  0.1673  0.6447 -0.5689
  277TIP3    H2  777   5.152   0.919   4.773 -0.1315  0.4996  0.0488
  278TIP3   OH2  778   2.282   7.711   2.265  0.1585  0.2714  0.5696
  278TIP3    H1  779   2.364   7.734   2.221 -1.0711  1.9501 -1.0224
  278TIP3    H2  780   2.280   7.765   2.344 -0.3079  1.8369 -0.4627
  279TIP3   OH2  781   8.169   7.370   5.491 -0.0886 -0.2094  0.0378
  279TIP3    H1  782   8.120   7.363   5.573 -0.3762  2.3087  0.1703
  279TIP3    H2  783   8.101   7.379   5.424  0.1643 -0.3701 -0.2401
  280TIP3   OH2  784   3.179   6.461   5.715  0.3065 -0.0321  0.0517
  280TIP3    H1  785   3.171   6.532   5.779 -0.7367 -0.3740  0.3126
  280TIP3    H2  786   3.248   6.490   5.655  1.4767  0.1856  1.4634
  281TIP3   OH2  787   6.122   3.247   2.171 -0.2038  0.0217 -0.4505
  281TIP3    H1  788   6.164   3.239   2.085 -1.0164  2.8916 -1.1971
  281TIP3    H2  789   6.031   3.271   2.151 -0.7956 -0.7014  1.2168
  282TIP3   OH2  790   2.893   1.982   2.650 -0.1603 -0.1162 -0.0416
  282TIP3    H1  791   2.976   1.950   2.612 -0.8271 -1.9585 -0.0742
  282TIP3    H2  792   2.914   1.995   2.742 -0.3356 -2.9451  0.5081
  283TIP3   OH2  793   7.126   4.362   5.470 -0.1515 -0.1536 -0.1094
  283TIP3    H1  794   7.204   4.324   5.429  1.4227  2.1365  0.6125
  283TIP3    H2  795   7.147   4.365   5.563 -0.8607  1.0733  0.0240
  284TIP3   OH2  796   5.775   4.999   2.321  0.3402 -0.0657  0.1515
  284TIP3    H1  797   5.692   5.044   2.338  0.3360 -0.1780  0.4273
  284TIP3    H2  798   5.774   4.922   2.378 -0.5786 -1.5972 -1.7981
  285TIP3   OH2  799   5.549   1.380   1.750  0.0512  0.0331 -0.1598
  285TIP3    H1  800   5.572   1.287   1.758  1.0955  0.2347 -0.6488
  285TIP3    H2  801   5.554   1.413   1.840  0.1812 -0.2722 -0.0529
  286TIP3   OH2  802   2.758   2.080   4.658 -0.2030  0.1144  0.4627
  286TIP3    H1  803   2.785   2.068   4.749 -0.7254 -1.2169  0.4721
  286TIP3    H2  804   2.835   2.056   4.607  0.2359  1.2954  0.5391
  287TIP3   OH2  805   0.444   5.498   4.775 -0.0647 -0.5386 -0.5422
  287TIP3    H1  806   0.414   5.541   4.855 -0.6172 -0.3303 -0.8509
  287TIP3    H2  807   0.515   5.554   4.743 -1.5288  0.8445 -1.5600
  288TIP3   OH2  808   4.770   3.537   1.314  0.1464 -0.3763  0.3272
  288TIP3    H1  809   4.761   3.445   1.338 -1.9167  0.0059  1.2589
  288TIP3    H2  810   4.763   3.538   1.218 -1.0075 -1.1123  0.3830
  289TIP3   OH2  811   1.820   6.384   6.083  0.3271  0.0514  0.1058
  289TIP3    H1  812   1.855   6.463   6.042 -0.8700  0.3158 -0.4588
  289TIP3    H2  813   1.768   6.342   6.015 -0.1541 -0.5083  0.8022
  290TIP3   OH2  814   6.402   5.313   2.351  0.1555  0.0080  0.1207
  290TIP3    H1  815   6.382   5.407   2.353 -0.8939 -0.2067 -0.0063
  290TIP3    H2  816   6.430   5.293   2.441  1.4480  0.6529 -0.1180
  291TIP3   OH2  817   1.143   1.907   0.333 -0.1469 -0.0352 -0.2634
  291TIP3    H1  818   1.167   1.961   0.409 -1.5161  0.8796 -0.4298
  291TIP3    H2  819   1.138   1.818   0.368  2.9357 -0.2588 -0.1543
  292TIP3   OH2  820   0.952   3.601   6.366 -0.5712 -0.6041  0.3922
  292TIP3    H1  821   1.029   3.550   6.390  0.7231  0.0073 -2.0629
  292TIP3    H2  822   0.925   3.566   6.281 -0.1725  2.0588 -0.9652
  293TIP3   OH2  823   4.486   6.318   0.120  0.1796 -0.3045 -0.2199
  293TIP3    H1  824   4.424   6.296   0.051  0.7717  0.5479 -1.0480
  293TIP3    H2  825   4.519   6.233   0.150  0.6793 -0.6804 -1.7210
  294TIP3   OH2  826   6.282   0.518   3.960 -0.3728 -0.2613  0.0559
  294TIP3    H1  827   6.337   0.472   4.023 -1.8570 -0.1706  1.4724
  294TIP3    H2  828   6.212   0.557   4.013 -1.4293  0.1827 -1.5987
  295TIP3   OH2  829   4.364   3.669   2.258 -0.1479 -0.2674  0.1341
  295TIP3    H1  830   4.352   3.673   2.163  1.3404 -1.3926 -0.1328
  295TIP3    H2  831   4.458   3.678   2.271  0.3319 -4.5371  1.1417
  296TIP3   OH2  832   3.867   0.501   1.613 -0.2813 -0.2778 -0.9864
  296TIP3    H1  833   3.948   0.482   1.660  0.7796  3.7669 -0.8358
  296TIP3    H2  834   3.801   0.513   1.682  0.3315  1.6809 -0.6883
  297TIP3   OH2  835   2.736   0.365   2.472  0.2847 -0.2916  0.2956
  297TIP3    H1  836   2.741   0.432   2.404  0.3757  0.0238  0.6123
  297TIP3    H2  837   2.808   0.305   2.452 -0.2531 -0.7143 -0.4289
  298TIP3   OH2  838   7.030   2.364   1.286  0.1291 -0.6975 -0.2454
  298TIP3    H1  839   7.091   2.326   1.348 -1.2494 -1.6941  0.5726
  298TIP3    H2  840   7.082   2.424   1.233  2.0455 -2.4110 -0.3982
  299TIP3   OH2  841   6.096   4.935   6.725  0.1848 -0.5031 -0.3784
  299TIP3    H1  842   6.172   4.921   6.669  0.5712  0.2109 -0.0570
  299TIP3    H2  843   6.038   4.862   6.707  0.5161 -0.5302 -1.3515
  300TIP3   OH2  844   7.836   7.566   6.168  0.6410 -0.2284 -0.3459
  300TIP3    H1  845   7.864   7.492   6.222 -0.9200  0.4643  1.5470
  300TIP3    H2  846   7.827   7.530   6.080  1.1095 -1.9724  0.2709
  301TIP3   OH2  847   4.786   6.015   1.190  0.1177  0.5765  0.1366
  301TIP3    H1  848   4.777   5.980   1.279 -0.8437 -1.8171 -0.8063
  301TIP3    H2  849   4.880   6.017   1.174  0.2510 -1.3910  0.3859
  302TIP3   OH2  850   7.702   4.440   3.440 -0.0661  0.2448  0.0811
  302TIP3    H1  851   7.743   4.462   3.523  1.3808 -1.4020 -0.1287
  302TIP3    H2  852   7.706   4.344   3.436 -0.6105  0.2569 -1.6303
  303TIP3   OH2  853   5.840   4.086   2.895  0.6112 -0.1480 -0.5589
  303TIP3    H1  854   5.793   4.062   2.816  1.1835  0.0360 -0.9582
  303TIP3    H2  855   5.861   4.179   2.884 -2.8570  1.1001  1.5903
  304TIP3   OH2  856   4.934   7.589   3.839  0.3786  0.2397  0.6607
  304TIP3    H1  857   4.850   7.633   3.825  0.2032 -0.3295 -0.1920
  304TIP3    H2  858   4.972   7.582   3.751  1.5602  0.9287  1.0766
  305TIP3   OH2  859   0.357   3.367   5.626  0.0611  0.5329 -0.4177
  305TIP3    H1  860   0.432   3.319   5.661 -0.4108 -1.0006 -1.4053
  305TIP3    H2  861   0.338   3.434   5.693  0.4921 -0.9061  1.2166
  306TIP3   OH2  862   1.188   0.386   0.866 -0.3251 -0.5040 -0.0378
  306TIP3    H1  863   1.147   0.315   0.817  0.8507 -1.5818  0.4668
  306TIP3    H2  864   1.238   0.342   0.935  0.1165  0.8421  0.5429
  307TIP3   OH2  865   8.150   1.658   3.081  0.0140 -0.0131  0.3659
  307TIP3    H1  866   8.156   1.745   3.042  2.3393 -0.3163 -0.1007
  307TIP3    H2  867   8.207   1.604   3.027 -2.1912 -2.1310 -0.0115
  308TIP3   OH2  868   1.670   0.616   6.532  0.9114 -0.7641  0.3818
  308TIP3    H1  869   1.646   0.545   6.591  1.2892 -1.2149  0.0028
  308TIP3    H2  870   1.763   0.631   6.550  0.4025  1.0017  1.8807
  309TIP3   OH2  871   2.784   3.670   6.452  0.2074  0.0623  0.2675
  309TIP3    H1  872   2.698   3.707   6.432  0.6161  0.8803 -0.0072
  309TIP3    H2  873   2.764   3.587   6.496 -0.7171 -0.4468 -1.0365
  310TIP3   OH2  874   7.687   6.595   1.389 -0.4791 -0.3035 -0.1861
  310TIP3    H1  875   7.750   6.550   1.332 -0.3805  1.2935 -1.3994
  310TIP3    H2  876   7.603   6.582   1.347 -0.6616 -0.5579  0.2481
  311TIP3   OH2  877   8.050   3.618   3.350 -0.0965  0.0563  0.2518
  311TIP3    H1  878   8.065   3.642   3.441 -0.6651 -1.5280  0.8095
  311TIP3    H2  879   8.136   3.590   3.318  0.2983  1.4937 -0.0183
  312TIP3   OH2  880   0.197   3.121   2.684  0.6103 -0.1898 -0.3469
  312TIP3    H1  881   0.289   3.122   2.657  0.6049 -0.9834 -0.4205
  312TIP3    H2  882   0.179   3.029   2.705 -0.2130 -0.0669 -0.4845
  313TIP3   OH2  883   3.324   0.670   5.434  0.2262  0.3465 -0.1841
  313TIP3    H1  884   3.335   0.635   5.346 -0.1574  0.6507 -0.3527
  313TIP3    H2  885   3.383   0.746   5.437  0.5281  0.1088 -0.0502
  314TIP3   OH2  886   0.157   4.856   1.025  0.1391 -0.3048 -0.5138
  314TIP3    H1  887   0.075   4.847   1.073 -0.5338 -0.4899 -1.6566
  314TIP3    H2  888   0.162   4.776   0.972  1.1448 -0.3768 -0.3269
  315TIP3   OH2  889   6.965   5.605   5.646 -0.0657 -0.1927  0.1145
  315TIP3    H1  890   6.924   5.601   5.559 -1.3792 -0.3757  0.7259
  315TIP3    H2  891   7.053   5.640   5.629 -0.0592 -0.8553 -1.3641
  316TIP3   OH2  892   5.229   4.161   5.249 -0.5051 -0.1436  0.9110
  316TIP3    H1  893   5.196   4.193   5.164  2.3723 -0.2145 -0.3404
  316TIP3    H2  894   5.201   4.229   5.311  1.0901  2.3380 -0.8608
  317TIP3   OH2  895   0.506   2.838   5.057 -0.1955  0.0107  0.1584
  317TIP3    H1  896   0.552   2.804   5.134  1.1366  0.6578 -0.3063
  317TIP3    H2  897   0.417   2.806   5.066  0.1838 -0.7760  1.4442
  318TIP3   OH2  898   3.674   3.730   5.201 -0.3812 -0.1697 -0.0001
  318TIP3    H1  899   3.757   3.766   5.168  0.3694 -1.4295  0.4630
  318TIP3    H2  900   3.659   3.652   5.148 -1.3897  0.1340 -0.1910
  319TIP3   OH2  901   5.287   1.009   3.605 -0.1008 -0.2962  0.1837
  319TIP3    H1  902   5.331   0.978   3.684  1.2534  1.1935  0.0723
  319TIP3    H2  903   5.270   1.101   3.622 -1.7841 -0.4697 -0.4330
  320TIP3   OH2  904   1.006   7.050   0.185  0.3050  0.0120 -0.0839
  320TIP3    H1  905   0.949   7.074   0.258 -0.8815 -1.8052 -0.3520
  320TIP3    H2  906   1.030   7.134   0.145 -0.0940  0.9605  1.5842
  321TIP3   OH2  907   2.412   0.644   2.028 -0.2847  0.3986  0.5865
  321TIP3    H1  908   2.399   0.672   2.118 -0.7231  2.0653  0.0392
  321TIP3    H2  909   2.501   0.672   2.007  0.4068 -1.3677  0.9421
  322TIP3   OH2  910   5.365   1.539   4.126 -0.1616  0.0829 -0.6202
  322TIP3    H1  911   5.425   1.566   4.195  0.5656 -1.1220 -0.7618
  322TIP3    H2  912   5.390   1.592   4.050 -0.3752  0.7556 -0.2393
  323TIP3   OH2  913   3.023   4.682   2.918 -0.4239 -0.4848  0.4387
  323TIP3    H1  914   2.989   4.635   2.994 -1.2660 -2.2324 -0.9517
  323TIP3    H2  915   2.998   4.628   2.843  0.9621  0.8363 -1.0462
  324TIP3   OH2  916   0.656   5.910   5.198 -1.1599  0.5211 -0.4793
  324TIP3    H1  917   0.591   5.914   5.128 -1.6214 -0.7681 -0.1419
  324TIP3    H2  918   0.727   5.967   5.168 -0.6273 -1.1865 -2.7286
  325TIP3   OH2  919   8.109   3.628   0.606 -0.1935  0.0394 -0.0349
  325TIP3    H1  920   8.059   3.620   0.688 -1.4014  1.2684 -0.6030
  325TIP3    H2  921   8.070   3.703   0.562  0.5494 -0.4907 -1.6753
  326TIP3   OH2  922   5.951   0.096   3.263  0.6304 -0.4076  0.1211
  326TIP3    H1  923   5.923   0.108   3.354 -0.2046  0.6535 -0.2471
  326TIP3    H2  924   6.011   0.169   3.247 -0.1977  0.1655 -0.5218
  327TIP3   OH2  925   5.647   6.513   2.056 -0.0705 -0.4752 -0.3258
  327TIP3    H1  926   5.585   6.462   2.109  0.1815 -0.8079 -0.3480
  327TIP3    H2  927   5.609   6.512   1.968 -0.2608 -0.3003 -0.2470
  328TIP3   OH2  928   2.158   1.827   1.248 -0.4252 -0.3643 -0.0755
  328TIP3    H1  929   2.107   1.772   1.308  1.4873  0.0021  2.0047
  328TIP3    H2  930   2.100   1.900   1.227 -0.7033  0.2312  2.5068
  329TIP3   OH2  931   7.893   1.117   3.312  0.2003 -0.3672  0.1927
  329TIP3    H1  932   7.809   1.104   3.267  0.2972 -2.8598  0.6123
  329TIP3    H2  933   7.956   1.067   3.260  1.1298  0.1714  0.7828
  330TIP3   OH2  934   2.372   2.785   1.748  0.0350  0.8201 -0.2317
  330TIP3    H1  935   2.290   2.751   1.712 -0.3546  0.7547  0.6923
  330TIP3    H2  936   2.426   2.804   1.671  0.6619 -2.7422 -0.8356
  331TIP3   OH2  937   0.926   5.258   3.636 -0.6143  0.2589  0.3393
  331TIP3    H1  938   1.012   5.290   3.607  0.1050 -0.2102  1.8868
  331TIP3    H2  939   0.924   5.167   3.608 -0.2016 -0.0004  1.1293
  332TIP3   OH2  940   4.719   2.538   1.269  0.0195  0.0827  0.2378
  332TIP3    H1  941   4.744   2.523   1.178 -0.7494  1.6168 -0.2654
  332TIP3    H2  942   4.635   2.494   1.279  0.5901 -0.9692  0.5273
  333TIP3   OH2  943   1.698   7.627   5.105  0.4742  0.2810  0.1539
  333TIP3    H1  944   1.769   7.566   5.087  0.9312  0.6461  0.6931
  333TIP3    H2  945   1.731   7.712   5.075  0.1346  0.3936  0.0965
  334TIP3   OH2  946   5.199   4.515   0.341  0.4470  0.0045 -0.8913
  334TIP3    H1  947   5.192   4.528   0.436 -0.4272  2.2689 -1.1986
  334TIP3    H2  948   5.293   4.513   0.324  0.6481  1.5196 -0.1497
  335TIP3   OH2  949   3.005   3.146   6.501 -0.2892 -0.2172  0.8668
  335TIP3    H1  950   2.942   3.074   6.499 -0.7966  0.2245 -0.3496
  335TIP3    H2  951   2.951   3.225   6.497  0.3043  0.2040  1.0345
  336TIP3   OH2  952   1.431   6.152   1.684  0.0496 -0.1361  0.1186
  336TIP3    H1  953   1.397   6.064   1.664  0.7725 -0.1781 -1.0722
  336TIP3    H2  954   1.360   6.211   1.661 -0.3967 -0.3975  0.8027
  337TIP3   OH2  955   0.678   4.079   4.217  0.3220 -0.7568 -0.0932
  337TIP3    H1  956   0.740   4.152   4.206  0.5751 -1.0262 -0.4489
  337TIP3    H2  957   0.593   4.122   4.224  0.4830 -0.4172 -0.1636
  338TIP3   OH2  958   7.605   6.708   5.041 -0.5761  0.0439 -0.5846
  338TIP3    H1  959   7.626   6.762   5.117 -1.2531 -1.3345  0.6483
  338TIP3    H2  960   7.689   6.692   4.999 -0.0629  0.1678  0.3560
  339TIP3   OH2  961   7.213   2.876   5.123 -0.0620  0.1535  0.0558
  339TIP3    H1  962   7.146   2.814   5.095  0.2258 -0.6088  0.9918
  339TIP3    H2  963   7.278   2.875   5.053 -1.0536  0.9823 -0.9171
  340TIP3   OH2  964   5.655   2.275   5.257  0.2070 -0.8244 -0.2969
  340TIP3    H1  965   5.651   2.224   5.176 -0.1201 -1.3606  0.0513
  340TIP3    H2  966   5.626   2.215   5.325  0.2556 -0.3083  0.1913
  341TIP3   OH2  967   5.030   5.374   1.624 -0.1932  0.3335  0.0627
  341TIP3    H1  968   4.986   5.407   1.546 -1.7980  0.6262  1.0448
  341TIP3    H2  969   4.999   5.284   1.633 -0.5326  0.5043  0.6993
  342TIP3   OH2  970   2.148   3.921   6.446  0.8215  0.1107 -0.1800
  342TIP3    H1  971   2.197   3.990   6.400 -0.4334  0.2166 -1.4211
  342TIP3    H2  972   2.060   3.926   6.409  0.8910 -2.6837 -0.9424
  343TIP3   OH2  973   0.840   7.154   0.374  0.0663 -0.1561  0.1026
  343TIP3    H1  974   0.796   7.224   0.424 -0.0614 -0.5257  0.5187
  343TIP3    H2  975   0.778   7.081   0.376  0.7613 -0.7434  0.8371
  344TIP3   OH2  976   7.532   4.973   1.667  0.0588 -0.0404 -0.3497
  344TIP3    H1  977   7.447   5.011   1.687 -0.5870 -1.7370  0.2851
  344TIP3    H2  978   7.513   4.904   1.603  0.7461 -1.3494  0.8150
  345TIP3   OH2  979   5.772   0.960   0.095 -0.8829  0.0264  0.1554
  345TIP3    H1  980   5.845   1.023   0.095 -1.1085  0.2968 -0.3123
  345TIP3    H2  981   5.716   0.988   0.167  0.2145 -1.0667  1.4656
  346TIP3   OH2  982   5.649   5.035   4.923 -0.2493  0.3426 -0.4380
  346TIP3    H1  983   5.634   5.086   4.843 -0.0956 -0.7004 -1.1490
  346TIP3    H2  984   5.739   5.057   4.949 -0.0740  0.1983 -0.9158
  347TIP3   OH2  985   3.196   4.524   4.643 -0.2102  0.3167  0.0294
  347TIP3    H1  986   3.217   4.566   4.726  1.7898 -1.2591  0.3999
  347TIP3    H2  987   3.209   4.431   4.659 -0.9022 -0.1346 -1.7475
  348TIP3   OH2  988   3.092   7.064   4.245  0.4948  0.2605 -0.3427
  348TIP3    H1  989   3.048   6.984   4.273  1.6249 -0.0713  0.5746
  348TIP3    H2  990   3.048   7.134   4.292 -0.9696  0.2875 -1.6906
  349TIP3   OH2  991   6.587   0.832   3.544 -0.0008  0.2510 -0.4176
  349TIP3    H1  992   6.517   0.871   3.492 -0.5649  0.0434  0.1701
  349TIP3    H2  993   6.551   0.747   3.572 -0.4468  1.1083  1.8276
  350TIP3   OH2  994   6.442   0.667   2.469 -0.1622 -0.4107  0.2934
  350TIP3    H1  995   6.388   0.742   2.495  0.0364  0.0454 -0.5905
  350TIP3    H2  996   6.525   0.680   2.516  0.0421  0.1857 -0.2170
  351TIP3   OH2  997   3.484   7.718   2.793 -0.1283 -0.2780 -0.6790
  351TIP3    H1  998   3.394   7.735   2.821  0.6516  1.0136  1.3377
  351TIP3    H2  999   3.526   7.680   2.871  1.7762  1.9091 -0.5473
  352TIP3   OH2 1000   7.373   3.733   1.945  0.4211  0.0031  0.7610
  352TIP3    H1 1001   7.283   3.740   1.975  0.4492  0.0316  0.8411
  352TIP3    H2 1002   7.397   3.823   1.920  0.3075 -0.0710  0.3882
  353TIP3   OH2 1003   3.431   6.909   0.043 -0.0733 -0.0253  0.1169
  353TIP3    H1 1004   3.343   6.893   0.078  0.0216 -0.8347  0.0027
  353TIP3    H2 1005   3.420   6.985  -0.015 -0.4086  0.7496  1.1621
  354TIP3   OH2 1006   1.611   1.438   4.570  0.1269 -0.5669  0.1136
  354TIP3    H1 1007   1.692   1.490   4.574  0.4850 -0.9721 -1.2616
  354TIP3    H2 1008   1.598   1.422   4.477 -1.2100 -1.0477  0.3659
  355TIP3   OH2 1009   2.527   1.788   2.418  0.0660 -0.9015 -0.3810
  355TIP3    H1 1010   2.443   1.786   2.464 -0.0851 -1.8390 -0.6605
  355TIP3    H2 1011   2.587   1.832   2.478 -0.5608 -0.4783 -0.0603
  356TIP3   OH2 1012   7.505   1.587   1.029 -0.2126 -0.6963  0.1505
  356TIP3    H1 1013   7.488   1.584   1.123  0.4223 -1.7700  0.2537
  356TIP3    H2 1014   7.418   1.590   0.989 -0.5694 -2.1199  0.7462
  357TIP3   OH2 1015   8.010   1.548   5.577  0.0661 -0.1835  0.4274
  357TIP3    H1 1016   8.067   1.488   5.528  2.5995  2.4175 -0.0713
  357TIP3    H2 1017   7.962   1.596   5.509 -0.3997 -0.2173  0.7288
  358TIP3   OH2 1018   0.479   5.105   5.357 -0.0415  0.1033  0.8035
  358TIP3    H1 1019   0.487   5.190   5.402  0.5327  0.4082  0.1384
  358TIP3    H2 1020   0.401   5.114   5.302  0.8008  0.7218 -0.3375
  359TIP3   OH2 1021   1.082   5.597   6.596 -0.7533  0.3860 -0.2686
  359TIP3    H1 1022   1.137   5.588   6.674 -0.4403 -0.2154 -0.5513
  359TIP3    H2 1023   1.067   5.507   6.567  0.4753  0.6472 -1.8364
  360TIP3   OH2 1024   8.068   7.751   3.885 -0.0744  0.5093 -0.1309
  360TIP3    H1 1025   8.084   7.783   3.974  2.3516 -0.6653 -0.0609
  360TIP3    H2 1026   8.078   7.656   3.891 -0.2114  0.3794 -1.5963
  361TIP3   OH2 1027   4.349   2.559   3.508 -0.2088 -0.0188 -0.7213
  361TIP3    H1 1028   4.254   2.563   3.515 -0.5228 -2.0369 -2.6909
  361TIP3    H2 1029   4.381   2.592   3.592 -2.6340  0.1556  0.2107
  362TIP3   OH2 1030   5.951   0.237   6.428  0.0382  0.2798  0.1897
  362TIP3    H1 1031   5.896   0.216   6.503  1.2494  0.4473  1.1621
  362TIP3    H2 1032   5.890   0.252   6.356 -1.0684 -1.7479  0.6601
  363TIP3   OH2 1033   7.160   6.407   2.605 -0.1249  0.1518 -0.2122
  363TIP3    H1 1034   7.076   6.363   2.618  0.5669 -1.3238 -0.4846
  363TIP3    H2 1035   7.184   6.439   2.691 -1.7180  2.0716 -0.4203
  364TIP3   OH2 1036   3.522   5.584   4.341  0.4688 -0.5143 -0.2471
  364TIP3    H1 1037   3.524   5.632   4.258  1.0412 -2.0221 -1.1555
  364TIP3    H2 1038   3.580   5.509   4.327 -0.1084 -1.2915  1.2224
  365TIP3   OH2 1039   7.610   4.824   4.860  0.4661  0.4902 -0.2533
  365TIP3    H1 1040   7.606   4.917   4.840  0.6706  1.0877  2.1840
  365TIP3    H2 1041   7.671   4.788   4.795 -0.5048  1.7803 -1.9628
  366TIP3   OH2 1042   1.395   7.748   3.319 -0.0420  0.3962 -0.6129
  366TIP3    H1 1043   1.491   7.740   3.319  0.2055  2.4276  1.2550
  366TIP3    H2 1044   1.377   7.809   3.247  0.4743  2.6973  1.0851
  367TIP3   OH2 1045   5.127   3.696   4.697 -0.1526  0.3369  0.3149
  367TIP3    H1 1046   5.222   3.688   4.699 -0.2384 -0.7986  2.5216
  367TIP3    H2 1047   5.097   3.650   4.775 -2.5641  0.2506 -0.5683
  368TIP3   OH2 1048   3.348   0.904   4.215  0.0376  0.1776 -0.2276
  368TIP3    H1 1049   3.284   0.972   4.195  0.0992  0.3077  0.0104
  368TIP3    H2 1050   3.348   0.848   4.138  0.1240  0.5526 -0.5046
  369TIP3   OH2 1051   4.866   3.560   6.443 -0.1728  0.2869  0.6529
  369TIP3    H1 1052   4.937   3.496   6.442 -1.1854 -0.9145  1.7351
  369TIP3    H2 1053   4.909   3.644   6.460  1.5367  0.4749 -3.3374
  370TIP3   OH2 1054   0.871   5.430   2.802  0.0763 -0.4874 -0.2172
  370TIP3    H1 1055   0.838   5.496   2.862  0.2199  1.8400 -2.5141
  370TIP3    H2 1056   0.937   5.382   2.853  0.1210  1.2711  1.4862
  371TIP3   OH2 1057   3.315   1.536   6.102  0.3344 -0.0067  0.0453
  371TIP3    H1 1058   3.302   1.442   6.113 -0.2371 -0.0915 -1.1753
  371TIP3    H2 1059   3.266   1.558   6.023  0.8276  1.2379  0.0609
  372TIP3   OH2 1060   1.258   3.961   1.411  0.1291  0.3518 -0.3980
  372TIP3    H1 1061   1.207   3.905   1.470  0.0583 -0.9136 -1.6185
  372TIP3    H2 1062   1.193   4.015   1.367  0.2557  2.0634  1.3722
  373TIP3   OH2 1063   4.838   1.023   5.136 -0.8556 -0.1138  0.9807
  373TIP3    H1 1064   4.781   1.053   5.065  0.9642  0.1376 -0.4618
  373TIP3    H2 1065   4.840   0.928   5.126  0.5488 -0.0001 -0.3419
  374TIP3   OH2 1066   4.012   4.131   4.614  0.3787 -0.0740  0.2622
  374TIP3    H1 1067   4.027   4.169   4.701  2.6894 -1.4407  0.5303
  374TIP3    H2 1068   3.980   4.042   4.632 -1.6331  0.4721 -0.3469
  375TIP3   OH2 1069   7.858   1.367   0.453  0.4647  0.3328 -0.3818
  375TIP3    H1 1070   7.795   1.439   0.461  0.4130  0.2647 -0.1740
  375TIP3    H2 1071   7.848   1.317   0.534 -1.3361 -1.3852 -1.5720
  376TIP3   OH2 1072   6.743   2.584   3.128  0.5272 -0.2875 -0.2012
  376TIP3    H1 1073   6.658   2.544   3.147  0.5779  0.2607  1.3347
  376TIP3    H2 1074   6.732   2.677   3.150  0.5490  0.5353 -3.2428
  377TIP3   OH2 1075   5.188   0.496   1.891  0.2247  0.5906  0.4940
  377TIP3    H1 1076   5.272   0.451   1.885 -0.0978 -0.0472  0.6189
  377TIP3    H2 1077   5.182   0.524   1.982  0.5325  1.1080  0.3597
  378TIP3   OH2 1078   3.685   1.559   5.536  0.2046  0.3030 -0.3105
  378TIP3    H1 1079   3.769   1.576   5.577 -1.0448  0.0813  2.6052
  378TIP3    H2 1080   3.638   1.642   5.541  0.0317  0.3034 -1.4774
  379TIP3   OH2 1081   7.299   4.802   1.180 -0.3097  0.0791  0.3819
  379TIP3    H1 1082   7.245   4.724   1.188 -0.8691  0.4006 -0.1841
  379TIP3    H2 1083   7.236   4.874   1.173  0.1978  0.5703  0.7554
  380TIP3   OH2 1084   2.294   7.529   4.665  0.2911  0.1377  0.2676
  380TIP3    H1 1085   2.280   7.605   4.609  1.7394  0.3786  0.2016
  380TIP3    H2 1086   2.352   7.561   4.734 -1.2378 -0.2182  1.7940
  381TIP3   OH2 1087   1.819   5.393   4.533  0.1611  0.3360 -0.2919
  381TIP3    H1 1088   1.894   5.342   4.504 -0.2753 -0.7711  0.4960
  381TIP3    H2 1089   1.757   5.388   4.460  0.9601  1.5491 -1.0921
  382TIP3   OH2 1090   6.074   2.823   5.207 -0.4433 -0.1224  0.2418
  382TIP3    H1 1091   6.062   2.767   5.284 -0.7621  0.6921  0.7849
  382TIP3    H2 1092   5.989   2.822   5.163 -0.7298  0.6925  0.7654
  383TIP3   OH2 1093   1.278   0.379   5.637  0.0760  0.1043 -0.1136
  383TIP3    H1 1094   1.256   0.345   5.551  1.7735  0.0429 -0.5698
  383TIP3    H2 1095   1.206   0.438   5.659 -0.2683  0.3216 -1.6897
  384TIP3   OH2 1096   6.486   3.897   5.384 -0.0380 -0.1787 -0.0202
  384TIP3    H1 1097   6.415   3.893   5.319  0.4279  1.5868 -0.7126
  384TIP3    H2 1098   6.465   3.974   5.437  1.5252  0.6031 -0.4824
  385TIP3   OH2 1099   3.882   0.062   1.989 -0.0206  0.0056 -0.0298
  385TIP3    H1 1100   3.800   0.013   1.996 -0.7941  1.2182 -0.2435
  385TIP3    H2 1101   3.950  -0.005   1.990 -0.9594 -0.9734  1.0680
  386TIP3   OH2 1102   5.627   5.726   0.754  0.0464  0.5437  0.1522
  386TIP3    H1 1103   5.711   5.688   0.731  0.1859  1.3107 -0.6883
  386TIP3    H2 1104   5.611   5.699   0.844  0.0000 -1.7106 -0.4827
  387TIP3   OH2 1105   6.054   1.333   1.374 -1.2379 -0.1420  0.6985
  387TIP3    H1 1106   6.023   1.324   1.464  2.8378  2.3795  2.6618
  387TIP3    H2 1107   6.099   1.251   1.356 -1.5744 -0.4425  1.1987
  388TIP3   OH2 1108   5.061   2.349   4.375  0.3591  0.2882 -0.5106
  388TIP3    H1 1109   5.071   2.327   4.282 -2.1315  0.2340 -0.8285
  388TIP3    H2 1110   5.082   2.442   4.379 -0.4095  0.5112 -1.3189
  389TIP3   OH2 1111   6.729   7.586   1.071 -0.1330 -0.5523 -0.7430
  389TIP3    H1 1112   6.662   7.620   1.131  1.4301 -0.2467  0.9176
  389TIP3    H2 1113   6.722   7.641   0.994 -0.3188  0.9834  0.3207
  390TIP3   OH2 1114   3.462   0.330   2.521 -0.4599  0.2931 -0.4273
  390TIP3    H1 1115   3.421   0.326   2.435 -0.8959 -0.9989 -0.1922
  390TIP3    H2 1116   3.556   0.325   2.503 -0.5569 -3.4245 -0.8040
  391TIP3   OH2 1117   0.372   2.109   1.409  0.5739  0.1517 -0.0868
  391TIP3    H1 1118   0.335   2.126   1.323 -2.0542  1.4518  1.1969
  391TIP3    H2 1119   0.406   2.194   1.438  1.0510 -0.1814  0.3574
  392TIP3   OH2 1120   4.537   7.552   6.167 -0.0518  0.6886 -0.8253
  392TIP3    H1 1121   4.613   7.539   6.223 -0.6794  0.0701 -0.0956
  392TIP3    H2 1122   4.573   7.553   6.078  0.5735 -2.3591 -0.7276
  393TIP3   OH2 1123   1.823   1.818   5.473  0.2815 -0.4120  0.1979
  393TIP3    H1 1124   1.790   1.836   5.385  1.7840 -1.9611 -0.7576
  393TIP3    H2 1125   1.910   1.858   5.473  1.2211 -2.3653  0.1208
  394TIP3   OH2 1126   7.797   2.601   5.734 -0.2900  0.3613  0.0908
  394TIP3    H1 1127   7.764   2.519   5.770 -1.1147  0.2258 -0.9136
  394TIP3    H2 1128   7.886   2.581   5.705 -0.0748  0.1436  0.8804
  395TIP3   OH2 1129   4.065   4.000   4.063 -0.1104  0.1966  0.0908
  395TIP3    H1 1130   4.122   3.932   4.028  0.5036  0.5374  0.4080
  395TIP3    H2 1131   3.983   3.955   4.083  0.1677 -0.3723 -0.0423
  396TIP3   OH2 1132   1.057   0.020   3.613  0.3044 -0.0647  0.1472
  396TIP3    H1 1133   1.146   0.041   3.641 -0.1470  1.5676  0.4553
  396TIP3    H2 1134   1.012   0.105   3.610 -0.7750 -0.6478 -1.6861
  397TIP3   OH2 1135   2.570   6.035   3.806 -0.3885 -0.8064  0.4509
  397TIP3    H1 1136   2.573   6.044   3.901 -0.3729  0.5100  0.3418
  397TIP3    H2 1137   2.476   6.037   3.785 -0.5114 -2.9441  0.5644
  398TIP3   OH2 1138   4.856   1.475   4.517 -0.2745  0.0542  0.5064
  398TIP3    H1 1139   4.832   1.392   4.476 -0.0355 -0.4199  1.3065
  398TIP3    H2 1140   4.776   1.506   4.558 -0.5073  0.5156 -0.2837
  399TIP3   OH2 1141   2.364   6.753   3.100 -0.0601  0.6497 -0.2905
  399TIP3    H1 1142   2.400   6.665   3.088  1.7528  1.4138 -0.8179
  399TIP3    H2 1143   2.281   6.739   3.147  0.3988 -1.2863  0.0331
  400TIP3   OH2 1144   4.580   4.882   0.085 -0.1361 -0.3162 -0.2720
  400TIP3    H1 1145   4.566   4.917   0.172  1.0656  0.6381 -0.4412
  400TIP3    H2 1146   4.499   4.834   0.065 -1.7155  2.0400  0.1041
  401TIP3   OH2 1147   5.662   4.336   3.966 -0.0321 -0.8240 -0.4597
  401TIP3    H1 1148   5.572   4.317   3.939 -0.5903 -0.1142  0.7640
  401TIP3    H2 1149   5.717   4.304   3.895 -1.1421 -2.8668 -0.4683
  402TIP3   OH2 1150   4.226   2.242   2.860  0.3470  0.4823  0.5604
  402TIP3    H1 1151   4.170   2.298   2.914 -0.5687  0.8099 -0.7121
  402TIP3    H2 1152   4.176   2.162   2.848  1.2750 -0.2964  1.6047
  403TIP3   OH2 1153   6.262   6.490   2.963 -0.1308  0.8046  0.5798
  403TIP3    H1 1154   6.288   6.408   3.004 -0.2314  0.1789 -0.5878
  403TIP3    H2 1155   6.183   6.469   2.913  1.4209  0.8751 -2.0921
  404TIP3   OH2 1156   5.848   2.675   0.499 -0.0911  0.6718  0.3714
  404TIP3    H1 1157   5.808   2.634   0.422  0.0868 -0.7811  1.0173
  404TIP3    H2 1158   5.775   2.692   0.558 -0.0922  0.7306  0.3532
  405TIP3   OH2 1159   2.967   5.505   0.515 -0.3201 -1.0892 -0.2329
  405TIP3    H1 1160   3.019   5.574   0.474 -0.8004 -1.0731 -0.8431
  405TIP3    H2 1161   3.032   5.441   0.546  0.0591 -1.5193 -1.7893
  406TIP3   OH2 1162   7.463   4.382   1.081  0.1838 -0.2199 -0.2850
  406TIP3    H1 1163   7.466   4.476   1.059  0.7301  0.2451  1.5718
  406TIP3    H2 1164   7.425   4.379   1.168  1.6213 -1.5875  0.3429
  407TIP3   OH2 1165   6.236   4.986   2.974  0.3013  0.3539 -0.5122
  407TIP3    H1 1166   6.319   4.999   3.021 -0.1898  1.9248 -0.0231
  407TIP3    H2 1167   6.196   4.911   3.017  0.6735  0.6682  0.4056
  408TIP3   OH2 1168   5.133   2.382   2.718 -0.6591  0.0427  0.5377
  408TIP3    H1 1169   5.219   2.358   2.683  0.3687  1.1118  2.1605
  408TIP3    H2 1170   5.088   2.424   2.645  0.9785  1.2545  0.1646
  409TIP3   OH2 1171   4.721   5.930   4.376 -0.1619 -0.4596 -0.0612
  409TIP3    H1 1172   4.693   5.989   4.446  1.7765 -1.2523  1.4537
  409TIP3    H2 1173   4.665   5.853   4.385 -0.7648 -0.0470 -0.2171
  410TIP3   OH2 1174   4.023   0.783   2.127 -0.4456 -0.3872 -0.1845
  410TIP3    H1 1175   3.965   0.719   2.086 -2.1203  1.1368 -0.3435
  410TIP3    H2 1176   4.111   0.749   2.112 -1.0997 -1.0918 -2.9777
  411TIP3   OH2 1177   6.026   3.033   2.922  0.2736 -0.2339 -0.6957
  411TIP3    H1 1178   6.095   3.099   2.918  1.0141 -0.9795 -0.6327
  411TIP3    H2 1179   5.982   3.049   3.005  0.9997 -0.3493 -0.2787
  412TIP3   OH2 1180   7.660   3.430   1.871  0.2298  0.0831  0.4403
  412TIP3    H1 1181   7.640   3.481   1.792  0.8726 -0.5391 -0.1449
  412TIP3    H2 1182   7.597   3.357   1.868  0.6331 -0.2604  0.1795
  413TIP3   OH2 1183   0.342   6.696   3.337  0.4839  0.1129 -0.0102
  413TIP3    H1 1184   0.274   6.757   3.310  0.6947  0.1851 -0.3862
  413TIP3    H2 1185   0.304   6.649   3.412 -0.4370 -0.7083 -0.9704
  414TIP3   OH2 1186   3.198   5.115   2.215  0.3875 -0.0840 -0.3928
  414TIP3    H1 1187   3.269   5.091   2.275  1.9826  2.5612 -1.0295
  414TIP3    H2 1188   3.224   5.079   2.131  0.5641  0.1482 -0.4408
  415TIP3   OH2 1189   5.875   5.136   0.618 -0.1568  0.4493  0.1126
  415TIP3    H1 1190   5.845   5.047   0.602  0.4470  0.0507  1.1264
  415TIP3    H2 1191   5.949   5.148   0.557 -1.7983  1.1753 -1.8481
  416TIP3   OH2 1192   1.733   1.921   2.062 -0.0191  0.3217  0.7862
  416TIP3    H1 1193   1.695   1.955   2.144 -1.8623 -2.6028  1.2697
  416TIP3    H2 1194   1.667   1.941   1.995 -1.0040 -1.7916  1.0305
  417TIP3   OH2 1195   4.399   5.243   2.746 -0.4863 -0.2185  0.0447
  417TIP3    H1 1196   4.335   5.196   2.798  0.5810 -0.9294  0.7551
  417TIP3    H2 1197   4.465   5.273   2.809 -0.0059  0.3073 -0.6818
  418TIP3   OH2 1198   5.535   3.600   5.720 -0.3926  0.2576 -0.5270
  418TIP3    H1 1199   5.628   3.615   5.736  0.4219 -2.2565 -2.2237
  418TIP3    H2 1200   5.507   3.675   5.669  0.0138  2.2205  1.9288
  419TIP3   OH2 1201   2.945   0.988   2.194  0.7677  0.6081 -0.1866
  419TIP3    H1 1202   2.897   1.032   2.264 -0.0324  0.5930 -0.7008
  419TIP3    H2 1203   2.969   0.903   2.231  0.4894  0.6611  0.1244
  420TIP3   OH2 1204   6.851   3.185   2.434  0.0030 -0.0400 -0.0192
  420TIP3    H1 1205   6.933   3.231   2.415  0.2183 -0.2498  0.3851
  420TIP3    H2 1206   6.840   3.194   2.529 -0.7213  0.4472 -0.1508
  421TIP3   OH2 1207   7.950   3.811   0.296 -0.6416 -0.1627 -0.1791
  421TIP3    H1 1208   7.867   3.857   0.294 -0.5223  0.1068  0.7662
  421TIP3    H2 1209   8.014   3.875   0.328 -0.5154 -0.9946  1.3770
  422TIP3   OH2 1210   1.293   0.605   1.416 -0.2552  0.0076  0.2377
  422TIP3    H1 1211   1.369   0.569   1.462  0.0492  1.5819  1.0460
  422TIP3    H2 1212   1.313   0.592   1.323  0.4026 -0.7434  0.4713
  423TIP3   OH2 1213   4.203   7.617   5.379  0.2570  0.2813  0.2104
  423TIP3    H1 1214   4.138   7.547   5.376 -0.0996  0.5869  0.6374
  423TIP3    H2 1215   4.188   7.667   5.299  1.1380 -0.6733 -0.5668
  424TIP3   OH2 1216   5.402   5.010   4.024 -0.0061  0.1612  0.6643
  424TIP3    H1 1217   5.429   4.983   4.112 -3.6047  0.1651  1.9407
  424TIP3    H2 1218   5.315   5.048   4.037 -0.7610 -0.0318 -2.9509
  425TIP3   OH2 1219   2.684   3.172   6.685 -0.0767 -0.6674 -0.6603
  425TIP3    H1 1220   2.726   3.190   6.769 -1.0805  1.9733 -0.6179
  425TIP3    H2 1221   2.595   3.145   6.707  0.0998 -1.4510 -0.8669
  426TIP3   OH2 1222   6.039   4.335   4.006 -0.4918  0.1328 -0.2234
  426TIP3    H1 1223   6.002   4.400   3.947  0.6706 -0.0892 -1.2259
  426TIP3    H2 1224   6.091   4.386   4.069  0.2667  0.1998 -0.8953
  427TIP3   OH2 1225   7.730   3.863   6.240 -0.0092 -0.0960  0.0593
  427TIP3    H1 1226   7.646   3.901   6.268  0.7199  1.3582  0.3610
  427TIP3    H2 1227   7.748   3.796   6.305 -1.6384 -1.4701 -0.8386
  428TIP3   OH2 1228   5.689   2.128   1.870 -0.5474  0.0929  0.2541
  428TIP3    H1 1229   5.757   2.191   1.848 -0.3364 -0.2909 -0.2249
  428TIP3    H2 1230   5.733   2.060   1.921 -0.1670 -1.0429 -1.4977
  429TIP3   OH2 1231   4.978   7.308   2.387 -0.1485 -0.0140 -0.1852
  429TIP3    H1 1232   4.944   7.391   2.422 -0.2141 -0.1510  0.0819
  429TIP3    H2 1233   5.070   7.327   2.368  0.2850 -0.3271  1.4331
  430TIP3   OH2 1234   3.512   5.109   6.286  0.0916 -0.0149 -0.1339
  430TIP3    H1 1235   3.483   5.200   6.276 -0.1969 -0.0167  0.5966
  430TIP3    H2 1236   3.431   5.059   6.300  0.1418 -0.5685 -1.6867
  431TIP3   OH2 1237   1.684   0.978   0.523 -0.3462 -0.4364 -0.7880
  431TIP3    H1 1238   1.715   0.914   0.586  1.1811  1.0166  0.0199
  431TIP3    H2 1239   1.760   1.035   0.507 -2.2965  2.9195  0.7532
  432TIP3   OH2 1240   0.842   1.200   2.193 -0.1260 -0.2824  0.2974
  432TIP3    H1 1241   0.763   1.199   2.139  0.5366  0.5908 -0.7243
  432TIP3    H2 1242   0.875   1.109   2.190 -0.0451 -0.2323 -0.8737
  433TIP3   OH2 1243   1.262   4.062   6.341  0.4304 -0.2442 -0.4180
  433TIP3    H1 1244   1.275   3.975   6.378 -0.8512 -0.0152  0.6450
  433TIP3    H2 1245   1.260   4.048   6.246 -0.9473 -1.5595 -0.2260
  434TIP3   OH2 1246   3.650   2.206   6.109 -0.5152  0.1521  0.0359
  434TIP3    H1 1247   3.720   2.266   6.138 -0.1442 -0.6959  0.9584
  434TIP3    H2 1248   3.595   2.195   6.187  0.7537 -2.5460  0.6827
  435TIP3   OH2 1249   7.173   7.236   5.568 -0.1548 -0.0469  0.1346
  435TIP3    H1 1250   7.210   7.228   5.656  0.1768  0.2124  0.0182
  435TIP3    H2 1251   7.218   7.169   5.517  0.0670  0.1880  0.0218
  436TIP3   OH2 1252   4.205   6.733   1.416 -0.0068 -0.6846 -0.2314
  436TIP3    H1 1253   4.235   6.652   1.373 -1.9520 -1.1953 -0.7206
  436TIP3    H2 1254   4.197   6.796   1.344  0.9298 -0.2126  0.0633
  437TIP3   OH2 1255   4.452   1.191   0.316  0.4630 -0.8493 -0.6087
  437TIP3    H1 1256   4.366   1.193   0.273  0.5021  1.7896 -0.7345
  437TIP3    H2 1257   4.496   1.270   0.284  1.5445 -0.2284  2.1326
  438TIP3   OH2 1258   5.936   3.763   1.361 -0.5761 -0.1660 -0.2317
  438TIP3    H1 1259   5.961   3.671   1.356  0.8912  0.1082  1.1783
  438TIP3    H2 1260   5.958   3.789   1.451 -0.5582  1.6635 -0.7191
  439TIP3   OH2 1261   5.392   0.733   5.541  0.2760  0.1072 -0.4360
  439TIP3    H1 1262   5.346   0.649   5.540 -2.9055  1.7033  0.3804
  439TIP3    H2 1263   5.350   0.783   5.611  2.1367  2.3808 -0.8055
  440TIP3   OH2 1264   5.569   2.559   5.272 -0.1536 -0.0277 -0.1490
  440TIP3    H1 1265   5.597   2.467   5.277  0.8799  0.2904  0.1321
  440TIP3    H2 1266   5.586   2.594   5.359 -0.1964  0.5240 -0.3587
  441TIP3   OH2 1267   3.634   2.621   4.112  0.0061  0.0156 -0.6991
  441TIP3    H1 1268   3.586   2.702   4.092 -0.3076  0.1361  0.4630
  441TIP3    H2 1269   3.645   2.623   4.207  2.5677  0.1237 -0.9389
  442TIP3   OH2 1270   0.673   5.748   0.997  0.3545 -0.1015 -0.0227
  442TIP3    H1 1271   0.620   5.728   0.919 -1.4863  1.5091  0.7345
  442TIP3    H2 1272   0.733   5.816   0.967  0.9656 -0.8341 -0.4966
  443TIP3   OH2 1273   3.028   0.035   3.615 -0.5162  0.3619  0.1630
  443TIP3    H1 1274   3.021   0.103   3.549 -0.3911 -0.3773 -0.6309
  443TIP3    H2 1275   2.938   0.017   3.641 -0.7374 -0.7006 -1.2407
  444TIP3   OH2 1276   0.931   0.473   0.594  0.3046  0.2947  0.0310
  444TIP3    H1 1277   0.844   0.481   0.555  0.3970 -0.3338 -0.3188
  444TIP3    H2 1278   0.924   0.520   0.677 -1.2234 -2.0782  1.3865
  445TIP3   OH2 1279   4.546   7.042   0.752 -0.4520 -0.2011  0.0891
  445TIP3    H1 1280   4.528   6.999   0.836 -2.6073 -0.2432 -0.3280
  445TIP3    H2 1281   4.638   7.024   0.735 -0.9415 -3.7830  0.4506
  446TIP3   OH2 1282   0.267   4.751   0.335 -0.5824 -0.1311  0.1297
  446TIP3    H1 1283   0.278   4.770   0.428 -1.7722 -0.2301  0.2991
  446TIP3    H2 1284   0.241   4.659   0.332 -0.6164 -0.1087 -0.2939
  447TIP3   OH2 1285   4.771   0.034   0.329 -0.1491 -0.3632 -0.2207
  447TIP3    H1 1286   4.833  -0.026   0.369  0.0739  0.3802  0.5776
  447TIP3    H2 1287   4.818   0.073   0.255  0.0071 -0.5058 -0.1954
  448TIP3   OH2 1288   3.014   1.629   1.418 -0.1313  0.6657  0.3264
  448TIP3    H1 1289   3.059   1.693   1.472  0.3683  0.8038 -0.2436
  448TIP3    H2 1290   2.921   1.640   1.439 -0.1608  2.2712 -0.4946
  449TIP3   OH2 1291   7.835   2.421   3.076  0.2607 -0.1938  0.1733
  449TIP3    H1 1292   7.798   2.335   3.057  2.2171 -0.9166 -0.6042
  449TIP3    H2 1293   7.924   2.403   3.106  0.1754  1.4892  1.6310
  450TIP3   OH2 1294   5.403   6.708   2.596 -0.0566 -0.1887  0.6846
  450TIP3    H1 1295   5.396   6.613   2.580  1.2464 -0.3014  0.7352
  450TIP3    H2 1296   5.316   6.741   2.573 -0.2145 -1.2495 -0.4092
  451TIP3   OH2 1297   6.123   0.889   1.414  0.4569  0.8257  0.4018
  451TIP3    H1 1298   6.152   0.804   1.447  2.2434  1.0385 -0.5514
  451TIP3    H2 1299   6.027   0.886   1.422  0.5974 -0.5244  2.1366
  452TIP3   OH2 1300   4.184   0.299   6.643  0.4946 -0.1423 -0.0996
  452TIP3    H1 1301   4.166   0.326   6.553  1.4989  0.1143 -0.2345
  452TIP3    H2 1302   4.268   0.254   6.639  0.3282 -0.5426  0.6425
  453TIP3   OH2 1303   3.853   0.278   2.907  0.7350 -0.5929  0.1364
  453TIP3    H1 1304   3.843   0.231   2.825 -1.7487 -0.8166  0.4789
  453TIP3    H2 1305   3.764   0.303   2.931  1.3815 -0.4813  2.7266
  454TIP3   OH2 1306   1.293   5.514   0.648 -0.2935 -0.1195  0.4706
  454TIP3    H1 1307   1.256   5.427   0.662  0.0855 -0.0235  2.3804
  454TIP3    H2 1308   1.374   5.499   0.599 -1.0338 -0.6567 -0.6312
  455TIP3   OH2 1309   2.306   4.491   2.835 -0.6625  0.9429  0.0863
  455TIP3    H1 1310   2.340   4.408   2.869  0.8446  0.8703 -1.4824
  455TIP3    H2 1311   2.342   4.557   2.894  0.7826  0.7062 -0.4791
  456TIP3   OH2 1312   7.388   6.816   4.245 -0.2202 -0.2327  0.3375
  456TIP3    H1 1313   7.319   6.751   4.260 -1.2945  1.0017  0.9665
  456TIP3    H2 1314   7.382   6.838   4.152 -1.2566  0.4767  0.5604
  457TIP3   OH2 1315   2.599   1.017   5.236  0.0154  0.5547  0.1014
  457TIP3    H1 1316   2.524   0.973   5.197  1.0854 -1.3886  0.1343
  457TIP3    H2 1317   2.659   1.032   5.162 -0.5555  2.5489 -0.0179
  458TIP3   OH2 1318   2.973   7.244   4.788 -0.5838  0.2463 -0.1692
  458TIP3    H1 1319   2.961   7.191   4.867 -1.3663 -0.1228 -0.5270
  458TIP3    H2 1320   2.965   7.334   4.819 -0.1610  0.1297  0.2910
  459TIP3   OH2 1321   6.011   4.268   2.403  0.3824 -0.2031  0.2273
  459TIP3    H1 1322   5.956   4.250   2.480 -1.0094  2.6832  0.0735
  459TIP3    H2 1323   6.096   4.292   2.440  0.0213  0.1980  0.8254
  460TIP3   OH2 1324   0.582   5.413   1.514 -0.2242 -0.1782  0.2626
  460TIP3    H1 1325   0.492   5.385   1.498 -1.2663  1.3940  2.8173
  460TIP3    H2 1326   0.584   5.504   1.484  0.4330 -0.1117  0.4930
  461TIP3   OH2 1327   2.961   2.540   5.229 -0.0924  0.6695  0.0109
  461TIP3    H1 1328   3.015   2.491   5.291 -1.3573 -0.1115  0.5443
  461TIP3    H2 1329   2.921   2.472   5.174 -0.3100  1.2453 -0.5542
  462TIP3   OH2 1330   1.927   2.342   1.459 -0.2017  0.1575 -0.3670
  462TIP3    H1 1331   2.019   2.348   1.436  0.7865  2.0530  3.1915
  462TIP3    H2 1332   1.905   2.249   1.449  2.2432 -0.4348 -0.8145
  463TIP3   OH2 1333   7.436   1.684   5.906 -0.5587  0.1707 -0.4175
  463TIP3    H1 1334   7.343   1.666   5.912 -0.2267 -1.7314 -0.4671
  463TIP3    H2 1335   7.449   1.712   5.815 -1.0189  0.0448 -0.5227
  464TIP3   OH2 1336   2.333   5.042   5.110  0.6603 -0.6808  0.1356
  464TIP3    H1 1337   2.403   5.021   5.172  0.4524 -1.1406  0.2173
  464TIP3    H2 1338   2.295   5.123   5.143  0.7000 -0.8016  0.4790
  465TIP3   OH2 1339   1.555   1.466   6.610 -0.0908 -0.2164 -0.0814
  465TIP3    H1 1340   1.463   1.440   6.611 -0.6368  1.5544  0.6615
  465TIP3    H2 1341   1.602   1.389   6.639 -1.5121 -0.6651  1.1727
  466TIP3   OH2 1342   5.519   2.908   1.081 -0.0606 -0.0074  0.4022
  466TIP3    H1 1343   5.494   2.845   1.148 -3.1092 -0.6199 -1.1350
  466TIP3    H2 1344   5.479   2.875   1.001  0.1591  2.6917 -0.9236
  467TIP3   OH2 1345   0.947   5.111   2.850 -0.6006  0.7134 -0.0153
  467TIP3    H1 1346   1.011   5.045   2.821 -1.0773 -0.8927  2.3221
  467TIP3    H2 1347   0.999   5.190   2.864  0.3969  0.1961 -0.6294
  468TIP3   OH2 1348   7.728   3.534   6.617  0.8237 -0.2331  0.1893
  468TIP3    H1 1349   7.706   3.547   6.525  1.2650  0.2598  0.1504
  468TIP3    H2 1350   7.644   3.511   6.658  0.7609 -1.2504 -0.4664
  469TIP3   OH2 1351   3.147   7.807   0.616  0.4315  1.1573 -0.0293
  469TIP3    H1 1352   3.154   7.770   0.704  0.9728  0.7611 -0.2375
  469TIP3    H2 1353   3.076   7.871   0.623 -1.2245 -0.6272  0.0923
  470TIP3   OH2 1354   2.496   3.988   1.041  0.6209 -0.0883  0.4235
  470TIP3    H1 1355   2.534   3.997   0.953 -1.5664  0.0672 -0.5623
  470TIP3    H2 1356   2.430   4.057   1.045  0.0680 -0.6785  1.8507
  471TIP3   OH2 1357   3.555   2.588   0.204  0.7684 -0.3558 -0.4395
  471TIP3    H1 1358   3.513   2.674   0.205  1.5040  0.0226  1.0723
  471TIP3    H2 1359   3.482   2.526   0.201 -0.0178  0.2829  2.0992
  472TIP3   OH2 1360   6.220   1.805   0.326 -0.2219  0.4223  0.5281
  472TIP3    H1 1361   6.139   1.843   0.360  0.0725  1.5158  0.0635
  472TIP3    H2 1362   6.289   1.861   0.362  0.6268 -2.1497  3.2848
  473TIP3   OH2 1363   4.459   6.866   4.148  0.4092  0.0552 -0.1969
  473TIP3    H1 1364   4.366   6.890   4.153  0.3002 -0.5229  2.9482
  473TIP3    H2 1365   4.460   6.783   4.101 -1.1004 -1.3580  2.0511
  474TIP3   OH2 1366   4.451   2.820   6.125  0.0849  0.2840  0.1925
  474TIP3    H1 1367   4.453   2.776   6.210  1.4281 -0.8618 -0.3975
  474TIP3    H2 1368   4.491   2.758   6.065  0.1810  1.5311 -1.0808
  475TIP3   OH2 1369   5.646   5.553   6.732 -0.1929  0.8297 -0.7663
  475TIP3    H1 1370   5.641   5.645   6.757  0.7432  0.4944  0.7194
  475TIP3    H2 1371   5.588   5.508   6.793  0.2956  0.2715 -0.7157
  476TIP3   OH2 1372   2.911   7.773   2.151 -0.3018  0.4306 -0.4913
  476TIP3    H1 1373   3.005   7.769   2.167 -0.2001  0.0885 -1.1673
  476TIP3    H2 1374   2.891   7.693   2.102 -0.9591  0.4571 -0.2830
  477TIP3   OH2 1375   3.405   1.500   6.651  0.3488 -0.0119 -0.0270
  477TIP3    H1 1376   3.341   1.562   6.685 -1.2058 -1.8947  0.7140
  477TIP3    H2 1377   3.360   1.456   6.578  0.7596 -1.3798  0.5058
  478TIP3   OH2 1378   2.902   2.558   4.592 -0.2027 -0.0894  0.1017
  478TIP3    H1 1379   2.991   2.559   4.556  1.1024 -0.1737  3.0090
  478TIP3    H2 1380   2.913   2.593   4.681 -2.5073 -3.0482  1.7110
  479TIP3   OH2 1381   5.891   1.169   3.516  0.0471 -0.4321  0.4781
  479TIP3    H1 1382   5.920   1.199   3.602 -1.0471 -1.1754  1.1255
  479TIP3    H2 1383   5.808   1.214   3.501 -0.3641 -1.1979  0.3611
  480TIP3   OH2 1384   6.562   1.016   0.503  0.5241  0.7812  0.1071
  480TIP3    H1 1385   6.590   0.964   0.428 -1.1196  1.2552 -0.8929
  480TIP3    H2 1386   6.591   1.105   0.483  1.3330  0.6627  0.7250
  481TIP3   OH2 1387   1.851   1.501   0.800 -0.1536  0.3875 -0.2587
  481TIP3    H1 1388   1.854   1.511   0.705  3.1042 -0.1387 -0.3330
  481TIP3    H2 1389   1.881   1.585   0.834 -0.3131  0.2370  0.2696
  482TIP3   OH2 1390   4.952   6.031   6.371  0.3410 -0.2852 -0.1427
  482TIP3    H1 1391   4.975   6.122   6.350  1.8358 -0.2989  1.1870
  482TIP3    H2 1392   5.013   5.979   6.319  0.9868 -0.4441  0.7566
  483TIP3   OH2 1393   1.142   4.441   1.284 -0.2726  0.2720  0.3507
  483TIP3    H1 1394   1.068   4.420   1.341 -1.2243  0.1650 -0.8838
  483TIP3    H2 1395   1.118   4.404   1.199  0.7013  1.2143 -0.3599
  484TIP3   OH2 1396   6.804   4.278   2.325  0.5432  0.0679 -0.4169
  484TIP3    H1 1397   6.891   4.238   2.328  0.4922 -0.1342 -1.4701
  484TIP3    H2 1398   6.819   4.365   2.288  0.5161  0.6991  0.9628
  485TIP3   OH2 1399   7.839   0.227   0.652  0.0055  0.1046 -0.1064
  485TIP3    H1 1400   7.849   0.287   0.726  0.5080  0.0349 -0.1144
  485TIP3    H2 1401   7.754   0.249   0.615  0.1522  0.7690 -0.0677
  486TIP3   OH2 1402   5.459   4.950   4.296  0.3701 -0.1797  0.0966
  486TIP3    H1 1403   5.393   4.921   4.359 -1.0653  0.0090 -1.2262
  486TIP3    H2 1404   5.483   5.038   4.325 -0.5101  0.0318  0.2342
  487TIP3   OH2 1405   3.371   1.115   1.185  0.0576  0.3211  0.0049
  487TIP3    H1 1406   3.330   1.126   1.270  0.4697  1.1065  0.1087
  487TIP3    H2 1407   3.298   1.104   1.124 -0.2248 -0.6651  0.5038
  488TIP3   OH2 1408   0.458   6.168   2.998 -0.0171  0.3547 -0.1217
  488TIP3    H1 1409   0.365   6.144   2.990 -0.2930  0.8519  1.3014
  488TIP3    H2 1410   0.492   6.162   2.908 -0.8814 -1.9359 -0.3710
  489TIP3   OH2 1411   5.350   0.924   3.910  0.0188  0.2777 -0.8145
  489TIP3    H1 1412   5.378   0.913   4.001  2.4963 -2.6153 -1.7768
  489TIP3    H2 1413   5.408   0.991   3.874  1.1037 -0.7211 -0.9814
  490TIP3   OH2 1414   2.745   6.617   5.493 -0.6942 -0.2732  0.2761
  490TIP3    H1 1415   2.827   6.658   5.519 -0.5696  0.5432 -1.2577
  490TIP3    H2 1416   2.689   6.623   5.570 -0.2183  1.6049  0.5211
  491TIP3   OH2 1417   3.899   5.229   0.442  0.0202 -0.2170  0.5211
  491TIP3    H1 1418   3.813   5.269   0.429 -0.1134 -0.4127  0.7954
  491TIP3    H2 1419   3.932   5.268   0.522  0.4777  0.3556  0.0659
  492TIP3   OH2 1420   1.031   3.908   5.948  0.2195 -0.3866  0.0849
  492TIP3    H1 1421   1.045   4.003   5.950  2.3833 -0.6492  0.2594
  492TIP3    H2 1422   0.981   3.889   6.028 -0.2203  0.5958  0.0511
  493TIP3   OH2 1423   6.179   4.757   6.520 -0.6586 -0.5951  0.9669
  493TIP3    H1 1424   6.258   4.783   6.472 -1.9869 -0.0451 -1.0284
  493TIP3    H2 1425   6.212   4.724   6.604  1.7607 -1.2375 -0.1480
  494TIP3   OH2 1426   6.243   1.940   2.447 -0.4513  0.5330 -0.0234
  494TIP3    H1 1427   6.185   2.014   2.429 -1.0170  0.0842 -0.0945
  494TIP3    H2 1428   6.310   1.945   2.379 -1.8576 -0.4190 -1.5667
  495TIP3   OH2 1429   2.082   5.072   4.880  0.1915 -0.1711  0.6952
  495TIP3    H1 1430   2.011   5.073   4.815  1.2250 -0.7004 -0.4832
  495TIP3    H2 1431   2.109   4.980   4.883  2.3060  0.3486 -0.5785
  496TIP3   OH2 1432   4.527   6.838   0.935  0.5182  0.0749 -0.4279
  496TIP3    H1 1433   4.623   6.839   0.932  0.6304 -2.9641 -3.3143
  496TIP3    H2 1434   4.507   6.820   1.027  2.7239  0.3324  0.1643
  497TIP3   OH2 1435   1.878   3.403   1.613  0.3922  0.4361  0.1433
  497TIP3    H1 1436   1.897   3.367   1.526 -0.6370 -2.3682  0.9792
  497TIP3    H2 1437   1.799   3.455   1.600 -0.9363 -1.6087 -0.2943
  498TIP3   OH2 1438   4.790   5.821   0.478  0.6996  0.4344 -0.4560
  498TIP3    H1 1439   4.790   5.911   0.510 -0.3784 -0.4225  2.2262
  498TIP3    H2 1440   4.810   5.768   0.555 -0.8753 -1.7603 -1.4624
  499TIP3   OH2 1441   4.195   0.364   2.680 -0.3881 -0.1423  0.1834
  499TIP3    H1 1442   4.284   0.398   2.681 -1.1007  1.9333  1.7951
  499TIP3    H2 1443   4.186   0.321   2.595  2.5461 -1.6804  0.5251
  500TIP3   OH2 1444   3.835   3.405   5.039  0.0452  0.2598  0.7637
  500TIP3    H1 1445   3.826   3.357   4.957  1.8515 -0.0096  0.6876
  500TIP3    H2 1446   3.749   3.444   5.053 -0.3836  0.1080 -1.1318
  501TIP3   OH2 1447   7.416   6.187   2.674 -0.1730  0.0835  0.0797
  501TIP3    H1 1448   7.507   6.216   2.667 -0.1330 -0.0465  0.0428
  501TIP3    H2 1449   7.367   6.265   2.697 -0.1405  0.2837 -0.5141
  502TIP3   OH2 1450   7.097   4.705   5.181 -0.3298 -0.4528  0.4195
  502TIP3    H1 1451   7.045   4.776   5.145 -1.1247 -0.2284  1.9507
  502TIP3    H2 1452   7.034   4.647   5.223  0.2163 -2.4567 -1.3114
  503TIP3   OH2 1453   3.180   3.500   6.011 -0.4177  0.1931 -0.2276
  503TIP3    H1 1454   3.124   3.426   6.034  0.3129  0.0701  1.2600
  503TIP3    H2 1455   3.269   3.465   6.014 -0.0305  1.2188  0.9762
  504TIP3   OH2 1456   1.691   4.733   0.398  0.3885  0.8132  0.1167
  504TIP3    H1 1457   1.674   4.665   0.463 -0.2309 -0.2866 -1.1414
  504TIP3    H2 1458   1.604   4.764   0.372  0.5834  0.5499 -0.8760
  505TIP3   OH2 1459   2.677   7.599   1.941 -0.4785  0.4259 -0.5875
  505TIP3    H1 1460   2.583   7.597   1.926 -0.9422  2.9925  1.2728
  505TIP3    H2 1461   2.709   7.669   1.884 -0.9321  4.2275  3.3098
  506TIP3   OH2 1462   4.378   0.122   4.784 -0.2151  0.1124 -0.3914
  506TIP3    H1 1463   4.349   0.051   4.726  0.7793  0.7330 -1.7265
  506TIP3    H2 1464   4.387   0.197   4.725 -1.3077  1.3910  0.9991
  507TIP3   OH2 1465   3.442   5.695   5.584  0.3301  0.8965  0.4381
  507TIP3    H1 1466   3.488   5.639   5.522  0.3742  1.1809  0.2129
  507TIP3    H2 1467   3.420   5.637   5.657  2.6779  1.1612  1.4214
  508TIP3   OH2 1468   7.648   4.674   0.807  0.3736 -0.4183  0.3241
  508TIP3    H1 1469   7.614   4.590   0.774 -0.1641 -0.3327  0.6539
  508TIP3    H2 1470   7.702   4.707   0.735 -1.4420  0.1600 -0.8442
  509TIP3   OH2 1471   7.920   7.219   5.390  0.0231  0.4033 -0.3911
  509TIP3    H1 1472   7.987   7.155   5.366  0.3055  0.0105  1.3290
  509TIP3    H2 1473   7.837   7.171   5.383  0.2806 -0.4361  1.5635
  510TIP3   OH2 1474   3.999   1.285   2.393 -0.4597  0.0314  0.1368
  510TIP3    H1 1475   4.069   1.346   2.417 -0.3933 -0.8144  2.2652
  510TIP3    H2 1476   4.045   1.212   2.352 -0.2236  0.0213  0.4162
  511TIP3   OH2 1477   0.138   6.292   4.826 -0.0867  0.0859 -0.3374
  511TIP3    H1 1478   0.196   6.271   4.753 -0.5108  1.3516 -1.0723
  511TIP3    H2 1479   0.121   6.386   4.817 -1.8364 -0.1381  0.1455
  512TIP3   OH2 1480   2.991   7.523   4.914 -0.0093  0.2142 -0.0737
  512TIP3    H1 1481   3.051   7.491   4.982 -0.9184 -1.1720  0.1351
  512TIP3    H2 1482   2.965   7.610   4.944  1.0030  0.3722  0.4104
  513TIP3   OH2 1483   7.631   4.612   2.814 -0.0468  0.4204 -0.3673
  513TIP3    H1 1484   7.558   4.590   2.756  0.5423 -0.7727 -0.6861
  513TIP3    H2 1485   7.631   4.543   2.880  0.7434  0.4506 -0.3260
  514TIP3   OH2 1486   8.236   0.168   2.626 -0.0560 -0.3811  0.6156
  514TIP3    H1 1487   8.178   0.162   2.550  0.7032 -1.4462  0.0986
  514TIP3    H2 1488   8.324   0.155   2.590  0.5319  1.2099  1.3846
  515TIP3   OH2 1489   6.985   7.646   3.160 -0.3994 -0.2808  0.0328
  515TIP3    H1 1490   6.984   7.552   3.144  0.8205 -0.2443 -0.3430
  515TIP3    H2 1491   7.004   7.685   3.075  2.1654  0.1316  0.7130
  516TIP3   OH2 1492   6.114   6.908   4.662 -0.3537  0.1923  0.1587
  516TIP3    H1 1493   6.021   6.918   4.683 -0.1173  0.4808  1.1358
  516TIP3    H2 1494   6.144   6.839   4.722 -0.1512 -0.6395 -0.8644
  517TIP3   OH2 1495   5.172   4.671   1.007 -0.1705  0.1052  0.3444
  517TIP3    H1 1496   5.146   4.626   0.927  0.1919  0.6379 -0.0736
  517TIP3    H2 1497   5.222   4.747   0.978  2.6556 -1.3392  1.1065
  518TIP3   OH2 1498   5.307   4.844   4.710 -0.1594  0.4323 -0.1592
  518TIP3    H1 1499   5.243   4.907   4.743 -0.4567  0.9989 -1.7596
  518TIP3    H2 1500   5.323   4.786   4.785 -1.0953  1.4202  0.8533
  519TIP3   OH2 1501   6.216   5.330   0.696  0.1733 -0.5515  0.4541
  519TIP3    H1 1502   6.202   5.366   0.783 -2.1505  0.1253 -0.1152
  519TIP3    H2 1503   6.301   5.365   0.668  1.3848 -1.4925  2.7213
  520TIP3   OH2 1504   1.032   6.190   2.409  0.2814 -0.6677  0.0097
  520TIP3    H1 1505   1.119   6.227   2.393  0.5538 -1.2614  0.0953
  520TIP3    H2 1506   1.035   6.158   2.499 -0.1470 -0.3613  0.1342
  521TIP3   OH2 1507   2.685   5.723   6.164  0.3390 -0.1533 -0.5908
  521TIP3    H1 1508   2.781   5.717   6.159  0.4792  0.8250  0.5981
  521TIP3    H2 1509   2.656   5.634   6.182  1.0340 -0.4102 -0.7044
  522TIP3   OH2 1510   0.539   4.479   6.565  0.0731  0.2038  0.0035
  522TIP3    H1 1511   0.546   4.569   6.597 -0.2957  0.1739  0.1714
  522TIP3    H2 1512   0.527   4.426   6.644 -2.2239  0.2612 -0.2254
  523TIP3   OH2 1513   0.987   4.025   4.951  0.3788  0.0571 -0.2792
  523TIP3    H1 1514   0.919   3.990   5.008 -1.6549  1.6762 -1.5646
  523TIP3    H2 1515   0.975   4.120   4.954  2.4303  0.3866 -0.7931
  524TIP3   OH2 1516   8.090   5.301   6.014  0.8131  0.0124  0.2457
  524TIP3    H1 1517   8.012   5.283   6.067  0.2314 -1.5851 -1.0701
  524TIP3    H2 1518   8.140   5.364   6.066 -0.3836 -0.4393  2.0462
  525TIP3   OH2 1519   5.061   5.270   4.878  0.4727 -0.2097  0.0630
  525TIP3    H1 1520   5.024   5.339   4.934 -0.3198 -1.5525  1.2633
  525TIP3    H2 1521   5.080   5.315   4.795 -2.4788  0.9582 -0.1407
  526TIP3   OH2 1522   2.080   2.987   1.233 -0.4244  0.0917  0.5419
  526TIP3    H1 1523   2.061   2.975   1.139 -0.3443  1.1267  0.3777
  526TIP3    H2 1524   2.160   3.039   1.235  0.2480 -0.9363  1.2113
  527TIP3   OH2 1525   6.477   0.076   0.332  0.0568 -0.4305  0.1483
  527TIP3    H1 1526   6.541   0.133   0.290 -0.1614 -1.1577 -1.2400
  527TIP3    H2 1527   6.495  -0.011   0.295 -1.4500 -0.7263  0.0456
  528TIP3   OH2 1528   6.985   0.885   0.167  0.3559 -0.2868 -0.0342
  528TIP3    H1 1529   7.066   0.835   0.174 -0.4085 -1.5921 -0.3202
  528TIP3    H2 1530   6.998   0.942   0.091  2.0868  1.6309  1.5691
  529TIP3   OH2 1531   7.336   1.459   1.663 -0.0312  0.2668  0.4735
  529TIP3    H1 1532   7.328   1.383   1.605  1.0833 -0.7733  1.6074
  529TIP3    H2 1533   7.353   1.533   1.605 -2.1452 -0.1249 -0.7532
  530TIP3   OH2 1534   2.996   6.167   3.339  0.1252 -0.0479  0.1985
  530TIP3    H1 1535   2.995   6.075   3.313  1.7247  0.0588 -0.3407
  530TIP3    H2 1536   3.003   6.165   3.434  1.0332 -0.5040  0.1329
  531TIP3   OH2 1537   2.223   3.122   5.238 -0.1821  0.1409 -0.6670
  531TIP3    H1 1538   2.297   3.100   5.295  0.6900  4.6797  0.3203
  531TIP3    H2 1539   2.245   3.082   5.154  1.7886 -1.2007  0.3953
  532TIP3   OH2 1540   4.953   4.459   6.115 -1.0114 -0.6182  0.0086
  532TIP3    H1 1541   4.868   4.485   6.150 -0.8469  1.0231 -0.6849
  532TIP3    H2 1542   5.016   4.489   6.180 -0.9443 -1.5945  0.3974
  533TIP3   OH2 1543   5.426   4.448   2.207  0.6302  0.0555  0.2070
  533TIP3    H1 1544   5.453   4.516   2.269  0.0030  0.3234  0.1977
  533TIP3    H2 1545   5.378   4.385   2.260  0.0820  0.2904  0.0093
  534TIP3   OH2 1546   7.411   7.339   1.533  0.0461 -0.1449 -0.1971
  534TIP3    H1 1547   7.502   7.355   1.508  0.0035 -0.4533 -0.5635
  534TIP3    H2 1548   7.364   7.335   1.450  0.0193 -1.9029 -0.1363
  535TIP3   OH2 1549   7.488   2.294   5.503  0.1182  0.2616  0.4174
  535TIP3    H1 1550   7.539   2.215   5.485 -1.0147 -0.1584 -1.2223
  535TIP3    H2 1551   7.467   2.289   5.596  0.4979 -1.1089  0.4467
  536TIP3   OH2 1552   2.356   2.781   3.327 -0.1451 -0.5015 -0.2649
  536TIP3    H1 1553   2.386   2.708   3.273  0.5359 -0.1876 -0.3124
  536TIP3    H2 1554   2.331   2.740   3.410 -1.1933 -0.9827 -0.7884
  537TIP3   OH2 1555   2.263   6.773   6.402 -0.6541 -0.6232 -0.0774
  537TIP3    H1 1556   2.221   6.826   6.334 -0.4994 -0.6099 -0.1621
  537TIP3    H2 1557   2.208   6.695   6.408 -1.0722 -0.3131  0.2765
  538TIP3   OH2 1558   7.340   1.372   2.900  0.3664  0.3381 -0.3293
  538TIP3    H1 1559   7.328   1.279   2.922  2.6080  0.0535 -0.1044
  538TIP3    H2 1560   7.296   1.382   2.816  1.6315 -1.3996 -1.2616
  539TIP3   OH2 1561   3.367   6.136   2.185 -0.0919 -0.0311 -0.5907
  539TIP3    H1 1562   3.380   6.051   2.144 -0.9811  0.4085 -1.8444
  539TIP3    H2 1563   3.381   6.199   2.115 -3.9027  0.6671 -0.9544
  540TIP3   OH2 1564   8.078   5.804   3.885 -0.3123  0.1402 -0.1057
  540TIP3    H1 1565   8.054   5.800   3.978  0.5498 -1.1681  0.0842
  540TIP3    H2 1566   8.151   5.866   3.882 -0.6225  0.5186  0.0115
  541TIP3   OH2 1567   8.057   6.196   3.521  0.4435  0.5726 -0.3252
  541TIP3    H1 1568   8.017   6.167   3.439 -0.9660 -0.1195  0.5633
  541TIP3    H2 1569   8.090   6.284   3.502 -0.6192  0.7705 -1.4119
  542TIP3   OH2 1570   5.170   4.753   2.839 -0.1041  0.7449  0.1229
  542TIP3    H1 1571   5.143   4.817   2.905  1.9105  1.0803  0.7039
  542TIP3    H2 1572   5.172   4.802   2.757  0.0305  1.0614  0.3146
  543TIP3   OH2 1573   7.916   2.176   2.520 -0.2180  0.2962  0.0509
  543TIP3    H1 1574   7.915   2.229   2.600  1.4947  0.7424 -0.1910
  543TIP3    H2 1575   7.953   2.234   2.453 -1.2568 -0.2018 -0.9912
  544TIP3   OH2 1576   1.596   2.362   5.442  0.6066 -0.2414 -0.5022
  544TIP3    H1 1577   1.664   2.313   5.489 -1.1952 -1.7553  0.6771
  544TIP3    H2 1578   1.572   2.433   5.502 -2.3280 -2.6898  1.5736
  545TIP3   OH2 1579   7.447   0.912   4.377  0.4781  0.0140  0.3116
  545TIP3    H1 1580   7.533   0.873   4.391  0.0998 -1.3169 -0.8459
  545TIP3    H2 1581   7.401   0.850   4.321 -2.6191 -1.2553  3.8458
  546TIP3   OH2 1582   4.751   6.561   4.076  0.1301  0.1563 -0.1801
  546TIP3    H1 1583   4.825   6.527   4.026  0.1557  0.7719 -0.5670
  546TIP3    H2 1584   4.789   6.592   4.158  0.5624  1.8791 -0.9880
  547TIP3   OH2 1585   3.933   6.434   0.021  0.2475 -0.3977 -0.2428
  547TIP3    H1 1586   3.902   6.489  -0.051  0.5702 -2.8464 -2.4125
  547TIP3    H2 1587   3.859   6.430   0.082  0.0052  1.8359 -0.3113
  548TIP3   OH2 1588   5.480   0.255   5.402  0.6858 -0.3489 -0.0195
  548TIP3    H1 1589   5.502   0.308   5.478  0.8969 -1.4060  0.6788
  548TIP3    H2 1590   5.508   0.167   5.426 -0.8911 -1.0322 -0.6153
  549TIP3   OH2 1591   2.843   7.366   6.554 -0.0734 -0.0162 -0.3203
  549TIP3    H1 1592   2.880   7.324   6.477  0.6779  0.6565 -0.3308
  549TIP3    H2 1593   2.887   7.450   6.560 -0.4474  0.1314  0.5881
  550TIP3   OH2 1594  -0.021   6.051   0.998  0.2246 -0.5615  0.1298
  550TIP3    H1 1595   0.001   6.142   1.016  1.2774 -0.5917 -0.8417
  550TIP3    H2 1596   0.063   6.005   1.004 -0.3011 -1.4763  0.6444
  551TIP3   OH2 1597   6.276   0.556   4.708 -0.1900 -0.1320 -0.0330
  551TIP3    H1 1598   6.268   0.557   4.803  1.5686 -0.3374  0.1561
  551TIP3    H2 1599   6.247   0.643   4.680 -2.7294 -0.7523  0.4442
  552TIP3   OH2 1600   5.339   0.111   6.050  0.1828 -0.0988 -0.2472
  552TIP3    H1 1601   5.348   0.194   6.098  0.2745 -0.3306  0.1369
  552TIP3    H2 1602   5.331   0.045   6.118 -0.8810 -0.3038 -0.5560
  553TIP3   OH2 1603   3.938   3.505   0.805  0.2385 -0.7598  0.1888
  553TIP3    H1 1604   4.022   3.532   0.769 -0.7162 -0.4701 -2.0166
  553TIP3    H2 1605   3.895   3.587   0.830  0.4935 -0.8932  1.1143
  554TIP3   OH2 1606   4.483   7.290   1.650 -0.2385 -0.3701  0.0481
  554TIP3    H1 1607   4.509   7.379   1.626  2.8405 -1.4344 -1.0765
  554TIP3    H2 1608   4.427   7.260   1.579 -0.2938  0.2580 -0.1713
  555TIP3   OH2 1609   1.074   1.766   4.742  0.2285  0.1623 -0.4352
  555TIP3    H1 1610   1.034   1.737   4.660  0.1304 -1.9176  0.2950
  555TIP3    H2 1611   1.085   1.686   4.793  2.8142  1.0137  0.5041
  556TIP3   OH2 1612   0.539   2.388   3.879  0.4172  0.2951  0.0558
  556TIP3    H1 1613   0.526   2.298   3.910 -0.7385  0.1101 -0.9394
  556TIP3    H2 1614   0.549   2.380   3.784  3.4412  0.9096  0.2193
  557TIP3   OH2 1615   5.572   3.279   3.352 -0.7866  0.1949  0.4382
  557TIP3    H1 1616   5.545   3.296   3.262  1.7394 -1.3934 -0.7176
  557TIP3    H2 1617   5.491   3.289   3.403 -2.7015 -0.6559 -2.2020
  558TIP3   OH2 1618   0.956   7.647   4.342  0.0220 -0.3371 -0.0058
  558TIP3    H1 1619   0.968   7.583   4.412 -1.1743 -3.0256 -2.0413
  558TIP3    H2 1620   1.019   7.621   4.275  0.6125  1.6689 -0.2660
  559TIP3   OH2 1621   3.891   4.167   3.918 -0.3201  0.0154 -0.3137
  559TIP3    H1 1622   3.982   4.138   3.925 -0.3082 -0.0642 -0.7720
  559TIP3    H2 1623   3.840   4.096   3.956 -0.2856 -0.5790 -1.3474
  560TIP3   OH2 1624   2.900   6.583   3.143  0.4302 -0.3087 -0.2771
  560TIP3    H1 1625   2.954   6.505   3.154  2.9396  1.2624 -0.6189
  560TIP3    H2 1626   2.922   6.615   3.055 -1.5644  0.1011 -0.6912
  561TIP3   OH2 1627   0.521   7.722   3.709 -0.0259  0.3132 -0.0279
  561TIP3    H1 1628   0.442   7.775   3.697 -0.3377  0.0364  0.7469
  561TIP3    H2 1629   0.557   7.751   3.793  1.1498  1.0047 -0.7391
  562TIP3   OH2 1630   4.427   4.126   6.148  0.1731  0.0713  0.2230
  562TIP3    H1 1631   4.455   4.204   6.196  2.3600 -0.5645  0.0698
  562TIP3    H2 1632   4.456   4.141   6.058  0.8397 -1.0028  0.2413
  563TIP3   OH2 1633   3.515   2.310   0.113  0.2722 -0.3202  0.3455
  563TIP3    H1 1634   3.542   2.308   0.021  0.1835  0.1620  0.3080
  563TIP3    H2 1635   3.574   2.248   0.156 -0.7259 -1.7992 -0.3015
  564TIP3   OH2 1636   5.861   0.756   0.962 -0.3066  0.1781 -0.2891
  564TIP3    H1 1637   5.778   0.737   1.005  0.7181  1.0583  2.2868
  564TIP3    H2 1638   5.840   0.755   0.868 -3.6421  2.1075  0.2484
  565TIP3   OH2 1639   4.698   7.339   5.469  0.8241  0.5032  0.5865
  565TIP3    H1 1640   4.761   7.381   5.411 -0.5120  0.3447 -1.0240
  565TIP3    H2 1641   4.627   7.402   5.478 -0.1035 -0.4351  0.0532
  566TIP3   OH2 1642   2.060   0.023   1.380  0.4209  0.0966  0.1981
  566TIP3    H1 1643   2.143   0.005   1.336 -1.1124  0.9374 -3.3897
  566TIP3    H2 1644   2.058   0.118   1.389 -0.2572  0.1138 -0.0695
  567TIP3   OH2 1645   4.901   5.239   4.171  0.1328  0.5192 -0.5572
  567TIP3    H1 1646   4.848   5.316   4.191 -0.7195 -0.4640  1.1116
  567TIP3    H2 1647   4.965   5.235   4.241  1.7487  1.0242 -1.9265
  568TIP3   OH2 1648   4.989   6.880   5.266  0.1746 -0.0141 -0.2470
  568TIP3    H1 1649   4.993   6.811   5.199  1.2544 -1.4048  1.1630
  568TIP3    H2 1650   4.897   6.882   5.293  0.2025 -1.2360 -0.0089
  569TIP3   OH2 1651   6.574   2.617   0.514  0.0704 -0.0674 -0.3810
  569TIP3    H1 1652   6.505   2.574   0.463 -0.1803 -0.9117  0.6361
  569TIP3    H2 1653   6.553   2.595   0.605 -0.1883  2.3953  0.2067
  570TIP3   OH2 1654   2.230   1.326   0.872 -0.6118 -0.5328  0.0813
  570TIP3    H1 1655   2.197   1.291   0.789 -1.9120  1.1358 -0.1611
  570TIP3    H2 1656   2.247   1.419   0.853  0.0915 -0.3718  1.4072
  571TIP3   OH2 1657   6.729   3.517   3.003  0.4654 -0.3482 -0.2210
  571TIP3    H1 1658   6.812   3.565   3.012  0.4117 -0.3661  0.4463
  571TIP3    H2 1659   6.679   3.542   3.081 -0.8152  0.9351 -1.3953
  572TIP3   OH2 1660   6.176   6.430   4.303  0.3913 -0.1371  0.4928
  572TIP3    H1 1661   6.120   6.452   4.229 -0.4335  0.0166  1.1512
  572TIP3    H2 1662   6.235   6.505   4.311  1.8000 -0.9652 -1.1769
  573TIP3   OH2 1663   1.938   0.046   1.937  0.3628 -0.7123  0.0225
  573TIP3    H1 1664   1.996   0.003   1.874 -0.2880  0.1206 -1.2034
  573TIP3    H2 1665   1.928   0.135   1.903 -1.9251 -0.9314 -0.0786
  574TIP3   OH2 1666   7.086   3.361   2.427  0.0821 -0.2512  0.1512
  574TIP3    H1 1667   7.178   3.364   2.403  0.1206 -0.7750  0.2264
  574TIP3    H2 1668   7.071   3.443   2.474  0.5520 -0.2438  0.2935
  575TIP3   OH2 1669   6.387   6.817   2.353 -0.0128 -0.0223  0.3446
  575TIP3    H1 1670   6.458   6.752   2.351 -1.7100 -1.9447 -0.4004
  575TIP3    H2 1671   6.432   6.901   2.345  2.1927 -1.1467  0.0105
  576TIP3   OH2 1672   3.778   2.427   5.151 -0.0160 -0.1905  0.5165
  576TIP3    H1 1673   3.823   2.504   5.117  0.0538 -1.1145 -1.6561
  576TIP3    H2 1674   3.754   2.450   5.241  0.4808  2.1308  0.1045
  577TIP3   OH2 1675   3.903  -0.033   0.720  0.7327  0.4050 -0.1701
  577TIP3    H1 1676   3.971   0.003   0.663  1.6659  1.5351  1.5818
  577TIP3    H2 1677   3.851   0.042   0.746  0.3891 -0.0686  0.5570
  578TIP3   OH2 1678   0.750   1.723   2.759  0.4249 -0.3946  0.3662
  578TIP3    H1 1679   0.717   1.759   2.677  1.9984 -0.6501 -0.4274
  578TIP3    H2 1680   0.757   1.629   2.742  0.0222 -0.5529  1.0627
  579TIP3   OH2 1681   6.541   6.772   0.425 -0.2094 -0.4192 -0.0478
  579TIP3    H1 1682   6.468   6.780   0.486  0.4201  0.0357  0.6596
  579TIP3    H2 1683   6.532   6.684   0.388 -0.5184 -0.7582  0.8018
  580TIP3   OH2 1684   5.073   5.896   4.872  0.6330 -0.1439 -0.6302
  580TIP3    H1 1685   5.029   5.811   4.873  1.7503 -0.7587  0.7769
  580TIP3    H2 1686   5.026   5.947   4.806 -2.5978 -0.4876  1.2057
  581TIP3   OH2 1687   8.254   1.856   6.701  0.3271 -0.4411  0.4581
  581TIP3    H1 1688   8.251   1.886   6.791  0.2924 -0.1016  0.3420
  581TIP3    H2 1689   8.216   1.927   6.649 -0.0713 -0.8192  0.2223
  582TIP3   OH2 1690   8.033   0.053   0.896 -0.1008  0.4718  0.3005
  582TIP3    H1 1691   7.943   0.049   0.928  0.0327 -0.6561  0.5626
  582TIP3    H2 1692   8.043  -0.025   0.841  2.0405 -2.0214  3.8153
  583TIP3   OH2 1693   0.970   0.895   3.536  0.1256  0.4996  0.2940
  583TIP3    H1 1694   0.966   0.821   3.596 -3.0684  0.2491 -0.0428
  583TIP3    H2 1695   0.994   0.970   3.590 -2.3849  0.2263  1.9195
  584TIP3   OH2 1696   7.986   1.777   5.348  0.5913  0.3829 -0.1918
  584TIP3    H1 1697   8.015   1.854   5.397  1.2084 -0.6215  1.0768
  584TIP3    H2 1698   8.065   1.746   5.303  1.4471 -1.8560  2.5853
  585TIP3   OH2 1699   2.496   2.358   5.497  0.8843 -1.0343  0.4455
  585TIP3    H1 1700   2.417   2.405   5.470  0.7682 -1.2439  0.4193
  585TIP3    H2 1701   2.482   2.339   5.590  0.6387 -1.5933  0.2982
  586TIP3   OH2 1702   2.457   0.217   4.591 -0.0189 -0.1667 -0.2659
  586TIP3    H1 1703   2.417   0.180   4.513  1.9518 -0.8159 -1.0244
  586TIP3    H2 1704   2.495   0.142   4.637  0.3785  0.4173  0.3800
  587TIP3   OH2 1705   0.054   1.606   6.348  0.3400 -0.3642 -0.0180
  587TIP3    H1 1706   0.098   1.670   6.405  1.1582 -0.1243 -0.8913
  587TIP3    H2 1707   0.125   1.567   6.297 -0.3893 -0.4556 -0.9909
  588TIP3   OH2 1708   1.278   4.638   1.762  0.3085  0.0211  0.3967
  588TIP3    H1 1709   1.244   4.595   1.840  0.3126 -0.2481  0.2504
  588TIP3    H2 1710   1.237   4.724   1.762 -0.9318 -0.5448 -0.1568
  589TIP3   OH2 1711   0.583   1.980   6.603 -0.4715  0.3580 -0.3163
  589TIP3    H1 1712   0.566   2.074   6.604 -0.3153  0.3868  0.6494
  589TIP3    H2 1713   0.641   1.966   6.528  0.5132  1.2290  0.2515
  590TIP3   OH2 1714   6.839   4.078   0.679 -0.6257  0.0704 -0.0733
  590TIP3    H1 1715   6.834   3.996   0.630 -2.2209  1.2484 -2.0532
  590TIP3    H2 1716   6.792   4.060   0.760  0.0674 -1.2851  0.0540
  591TIP3   OH2 1717   2.896   1.609   1.141  0.9777  0.3151  0.4172
  591TIP3    H1 1718   2.943   1.576   1.217  0.1836 -0.4472  0.5942
  591TIP3    H2 1719   2.821   1.656   1.178  1.5728  1.5270  0.1400
  592TIP3   OH2 1720   3.154   7.553   1.936 -1.1854 -0.1285  0.2103
  592TIP3    H1 1721   3.239   7.540   1.896 -0.8057 -0.5936  1.1384
  592TIP3    H2 1722   3.171   7.555   2.030 -2.0268  1.0772  0.3682
  593TIP3   OH2 1723   5.588   3.380   5.886  0.4455 -0.0479 -0.5725
  593TIP3    H1 1724   5.516   3.319   5.894  1.2473 -0.8076  1.7059
  593TIP3    H2 1725   5.585   3.410   5.795 -1.5116 -1.5250 -1.0488
  594TIP3   OH2 1726   0.245   6.857   1.892  0.1774 -0.3047  0.6027
  594TIP3    H1 1727   0.175   6.898   1.841  1.4114 -0.1188 -0.9882
  594TIP3    H2 1728   0.263   6.775   1.847  0.6236 -0.6138  1.3260
  595TIP3   OH2 1729   0.806   5.365   0.053  0.4771 -0.3602  0.1300
  595TIP3    H1 1730   0.846   5.417   0.122 -0.6377  0.2226  0.3771
  595TIP3    H2 1731   0.838   5.276   0.066  0.7147 -0.1444  1.0515
  596TIP3   OH2 1732   4.037   1.777   5.278 -0.3311 -0.4358 -0.2125
  596TIP3    H1 1733   3.945   1.756   5.290 -0.5901  0.7070 -0.1407
  596TIP3    H2 1734   4.049   1.862   5.320  0.8652 -0.7900  0.2094
  597TIP3   OH2 1735   6.029   3.490   1.772  0.0968  0.4009 -0.1572
  597TIP3    H1 1736   6.047   3.399   1.792 -0.5728  0.3336  0.1470
  597TIP3    H2 1737   5.943   3.489   1.730  0.2831  0.8421 -0.5648
  598TIP3   OH2 1738   2.599   6.776   0.383  0.1996  0.1743 -0.5135
  598TIP3    H1 1739   2.505   6.758   0.391 -0.2163  1.7838 -1.2826
  598TIP3    H2 1740   2.622   6.746   0.295  0.0878  0.9430 -0.8168
  599TIP3   OH2 1741   3.613   1.538   0.843 -0.4846 -0.0967  0.4045
  599TIP3    H1 1742   3.527   1.527   0.885 -0.9059 -0.0731 -0.4275
  599TIP3    H2 1743   3.601   1.613   0.784  0.0570 -0.2001  0.1590
  600TIP3   OH2 1744   7.392   0.232   4.088 -0.1654 -0.2455 -0.4820
  600TIP3    H1 1745   7.448   0.157   4.109 -1.0847 -0.7659  0.2354
  600TIP3    H2 1746   7.309   0.212   4.133 -1.2048  0.1053 -2.1744
  601TIP3   OH2 1747   6.477   0.338   4.960 -0.0895 -0.1522  0.2212
  601TIP3    H1 1748   6.433   0.256   4.938  0.7789 -0.5487 -0.0840
  601TIP3    H2 1749   6.465   0.347   5.054 -1.3793  0.0902  0.0513
  602TIP3   OH2 1750   8.191   1.340   2.183  0.0258  0.2539 -0.1938
  602TIP3    H1 1751   8.200   1.416   2.126 -0.5438 -0.6113 -1.5049
  602TIP3    H2 1752   8.171   1.268   2.123  0.1520 -0.8489  1.0457
  603TIP3   OH2 1753   7.235   6.264   4.920  0.1261 -0.0905  0.2896
  603TIP3    H1 1754   7.304   6.325   4.947  0.0534  0.9682 -1.7508
  603TIP3    H2 1755   7.182   6.314   4.858 -2.4935 -0.8921  1.7312
  604TIP3   OH2 1756   4.882   0.293   3.897 -0.4599 -0.1674  0.1228
  604TIP3    H1 1757   4.964   0.243   3.904 -1.1681 -1.4163 -0.1094
  604TIP3    H2 1758   4.906   0.370   3.847  0.5698 -0.5277  0.0175
  605TIP3   OH2 1759   7.290   7.802   0.497  0.2793 -0.8992 -0.1075
  605TIP3    H1 1760   7.229   7.752   0.552 -0.5581 -0.4234 -0.5781
  605TIP3    H2 1761   7.338   7.858   0.558 -1.6907  0.7319  0.0439
  606TIP3   OH2 1762   4.475   6.418   0.668 -0.5565 -0.0679  0.4820
  606TIP3    H1 1763   4.488   6.513   0.662 -1.1592 -0.0450 -1.6679
  606TIP3    H2 1764   4.411   6.399   0.598  0.4957 -2.2157  0.0218
  607TIP3   OH2 1765   7.505   7.411   5.651  0.1646 -1.1596 -0.0194
  607TIP3    H1 1766   7.495   7.316   5.648 -0.3101 -1.1183  0.0914
  607TIP3    H2 1767   7.595   7.427   5.624  0.6030 -1.7178  1.0695
  608TIP3   OH2 1768  -0.017   5.185   3.305 -0.2885 -0.1964 -0.0816
  608TIP3    H1 1769   0.064   5.194   3.255  1.4429 -1.0064  2.3559
  608TIP3    H2 1770  -0.006   5.245   3.379 -1.6405 -0.7610  0.6023
  609TIP3   OH2 1771   4.718   6.312   3.819 -0.4249 -0.2432 -0.0982
  609TIP3    H1 1772   4.792   6.370   3.837  0.6682 -1.1248 -1.4716
  609TIP3    H2 1773   4.685   6.342   3.734 -0.2098 -1.2521 -0.5482
  610TIP3   OH2 1774   0.808   1.298   4.261 -0.1835 -0.0278 -0.2741
  610TIP3    H1 1775   0.821   1.390   4.239  1.8279 -0.0778  0.4589
  610TIP3    H2 1776   0.846   1.250   4.187 -1.0078 -0.2852 -0.5411
  611TIP3   OH2 1777   4.416   6.994   6.285  0.1201 -0.2183 -0.4105
  611TIP3    H1 1778   4.460   6.976   6.201 -0.9165 -1.0167 -0.7953
  611TIP3    H2 1779   4.339   7.046   6.261  0.4626  0.5988  0.1938
  612TIP3   OH2 1780   2.580   1.233   4.479  0.0356 -0.2994  0.5076
  612TIP3    H1 1781   2.502   1.287   4.466 -1.0062 -1.1625  2.7127
  612TIP3    H2 1782   2.622   1.269   4.557  0.1798 -1.6727  1.0935
  613TIP3   OH2 1783   7.347   7.355   3.266 -0.0422 -0.2180 -0.1165
  613TIP3    H1 1784   7.319   7.373   3.176  0.8433  1.1962 -0.1477
  613TIP3    H2 1785   7.353   7.260   3.271  1.3720 -0.2903 -2.0426
  614TIP3   OH2 1786   0.469   6.032   1.534 -0.5351 -0.0427  0.1017
  614TIP3    H1 1787   0.555   6.048   1.495 -0.5906  0.0650  0.0216
  614TIP3    H2 1788   0.413   6.010   1.460 -0.3368 -1.1648  0.2657
  615TIP3   OH2 1789   0.198   7.797   4.528 -0.0762 -0.3385  0.1977
  615TIP3    H1 1790   0.183   7.727   4.592 -0.5450  1.4092  2.1062
  615TIP3    H2 1791   0.290   7.821   4.540 -0.1393 -0.0676  0.1423
  616TIP3   OH2 1792   3.339   2.529   5.756 -0.2938 -0.4942 -0.0923
  616TIP3    H1 1793   3.403   2.477   5.709 -0.5955 -0.1579 -0.8990
  616TIP3    H2 1794   3.338   2.493   5.845 -0.7889 -2.1196 -0.7360
  617TIP3   OH2 1795   5.372   3.606   4.603 -0.2110  0.2315  0.0517
  617TIP3    H1 1796   5.416   3.660   4.538  0.2092 -0.9876 -0.7236
  617TIP3    H2 1797   5.440   3.584   4.667  1.0807 -3.4172 -2.2607
  618TIP3   OH2 1798   6.983   7.280   4.930  0.2899  0.0906  0.1283
  618TIP3    H1 1799   6.955   7.369   4.910  1.5151  0.6461  0.7834
  618TIP3    H2 1800   6.908   7.241   4.976  0.4054  1.4230  1.5399
  619TIP3   OH2 1801   3.256   6.135   0.930 -0.5154 -0.1666  0.0696
  619TIP3    H1 1802   3.170   6.138   0.888 -0.8508 -1.7708  0.6001
  619TIP3    H2 1803   3.309   6.081   0.872 -0.5952 -1.2660  1.0015
  620TIP3   OH2 1804   5.666   6.430   2.716 -0.6478  0.0670 -0.1957
  620TIP3    H1 1805   5.608   6.359   2.687  2.1470 -1.8411 -1.5553
  620TIP3    H2 1806   5.681   6.482   2.637  0.4043 -0.1615 -0.1558
  621TIP3   OH2 1807   4.858   6.180   2.916 -0.2264  0.2231 -0.1017
  621TIP3    H1 1808   4.931   6.240   2.901  2.3575 -1.7436  3.1388
  621TIP3    H2 1809   4.869   6.111   2.851  1.1483 -0.2840  0.6412
  622TIP3   OH2 1810   0.505   6.571   2.128 -0.3926 -0.7962 -0.4852
  622TIP3    H1 1811   0.483   6.528   2.045  0.7848 -3.2290  0.3558
  622TIP3    H2 1812   0.518   6.498   2.189  0.8698  0.8396  1.3036
  623TIP3   OH2 1813   4.147   5.373   0.171  0.0194 -0.1195 -0.6316
  623TIP3    H1 1814   4.204   5.449   0.158  0.6860 -0.7700 -1.6724
  623TIP3    H2 1815   4.111   5.355   0.084  0.7883 -1.6846 -0.6629
  624TIP3   OH2 1816   3.778   2.321   1.616 -0.9853  0.0664 -0.5630
  624TIP3    H1 1817   3.722   2.244   1.624  0.0557 -0.5526  1.7249
  624TIP3    H2 1818   3.798   2.346   1.707  0.0300  2.0558 -1.2615
  625TIP3   OH2 1819   7.895   0.293   2.279 -0.0542  0.6973 -0.2924
  625TIP3    H1 1820   7.934   0.206   2.274 -1.6839 -0.0477 -0.7499
  625TIP3    H2 1821   7.946   0.346   2.218 -0.4614 -0.5357 -1.7794
  626TIP3   OH2 1822   3.289   4.693   1.864  0.1261  0.1147 -0.3911
  626TIP3    H1 1823   3.367   4.725   1.909  0.1412 -0.3381 -0.0854
  626TIP3    H2 1824   3.215   4.730   1.913  0.1454  0.8178 -0.8832
  627TIP3   OH2 1825   4.306   7.846   3.610 -0.4629 -0.0035 -0.5582
  627TIP3    H1 1826   4.240   7.783   3.582  0.6552 -0.7452 -1.6287
  627TIP3    H2 1827   4.345   7.807   3.688 -1.3833  0.5301  0.1960
  628TIP3   OH2 1828   3.134   7.334   0.366 -0.5503 -0.7025  0.0035
  628TIP3    H1 1829   3.206   7.291   0.413  0.2495  0.7910  0.2258
  628TIP3    H2 1830   3.063   7.270   0.367  0.9854 -2.5404 -0.8831
  629TIP3   OH2 1831   4.790   7.307   1.129  0.1697 -0.1597  0.4727
  629TIP3    H1 1832   4.763   7.358   1.206  1.4682 -0.1712  0.9559
  629TIP3    H2 1833   4.885   7.316   1.127  0.2150 -0.7805 -0.7115
  630TIP3   OH2 1834   1.022   6.931   4.359  0.2482  0.2946 -0.1007
  630TIP3    H1 1835   1.099   6.959   4.310  0.5111  1.3054  0.8430
  630TIP3    H2 1836   1.031   6.975   4.443 -0.9597 -0.2139  0.3055
  631TIP3   OH2 1837   6.815   2.334   2.385 -0.7516  0.6815 -0.5635
  631TIP3    H1 1838   6.906   2.340   2.356 -0.7442  0.6909 -0.5381
  631TIP3    H2 1839   6.813   2.259   2.444 -1.1041 -0.3715 -1.8593
  632TIP3   OH2 1840   6.263   7.509   6.483  0.5090 -0.0904 -0.2550
  632TIP3    H1 1841   6.247   7.472   6.396 -0.1028 -0.3622 -0.0338
  632TIP3    H2 1842   6.325   7.581   6.468  0.2415  0.0038 -0.9470
  633TIP3   OH2 1843   6.241   2.228   2.382  1.0630 -0.7300  0.0781
  633TIP3    H1 1844   6.238   2.231   2.478  2.2879 -1.9218  0.1855
  633TIP3    H2 1845   6.321   2.276   2.359  0.2906  0.3632 -0.4304
  634TIP3   OH2 1846   3.758   0.630   1.093 -0.5775  0.7487  0.1451
  634TIP3    H1 1847   3.786   0.631   1.185  0.0982  0.0906 -0.0398
  634TIP3    H2 1848   3.662   0.630   1.098 -0.5520  0.3676  0.8618
  635TIP3   OH2 1849   0.423   1.794   5.601 -0.2591  0.1117 -0.2566
  635TIP3    H1 1850   0.454   1.704   5.608 -1.2744 -0.2741 -0.4901
  635TIP3    H2 1851   0.358   1.792   5.530  0.4614  1.2482 -0.9804
  636TIP3   OH2 1852   5.285   3.702   1.374  0.4309 -0.2438  0.3765
  636TIP3    H1 1853   5.195   3.707   1.340  0.4637  1.3884  0.4809
  636TIP3    H2 1854   5.334   3.656   1.306 -0.2169 -0.0259 -0.2449
  637TIP3   OH2 1855   3.631   4.243   6.335  1.1051 -0.1876  0.3127
  637TIP3    H1 1856   3.622   4.280   6.422  1.7973  0.1491  0.2442
  637TIP3    H2 1857   3.724   4.225   6.325  1.0461 -0.1476 -0.3903
  638TIP3   OH2 1858   5.839   4.044   5.659 -0.2885  0.0963 -0.1492
  638TIP3    H1 1859   5.858   4.079   5.572 -1.1773  0.0044 -0.3936
  638TIP3    H2 1860   5.793   4.114   5.704  0.2149  0.1625  0.2778
  639TIP3   OH2 1861   3.760   6.634   1.315  0.4166 -0.1200 -0.3739
  639TIP3    H1 1862   3.783   6.639   1.223 -0.0137  0.3449 -0.4588
  639TIP3    H2 1863   3.674   6.591   1.316  0.6854 -0.6677 -0.1458
  640TIP3   OH2 1864   5.252   1.829   2.496 -0.3172 -0.2975  0.0811
  640TIP3    H1 1865   5.158   1.827   2.483 -0.6433 -0.7903  2.1503
  640TIP3    H2 1866   5.266   1.778   2.575  1.8728 -1.6897 -1.0993
  641TIP3   OH2 1867   7.159   0.925   5.644  0.2021  0.0052 -0.8290
  641TIP3    H1 1868   7.085   0.958   5.695  1.0536  0.5850  0.0613
  641TIP3    H2 1869   7.156   0.830   5.654 -1.2132 -0.0934 -1.9311
  642TIP3   OH2 1870   5.194   2.939   4.883  0.5084 -0.2640  0.2289
  642TIP3    H1 1871   5.258   2.992   4.835 -0.6801 -0.0300 -1.1770
  642TIP3    H2 1872   5.247   2.872   4.928  1.6954 -0.5486 -1.4902
  643TIP3   OH2 1873   7.587   4.499   5.112 -0.3574 -0.1210  0.4043
  643TIP3    H1 1874   7.600   4.542   5.196 -0.3439 -2.2843  1.5699
  643TIP3    H2 1875   7.659   4.530   5.057  1.0655 -0.5336  1.9767
  644TIP3   OH2 1876   1.362   3.608   6.420  0.7229 -0.0310 -0.2939
  644TIP3    H1 1877   1.362   3.697   6.456  0.2142  0.3313 -1.1428
  644TIP3    H2 1878   1.382   3.621   6.327  0.4014 -0.7892 -0.4707
  645TIP3   OH2 1879   4.284   6.905   3.368  0.6466  0.1175  0.6959
  645TIP3    H1 1880   4.230   6.979   3.340 -1.0551 -1.1043  0.6357
  645TIP3    H2 1881   4.303   6.923   3.460  0.3152  0.6673  0.6589
  646TIP3   OH2 1882   7.226   1.687   1.225  0.5927 -0.1211  0.0791
  646TIP3    H1 1883   7.159   1.635   1.181 -0.3096  0.1707  1.0563
  646TIP3    H2 1884   7.201   1.685   1.317  0.5183  2.0190  0.1640
  647TIP3   OH2 1885   0.583   4.026   2.387  0.1958 -0.4168  0.5196
  647TIP3    H1 1886   0.512   4.002   2.446 -1.4622  0.4636 -0.9907
  647TIP3    H2 1887   0.552   3.999   2.300  1.9088 -0.3988 -0.1447
  648TIP3   OH2 1888   6.811   4.791   3.742  0.2632 -0.2537 -0.1273
  648TIP3    H1 1889   6.898   4.826   3.726  0.6213 -1.5818 -1.2496
  648TIP3    H2 1890   6.756   4.832   3.674  0.2466 -0.2904 -0.1358
  649TIP3   OH2 1891   1.562   6.875   3.420 -0.8215  0.0124 -0.0032
  649TIP3    H1 1892   1.601   6.790   3.437 -2.2763 -0.7968 -0.5439
  649TIP3    H2 1893   1.610   6.909   3.344  1.4385  0.8429  1.6963
  650TIP3   OH2 1894   5.722   1.775   2.142 -0.1421  0.2756 -0.6269
  650TIP3    H1 1895   5.652   1.790   2.205  0.4701 -2.6849  0.9647
  650TIP3    H2 1896   5.685   1.711   2.081  0.8462 -0.6317 -0.3010
  651TIP3   OH2 1897   5.504   2.035   4.264 -0.0468 -0.4080  0.3302
  651TIP3    H1 1898   5.538   2.124   4.258  0.6725 -0.7036 -0.2363
  651TIP3    H2 1899   5.547   1.998   4.341 -1.0830  0.0234  1.1389
  652TIP3   OH2 1900   5.261   4.389   3.497 -0.3728 -0.2542  0.0036
  652TIP3    H1 1901   5.277   4.298   3.521  0.4786 -0.2007 -0.3097
  652TIP3    H2 1902   5.212   4.385   3.415 -0.5554 -0.4277  0.1212
  653TIP3   OH2 1903   3.845   4.666   0.430 -0.2237 -0.0349 -0.2200
  653TIP3    H1 1904   3.867   4.759   0.434  0.7279 -0.2469 -0.2044
  653TIP3    H2 1905   3.752   4.664   0.410 -0.3054  0.9238  0.0067
  654TIP3   OH2 1906   3.520   3.737   0.715 -0.3161 -0.0495 -0.3931
  654TIP3    H1 1907   3.476   3.652   0.718  0.6615 -0.5480  0.3070
  654TIP3    H2 1908   3.526   3.757   0.621 -1.1896 -0.3972 -0.5349
  655TIP3   OH2 1909   6.990   6.447   2.268 -0.3122 -0.1645 -0.0288
  655TIP3    H1 1910   6.961   6.411   2.352  0.7344  0.2571  0.5302
  655TIP3    H2 1911   7.055   6.383   2.237 -0.5366 -0.2060 -0.4168
  656TIP3   OH2 1912   2.635   7.126   6.497 -0.5083  0.3173 -0.2455
  656TIP3    H1 1913   2.683   7.063   6.442 -1.0187 -0.4612  0.1802
  656TIP3    H2 1914   2.674   7.116   6.584 -1.7237 -0.6754  0.2193
  657TIP3   OH2 1915   6.642   3.117   1.964  0.2992 -0.1215 -0.4263
  657TIP3    H1 1916   6.627   3.032   2.006  2.4051  0.2722  1.3294
  657TIP3    H2 1917   6.736   3.119   1.947  0.3409  1.9138 -0.2314
  658TIP3   OH2 1918   6.483   0.382   0.354  0.1922 -0.1085  0.4253
  658TIP3    H1 1919   6.463   0.291   0.373  1.6964 -0.7027 -0.6745
  658TIP3    H2 1920   6.461   0.429   0.434 -1.0676 -1.3553  0.8349
  659TIP3   OH2 1921   1.107   6.451   1.979 -0.1610 -0.0850 -0.3830
  659TIP3    H1 1922   1.139   6.378   2.033  0.0955  1.9135  2.4305
  659TIP3    H2 1923   1.179   6.469   1.919  0.8707 -0.5449  0.6562
  660TIP3   OH2 1924   3.389   1.259   4.307  0.1934  0.4330 -0.4155
  660TIP3    H1 1925   3.295   1.243   4.314  0.3846 -0.7367 -0.2920
  660TIP3    H2 1926   3.429   1.176   4.333  1.2487  0.7227 -1.0704
  661TIP3   OH2 1927   7.715   5.639   5.919  0.4121  0.0651  0.3681
  661TIP3    H1 1928   7.645   5.576   5.900  1.1923 -0.3663 -1.1830
  661TIP3    H2 1929   7.795   5.587   5.915  1.2204  1.3367 -2.3817
  662TIP3   OH2 1930   1.759   2.321   4.341  0.3746 -0.5112  0.4598
  662TIP3    H1 1931   1.688   2.257   4.331  0.4927 -0.8583  1.7604
  662TIP3    H2 1932   1.740   2.366   4.423  0.8559  0.4344  0.0645
  663TIP3   OH2 1933   1.484   2.632   5.120  0.2596 -0.4573  0.1079
  663TIP3    H1 1934   1.417   2.593   5.064 -0.2928 -0.2302  0.6021
  663TIP3    H2 1935   1.537   2.558   5.150  2.2930 -0.3981 -2.8523
  664TIP3   OH2 1936   3.825   6.289   1.573 -0.1243  0.4147 -0.6856
  664TIP3    H1 1937   3.734   6.305   1.600 -1.0711 -0.8677 -2.7717
  664TIP3    H2 1938   3.816   6.236   1.493  2.4754  0.4998 -1.1028
  665TIP3   OH2 1939   4.738   1.650   0.195  1.2136  0.4024  0.0175
  665TIP3    H1 1940   4.684   1.704   0.138  1.3928  0.4098 -0.1485
  665TIP3    H2 1941   4.824   1.692   0.192  1.2700  0.2945  0.1450
  666TIP3   OH2 1942   4.921   7.523   3.422  0.0532 -0.0831  0.3111
  666TIP3    H1 1943   4.982   7.473   3.477  1.5651  1.1837 -0.1148
  666TIP3    H2 1944   4.921   7.611   3.461  0.2970  0.5458 -1.0466
  667TIP3   OH2 1945   5.253   1.324   6.169  0.7702  0.2077  0.7466
  667TIP3    H1 1946   5.262   1.384   6.243  1.1370 -0.2823  1.1106
  667TIP3    H2 1947   5.273   1.238   6.206  0.1451 -0.1523  0.2535
  668TIP3   OH2 1948   4.460   5.788   0.210  0.3202 -0.1853 -0.1957
  668TIP3    H1 1949   4.435   5.853   0.276 -0.3906 -0.2789 -0.3688
  668TIP3    H2 1950   4.522   5.731   0.256 -1.4938 -1.3278  0.9663
  669TIP3   OH2 1951   4.053   3.565   3.664  0.0227  0.2234  0.0103
  669TIP3    H1 1952   4.074   3.491   3.721  0.6962  0.1161 -0.3695
  669TIP3    H2 1953   4.134   3.583   3.617 -0.6148  0.0613 -1.1926
  670TIP3   OH2 1954   2.995   1.926   4.557 -0.1317 -0.5759 -0.2783
  670TIP3    H1 1955   3.034   1.861   4.497  0.3971  1.2470 -2.0327
  670TIP3    H2 1956   2.998   1.884   4.643  0.3883 -2.7708 -1.2942
  671TIP3   OH2 1957   4.352   5.730   6.514  0.2510 -0.9878  0.7334
  671TIP3    H1 1958   4.393   5.660   6.564  0.3225 -1.3957  0.1107
  671TIP3    H2 1959   4.382   5.717   6.424  0.2382 -0.1813  0.6032
  672TIP3   OH2 1960   5.119   2.562   2.956 -0.4059  0.1903  0.1672
  672TIP3    H1 1961   5.039   2.551   3.008  0.9002 -1.9160  1.9204
  672TIP3    H2 1962   5.113   2.495   2.888  0.3552 -0.7762  1.0257
  673TIP3   OH2 1963   6.935   3.418   3.272  0.4677  0.0989  0.4947
  673TIP3    H1 1964   6.892   3.332   3.272 -0.1510  0.3475 -1.6513
  673TIP3    H2 1965   7.026   3.399   3.293  0.8378 -1.4460 -2.1137
  674TIP3   OH2 1966   5.382   2.471   2.382  0.2347  0.6421  0.2421
  674TIP3    H1 1967   5.294   2.493   2.412  0.5664  1.2284  0.8323
  674TIP3    H2 1968   5.378   2.475   2.287 -0.4055  0.5412  0.2655
  675TIP3   OH2 1969   7.190   7.123   1.617  0.3127  0.2326 -0.0669
  675TIP3    H1 1970   7.195   7.207   1.661  0.4089  0.4903 -0.5607
  675TIP3    H2 1971   7.270   7.118   1.565  0.2790 -0.1365 -0.0861
  676TIP3   OH2 1972   8.216   7.041   6.320  0.2356  0.0495  0.3652
  676TIP3    H1 1973   8.121   7.034   6.332  0.1254 -0.6857 -0.8040
  676TIP3    H2 1974   8.249   6.955   6.345  0.5372  0.1393  0.2730
  677TIP3   OH2 1975   6.628   4.881   4.792 -0.0280 -0.0002 -0.6691
  677TIP3    H1 1976   6.646   4.859   4.701  0.3701  0.2758 -0.6574
  677TIP3    H2 1977   6.683   4.821   4.843 -0.9337 -0.7851 -0.5861
  678TIP3   OH2 1978   6.547   2.963   5.576 -0.4153 -0.1817  0.2280
  678TIP3    H1 1979   6.544   2.869   5.590 -1.0728 -0.0436  1.1305
  678TIP3    H2 1980   6.603   2.975   5.499  0.4859 -1.2287  0.7116
  679TIP3   OH2 1981   5.312   4.136   3.231  0.9113  0.2829  0.3062
  679TIP3    H1 1982   5.380   4.147   3.164  1.2848  1.1746  0.8014
  679TIP3    H2 1983   5.297   4.225   3.263  1.8722 -0.2836  2.4973
  680TIP3   OH2 1984   6.469   5.736   3.020  0.0871 -0.2854 -0.0946
  680TIP3    H1 1985   6.464   5.724   3.115  1.9929  2.3478  0.4355
  680TIP3    H2 1986   6.383   5.772   2.996 -0.3785 -0.9028  0.5965
  681TIP3   OH2 1987   1.945   4.687   1.934 -0.2180  0.3877  0.7343
  681TIP3    H1 1988   2.011   4.662   1.870  1.1009 -0.7922  2.4415
  681TIP3    H2 1989   1.982   4.764   1.979 -0.9931  1.0282  0.3169
  682TIP3   OH2 1990   6.152   0.144   0.048 -0.2014  0.1243  0.0988
  682TIP3    H1 1991   6.152   0.087   0.125  1.9803  0.1918  0.1987
  682TIP3    H2 1992   6.140   0.084  -0.026  2.0910 -0.5723  0.2008
  683TIP3   OH2 1993   1.395   5.439   3.967  0.0565 -0.1295 -0.0472
  683TIP3    H1 1994   1.427   5.368   4.023  1.3331  0.4609  0.0207
  683TIP3    H2 1995   1.429   5.519   4.009 -0.1874  0.4154 -0.8752
  684TIP3   OH2 1996   4.056   1.462   2.009  0.4091  0.5495 -0.0267
  684TIP3    H1 1997   3.994   1.498   2.073 -0.6188 -0.8936 -0.1573
  684TIP3    H2 1998   4.141   1.471   2.050 -0.1428  0.4729  1.1767
  685TIP3   OH2 1999   5.643   2.858   2.856 -0.3044 -0.4216 -0.3339
  685TIP3    H1 2000   5.733   2.858   2.824  0.3990  1.2827  1.4690
  685TIP3    H2 2001   5.592   2.895   2.783  0.5550 -0.6828 -1.0881
  686TIP3   OH2 2002   1.996   6.409   0.917 -0.1907 -0.2680 -0.4961
  686TIP3    H1 2003   1.901   6.407   0.906 -0.1115 -0.4627 -1.2196
  686TIP3    H2 2004   2.013   6.490   0.965 -0.8731 -1.1781  1.3737
  687TIP3   OH2 2005   5.994   5.665   6.215  0.3638  0.1095  0.2136
  687TIP3    H1 2006   5.983   5.760   6.221  1.0486  0.2101 -0.1238
  687TIP3    H2 2007   6.084   5.652   6.187  0.7273 -0.6822  1.6454
  688TIP3   OH2 2008   4.228   6.951   1.047 -0.1173  0.4925  0.2948
  688TIP3    H1 2009   4.249   7.036   1.006 -0.5194  1.6658  2.3684
  688TIP3    H2 2010   4.313   6.910   1.061  0.1038  0.6780 -0.4577
  689TIP3   OH2 2011   4.822   3.129   0.235 -0.2320  0.1569  0.1051
  689TIP3    H1 2012   4.909   3.142   0.274 -0.1754  0.5228 -0.1378
  689TIP3    H2 2013   4.775   3.076   0.299  0.7135 -1.4755 -0.4718
  690TIP3   OH2 2014   7.079   3.963   5.438  0.1994  0.6188 -0.6934
  690TIP3    H1 2015   7.008   4.028   5.442 -2.3637 -1.9298 -1.1963
  690TIP3    H2 2016   7.068   3.921   5.352  0.3064 -1.9265  0.4617
  691TIP3   OH2 2017   7.653   2.757   3.970 -0.0989 -0.3690  0.6777
  691TIP3    H1 2018   7.644   2.682   4.030  0.8542  0.1806  1.5520
  691TIP3    H2 2019   7.695   2.720   3.892  2.2743 -0.4528  1.8799
  692TIP3   OH2 2020   4.613   6.004   1.409 -0.3896 -0.3776 -0.4128
  692TIP3    H1 2021   4.627   6.071   1.477 -1.9719  0.4666 -0.8699
  692TIP3    H2 2022   4.558   5.938   1.451  0.6487 -1.1118 -0.1587
  693TIP3   OH2 2023   4.784   5.982   5.900 -0.0147 -0.4725 -0.7278
  693TIP3    H1 2024   4.775   6.052   5.965 -1.4801  0.1413 -1.5511
  693TIP3    H2 2025   4.868   5.999   5.858  0.8718 -0.7725  0.8516
  694TIP3   OH2 2026   5.891   0.365   1.305 -0.4340 -0.1955 -0.4434
  694TIP3    H1 2027   5.959   0.401   1.248 -1.4886 -0.5895 -2.0146
  694TIP3    H2 2028   5.862   0.440   1.358  1.4276 -0.0986  0.5336
  695TIP3   OH2 2029   3.120   3.471   4.201  0.4329 -0.1608 -0.3658
  695TIP3    H1 2030   3.151   3.435   4.284 -1.8255 -0.2890  0.4936
  695TIP3    H2 2031   3.113   3.565   4.218 -1.1351 -0.3158  0.0386
  696TIP3   OH2 2032   4.240   0.190   3.820 -0.7454 -0.2283  0.1152
  696TIP3    H1 2033   4.322   0.148   3.795  0.7664  1.1687  2.3301
  696TIP3    H2 2034   4.260   0.284   3.819 -1.3642  0.0612  3.4039
  697TIP3   OH2 2035   0.817   4.734   2.268 -0.1263 -0.7279 -0.5003
  697TIP3    H1 2036   0.730   4.725   2.306 -0.3651 -0.7141 -1.0251
  697TIP3    H2 2037   0.877   4.724   2.341 -0.5491 -1.4220 -0.2446
  698TIP3   OH2 2038   2.374   0.110   3.715 -0.6581  0.2315  0.2455
  698TIP3    H1 2039   2.326   0.042   3.667  1.1944 -0.8927 -0.1366
  698TIP3    H2 2040   2.447   0.063   3.755 -0.4309  1.6948  1.6521
  699TIP3   OH2 2041   1.658   5.003   5.806  0.3927 -0.0251  0.1111
  699TIP3    H1 2042   1.719   4.965   5.743  1.0859 -1.6076  1.6388
  699TIP3    H2 2043   1.575   4.959   5.789  0.6755 -0.7314  0.5452
  700TIP3   OH2 2044   1.631   5.445   2.654 -0.1708 -0.0939  0.0664
  700TIP3    H1 2045   1.692   5.452   2.728 -0.5902 -1.3673  0.5635
  700TIP3    H2 2046   1.546   5.429   2.695 -0.7407  1.0231 -0.6483
  701TIP3   OH2 2047   7.459   7.434   6.164 -0.0801 -0.4395  0.1967
  701TIP3    H1 2048   7.468   7.360   6.104  0.0883  0.2051 -0.5879
  701TIP3    H2 2049   7.519   7.414   6.236 -0.3758 -1.2790  0.2177
  702TIP3   OH2 2050   7.027   5.314   4.921  0.6327  0.0355 -0.0854
  702TIP3    H1 2051   7.121   5.326   4.906  0.6197  1.4292  0.7913
  702TIP3    H2 2052   6.991   5.403   4.922 -0.7407 -0.4780 -0.6083
  703TIP3   OH2 2053   0.062   4.065   5.612  0.1947  0.0098  0.6155
  703TIP3    H1 2054  -0.030   4.089   5.625  0.4454  0.0756  2.5542
  703TIP3    H2 2055   0.094   4.044   5.699  1.7752 -0.9805 -0.1568
  704TIP3   OH2 2056   7.483   1.814   0.363  0.4177 -0.4327  0.5817
  704TIP3    H1 2057   7.516   1.838   0.276 -0.3285 -0.0664  0.3929
  704TIP3    H2 2058   7.502   1.890   0.417 -0.9739  0.1752  0.2404
  705TIP3   OH2 2059   2.557   0.132   0.970 -0.1218  0.4657  0.0879
  705TIP3    H1 2060   2.541   0.209   1.024 -0.8376  1.8577 -2.0210
  705TIP3    H2 2061   2.471   0.091   0.961  0.0555  0.0516  0.2455
  706TIP3   OH2 2062   6.397   5.389   3.261  0.4547  0.6068  0.0956
  706TIP3    H1 2063   6.311   5.357   3.289  0.5280 -0.8612 -1.1675
  706TIP3    H2 2064   6.387   5.484   3.254 -1.1337  0.4442 -0.2202
  707TIP3   OH2 2065   5.080   0.581   5.287 -0.0695 -0.2639 -0.4279
  707TIP3    H1 2066   5.081   0.657   5.229 -2.4846  1.7582  1.9268
  707TIP3    H2 2067   5.049   0.509   5.232  0.7764  0.7694 -2.3586
  708TIP3   OH2 2068   7.484   2.007   5.946 -0.3966  0.1654  0.7619
  708TIP3    H1 2069   7.410   2.018   6.005 -1.8726  1.2242 -1.1706
  708TIP3    H2 2070   7.508   1.915   5.953 -3.7971 -0.9602 -0.6342
  709TIP3   OH2 2071   7.680   3.109   0.231 -0.0050 -0.1556 -0.0922
  709TIP3    H1 2072   7.753   3.144   0.282  0.4566  0.0266 -0.8581
  709TIP3    H2 2073   7.694   3.015   0.231  0.4318 -0.0957 -0.5199
  710TIP3   OH2 2074   0.201   3.182   3.455 -0.0781  0.1790  0.0685
  710TIP3    H1 2075   0.137   3.230   3.401 -0.3600  2.1140  2.0032
  710TIP3    H2 2076   0.148   3.137   3.520  0.4037 -0.3450  0.1072
  711TIP3   OH2 2077   5.983   6.119   6.457  0.1346 -0.2068  0.3731
  711TIP3    H1 2078   5.905   6.174   6.450  0.9416  1.1101  1.3162
  711TIP3    H2 2079   5.988   6.095   6.549  0.9275 -0.1362  0.3585
  712TIP3   OH2 2080   2.748   2.560   3.643  0.1453  0.2713 -0.5396
  712TIP3    H1 2081   2.694   2.592   3.715  1.8904  0.7080  0.6544
  712TIP3    H2 2082   2.809   2.498   3.685 -1.4353 -2.7553 -2.3369
  713TIP3   OH2 2083   6.489   3.243   1.305 -0.3115 -0.4199  0.5982
  713TIP3    H1 2084   6.476   3.303   1.378 -0.6750 -0.1174  0.2954
  713TIP3    H2 2085   6.454   3.290   1.229  0.9077 -0.3506  0.0569
  714TIP3   OH2 2086   1.294   7.398   2.667 -0.1614  0.2949  0.8461
  714TIP3    H1 2087   1.245   7.472   2.702 -0.4748  1.8241 -2.4030
  714TIP3    H2 2088   1.228   7.334   2.642 -0.0322 -0.2581  1.9004
  715TIP3   OH2 2089   0.387   3.053   0.326 -0.1296  0.3506 -0.4106
  715TIP3    H1 2090   0.327   3.026   0.256 -0.4313  0.1563 -0.0827
  715TIP3    H2 2091   0.452   2.983   0.329 -0.2241  0.2621 -0.3765
  716TIP3   OH2 2092   0.850   4.197   0.831  0.1794 -0.2349  0.1837
  716TIP3    H1 2093   0.779   4.183   0.768  0.5041 -0.5295 -0.1202
  716TIP3    H2 2094   0.912   4.253   0.785  0.2822 -0.2168  0.3441
  717TIP3   OH2 2095   1.743   6.878   1.815  0.1925  0.0621  0.0795
  717TIP3    H1 2096   1.746   6.963   1.771  2.6601 -0.6017 -1.2182
  717TIP3    H2 2097   1.790   6.819   1.756  0.2369 -1.7644  1.8495
  718TIP3   OH2 2098   0.715   7.432   1.484  0.0159 -0.1560 -0.0511
  718TIP3    H1 2099   0.638   7.381   1.508 -0.4541  0.2121 -0.7364
  718TIP3    H2 2100   0.740   7.478   1.564  0.2528 -1.2023  0.4861
  719TIP3   OH2 2101   6.331   2.879   3.929 -0.3957  0.7032 -0.3859
  719TIP3    H1 2102   6.254   2.936   3.923  0.1618  1.5521  0.2027
  719TIP3    H2 2103   6.401   2.928   3.886 -0.6171 -0.9545 -2.8202
  720TIP3   OH2 2104   0.436   4.114   5.071 -0.5614 -0.4666  0.1970
  720TIP3    H1 2105   0.485   4.165   5.007  0.3600  0.1629  1.3544
  720TIP3    H2 2106   0.364   4.172   5.097 -0.8971 -0.6960 -0.2181
  721TIP3   OH2 2107   6.945   0.221   4.936  0.5905 -0.1398  0.1992
  721TIP3    H1 2108   6.977   0.249   5.022  1.1057  2.5585 -0.7863
  721TIP3    H2 2109   7.020   0.235   4.878 -0.1676 -0.6880 -0.9282
  722TIP3   OH2 2110   6.724   3.414   4.655  0.4631 -0.0333  0.2509
  722TIP3    H1 2111   6.814   3.430   4.628  0.3973 -0.2416 -0.1021
  722TIP3    H2 2112   6.690   3.500   4.679  1.6724 -0.2917  3.3435
  723TIP3   OH2 2113   3.321   1.802   6.628 -0.3151  0.2131  0.0399
  723TIP3    H1 2114   3.262   1.734   6.660  2.9707 -2.3102  1.4575
  723TIP3    H2 2115   3.274   1.884   6.642 -3.1749 -1.5105  1.5872
  724TIP3   OH2 2116   6.935   3.121   3.564 -0.4261  0.4130 -0.1811
  724TIP3    H1 2117   6.993   3.083   3.498  0.8672  0.2390  1.0082
  724TIP3    H2 2118   6.982   3.199   3.594 -0.5763  0.0296  1.1061
  725TIP3   OH2 2119   6.859   2.383   6.531  0.4760  0.2365  0.0943
  725TIP3    H1 2120   6.793   2.339   6.584  1.7897 -0.0145  1.6078
  725TIP3    H2 2121   6.912   2.432   6.594 -0.6736  3.7918 -1.4536
  726TIP3   OH2 2122   4.353   7.209   4.684 -0.5228  0.3175  0.0237
  726TIP3    H1 2123   4.269   7.198   4.640 -0.0236 -1.2092 -0.6267
  726TIP3    H2 2124   4.413   7.151   4.636  0.6207  0.4763  1.1996
  727TIP3   OH2 2125   7.216   3.162   1.958 -0.0413  0.1628 -0.2679
  727TIP3    H1 2126   7.207   3.108   2.037  0.3699 -1.6199 -1.3796
  727TIP3    H2 2127   7.259   3.104   1.895 -1.7074  1.0350 -2.2922
  728TIP3   OH2 2128   5.289   3.406   2.595  0.1994  0.2972  0.6487
  728TIP3    H1 2129   5.376   3.377   2.569  0.6099  1.6027  0.4817
  728TIP3    H2 2130   5.234   3.328   2.587  0.9783 -0.1239 -0.9430
  729TIP3   OH2 2131   4.413   3.270   5.785  0.5064  0.4302  0.4858
  729TIP3    H1 2132   4.429   3.358   5.818  1.4709  0.2592  0.4926
  729TIP3    H2 2133   4.454   3.268   5.699 -3.4741  1.4454 -1.7021
  730TIP3   OH2 2134   6.554   2.422   1.647 -0.4812  0.2724  0.0355
  730TIP3    H1 2135   6.608   2.373   1.585 -0.9209  0.5285 -0.5624
  730TIP3    H2 2136   6.465   2.388   1.632 -0.5247 -0.0018  0.8603
  731TIP3   OH2 2137   2.989   1.740   3.760  0.6101  0.5347 -0.2216
  731TIP3    H1 2138   2.926   1.787   3.705 -0.3463 -0.1479  0.2506
  731TIP3    H2 2139   3.006   1.800   3.833 -1.1951 -0.0775  0.7791
  732TIP3   OH2 2140   3.005   7.365   1.103 -0.4122 -0.0578 -0.2596
  732TIP3    H1 2141   3.077   7.333   1.049 -0.7542 -0.1315 -0.6727
  732TIP3    H2 2142   2.988   7.453   1.069 -0.1555  0.1711  0.1970
  733TIP3   OH2 2143   3.144   2.641   1.464  0.3718 -0.5173 -0.2934
  733TIP3    H1 2144   3.082   2.571   1.482 -0.7560  0.6376  0.4868
  733TIP3    H2 2145   3.150   2.645   1.369 -1.5525 -0.0160 -0.4388
  734TIP3   OH2 2146   6.890   5.994   2.549 -0.1159  0.2023 -0.5398
  734TIP3    H1 2147   6.897   6.062   2.482 -0.2835  0.8596  0.1006
  734TIP3    H2 2148   6.969   5.941   2.538  0.3627  0.9164 -0.5972
  735TIP3   OH2 2149   5.789   5.861   1.766 -0.8998 -0.1486  0.1161
  735TIP3    H1 2150   5.849   5.824   1.702  1.1299  1.0822  1.2093
  735TIP3    H2 2151   5.812   5.819   1.848 -0.7762  1.1290  0.7623
  736TIP3   OH2 2152   0.320   2.530   6.023  0.5272  0.2133 -0.0357
  736TIP3    H1 2153   0.327   2.458   5.959 -0.9251 -1.4420  1.5643
  736TIP3    H2 2154   0.406   2.533   6.065  0.6138 -0.6096 -0.1278
  737TIP3   OH2 2155   5.603   0.905   6.248 -0.2407 -0.0825 -0.1990
  737TIP3    H1 2156   5.565   0.837   6.194  0.8353  0.3450 -1.5514
  737TIP3    H2 2157   5.696   0.907   6.223 -0.2842  2.0066 -0.3702
  738TIP3   OH2 2158   7.658   4.630   6.115 -0.3793 -0.0334  0.8590
  738TIP3    H1 2159   7.605   4.656   6.190 -0.1284  0.6965  0.7908
  738TIP3    H2 2160   7.597   4.584   6.057 -0.8792  0.5848  0.8890
  739TIP3   OH2 2161   1.078   5.486   0.889  0.0597  0.6928  0.0973
  739TIP3    H1 2162   1.149   5.424   0.908 -0.7420 -0.4376 -0.4451
  739TIP3    H2 2163   1.010   5.465   0.953 -1.0204 -0.4024 -1.3245
  740TIP3   OH2 2164   3.746   2.346   1.899 -0.4274  0.2252 -0.3412
  740TIP3    H1 2165   3.759   2.437   1.924 -0.4369  0.2760 -0.5197
  740TIP3    H2 2166   3.652   2.333   1.903 -0.7038  0.9636 -2.8205
  741TIP3   OH2 2167   7.823   0.809   3.784 -0.2596  0.7519  0.4339
  741TIP3    H1 2168   7.817   0.755   3.863 -2.2209  1.0255  0.5252
  741TIP3    H2 2169   7.809   0.899   3.815  0.2039  1.0085 -0.0773
  742TIP3   OH2 2170   2.604   3.589   2.819 -0.0182 -0.2988 -0.3180
  742TIP3    H1 2171   2.645   3.647   2.755  1.4293 -1.9956 -1.0166
  742TIP3    H2 2172   2.548   3.646   2.871 -0.0534  1.3975 -2.1107
  743TIP3   OH2 2173   3.938   3.166   0.262 -0.5101  0.0178  0.0647
  743TIP3    H1 2174   3.954   3.177   0.356  0.8024  0.3577 -0.1851
  743TIP3    H2 2175   3.959   3.252   0.224  0.8678 -0.6626 -0.7724
  744TIP3   OH2 2176   0.080   0.405   4.523 -0.2771  0.1036 -0.0966
  744TIP3    H1 2177   0.025   0.441   4.593 -1.4798 -3.6718  1.1491
  744TIP3    H2 2178   0.167   0.398   4.561 -0.5362 -0.2891  0.4393
  745TIP3   OH2 2179   6.426   0.959   6.009  0.4117 -0.6730  0.1003
  745TIP3    H1 2180   6.362   1.028   6.028 -0.0980 -1.0277 -0.2675
  745TIP3    H2 2181   6.467   0.941   6.093  1.8696  1.3351 -0.1200
  746TIP3   OH2 2182   3.795   3.118   3.311 -0.6868  0.6273  0.0980
  746TIP3    H1 2183   3.868   3.116   3.249 -0.8717 -0.7234 -0.0914
  746TIP3    H2 2184   3.812   3.196   3.364  0.6367  0.5947 -0.2302
  747TIP3   OH2 2185   4.620   7.633   0.342 -0.2956  0.1703 -0.9744
  747TIP3    H1 2186   4.574   7.603   0.420 -0.3481  1.5737 -0.4338
  747TIP3    H2 2187   4.699   7.676   0.376  0.8028 -1.1183 -1.8208
  748TIP3   OH2 2188   8.159   7.257   1.713  0.3744  0.6405 -0.4921
  748TIP3    H1 2189   8.133   7.251   1.621  0.0298 -2.3855 -0.2901
  748TIP3    H2 2190   8.247   7.218   1.715  0.5152  0.9780  0.4491
  749TIP3   OH2 2191   0.303   4.793   0.617 -0.6071 -0.0581  0.0906
  749TIP3    H1 2192   0.228   4.807   0.674 -0.4544  0.9772  0.0630
  749TIP3    H2 2193   0.375   4.838   0.661 -0.4756  0.7188 -0.8814
  750TIP3   OH2 2194   8.040   1.520   0.977 -0.0663 -0.1452  0.0365
  750TIP3    H1 2195   8.059   1.567   0.896  0.4909  0.2239  0.3773
  750TIP3    H2 2196   8.024   1.430   0.949  0.4408 -0.0873 -0.4457
  751TIP3   OH2 2197   1.418   5.980   2.209  0.1677  0.0055  0.3723
  751TIP3    H1 2198   1.454   6.063   2.239  2.6862 -0.7263 -0.3925
  751TIP3    H2 2199   1.389   5.996   2.120  0.8156  0.0422  0.1637
  752TIP3   OH2 2200   1.995   7.359   0.156 -0.0595  0.1982 -0.1768
  752TIP3    H1 2201   2.022   7.448   0.175 -1.6869  0.3993  1.4177
  752TIP3    H2 2202   2.025   7.307   0.231  0.4883 -0.5235 -0.8762
  753TIP3   OH2 2203   7.715   1.119   1.691  0.1381 -0.0289 -0.0944
  753TIP3    H1 2204   7.764   1.195   1.724  1.1886 -0.3382 -0.8970
  753TIP3    H2 2205   7.780   1.069   1.641 -1.0710 -0.2876 -1.4496
  754TIP3   OH2 2206   6.762   3.254   1.549  0.0160 -0.5758 -0.0636
  754TIP3    H1 2207   6.837   3.201   1.577 -0.0638 -0.8511 -0.3646
  754TIP3    H2 2208   6.694   3.190   1.529 -0.1302 -0.3501 -0.2885
  755TIP3   OH2 2209   7.081   1.943   4.517 -0.6506  0.3880 -0.0315
  755TIP3    H1 2210   7.164   1.987   4.502 -0.0644 -0.1043  1.6266
  755TIP3    H2 2211   7.028   2.006   4.566 -0.5881  0.0490  0.4795
  756TIP3   OH2 2212   5.928   3.222   1.011  0.2261 -0.0329  0.0072
  756TIP3    H1 2213   5.895   3.285   0.947 -1.1311  1.2183  1.8378
  756TIP3    H2 2214   5.978   3.159   0.959  0.4430  1.7351 -2.0804
  757TIP3   OH2 2215   7.550   4.648   2.061 -0.1694 -0.0641  0.6272
  757TIP3    H1 2216   7.485   4.614   2.001  0.5510  0.8509 -0.7444
  757TIP3    H2 2217   7.568   4.737   2.029  1.3430 -0.0969  1.2623
  758TIP3   OH2 2218   2.185   2.417   6.662 -0.2766  0.0994 -0.0984
  758TIP3    H1 2219   2.219   2.478   6.597  0.1192  1.1284  1.0263
  758TIP3    H2 2220   2.244   2.342   6.659 -0.1387  0.2372 -0.7665
  759TIP3   OH2 2221   6.699   4.754   4.562  0.2489 -0.0066  0.0112
  759TIP3    H1 2222   6.680   4.807   4.484 -1.5287 -2.0539 -1.0781
  759TIP3    H2 2223   6.794   4.747   4.564  0.4341  1.7237 -0.7917
  760TIP3   OH2 2224   5.049   7.552   5.906  0.1332  0.1479  0.5803
  760TIP3    H1 2225   4.981   7.553   5.838 -0.1158  2.0169  0.7941
  760TIP3    H2 2226   5.131   7.564   5.858 -0.0669  1.7683  0.5644
  761TIP3   OH2 2227   7.928   6.224   2.532  0.5083 -0.5239 -0.0392
  761TIP3    H1 2228   7.934   6.310   2.490  0.2703 -0.7999 -0.6409
  761TIP3    H2 2229   8.003   6.222   2.592  1.7127 -0.6753 -1.4675
  762TIP3   OH2 2230   7.765   2.952   5.023  0.1145  0.2324 -0.1711
  762TIP3    H1 2231   7.854   2.938   4.991  0.6164 -0.7756  1.4969
  762TIP3    H2 2232   7.717   2.986   4.948  1.7578  0.2214 -1.2781
  763TIP3   OH2 2233   6.672   0.774   6.464  0.3080 -0.0083 -0.0873
  763TIP3    H1 2234   6.648   0.683   6.482 -1.0086 -0.0561 -1.7292
  763TIP3    H2 2235   6.748   0.768   6.406  0.5271 -0.0427  0.2026
  764TIP3   OH2 2236   1.445   6.043   3.243  0.3107  0.4387  0.3743
  764TIP3    H1 2237   1.408   6.006   3.323  0.0646 -0.1027  0.0147
  764TIP3    H2 2238   1.538   6.024   3.248 -0.1544 -3.0362 -1.2254
  765TIP3   OH2 2239   5.710   4.624   6.407  0.2794  0.5648 -0.3399
  765TIP3    H1 2240   5.781   4.576   6.449  0.9739  1.6146 -0.2533
  765TIP3    H2 2241   5.746   4.712   6.394 -1.1818  1.2710  0.1817
  766TIP3   OH2 2242   0.475   6.431   0.853 -0.5779  0.0518 -0.0122
  766TIP3    H1 2243   0.552   6.448   0.908 -1.1204 -0.3660  0.9086
  766TIP3    H2 2244   0.511   6.414   0.766  0.3108  0.6994  0.2083
  767TIP3   OH2 2245   2.718   1.189   6.102 -0.0578 -0.0724 -0.3026
  767TIP3    H1 2246   2.715   1.094   6.089  2.2221 -0.5324  1.7817
  767TIP3    H2 2247   2.677   1.226   6.024 -3.2045 -2.7696 -0.1247
  768TIP3   OH2 2248   3.976   4.803   5.513  0.4438  0.0270  0.0414
  768TIP3    H1 2249   4.003   4.748   5.587 -0.2503 -1.5384 -0.8255
  768TIP3    H2 2250   3.888   4.771   5.491  1.2207 -0.6009 -2.4039
  769TIP3   OH2 2251   6.197   5.223   0.968  0.1745 -0.0707  0.4716
  769TIP3    H1 2252   6.189   5.151   0.905 -0.4608 -0.9422  1.5096
  769TIP3    H2 2253   6.116   5.220   1.019  0.6172  0.6860  1.2622
  770TIP3   OH2 2254   3.485   1.179   2.375  0.1033 -0.3761  0.3243
  770TIP3    H1 2255   3.449   1.224   2.298  0.2105  0.5102  0.7832
  770TIP3    H2 2256   3.424   1.200   2.445 -0.4119 -1.8107  0.3315
  771TIP3   OH2 2257   4.751   1.751   4.595 -0.5229  0.0815 -0.3085
  771TIP3    H1 2258   4.821   1.686   4.587 -1.4828 -1.1364  0.6351
  771TIP3    H2 2259   4.770   1.795   4.678  0.0568  0.9516 -0.8875
  772TIP3   OH2 2260   2.264   0.177   5.421  0.0273  0.0525  0.9297
  772TIP3    H1 2261   2.288   0.256   5.374 -1.1650 -0.2117 -0.2088
  772TIP3    H2 2262   2.182   0.199   5.465 -0.4296 -0.5738  0.4333
  773TIP3   OH2 2263   0.400   4.687   3.529 -0.0031 -0.0791  0.2630
  773TIP3    H1 2264   0.413   4.714   3.619  0.2985  0.3850  0.0838
  773TIP3    H2 2265   0.370   4.596   3.535  0.5497 -0.2321  0.8051
  774TIP3   OH2 2266   6.071   5.517   2.306 -0.3395 -0.4182 -0.2729
  774TIP3    H1 2267   6.157   5.552   2.281 -0.2792  0.0297  0.5339
  774TIP3    H2 2268   6.079   5.497   2.399 -1.3587  0.3827  0.0050
  775TIP3   OH2 2269   5.566   4.681   4.397  0.2386 -0.5160 -0.2299
  775TIP3    H1 2270   5.616   4.661   4.318  1.0369  1.2927 -0.2293
  775TIP3    H2 2271   5.486   4.723   4.365 -1.4223 -3.3836 -0.2318
  776TIP3   OH2 2272   0.926   4.518   5.461  0.1345  0.3060 -0.2254
  776TIP3    H1 2273   0.888   4.481   5.380  0.7057 -0.4816 -0.1414
  776TIP3    H2 2274   1.020   4.513   5.448  0.2894 -1.4919  1.1945
  777TIP3   OH2 2275   2.497   7.265   0.847  0.5504  0.8662 -0.3085
  777TIP3    H1 2276   2.573   7.227   0.803 -0.6233  0.0665 -1.7370
  777TIP3    H2 2277   2.487   7.214   0.927  0.5622 -0.1081 -0.9158
  778TIP3   OH2 2278   6.685   7.438   6.640 -0.7378 -0.0566  0.3849
  778TIP3    H1 2279   6.776   7.408   6.632 -0.8761 -0.2130 -0.7510
  778TIP3    H2 2280   6.692   7.528   6.673 -0.2196 -0.4204  1.2920
  779TIP3   OH2 2281   8.164   6.510   2.635  0.4501 -0.2712 -0.6620
  779TIP3    H1 2282   8.247   6.551   2.661  1.0404 -2.1933  0.7581
  779TIP3    H2 2283   8.140   6.554   2.553  0.9502  2.8592  0.7342
  780TIP3   OH2 2284   0.511   6.334   2.291 -0.2022  0.3346  0.7519
  780TIP3    H1 2285   0.568   6.266   2.254  1.4255  0.9578  1.9846
  780TIP3    H2 2286   0.449   6.286   2.345 -1.7841 -0.4717 -1.6189
  781TIP3   OH2 2287   1.423   1.830   0.603  0.3133 -0.1708 -0.0872
  781TIP3    H1 2288   1.372   1.898   0.559 -1.5999 -2.0616 -0.9466
  781TIP3    H2 2289   1.371   1.807   0.680 -0.9742 -3.0134 -1.6397
  782TIP3   OH2 2290   7.627   7.764   1.762  0.1575 -0.5562 -0.9990
  782TIP3    H1 2291   7.578   7.752   1.681 -0.5223  2.0459 -1.0360
  782TIP3    H2 2292   7.718   7.775   1.733  0.2714 -1.8205 -1.1928
  783TIP3   OH2 2293   4.080   3.591   5.479 -0.1774  0.3571 -0.5543
  783TIP3    H1 2294   4.072   3.553   5.391 -1.8788  0.3992 -0.4506
  783TIP3    H2 2295   4.066   3.517   5.538  0.2210  0.4677 -0.3198
  784TIP3   OH2 2296   1.390   2.865   5.562 -0.4099 -0.0524 -0.1205
  784TIP3    H1 2297   1.334   2.846   5.637 -0.4374 -1.5873 -0.4856
  784TIP3    H2 2298   1.362   2.802   5.495 -0.6456  1.5186 -1.5733
  785TIP3   OH2 2299   2.674   1.516   0.509  0.3004 -0.0410  0.1101
  785TIP3    H1 2300   2.624   1.497   0.430  0.6658  0.1116 -0.1618
  785TIP3    H2 2301   2.610   1.550   0.571 -0.2466 -1.4353  0.3592
  786TIP3   OH2 2302   7.741   3.443   4.488  0.1011  0.3360 -0.9006
  786TIP3    H1 2303   7.664   3.496   4.468  0.2910  0.7829 -0.4741
  786TIP3    H2 2304   7.758   3.460   4.581 -0.2246 -0.9801 -0.5699
  787TIP3   OH2 2305   7.172   6.478   1.683  0.9642 -0.3075 -0.3142
  787TIP3    H1 2306   7.174   6.529   1.601  0.7832  1.1100  0.5256
  787TIP3    H2 2307   7.084   6.441   1.685  1.6437 -2.1982 -1.7902
  788TIP3   OH2 2308   6.354   4.351   1.120  0.4966  0.5148 -0.2324
  788TIP3    H1 2309   6.399   4.280   1.166  1.1268  1.4949  0.7196
  788TIP3    H2 2310   6.312   4.308   1.046 -0.3690 -1.0904  1.1112
  789TIP3   OH2 2311   6.825   1.139   2.418 -0.3138 -0.0779 -0.0786
  789TIP3    H1 2312   6.787   1.187   2.345  0.4366 -1.9582 -1.8018
  789TIP3    H2 2313   6.902   1.190   2.442 -2.2119  2.2296  1.5699
  790TIP3   OH2 2314   0.490   1.218   2.465  0.2393 -0.1983 -0.2238
  790TIP3    H1 2315   0.477   1.175   2.381 -0.7598 -0.4755  0.0520
  790TIP3    H2 2316   0.499   1.311   2.444 -1.1302 -0.1163 -0.5734
  791TIP3   OH2 2317   1.449   1.947   5.284  0.3330 -0.2873 -0.1898
  791TIP3    H1 2318   1.454   1.888   5.209  0.0220  0.1020 -0.5157
  791TIP3    H2 2319   1.535   1.990   5.287  1.3018 -2.1436  1.2098
  792TIP3   OH2 2320   2.090   1.931   5.957  0.2415 -0.2562  0.1909
  792TIP3    H1 2321   2.162   1.939   5.894  0.9542 -1.2065  0.8424
  792TIP3    H2 2322   2.127   1.963   6.039  0.2852 -1.6805  0.7662
  793TIP3   OH2 2323   3.266   0.315   3.788 -0.0227  0.3685  0.4330
  793TIP3    H1 2324   3.305   0.230   3.809 -0.8113  0.4015  2.2882
  793TIP3    H2 2325   3.172   0.297   3.782 -0.2058  1.1208  0.9445
  794TIP3   OH2 2326   1.488   2.175   1.981 -0.2191  0.1417 -0.0365
  794TIP3    H1 2327   1.465   2.088   1.949 -0.5237 -0.5913  1.9763
  794TIP3    H2 2328   1.439   2.183   2.064  0.7180  1.7509  0.3980
  795TIP3   OH2 2329   7.630   3.601   1.639  0.4569  0.4150 -0.0136
  795TIP3    H1 2330   7.552   3.586   1.587  1.4119  1.7138 -1.9538
  795TIP3    H2 2331   7.630   3.695   1.656  1.4854  0.4078  0.0992
  796TIP3   OH2 2332   0.494   2.550   4.429  0.1298 -0.1159 -0.5215
  796TIP3    H1 2333   0.534   2.464   4.415 -0.5609 -0.6523  0.6477
  796TIP3    H2 2334   0.400   2.534   4.422 -0.0871  0.2284  1.0867
  797TIP3   OH2 2335   8.222   0.449   6.688  0.6424  0.7845 -0.0949
  797TIP3    H1 2336   8.237   0.372   6.634 -1.6044  0.7527 -0.7636
  797TIP3    H2 2337   8.184   0.414   6.769  0.2647  1.1325 -0.1192
  798TIP3   OH2 2338   2.260   5.756   0.752 -0.4116  0.4004  0.1523
  798TIP3    H1 2339   2.213   5.797   0.679 -0.7028  1.3149  0.8334
  798TIP3    H2 2340   2.353   5.771   0.732 -0.5165  2.3535  0.8801
  799TIP3   OH2 2341   7.983   0.028   4.678  0.4122 -0.2685 -0.7257
  799TIP3    H1 2342   8.000   0.068   4.763  1.2125 -1.7870 -0.1363
  799TIP3    H2 2343   7.980   0.101   4.617  0.1212  0.8211  0.5496
  800TIP3   OH2 2344   2.872   0.562   1.240 -0.0984  0.2392  0.4512
  800TIP3    H1 2345   2.964   0.545   1.217 -0.2832 -0.0498 -0.0985
  800TIP3    H2 2346   2.874   0.582   1.333  0.2656 -1.7509  0.9034
  801TIP3   OH2 2347   4.208   3.949   5.021 -0.2438 -0.0695 -0.4103
  801TIP3    H1 2348   4.222   3.947   4.927 -0.2831 -0.5588 -0.4081
  801TIP3    H2 2349   4.142   4.016   5.035 -0.1800  0.0576 -0.7234
  802TIP3   OH2 2350   1.115   0.763   0.372  0.1929 -0.0490 -0.2703
  802TIP3    H1 2351   1.121   0.836   0.434 -0.9812 -0.1225 -0.0411
  802TIP3    H2 2352   1.048   0.791   0.310 -1.7155 -1.7056  0.9400
  803TIP3   OH2 2353   5.606   6.882   6.487 -0.1919 -0.5109 -0.1053
  803TIP3    H1 2354   5.665   6.867   6.561  0.9617 -1.4488 -1.1588
  803TIP3    H2 2355   5.583   6.794   6.456 -0.2637 -0.1488 -1.1299
  804TIP3   OH2 2356   5.089   3.624   0.547 -0.3007  0.0586  0.1189
  804TIP3    H1 2357   4.999   3.592   0.536 -0.8803  0.8994  1.9299
  804TIP3    H2 2358   5.096   3.644   0.641  1.1294  1.8877 -0.3137
  805TIP3   OH2 2359   7.770   7.333   6.622  0.3889  0.1861  0.5913
  805TIP3    H1 2360   7.755   7.390   6.697 -2.2321  3.0623 -1.8411
  805TIP3    H2 2361   7.864   7.342   6.604  0.4617  2.0776  1.6240
  806TIP3   OH2 2362   0.567   5.856   1.236  0.1991  0.1626 -0.2558
  806TIP3    H1 2363   0.601   5.810   1.159  1.5507 -1.9816  1.4988
  806TIP3    H2 2364   0.628   5.928   1.250 -0.4381  0.9832 -1.5254
  807TIP3   OH2 2365   4.740   6.849   2.388 -0.3694 -0.1186 -0.6430
  807TIP3    H1 2366   4.686   6.877   2.314 -0.1903 -0.2822 -0.8393
  807TIP3    H2 2367   4.829   6.874   2.364 -0.4805  1.0980  0.1449
  808TIP3   OH2 2368   7.275   4.241   6.381  0.0486  0.1640  0.0793
  808TIP3    H1 2369   7.200   4.182   6.388  0.4135 -0.2044  1.1071
  808TIP3    H2 2370   7.254   4.298   6.307 -1.0352 -0.2216  0.0692
  809TIP3   OH2 2371   3.984   6.426   2.798 -0.0421 -0.6713  0.5037
  809TIP3    H1 2372   3.920   6.391   2.861  0.9058 -3.2765  0.1394
  809TIP3    H2 2373   4.034   6.349   2.769  0.1015  0.5050 -2.8457
  810TIP3   OH2 2374   7.055   5.330   1.976 -0.0229 -0.1444 -0.3374
  810TIP3    H1 2375   7.102   5.413   1.968  1.0445 -0.7397 -0.3943
  810TIP3    H2 2376   6.989   5.346   2.044  0.6577  0.5397  0.1755
  811TIP3   OH2 2377   0.212   2.097   5.740 -0.3599  0.0757  0.1063
  811TIP3    H1 2378   0.157   2.155   5.793 -0.9766 -1.3063  1.0350
  811TIP3    H2 2379   0.278   2.064   5.801 -1.5105 -2.1032  0.2998
  812TIP3   OH2 2380   6.057   2.917   2.438  0.0675  0.2564  0.5823
  812TIP3    H1 2381   6.031   3.006   2.460  1.3684  0.4664  1.3584
  812TIP3    H2 2382   5.977   2.865   2.449 -0.3150  1.0494  1.7441
  813TIP3   OH2 2383   7.991   5.553   1.700 -0.5066 -0.4044 -0.4739
  813TIP3    H1 2384   8.013   5.598   1.782  1.0363 -0.0688 -1.0297
  813TIP3    H2 2385   7.933   5.613   1.654  0.1509  0.2668 -0.4446
  814TIP3   OH2 2386   4.163   2.385   6.121 -0.7375  0.0320 -0.3866
  814TIP3    H1 2387   4.219   2.443   6.172 -0.3460 -0.0533 -0.7116
  814TIP3    H2 2388   4.172   2.417   6.031 -0.5893 -0.4787 -0.5555
  815TIP3   OH2 2389   7.588   5.523   3.870 -0.3995 -0.0542  0.2346
  815TIP3    H1 2390   7.574   5.559   3.958  0.4783  0.2418  0.2658
  815TIP3    H2 2391   7.516   5.461   3.858  0.6479 -1.7789  2.0742
  816TIP3   OH2 2392   0.617   0.625   1.038  0.3228  0.4601  0.3596
  816TIP3    H1 2393   0.527   0.603   1.015  0.9792 -0.1355 -1.8249
  816TIP3    H2 2394   0.652   0.669   0.961  2.3334 -0.6142  0.5819
  817TIP3   OH2 2395   1.922   5.804   6.056  0.0932  0.3204  1.0247
  817TIP3    H1 2396   2.008   5.783   6.091  1.8745  3.1462 -1.0901
  817TIP3    H2 2397   1.881   5.858   6.123  0.8468  0.6097  1.2642
  818TIP3   OH2 2398   6.177   2.221   2.635 -0.2541 -0.1399  0.5805
  818TIP3    H1 2399   6.229   2.259   2.705 -2.7214  1.1932  1.8158
  818TIP3    H2 2400   6.113   2.165   2.679  0.0553 -1.7320 -0.8659
  819TIP3   OH2 2401   1.937   7.342   5.948  0.3090 -0.6505 -0.2881
  819TIP3    H1 2402   1.981   7.376   5.870  0.4938 -1.5289 -0.5734
  819TIP3    H2 2403   2.007   7.329   6.012  0.2204 -0.3618 -0.1328
  820TIP3   OH2 2404   7.001   3.751   4.245 -0.3646  0.0248  0.0840
  820TIP3    H1 2405   7.090   3.735   4.216 -0.2016  1.5271 -0.3078
  820TIP3    H2 2406   6.956   3.667   4.233  0.8498 -0.5933 -0.2098
  821TIP3   OH2 2407   0.527   5.951   0.696  0.1111 -0.3885  0.2885
  821TIP3    H1 2408   0.534   6.038   0.737 -1.2855 -1.0148  1.9888
  821TIP3    H2 2409   0.614   5.912   0.708 -0.0416 -0.2646  2.1064
  822TIP3   OH2 2410   4.884   7.249   2.918  0.5621  0.1853 -0.0882
  822TIP3    H1 2411   4.896   7.342   2.935  0.3968  0.0376  0.9240
  822TIP3    H2 2412   4.866   7.243   2.824 -1.3421  1.3760  0.1517
  823TIP3   OH2 2413   1.742   1.088   2.657 -0.7714 -0.2283  0.0849
  823TIP3    H1 2414   1.742   1.050   2.569 -0.4088 -2.3863  0.9630
  823TIP3    H2 2415   1.812   1.043   2.704 -0.2297  1.6466  1.2196
  824TIP3   OH2 2416   3.816   2.976   6.446  0.2018 -0.0573  0.0041
  824TIP3    H1 2417   3.759   3.052   6.455  2.1762  1.7502 -1.5944
  824TIP3    H2 2418   3.782   2.929   6.370 -0.3132 -0.0881  0.2520
  825TIP3   OH2 2419   4.304   1.665   2.138  0.3466  0.2102 -0.1220
  825TIP3    H1 2420   4.329   1.653   2.046 -1.4959 -0.9017 -0.5336
  825TIP3    H2 2421   4.337   1.587   2.183  0.6453  0.4200  0.0239
  826TIP3   OH2 2422   6.390   2.519   1.899 -0.5660  0.0697 -0.3913
  826TIP3    H1 2423   6.392   2.612   1.876  3.5200  0.4855  0.8014
  826TIP3    H2 2424   6.439   2.475   1.829  1.9321 -0.3159  1.4606
  827TIP3   OH2 2425   4.665   5.690   2.927  0.2837  0.1218 -0.8208
  827TIP3    H1 2426   4.732   5.624   2.946 -1.2652 -1.0329  1.0443
  827TIP3    H2 2427   4.653   5.686   2.832  2.8369  0.4275 -1.2292
  828TIP3   OH2 2428   3.399   7.454   1.858 -0.1638 -0.4841 -0.5478
  828TIP3    H1 2429   3.364   7.378   1.812  0.1908 -0.6710 -0.5092
  828TIP3    H2 2430   3.389   7.526   1.795 -0.0576 -0.6580 -0.7649
  829TIP3   OH2 2431   2.231   3.703   6.105 -0.7221 -0.3281  0.9689
  829TIP3    H1 2432   2.213   3.649   6.028  0.8356  0.4011  0.0256
  829TIP3    H2 2433   2.178   3.782   6.091  0.2381  0.2023  0.1196
  830TIP3   OH2 2434   1.633   1.268   1.687 -0.2102 -0.3467  0.9759
  830TIP3    H1 2435   1.553   1.247   1.736  0.6858  1.4631  3.4200
  830TIP3    H2 2436   1.675   1.184   1.673 -0.9745 -1.0410  2.5683
  831TIP3   OH2 2437   7.339   7.503   5.270  0.4815 -0.2478  0.2103
  831TIP3    H1 2438   7.249   7.480   5.245 -0.6692  1.9997  1.8174
  831TIP3    H2 2439   7.374   7.550   5.194  0.5689 -1.7099 -0.6749
  832TIP3   OH2 2440   0.546   2.030   2.871 -0.1804  0.2104  0.2968
  832TIP3    H1 2441   0.486   2.060   2.939  0.6621 -2.3400  2.3382
  832TIP3    H2 2442   0.499   1.960   2.826 -0.5114  1.4954 -1.4434
  833TIP3   OH2 2443   1.147   1.335   5.852  0.0727  0.0066 -0.0844
  833TIP3    H1 2444   1.116   1.369   5.768 -2.8527  1.2186  1.3225
  833TIP3    H2 2445   1.203   1.405   5.887  1.0119 -0.3551 -0.8136
  834TIP3   OH2 2446   6.606   6.661   2.354  0.1974  0.0206  0.4007
  834TIP3    H1 2447   6.621   6.566   2.352  1.3634  0.1909 -1.6801
  834TIP3    H2 2448   6.663   6.696   2.286  1.2518  2.4667  2.3920
  835TIP3   OH2 2449   3.350   0.826   6.100  0.0926  0.0950 -0.0027
  835TIP3    H1 2450   3.416   0.818   6.030  0.4735 -0.6830  0.4273
  835TIP3    H2 2451   3.345   0.738   6.138 -1.0221  0.2094  0.1413
  836TIP3   OH2 2452   5.428   0.904   0.926 -0.1586  0.2370 -0.0941
  836TIP3    H1 2453   5.356   0.908   0.989  0.2592  0.3266  0.3917
  836TIP3    H2 2454   5.474   0.823   0.949 -0.1051  0.1801 -0.4007
  837TIP3   OH2 2455   4.136   4.287   4.168  0.2710 -0.0741  0.3464
  837TIP3    H1 2456   4.200   4.328   4.110  0.8752  0.2168  1.1866
  837TIP3    H2 2457   4.156   4.193   4.163  0.5109 -0.0213  0.3041
  838TIP3   OH2 2458   3.645   1.182   1.374 -0.4064  0.2072 -0.6579
  838TIP3    H1 2459   3.676   1.095   1.350  1.2506  1.2939 -2.7674
  838TIP3    H2 2460   3.703   1.209   1.445  0.0483  0.1536 -1.0035
  839TIP3   OH2 2461   2.456   2.742   0.296 -0.0991  0.6607  0.0271
  839TIP3    H1 2462   2.395   2.815   0.286  0.7899  1.3916 -0.2062
  839TIP3    H2 2463   2.507   2.762   0.375  1.1914  1.1075 -0.8753
  840TIP3   OH2 2464   1.202   6.883   4.032 -0.5171  0.0342 -1.0060
  840TIP3    H1 2465   1.224   6.847   4.118 -1.3103 -0.4012 -0.9769
  840TIP3    H2 2466   1.107   6.899   4.036 -0.1076  2.8960 -0.7257
  841TIP3   OH2 2467   1.110   0.312   5.043 -0.3547  0.0225  0.4342
  841TIP3    H1 2468   1.203   0.334   5.053 -0.6178  1.8224 -0.7105
  841TIP3    H2 2469   1.107   0.217   5.054  1.9618 -0.3868 -1.6028
  842TIP3   OH2 2470   4.504   0.835   6.045 -0.3105 -0.0280 -0.0090
  842TIP3    H1 2471   4.487   0.908   5.985  0.3434  0.8409  0.8190
  842TIP3    H2 2472   4.438   0.770   6.024 -0.4781  0.5120 -1.2511
  843TIP3   OH2 2473   0.813   4.974   1.542 -0.0680  0.1342 -0.3456
  843TIP3    H1 2474   0.738   4.920   1.570 -0.1672 -0.0398 -0.9407
  843TIP3    H2 2475   0.885   4.912   1.536  0.2930  0.4012  0.8221
  844TIP3   OH2 2476   3.129   4.068   4.473 -0.2931 -0.1605  0.2592
  844TIP3    H1 2477   3.066   4.068   4.401 -0.6114  1.6864  0.4758
  844TIP3    H2 2478   3.095   4.004   4.535 -0.3347 -1.3507 -0.9460
  845TIP3   OH2 2479   0.579   6.554   3.232  0.4751  0.1309  0.1781
  845TIP3    H1 2480   0.538   6.535   3.148 -0.1968 -3.3093  1.1232
  845TIP3    H2 2481   0.524   6.622   3.271 -1.1762 -0.5607 -0.8233
  846TIP3   OH2 2482   5.422   0.058   3.277  0.0516 -0.5330 -0.1604
  846TIP3    H1 2483   5.499   0.104   3.309  0.7176 -1.7486  0.0562
  846TIP3    H2 2484   5.453   0.007   3.203 -0.3693 -1.5647  0.3498
  847TIP3   OH2 2485   7.550   3.853   1.584 -0.4687  0.6526 -0.0886
  847TIP3    H1 2486   7.565   3.947   1.583 -0.1139  0.6070  0.5954
  847TIP3    H2 2487   7.467   3.841   1.538 -2.6576  1.6660  3.2917
  848TIP3   OH2 2488   5.935   1.133   4.411  0.3553 -0.1002  0.2533
  848TIP3    H1 2489   5.901   1.190   4.343  0.0759  1.5715  1.7324
  848TIP3    H2 2490   5.981   1.191   4.472  0.6713 -1.5339  1.4626
  849TIP3   OH2 2491   1.966   6.642   0.508 -0.1139  0.0874 -0.3302
  849TIP3    H1 2492   1.968   6.547   0.496  1.0190  0.0797 -0.2594
  849TIP3    H2 2493   1.959   6.678   0.419 -0.2935 -0.0653 -0.3759
  850TIP3   OH2 2494   3.539   2.827   6.554 -0.8969 -0.5171  0.6755
  850TIP3    H1 2495   3.505   2.916   6.552 -0.3338 -0.2793  1.2068
  850TIP3    H2 2496   3.567   2.809   6.464 -1.4253 -0.3225  0.4727
  851TIP3   OH2 2497   7.544   4.396  -0.017  0.1627  0.2760  0.0139
  851TIP3    H1 2498   7.617   4.336  -0.027  1.2281  1.3250  1.1505
  851TIP3    H2 2499   7.491   4.359   0.054  0.5861  0.4419  0.4213
  852TIP3   OH2 2500   5.146   6.958   2.939 -0.1956 -0.2378  0.1144
  852TIP3    H1 2501   5.115   6.878   2.982 -1.1187  0.3340  0.5448
  852TIP3    H2 2502   5.240   6.957   2.952  0.0918 -2.2321 -1.5719
  853TIP3   OH2 2503   8.048   6.806   2.669 -0.1688 -0.0045  0.0343
  853TIP3    H1 2504   8.037   6.802   2.764 -0.0630  1.3355  0.1155
  853TIP3    H2 2505   7.979   6.865   2.638 -1.8835 -2.3874 -1.0674
  854TIP3   OH2 2506   2.092   0.701   2.438 -0.1299 -0.0273 -0.0760
  854TIP3    H1 2507   2.077   0.642   2.364 -1.8040  0.4058 -0.1116
  854TIP3    H2 2508   2.005   0.730   2.464  0.3976 -0.2929  2.1866
  855TIP3   OH2 2509   5.209   5.470   3.097 -0.8726 -0.1744  0.2762
  855TIP3    H1 2510   5.148   5.413   3.049 -1.3323  1.2716 -0.9338
  855TIP3    H2 2511   5.171   5.478   3.184 -0.3402 -2.3751  0.7828
  856TIP3   OH2 2512   4.439   1.630   4.524  0.0289 -0.3719  0.0822
  856TIP3    H1 2513   4.515   1.687   4.533 -0.4262  0.1034  1.0770
  856TIP3    H2 2514   4.472   1.543   4.543  0.0664  0.0126  1.9509
  857TIP3   OH2 2515   7.938   1.589   3.255  0.0922 -0.4352 -0.0200
  857TIP3    H1 2516   8.015   1.589   3.199 -0.7120 -1.5431 -1.1759
  857TIP3    H2 2517   7.868   1.552   3.201 -0.9284 -0.7392  1.4313
  858TIP3   OH2 2518   7.591   6.127   4.949 -0.4062 -0.1569 -0.7462
  858TIP3    H1 2519   7.524   6.081   5.000 -0.4826 -0.5600 -1.2119
  858TIP3    H2 2520   7.605   6.073   4.872  0.3846 -0.0182 -0.7064
  859TIP3   OH2 2521   6.164   1.522   3.961  0.1439  0.4622  0.2784
  859TIP3    H1 2522   6.177   1.547   4.052  0.6722 -2.0712  0.9962
  859TIP3    H2 2523   6.137   1.602   3.917  3.8173  2.7665  1.7717
  860TIP3   OH2 2524   4.057   5.069   4.271  0.0845 -0.0323 -0.2861
  860TIP3    H1 2525   4.023   5.109   4.191 -0.7578  0.5281  0.3293
  860TIP3    H2 2526   4.000   5.102   4.340  0.0358 -1.4700  0.3963
  861TIP3   OH2 2527   3.222   4.609   6.464  0.3693 -0.1775 -0.2322
  861TIP3    H1 2528   3.192   4.699   6.452  0.0465 -0.4092 -1.3854
  861TIP3    H2 2529   3.141   4.558   6.468  0.5557 -0.6096 -1.4988
  862TIP3   OH2 2530   0.327   6.875   4.445  0.0325 -0.1072  0.1753
  862TIP3    H1 2531   0.354   6.892   4.355  1.5118 -1.1055  0.3911
  862TIP3    H2 2532   0.347   6.957   4.492  0.2899  0.0387 -0.1870
  863TIP3   OH2 2533   4.833   2.173   1.456  0.3478  0.2374  0.3757
  863TIP3    H1 2534   4.882   2.252   1.432  0.5450 -0.3306 -1.2472
  863TIP3    H2 2535   4.741   2.198   1.447  0.4115  0.2504 -0.3161
  864TIP3   OH2 2536   0.650   3.718   6.103  0.0539 -0.0539 -0.1878
  864TIP3    H1 2537   0.587   3.776   6.145  2.0169  1.3384  1.0149
  864TIP3    H2 2538   0.646   3.740   6.010 -1.4208 -0.2375 -0.1886
  865TIP3   OH2 2539   2.878   0.599   6.425 -0.0034  0.6155  0.1549
  865TIP3    H1 2540   2.973   0.592   6.416  0.1910 -0.5863  2.3673
  865TIP3    H2 2541   2.844   0.586   6.337  1.8918  2.0206 -0.8618
  866TIP3   OH2 2542   5.644   0.225   1.961  0.4487 -0.5782 -0.2955
  866TIP3    H1 2543   5.731   0.254   1.988  0.2197  0.0444 -0.2037
  866TIP3    H2 2544   5.646   0.130   1.973  0.3966 -0.3681  1.8637
  867TIP3   OH2 2545   7.755   4.056   2.359 -0.7997  0.2463  0.7872
  867TIP3    H1 2546   7.738   4.006   2.279 -0.7462 -0.4288  1.1892
  867TIP3    H2 2547   7.804   4.133   2.330 -1.0525  0.1657  0.1334
  868TIP3   OH2 2548   5.251   6.699   4.439 -0.3936  0.6178 -0.0226
  868TIP3    H1 2549   5.244   6.697   4.343 -1.8487 -0.0691  0.0766
  868TIP3    H2 2550   5.215   6.616   4.468  1.9213 -0.0875  1.0633
  869TIP3   OH2 2551   7.339   5.483   6.708  0.4549  0.4870  0.6697
  869TIP3    H1 2552   7.292   5.553   6.753 -0.9152 -0.1388  0.2661
  869TIP3    H2 2553   7.421   5.523   6.678  0.3148  1.5265  1.6526
  870TIP3   OH2 2554   3.864   6.317   3.050 -0.4271  0.1583 -0.8964
  870TIP3    H1 2555   3.786   6.262   3.044 -0.1429 -0.6415  1.4695
  870TIP3    H2 2556   3.843   6.382   3.118  0.4141  0.9021 -1.3181
  871TIP3   OH2 2557   2.768   1.415   1.964  0.5249 -0.0836 -0.0935
  871TIP3    H1 2558   2.815   1.427   1.881  2.3745  0.8683  1.0188
  871TIP3    H2 2559   2.770   1.320   1.978  0.1405 -0.2598 -1.1608
  872TIP3   OH2 2560   3.238   4.851   4.423  0.2765 -0.0229 -0.1855
  872TIP3    H1 2561   3.244   4.768   4.376  0.2673  0.3690 -0.8835
  872TIP3    H2 2562   3.165   4.838   4.485  1.3791 -1.1233  0.9361
  873TIP3   OH2 2563   4.681   1.704   1.013  0.4312 -0.4332  0.2925
  873TIP3    H1 2564   4.591   1.688   1.039  0.0279 -0.1694 -0.9101
  873TIP3    H2 2565   4.716   1.617   0.992 -0.2093 -0.3258 -1.3162
  874TIP3   OH2 2566   1.163   5.554   6.190  0.2562 -0.0802 -0.2217
  874TIP3    H1 2567   1.161   5.636   6.141 -0.4067 -0.3793 -0.7179
  874TIP3    H2 2568   1.073   5.522   6.187  0.5058 -0.8257 -0.0407
  875TIP3   OH2 2569   3.462   7.151   4.450 -0.0614  0.7283 -0.0795
  875TIP3    H1 2570   3.429   7.214   4.513 -0.0440  0.5887  0.0686
  875TIP3    H2 2571   3.419   7.174   4.368 -0.5311  0.5422  0.1133
  876TIP3   OH2 2572   1.461   4.496   3.245 -0.4337  0.1521 -0.1189
  876TIP3    H1 2573   1.446   4.553   3.169  0.2528  1.1627  0.4880
  876TIP3    H2 2574   1.536   4.442   3.219  0.0684  0.7872 -0.0070
  877TIP3   OH2 2575   4.740   6.737   4.324 -0.5749  0.0305  0.4566
  877TIP3    H1 2576   4.654   6.714   4.290 -0.6477  0.6395  0.2178
  877TIP3    H2 2577   4.742   6.700   4.412 -1.0219 -0.1179  0.4064
  878TIP3   OH2 2578   3.710   4.932   4.087 -0.9145  0.3530  0.4080
  878TIP3    H1 2579   3.627   4.903   4.125  0.4355 -1.4213  2.2312
  878TIP3    H2 2580   3.759   4.851   4.073  0.4995  1.3443 -0.6847
  879TIP3   OH2 2581   5.963   1.345   3.121 -0.1850 -0.1469 -0.1997
  879TIP3    H1 2582   5.952   1.432   3.083 -0.9120 -0.5412 -0.9362
  879TIP3    H2 2583   5.885   1.297   3.094  0.5482 -1.2521 -0.4367
  880TIP3   OH2 2584   6.165   5.590   0.838 -0.1937  0.0630  0.4223
  880TIP3    H1 2585   6.260   5.600   0.846 -0.1623 -0.7150  1.1570
  880TIP3    H2 2586   6.130   5.677   0.858  0.3628  0.3797  0.0461
  881TIP3   OH2 2587   4.507   0.155   3.738 -0.7044  0.0306  0.3737
  881TIP3    H1 2588   4.569   0.090   3.771  0.6291  1.2235  0.3549
  881TIP3    H2 2589   4.505   0.141   3.644  0.5689  0.7971  0.2108
  882TIP3   OH2 2590   4.784   5.624   3.657  0.2389 -0.1093  0.1301
  882TIP3    H1 2591   4.710   5.575   3.690  2.2582 -2.0624  2.0709
  882TIP3    H2 2592   4.806   5.686   3.727  0.6969  0.1880 -0.2636
  883TIP3   OH2 2593   4.303   5.668   5.632  0.0015 -0.7209 -0.5492
  883TIP3    H1 2594   4.238   5.725   5.590 -0.2537 -0.7058 -0.1379
  883TIP3    H2 2595   4.349   5.626   5.559  1.1265  1.0231 -0.9054
  884TIP3   OH2 2596   4.110   3.920   3.545  0.0687  0.1609  0.0506
  884TIP3    H1 2597   4.022   3.946   3.573 -0.3825 -1.3865  0.1383
  884TIP3    H2 2598   4.096   3.858   3.474  1.1368  0.7888 -0.7534
  885TIP3   OH2 2599   0.542   6.337   6.333  0.1125 -0.4104 -0.6453
  885TIP3    H1 2600   0.523   6.308   6.244  2.9901 -0.3793 -1.3926
  885TIP3    H2 2601   0.588   6.263   6.372  0.6504  0.3000  0.0971
  886TIP3   OH2 2602   8.161   0.866   4.090 -0.3162 -0.6062 -0.1582
  886TIP3    H1 2603   8.152   0.852   4.185 -1.0775  2.3600  0.3130
  886TIP3    H2 2604   8.086   0.921   4.067  0.9808  0.4749 -2.0495
  887TIP3   OH2 2605   1.866   7.225   0.954 -0.2414 -0.4212  0.6594
  887TIP3    H1 2606   1.836   7.158   1.015 -1.3163 -0.4999  0.0723
  887TIP3    H2 2607   1.949   7.256   0.991 -0.3478 -1.1988  1.5895
  888TIP3   OH2 2608   3.917   2.138   4.019 -0.2401 -0.1494 -0.5465
  888TIP3    H1 2609   3.934   2.205   4.085  0.2445 -0.7473 -0.0414
  888TIP3    H2 2610   4.003   2.118   3.983 -0.4483 -0.1388 -1.0527
  889TIP3   OH2 2611   3.250   2.342   1.842  0.6801 -0.2957 -0.4359
  889TIP3    H1 2612   3.308   2.369   1.913  1.1233  1.3653 -1.3702
  889TIP3    H2 2613   3.175   2.302   1.886  0.3178  1.8659  1.0820
  890TIP3   OH2 2614   3.491   6.469   0.616  0.8149 -0.0431 -0.0022
  890TIP3    H1 2615   3.520   6.452   0.706 -1.2534 -2.2017  0.3496
  890TIP3    H2 2616   3.507   6.387   0.570 -1.6118 -0.2318 -0.6020
  891TIP3   OH2 2617   3.346   1.540   5.223  0.1464  0.0062  0.6602
  891TIP3    H1 2618   3.442   1.550   5.218  0.2392 -1.1636 -0.1904
  891TIP3    H2 2619   3.325   1.475   5.156 -1.5199  1.9228 -0.8229
  892TIP3   OH2 2620   6.467   3.289   2.550 -0.4080  0.0924 -0.1145
  892TIP3    H1 2621   6.485   3.214   2.493 -0.0538  0.9038 -1.0995
  892TIP3    H2 2622   6.436   3.250   2.632 -1.1802 -1.0931 -0.9425
  893TIP3   OH2 2623   5.446   0.867   4.163 -0.0922 -0.1244  0.0036
  893TIP3    H1 2624   5.499   0.936   4.201  0.4064 -0.3634 -0.2445
  893TIP3    H2 2625   5.419   0.813   4.237  0.2795 -0.1796  0.1018
  894TIP3   OH2 2626   2.885   6.239   1.067 -0.1428  0.2478  0.1550
  894TIP3    H1 2627   2.901   6.158   1.115  0.0327 -0.3831 -0.9372
  894TIP3    H2 2628   2.950   6.300   1.101 -0.0458 -0.1757  0.7404
  895TIP3   OH2 2629   6.783   1.382   6.439 -0.1716 -0.2066 -0.3112
  895TIP3    H1 2630   6.818   1.294   6.424  1.3125  0.3889 -0.4709
  895TIP3    H2 2631   6.731   1.373   6.519 -0.9340 -1.4582 -0.9145
  896TIP3   OH2 2632   1.284   7.568   3.540  0.0223  0.5102  0.2133
  896TIP3    H1 2633   1.256   7.634   3.477  0.5786 -0.6073 -1.2686
  896TIP3    H2 2634   1.360   7.527   3.500 -0.2208 -0.9321  1.1423
  897TIP3   OH2 2635   3.641   7.149   2.097  0.3360  0.2118  0.0990
  897TIP3    H1 2636   3.551   7.159   2.067 -0.0290 -2.5087  0.0993
  897TIP3    H2 2637   3.694   7.186   2.026 -0.7197 -0.4954 -1.0944
  898TIP3   OH2 2638   4.214   4.820   3.488  0.0818  0.0471 -0.5314
  898TIP3    H1 2639   4.146   4.886   3.473 -0.4605 -0.6114 -1.0736
  898TIP3    H2 2640   4.261   4.815   3.405 -1.4929 -2.0165 -1.3822
  899TIP3   OH2 2641   1.285   7.191   6.314 -0.1756 -0.6559  0.0809
  899TIP3    H1 2642   1.351   7.234   6.369 -0.0382 -0.1529 -0.4680
  899TIP3    H2 2643   1.336   7.131   6.258  0.2309  1.7225 -2.3116
  900TIP3   OH2 2644   7.213   1.704   2.631 -0.5640 -0.3754 -0.2297
  900TIP3    H1 2645   7.278   1.638   2.653  0.5266  0.1889 -1.6253
  900TIP3    H2 2646   7.262   1.772   2.584 -1.7343  1.1764  0.6785
  901TIP3   OH2 2647   4.163   0.119   1.673  0.2995 -0.4261  0.0546
  901TIP3    H1 2648   4.168   0.207   1.710  1.4124 -0.3403 -0.2784
  901TIP3    H2 2649   4.125   0.132   1.586  0.5180 -0.2709 -0.0180
  902TIP3   OH2 2650   1.666   3.910   5.060 -0.2497  0.0125  0.0692
  902TIP3    H1 2651   1.743   3.917   5.004 -1.3870 -1.1853 -1.7597
  902TIP3    H2 2652   1.597   3.878   5.002 -2.4190  2.0009  1.3635
  903TIP3   OH2 2653   0.379   5.001   1.793  0.2506  1.0955 -0.5373
  903TIP3    H1 2654   0.373   5.096   1.789 -0.2074  1.1168  0.3257
  903TIP3    H2 2655   0.306   4.974   1.849  1.5065  0.4051  0.8658
  904TIP3   OH2 2656   7.497   3.530   5.392  0.0064 -0.2033  0.1842
  904TIP3    H1 2657   7.512   3.621   5.364  0.8766 -0.4019 -0.0391
  904TIP3    H2 2658   7.584   3.490   5.389 -0.2378 -0.8271  1.0701
  905TIP3   OH2 2659   2.250   2.300   2.660 -0.2846 -0.1410 -0.1420
  905TIP3    H1 2660   2.225   2.359   2.732  0.9759  1.3600 -0.8775
  905TIP3    H2 2661   2.185   2.230   2.663 -0.2896 -0.1476  2.4569
  906TIP3   OH2 2662   7.758   5.119   5.801  0.1407 -0.3294  0.2465
  906TIP3    H1 2663   7.700   5.090   5.730 -0.0359  0.7021 -0.0614
  906TIP3    H2 2664   7.749   5.052   5.869 -1.2228 -0.3354  0.0999
  907TIP3   OH2 2665   6.443   4.075   6.273 -0.1146 -0.2189 -0.6857
  907TIP3    H1 2666   6.498   4.152   6.260  2.6200 -1.6366  1.3677
  907TIP3    H2 2667   6.436   4.036   6.186  2.7641 -0.2719 -1.0062
  908TIP3   OH2 2668   4.316   3.884   6.490 -0.6828  0.1439 -0.1847
  908TIP3    H1 2669   4.402   3.859   6.455 -2.4564 -2.0703 -3.4013
  908TIP3    H2 2670   4.289   3.808   6.542 -0.7455  0.8524  0.8510
  909TIP3   OH2 2671   4.247   3.207   2.906  0.0140 -0.0380  0.9300
  909TIP3    H1 2672   4.228   3.291   2.948  0.5088  0.9003 -0.6553
  909TIP3    H2 2673   4.310   3.228   2.837  1.0724 -1.9128  1.2603
  910TIP3   OH2 2674   4.023   0.098   1.024 -0.8337 -0.0199  0.2240
  910TIP3    H1 2675   4.084   0.105   0.951 -0.3387 -1.3762  0.4777
  910TIP3    H2 2676   3.991   0.187   1.038  1.1828  0.7562  0.1819
  911TIP3   OH2 2677   3.145   6.255   1.350  0.5239 -0.1065 -0.1416
  911TIP3    H1 2678   3.157   6.350   1.347  0.9867 -0.1290  0.8233
  911TIP3    H2 2679   3.150   6.233   1.443  0.8702 -1.1399 -0.3981
  912TIP3   OH2 2680   6.587   4.577   5.503 -0.3460 -1.1127  0.3310
  912TIP3    H1 2681   6.588   4.557   5.410  0.8096  2.5769 -0.6475
  912TIP3    H2 2682   6.495   4.581   5.526 -0.8795  1.3458 -1.7009
  913TIP3   OH2 2683   6.620   0.253   3.040  0.4705 -0.0095 -0.2295
  913TIP3    H1 2684   6.694   0.312   3.056 -0.9918  1.8804 -0.0355
  913TIP3    H2 2685   6.570   0.255   3.121 -0.7836  0.2947 -0.9719
  914TIP3   OH2 2686   5.610   7.278   2.769 -0.0855 -0.8620  0.3173
  914TIP3    H1 2687   5.523   7.259   2.804 -0.2426 -1.3801 -0.3390
  914TIP3    H2 2688   5.649   7.338   2.833 -1.9300  1.6251 -0.7478
  915TIP3   OH2 2689   5.964   5.728   6.710 -0.1027 -0.3706 -0.3907
  915TIP3    H1 2690   6.048   5.685   6.690 -0.1281  0.0730 -1.5733
  915TIP3    H2 2691   5.957   5.725   6.805  0.7511 -1.3649 -0.3420
  916TIP3   OH2 2692   1.115   1.650   0.181  0.6151  0.1750 -0.0294
  916TIP3    H1 2693   1.138   1.561   0.206  2.7475  0.2867 -1.3427
  916TIP3    H2 2694   1.199   1.697   0.181 -0.5626  2.5015  1.6603
  917TIP3   OH2 2695   0.622   1.262   5.099  0.5201  0.0472 -0.4153
  917TIP3    H1 2696   0.705   1.306   5.080  1.0825  0.1722  2.0254
  917TIP3    H2 2697   0.557   1.312   5.050  1.3066  2.8941  1.1976
  918TIP3   OH2 2698   2.120   0.436   5.647 -0.1515  0.5193 -0.1128
  918TIP3    H1 2699   2.054   0.505   5.640  0.7385  1.4435  0.2904
  918TIP3    H2 2700   2.202   0.480   5.624  0.3229 -0.6146 -0.6242
  919TIP3   OH2 2701   7.035   4.174   2.131  0.9589 -0.0714 -0.1240
  919TIP3    H1 2702   7.089   4.120   2.073 -0.0888 -1.9608  0.5522
  919TIP3    H2 2703   7.032   4.124   2.213 -1.6330  0.0417 -0.0804
  920TIP3   OH2 2704   0.282   6.134   1.099 -0.4570 -0.0201 -0.1893
  920TIP3    H1 2705   0.254   6.215   1.057  0.2830 -0.3561 -1.3639
  920TIP3    H2 2706   0.268   6.066   1.033  1.5584 -0.4321 -0.2752
  921TIP3   OH2 2707   3.277   7.467   4.289 -0.0893  0.1455  0.0906
  921TIP3    H1 2708   3.345   7.409   4.256  1.1589  0.4230  2.0214
  921TIP3    H2 2709   3.224   7.412   4.346 -0.7128  0.2466 -0.3721
  922TIP3   OH2 2710   1.600   3.042   5.552  0.3900 -0.1347  0.0571
  922TIP3    H1 2711   1.600   3.016   5.460  3.5399 -1.1450  0.2131
  922TIP3    H2 2712   1.526   2.994   5.590 -1.1319  0.5048 -1.9310
  923TIP3   OH2 2713   4.794   3.761   5.239 -0.9962  0.2786  0.2942
  923TIP3    H1 2714   4.814   3.842   5.286 -0.6229  0.5382 -0.3011
  923TIP3    H2 2715   4.716   3.782   5.187 -1.4439 -0.0258  0.8384
  924TIP3   OH2 2716   7.494   2.448   3.028  0.5066  0.3127 -1.0387
  924TIP3    H1 2717   7.491   2.353   3.021 -1.3468  0.2513  0.0482
  924TIP3    H2 2718   7.573   2.466   3.079  0.4673 -0.6801 -0.6215
  925TIP3   OH2 2719   6.426   2.525   0.946 -0.3104 -0.6725  0.5117
  925TIP3    H1 2720   6.422   2.579   0.867 -1.6832 -1.6824 -0.1280
  925TIP3    H2 2721   6.519   2.502   0.953 -0.0032  0.2252 -0.2425
  926TIP3   OH2 2722   2.482   5.295   1.785  0.4617 -0.5623  0.3252
  926TIP3    H1 2723   2.389   5.277   1.769  0.8109 -0.4759 -2.1669
  926TIP3    H2 2724   2.524   5.209   1.782  0.9134 -0.3454 -2.5246
  927TIP3   OH2 2725   6.860   6.036   2.851  0.5227  0.6363  0.0813
  927TIP3    H1 2726   6.868   6.130   2.868  0.1040  0.8256 -0.7300
  927TIP3    H2 2727   6.850   6.030   2.756  1.1598 -0.2783  0.0648
  928TIP3   OH2 2728   5.876   1.084   2.237  0.2426  1.1312 -0.4712
  928TIP3    H1 2729   5.944   1.050   2.179  1.3028 -0.6071  1.6476
  928TIP3    H2 2730   5.876   1.178   2.223  2.9571  1.1604 -0.6886
  929TIP3   OH2 2731   1.323   0.174   2.990 -0.1774 -0.4020  0.4896
  929TIP3    H1 2732   1.404   0.173   3.041 -0.4929 -1.8149  0.9899
  929TIP3    H2 2733   1.314   0.266   2.962  1.7434 -0.2747  0.1535
  930TIP3   OH2 2734   2.265   4.238   2.286 -0.1624  0.0642 -0.1179
  930TIP3    H1 2735   2.301   4.150   2.294 -1.4414 -0.4791  0.0008
  930TIP3    H2 2736   2.170   4.224   2.283 -0.5743  1.5927  2.6000
  931TIP3   OH2 2737   6.845   1.701   0.561  0.3363 -0.1807  0.8219
  931TIP3    H1 2738   6.814   1.790   0.580 -0.9613 -0.9173  2.3682
  931TIP3    H2 2739   6.902   1.712   0.485  0.1827  1.9653  0.9435
  932TIP3   OH2 2740   5.961   1.122   5.455  0.3519  0.5265 -0.6262
  932TIP3    H1 2741   5.982   1.174   5.532 -0.0056  0.9649 -0.8181
  932TIP3    H2 2742   6.023   1.152   5.388  1.9071 -1.1443 -0.0142
  933TIP3   OH2 2743   3.432   3.815   5.106 -0.8718 -0.2897  0.2361
  933TIP3    H1 2744   3.461   3.863   5.028 -0.9688  0.6270  0.7615
  933TIP3    H2 2745   3.512   3.792   5.152 -0.8701  0.3731  0.5741
  934TIP3   OH2 2746   0.203   1.281   1.221  0.0416 -0.4478  0.1827
  934TIP3    H1 2747   0.168   1.341   1.288  0.6182 -1.7690  1.7508
  934TIP3    H2 2748   0.150   1.299   1.143  0.5304  2.4284  0.3835
  935TIP3   OH2 2749   3.222   3.298   6.788  0.1298  0.1637 -0.0924
  935TIP3    H1 2750   3.140   3.282   6.741 -0.5232 -1.4218  1.4635
  935TIP3    H2 2751   3.244   3.389   6.767 -2.3691  0.8641 -0.0713
  936TIP3   OH2 2752   2.726   2.490   0.386 -0.0657  0.0659 -0.0887
  936TIP3    H1 2753   2.803   2.484   0.330 -0.7675 -0.1157 -1.0647
  936TIP3    H2 2754   2.658   2.443   0.338 -0.4501 -0.9371  1.3754
  937TIP3   OH2 2755   0.157   3.951   0.307 -0.1377  0.3084 -0.2858
  937TIP3    H1 2756   0.106   3.963   0.388 -0.2451  3.3182 -0.6799
  937TIP3    H2 2757   0.108   3.886   0.257 -1.0824 -0.2396  1.2765
  938TIP3   OH2 2758   1.813   2.288   0.220 -0.4011 -0.4221  0.0532
  938TIP3    H1 2759   1.741   2.227   0.233 -0.2447 -0.6171 -0.0051
  938TIP3    H2 2760   1.839   2.315   0.309  1.7563 -2.9985  0.3240
  939TIP3   OH2 2761   0.369   2.641   3.757  0.3528 -0.0470 -0.1437
  939TIP3    H1 2762   0.456   2.670   3.783 -0.5399  2.2152  0.5872
  939TIP3    H2 2763   0.320   2.635   3.840  0.1993 -2.9784 -0.3344
  940TIP3   OH2 2764   4.330   3.209   1.980  0.1927 -0.0352 -0.3986
  940TIP3    H1 2765   4.351   3.121   1.950 -2.0099 -1.6064  2.1487
  940TIP3    H2 2766   4.343   3.206   2.075  3.1704  3.4487 -0.4692
  941TIP3   OH2 2767   3.957   1.010   5.732  0.6090  0.0249 -0.0827
  941TIP3    H1 2768   4.045   1.025   5.697  1.3117 -0.1364  1.5342
  941TIP3    H2 2769   3.971   0.967   5.816 -1.0725 -1.5921 -0.5314
  942TIP3   OH2 2770   2.493   7.486   1.322 -0.5149 -0.1933  0.4793
  942TIP3    H1 2771   2.482   7.442   1.407 -0.3376 -0.4432  0.3742
  942TIP3    H2 2772   2.514   7.577   1.344  1.1834 -0.6071  0.7416
  943TIP3   OH2 2773   6.455   1.388   5.706 -0.1716  0.2386 -0.3531
  943TIP3    H1 2774   6.415   1.462   5.660 -0.0367  0.2970 -0.3783
  943TIP3    H2 2775   6.548   1.396   5.685  0.2777  1.6682  1.8725
  944TIP3   OH2 2776  -0.008   4.401   6.700 -0.0052  0.2573  0.7915
  944TIP3    H1 2777   0.088   4.398   6.704 -0.0247 -0.9262  0.7270
  944TIP3    H2 2778  -0.035   4.313   6.724 -1.0893  0.5705  0.7521
  945TIP3   OH2 2779   4.840   1.997   1.995 -0.7155 -0.0515  0.3490
  945TIP3    H1 2780   4.848   1.908   2.030  0.9779  0.1187  0.4700
  945TIP3    H2 2781   4.814   2.050   2.070 -0.5150 -0.2514  0.5603
  946TIP3   OH2 2782   5.678   7.301   6.206 -0.4078 -0.3987  0.0728
  946TIP3    H1 2783   5.687   7.206   6.214 -0.9263 -0.6592 -1.8565
  946TIP3    H2 2784   5.679   7.333   6.296  1.9720 -1.9944  0.7017
  947TIP3   OH2 2785   5.496   5.037   2.281  0.3098  0.2462  0.1728
  947TIP3    H1 2786   5.458   4.977   2.217  1.8510  1.0017 -1.5400
  947TIP3    H2 2787   5.472   5.124   2.250  2.0355  0.6738 -0.0578
  948TIP3   OH2 2788   6.896   5.094   1.956  0.0800  0.5058 -0.2431
  948TIP3    H1 2789   6.815   5.126   1.995  1.2536  0.6979  2.1690
  948TIP3    H2 2790   6.944   5.173   1.930 -1.2823  0.3965 -3.6617
  949TIP3   OH2 2791   7.953   4.376   3.779 -0.5010  0.3201 -0.1605
  949TIP3    H1 2792   7.935   4.365   3.872  2.0105 -0.2023  0.3292
  949TIP3    H2 2793   7.888   4.441   3.750  0.4409  2.7211  2.6134
  950TIP3   OH2 2794   8.134   0.575   3.947 -0.3402 -0.5194  0.0035
  950TIP3    H1 2795   8.134   0.639   4.019  0.6009  0.7021 -1.0204
  950TIP3    H2 2796   8.188   0.503   3.980  0.4906  0.2422  0.3766
  951TIP3   OH2 2797   4.473   5.409   0.281 -0.2115 -0.1581 -0.1459
  951TIP3    H1 2798   4.438   5.484   0.233 -0.2805  0.4712  0.8655
  951TIP3    H2 2799   4.459   5.334   0.222 -1.3529  0.4001 -0.6164
  952TIP3   OH2 2800   5.281   5.167   0.836  0.2536 -0.3598 -0.2561
  952TIP3    H1 2801   5.361   5.170   0.784 -0.4602 -0.8366 -1.4331
  952TIP3    H2 2802   5.234   5.247   0.814  0.6951  0.2648  0.9619
  953TIP3   OH2 2803   6.015   7.385   5.787  0.0261  0.1219  0.2679
  953TIP3    H1 2804   5.981   7.414   5.702  0.2961  0.4577  0.2688
  953TIP3    H2 2805   6.091   7.331   5.765  0.6569  0.9623  0.3080
  954TIP3   OH2 2806   1.401   6.767   4.970  0.0374 -0.5253  0.1841
  954TIP3    H1 2807   1.380   6.690   5.024  0.0636 -1.0067 -0.4790
  954TIP3    H2 2808   1.342   6.835   5.002  0.1804 -0.7451  0.9430
  955TIP3   OH2 2809   1.760   6.040   3.231  0.3624  0.5928  0.8384
  955TIP3    H1 2810   1.741   6.092   3.153  0.1175  0.3876  0.7613
  955TIP3    H2 2811   1.786   6.105   3.297  2.9948  0.5892 -0.1029
  956TIP3   OH2 2812   1.813   4.044   6.667 -0.4403 -0.2161  0.1259
  956TIP3    H1 2813   1.905   4.067   6.675 -0.6688  1.0304 -0.5887
  956TIP3    H2 2814   1.776   4.066   6.753 -0.2097 -0.0675  0.1893
  957TIP3   OH2 2815   1.843   2.930   6.379  0.1594 -0.0747 -0.3838
  957TIP3    H1 2816   1.848   2.863   6.448 -0.8842 -1.2498 -1.3947
  957TIP3    H2 2817   1.799   2.886   6.306 -1.6022  2.0403 -0.6926
  958TIP3   OH2 2818   0.427   3.364   5.124 -0.5537 -0.0391 -0.2597
  958TIP3    H1 2819   0.436   3.359   5.219  0.2591 -0.0131 -0.3230
  958TIP3    H2 2820   0.499   3.309   5.091 -0.9932 -0.2659 -0.8557
  959TIP3   OH2 2821   0.224   4.415   6.438 -0.0401 -0.1101 -0.1877
  959TIP3    H1 2822   0.270   4.495   6.464  0.6753 -0.3580 -0.6486
  959TIP3    H2 2823   0.137   4.423   6.478  0.8845 -0.3442  2.0236
  960TIP3   OH2 2824   0.545   4.874   0.748 -0.4715  0.0773  0.4358
  960TIP3    H1 2825   0.586   4.955   0.778  1.5536 -0.4023 -0.8898
  960TIP3    H2 2826   0.520   4.829   0.829  2.0320  0.2110  1.3686
  961TIP3   OH2 2827   4.249   5.084   2.919  0.4965 -0.3443  0.0148
  961TIP3    H1 2828   4.173   5.133   2.950  0.7440  1.3275 -1.8398
  961TIP3    H2 2829   4.215   5.024   2.853  0.9781  2.5625 -3.1674
  962TIP3   OH2 2830   0.381   3.177   5.950  0.3688 -0.0691  0.4684
  962TIP3    H1 2831   0.469   3.212   5.936 -0.7305  2.6233 -0.5269
  962TIP3    H2 2832   0.372   3.172   6.045  1.3278  0.3561  0.6000
  963TIP3   OH2 2833   1.188   0.188   6.338 -0.0448 -0.0809 -0.1564
  963TIP3    H1 2834   1.153   0.275   6.321  1.2227  0.4523 -0.0676
  963TIP3    H2 2835   1.203   0.185   6.432  0.5360 -0.1654 -0.2509
  964TIP3   OH2 2836   7.876   6.144   0.366  0.2049  0.0685 -0.1097
  964TIP3    H1 2837   7.895   6.233   0.398 -2.9585  0.7452  0.2572
  964TIP3    H2 2838   7.906   6.087   0.437 -0.6901  1.1008  1.1525
  965TIP3   OH2 2839   8.184   7.248   2.485  0.3197 -0.0231  0.3262
  965TIP3    H1 2840   8.147   7.335   2.496  0.9621  0.1849  0.9324
  965TIP3    H2 2841   8.161   7.223   2.396  1.6909  1.5342 -0.5246
  966TIP3   OH2 2842   3.987   2.783   1.286 -0.2495  0.1456 -0.9577
  966TIP3    H1 2843   3.912   2.823   1.243 -0.5906  0.2481 -0.2881
  966TIP3    H2 2844   4.024   2.853   1.340 -1.7797 -0.7506  1.4451
  967TIP3   OH2 2845   5.486   4.677   2.386  0.2585 -0.8058  0.3382
  967TIP3    H1 2846   5.413   4.723   2.427 -0.9172 -2.1210 -0.2053
  967TIP3    H2 2847   5.543   4.653   2.458 -0.0894 -0.2106  0.8231
  968TIP3   OH2 2848   3.572   4.918   3.579  0.7674  0.7064  0.1118
  968TIP3    H1 2849   3.533   4.836   3.608 -0.6031  1.1125 -0.5364
  968TIP3    H2 2850   3.560   4.919   3.485  0.4732  1.8023  0.1483
  969TIP3   OH2 2851   6.975   4.791   6.028 -0.4255  0.0886 -0.0872
  969TIP3    H1 2852   6.924   4.737   5.967  0.7959 -2.2075  0.8210
  969TIP3    H2 2853   6.909   4.833   6.083 -1.4589  0.4847 -1.5446
  970TIP3   OH2 2854   3.979   7.423   6.621  0.0719  0.1308  0.1654
  970TIP3    H1 2855   3.891   7.387   6.613 -0.0479  0.4499  0.0496
  970TIP3    H2 2856   4.028   7.383   6.549 -0.1301  0.3948 -0.1231
  971TIP3   OH2 2857   4.754   3.868   1.740  0.4076 -0.0366 -0.0277
  971TIP3    H1 2858   4.802   3.867   1.823 -1.1723  0.7161  0.9445
  971TIP3    H2 2859   4.786   3.946   1.695 -0.2787  0.7754  0.8617
  972TIP3   OH2 2860   5.704   7.480   0.301  0.2665 -0.5052  0.0981
  972TIP3    H1 2861   5.621   7.486   0.254 -0.3776  0.9776  1.3331
  972TIP3    H2 2862   5.733   7.390   0.288 -2.1778 -1.4551  0.6912
  973TIP3   OH2 2863   3.462   7.175   1.467 -0.0796  1.0767 -1.0447
  973TIP3    H1 2864   3.535   7.194   1.525  1.1918  0.3480 -2.3649
  973TIP3    H2 2865   3.403   7.250   1.478  0.0167  0.8952  1.2690
  974TIP3   OH2 2866   0.845   2.415   3.189  0.4436 -0.1025  0.3973
  974TIP3    H1 2867   0.864   2.335   3.140  1.4786  0.5836 -0.3441
  974TIP3    H2 2868   0.813   2.477   3.123  2.5621  1.0756  0.3957
  975TIP3   OH2 2869   1.436   5.613   1.709 -0.1518  0.7315  0.2664
  975TIP3    H1 2870   1.497   5.615   1.782 -0.6937  0.2552  0.7490
  975TIP3    H2 2871   1.480   5.561   1.642  1.0743  2.6192 -0.4363
  976TIP3   OH2 2872   0.101   0.431   4.943  0.1211  0.3122  0.4104
  976TIP3    H1 2873   0.175   0.446   5.002  1.5445 -0.9594 -0.9661
  976TIP3    H2 2874   0.124   0.351   4.895 -2.5730 -0.6407  0.5465
  977TIP3   OH2 2875   2.301   1.298   2.191  0.5233 -0.0136  0.0279
  977TIP3    H1 2876   2.271   1.294   2.282  1.4878  2.1590  0.5185
  977TIP3    H2 2877   2.366   1.229   2.183  0.3711 -0.2704  0.9748
  978TIP3   OH2 2878   2.727   0.076   4.401 -0.1519  0.7675 -0.0019
  978TIP3    H1 2879   2.727   0.156   4.454  2.2473  0.0116  1.2447
  978TIP3    H2 2880   2.810   0.033   4.421 -1.4191 -2.1482 -0.5330
  979TIP3   OH2 2881   5.812   6.689   0.215  0.2163  0.1202  0.0665
  979TIP3    H1 2882   5.724   6.652   0.209 -0.2270  0.9215  1.1662
  979TIP3    H2 2883   5.806   6.772   0.168  1.3610 -1.3377 -2.9117
  980TIP3   OH2 2884   2.526   5.183   0.836  0.0968 -0.1146  0.0890
  980TIP3    H1 2885   2.443   5.189   0.789  0.3573 -0.6218 -0.4509
  980TIP3    H2 2886   2.590   5.162   0.768  0.5478 -0.4367  0.6066
  981TIP3   OH2 2887   0.333   1.898   4.278  0.2817 -0.1529  0.4646
  981TIP3    H1 2888   0.381   1.870   4.200 -0.0285 -0.0021  0.2200
  981TIP3    H2 2889   0.320   1.818   4.329  1.2675 -0.1155  0.7965
  982TIP3   OH2 2890   5.065   3.756   1.248 -0.0690  0.6547 -0.1812
  982TIP3    H1 2891   4.989   3.745   1.305  1.3203 -1.2751  1.4006
  982TIP3    H2 2892   5.027   3.773   1.161 -2.2469  1.5734  0.8712
  983TIP3   OH2 2893   0.474   1.872   1.284  0.1834  0.0150  0.4576
  983TIP3    H1 2894   0.397   1.853   1.231  1.2089  0.9916 -1.4768
  983TIP3    H2 2895   0.486   1.794   1.337 -1.7984 -0.3746  0.4302
  984TIP3   OH2 2896   8.162   4.534   6.147 -0.3107  0.7138  0.0669
  984TIP3    H1 2897   8.182   4.604   6.209 -0.4275 -0.0877  1.0383
  984TIP3    H2 2898   8.072   4.551   6.120 -0.3334  0.9477  0.2816
  985TIP3   OH2 2899   6.833   3.772   4.951  1.0157  0.1890  0.0877
  985TIP3    H1 2900   6.779   3.802   5.024  0.6251  0.0007 -0.1194
  985TIP3    H2 2901   6.877   3.694   4.985  0.6440 -0.0436  0.0458
  986TIP3   OH2 2902   6.978   1.331   3.531 -1.0593  0.2581  0.0329
  986TIP3    H1 2903   7.069   1.346   3.507 -1.1934 -0.6064 -1.0895
  986TIP3    H2 2904   6.982   1.300   3.621 -0.3596  1.4322  0.4274
  987TIP3   OH2 2905   3.808   1.259   0.194 -0.0779  0.0330 -0.1874
  987TIP3    H1 2906   3.725   1.216   0.176 -1.6218  2.7303 -0.0727
  987TIP3    H2 2907   3.852   1.202   0.257 -0.9178 -2.4342 -1.7205
  988TIP3   OH2 2908   7.427   3.008   5.891 -0.2621  0.5194  0.4600
  988TIP3    H1 2909   7.420   2.917   5.921  1.8873 -0.2118 -1.0712
  988TIP3    H2 2910   7.337   3.032   5.870 -0.7820 -1.6003 -0.0419
  989TIP3   OH2 2911   7.402   6.797   6.222 -0.2399  0.2724 -0.1612
  989TIP3    H1 2912   7.454   6.756   6.153 -0.0179  0.9062 -0.3854
  989TIP3    H2 2913   7.379   6.883   6.186  0.0550  0.6929  0.6391
  990TIP3   OH2 2914   6.437   2.816   0.337  0.2284 -0.0004  0.5948
  990TIP3    H1 2915   6.397   2.731   0.355 -1.1069  0.3472 -0.5711
  990TIP3    H2 2916   6.502   2.798   0.269  0.8579 -0.2675  1.2437
  991TIP3   OH2 2917   5.014   4.932   6.523 -0.6084  0.4315  0.3070
  991TIP3    H1 2918   4.982   4.965   6.438  0.0319 -1.4001 -0.6926
  991TIP3    H2 2919   5.007   5.008   6.581  2.0992  2.8481 -2.1501
  992TIP3   OH2 2920   3.330   0.563   2.317 -0.2234  0.4809 -0.0941
  992TIP3    H1 2921   3.286   0.539   2.398 -0.6508  2.2801  0.2490
  992TIP3    H2 2922   3.273   0.530   2.248  0.1286 -1.0336  0.3092
  993TIP3   OH2 2923   0.882   7.524   3.932 -0.0826 -0.1030 -0.0829
  993TIP3    H1 2924   0.955   7.549   3.875 -0.6751 -1.2746 -1.4012
  993TIP3    H2 2925   0.806   7.522   3.874 -0.7580 -1.0837  0.8074
  994TIP3   OH2 2926   5.307   3.324   3.434 -0.0394  0.0885  0.2744
  994TIP3    H1 2927   5.294   3.258   3.502 -1.5312  0.9738  0.9200
  994TIP3    H2 2928   5.272   3.285   3.355 -1.7710  0.3860  0.8444
  995TIP3   OH2 2929   0.791   3.552   2.667 -0.4487 -0.7771 -0.3323
  995TIP3    H1 2930   0.744   3.539   2.586 -0.7977  0.1788 -0.2918
  995TIP3    H2 2931   0.730   3.599   2.724  0.1804 -0.4229  0.0739
  996TIP3   OH2 2932   0.172   1.412   0.359 -0.0272 -1.3640 -0.4856
  996TIP3    H1 2933   0.181   1.473   0.286  2.1660 -1.3677 -0.2773
  996TIP3    H2 2934   0.239   1.440   0.422 -0.0700 -2.9982  0.3395
  997TIP3   OH2 2935   0.893   0.475   0.212  0.4848  0.0668 -0.2915
  997TIP3    H1 2936   0.919   0.431   0.131 -0.5176  0.6848 -0.9669
  997TIP3    H2 2937   0.973   0.475   0.265  1.2064 -0.2009 -1.3310
  998TIP3   OH2 2938   3.286   1.832   4.399 -0.0749 -0.1712 -0.5098
  998TIP3    H1 2939   3.234   1.753   4.415  1.2485 -0.7423  1.4306
  998TIP3    H2 2940   3.266   1.890   4.473  0.9212  0.1893 -0.5059
  999TIP3   OH2 2941   2.716   7.033   4.411 -0.2655 -0.4762 -0.1890
  999TIP3    H1 2942   2.638   7.066   4.367  0.0768 -0.7723 -1.0333
  999TIP3    H2 2943   2.695   7.040   4.504 -1.1032 -0.0867 -0.3935
 1000TIP3   OH2 2944   4.061   2.864   6.765  0.7186  0.0526 -0.0632
 1000TIP3    H1 2945   3.970   2.889   6.749  0.5748 -0.9815 -0.9809
 1000TIP3    H2 2946   4.055   2.774   6.797  1.4543 -0.2415 -0.7428
 1001TIP3   OH2 2947   8.131   6.197   4.252 -0.2571  0.2765  0.1217
 1001TIP3    H1 2948   8.124   6.142   4.330 -3.7659 -0.8680 -0.8171
 1001TIP3    H2 2949   8.119   6.137   4.179 -1.4268  1.8727 -1.0725
 1002TIP3   OH2 2950   5.525   2.740   5.070  0.0523  0.3010  0.7756
 1002TIP3    H1 2951   5.510   2.677   5.000 -1.2212 -0.2160  1.4865
 1002TIP3    H2 2952   5.563   2.688   5.141  2.5121  1.0329  0.1147
 1003TIP3   OH2 2953   2.118   3.366   5.119  0.4038  0.6115 -0.1700
 1003TIP3    H1 2954   2.142   3.355   5.027  0.4853 -0.8312  0.0030
 1003TIP3    H2 2955   2.145   3.284   5.160 -0.0170  1.0783  1.0589
 1004TIP3   OH2 2956   7.079   5.492   0.094 -0.1423  0.1743 -0.0517
 1004TIP3    H1 2957   7.137   5.437   0.146  0.9598  1.4966  0.2010
 1004TIP3    H2 2958   7.043   5.434   0.027  0.7127 -0.9020  0.3945
 1005TIP3   OH2 2959   4.085   3.844   5.827  0.2405  0.1258 -0.0824
 1005TIP3    H1 2960   4.123   3.847   5.915  0.6904  0.5075 -0.2843
 1005TIP3    H2 2961   4.043   3.758   5.822  1.7134 -0.6234 -0.1098
 1006TIP3   OH2 2962   3.496   4.481   2.167  0.1498  0.1100  0.3403
 1006TIP3    H1 2963   3.514   4.478   2.073  0.2318  1.4796  0.2935
 1006TIP3    H2 2964   3.581   4.463   2.208  0.1685 -0.2238  0.1614
 1007TIP3   OH2 2965   1.267   1.116   0.332  0.6910  0.4430 -0.0855
 1007TIP3    H1 2966   1.187   1.090   0.378 -0.2453  1.1385 -1.2562
 1007TIP3    H2 2967   1.335   1.060   0.369 -0.8670 -2.4019 -1.1707
 1008TIP3   OH2 2968   7.894   4.892   4.759  0.0929  0.3915 -0.0415
 1008TIP3    H1 2969   7.894   4.901   4.854  0.5111  1.2457 -0.1183
 1008TIP3    H2 2970   7.932   4.973   4.726 -1.3801  0.7403 -1.0016
 1009TIP3   OH2 2971   7.400   4.411   2.444  0.0592 -0.0957 -0.2361
 1009TIP3    H1 2972   7.409   4.397   2.538 -0.3714 -0.9866 -0.3178
 1009TIP3    H2 2973   7.341   4.486   2.436 -0.8853 -0.7822  0.1918
 1010TIP3   OH2 2974   2.696   0.590   2.917 -0.0243  0.3141 -0.1672
 1010TIP3    H1 2975   2.627   0.569   2.980 -0.7096  1.2089 -0.5948
 1010TIP3    H2 2976   2.651   0.597   2.833  0.7396 -0.0091 -0.6159
 1011TIP3   OH2 2977   3.519   4.461   1.914  0.2891  0.0951 -0.4703
 1011TIP3    H1 2978   3.594   4.492   1.862  0.0362  1.5411 -0.0140
 1011TIP3    H2 2979   3.442   4.488   1.864  0.0015 -2.2596 -1.4495
 1012TIP3   OH2 2980   2.039   6.766   4.963 -0.0770 -0.3380 -0.0482
 1012TIP3    H1 2981   2.111   6.746   5.022 -0.8091 -0.7804  0.7232
 1012TIP3    H2 2982   2.028   6.688   4.909  1.1954  0.4008 -1.4585
 1013TIP3   OH2 2983   4.151   4.429   1.735  0.4046  0.2328  0.3850
 1013TIP3    H1 2984   4.143   4.344   1.780 -0.3604  0.3565  0.4832
 1013TIP3    H2 2985   4.114   4.413   1.648 -1.1638  0.8512  0.9051
 1014TIP3   OH2 2986   7.205   6.933   1.211  0.2470 -0.0766  0.0161
 1014TIP3    H1 2987   7.261   6.962   1.283 -1.0360 -0.0255  1.0193
 1014TIP3    H2 2988   7.249   6.856   1.176  1.4115  0.4922  0.1764
 1015TIP3   OH2 2989   3.186   0.925   6.611 -0.4758  0.3619  0.3759
 1015TIP3    H1 2990   3.151   0.898   6.526  0.2188  0.2196  0.1274
 1015TIP3    H2 2991   3.279   0.942   6.594 -0.0459 -0.8944  1.3745
 1016TIP3   OH2 2992   4.924   0.386   5.144 -0.0252 -0.2401 -0.3338
 1016TIP3    H1 2993   4.968   0.323   5.202 -1.6985  0.4480  1.8272
 1016TIP3    H2 2994   4.830   0.367   5.155 -0.4876  1.4231 -1.0494
 1017TIP3   OH2 2995   1.121   1.338   3.515  0.7858  0.1878 -0.0599
 1017TIP3    H1 2996   1.107   1.420   3.469 -0.6955  0.7625  1.3220
 1017TIP3    H2 2997   1.145   1.364   3.604  0.6704 -0.8777  0.3024
 1018TIP3   OH2 2998   5.317   3.449   1.218 -0.3663  0.3122  0.1307
 1018TIP3    H1 2999   5.233   3.428   1.179 -1.0050  0.7138  1.2355
 1018TIP3    H2 3000   5.365   3.367   1.218 -0.5687  0.1862 -0.9447
 1019TIP3   OH2 3001   1.967   2.357   5.781  0.2595  0.6116 -0.0414
 1019TIP3    H1 3002   1.987   2.399   5.698  0.9697  0.9665  0.2981
 1019TIP3    H2 3003   2.030   2.394   5.843 -0.8741  1.0629  0.8713
 1020TIP3   OH2 3004   3.676   4.316   2.826  0.4610 -0.0682  0.4619
 1020TIP3    H1 3005   3.624   4.236   2.821  1.2142 -0.5203 -0.5534
 1020TIP3    H2 3006   3.756   4.296   2.777  1.4586  0.7193  1.7181
 1021TIP3   OH2 3007   1.039   4.474   2.235 -0.0581  0.0161  0.2644
 1021TIP3    H1 3008   1.121   4.473   2.285  0.0404  0.0410  0.1083
 1021TIP3    H2 3009   1.049   4.402   2.172 -0.3979 -0.3424  0.6197
 1022TIP3   OH2 3010   1.472   2.223   4.481  0.4511 -0.1187  0.2527
 1022TIP3    H1 3011   1.415   2.210   4.406  1.5251 -0.1749 -0.5750
 1022TIP3    H2 3012   1.492   2.317   4.480  0.2627 -0.0729  0.6242
 1023TIP3   OH2 3013   7.528   0.114   0.260  0.2794 -0.0955 -0.1766
 1023TIP3    H1 3014   7.544   0.022   0.285 -1.7380  0.3420  3.4014
 1023TIP3    H2 3015   7.613   0.157   0.273  0.4056 -0.8251  1.8825
 1024TIP3   OH2 3016   3.646   2.672   5.034 -0.0064 -0.1389  0.3610
 1024TIP3    H1 3017   3.634   2.694   4.941  0.7691 -2.4086 -0.3290
 1024TIP3    H2 3018   3.725   2.720   5.059  0.1913 -0.0747 -0.3512
 1025TIP3   OH2 3019   3.407   3.198   0.706 -0.3292  0.0043  0.0512
 1025TIP3    H1 3020   3.441   3.149   0.632 -0.1149 -1.1168  0.8620
 1025TIP3    H2 3021   3.408   3.135   0.779 -1.9544  0.6122  0.6464
 1026TIP3   OH2 3022   4.977   5.935   0.802  0.1703  0.1226 -0.1412
 1026TIP3    H1 3023   4.998   5.949   0.894 -0.0081 -0.8370  0.0537
 1026TIP3    H2 3024   5.003   6.016   0.759 -0.5306  0.9237  0.8828
 1027TIP3   OH2 3025   0.525   6.768   6.152 -0.6519 -0.7314  0.6055
 1027TIP3    H1 3026   0.459   6.804   6.211 -1.6687  2.2593 -2.1266
 1027TIP3    H2 3027   0.607   6.809   6.179 -1.0689  0.4366  0.1290
 1028TIP3   OH2 3028   4.962   2.832   0.063  0.4675  0.6564 -0.0987
 1028TIP3    H1 3029   4.975   2.739   0.049 -0.4074  0.6806 -1.1506
 1028TIP3    H2 3030   4.987   2.846   0.154 -0.2723 -0.7723  0.3562
 1029TIP3   OH2 3031   5.580   6.434   1.795 -0.4917 -0.2384 -0.3457
 1029TIP3    H1 3032   5.654   6.481   1.755 -0.8484  1.9252  1.3477
 1029TIP3    H2 3033   5.530   6.401   1.721 -1.6043  4.3200 -1.9486
 1030TIP3   OH2 3034   6.754   1.537   4.832  0.6636 -0.1110 -0.0254
 1030TIP3    H1 3035   6.738   1.465   4.771 -0.5139  0.2966 -0.2291
 1030TIP3    H2 3036   6.806   1.499   4.902 -0.1029 -1.2122 -0.0392
 1031TIP3   OH2 3037   3.667   3.940   1.143 -0.4535  0.0216  0.1667
 1031TIP3    H1 3038   3.617   3.947   1.062  0.8108 -2.8400 -1.0224
 1031TIP3    H2 3039   3.758   3.951   1.115  0.0028 -1.0517  1.1378
 1032TIP3   OH2 3040   3.960   2.629   4.752  0.3291  0.1659 -0.3547
 1032TIP3    H1 3041   3.938   2.721   4.768  1.1636  0.4395 -0.7632
 1032TIP3    H2 3042   3.956   2.619   4.656 -0.5156 -0.4233 -0.2759
 1033TIP3   OH2 3043   6.359   1.588   1.168 -0.9145 -0.3505  0.5202
 1033TIP3    H1 3044   6.270   1.618   1.186 -1.8702 -1.1095 -2.2759
 1033TIP3    H2 3045   6.358   1.495   1.191 -0.5554 -0.1672  1.2991
 1034TIP3   OH2 3046   5.676   4.016   3.628  0.5107  0.1663  0.5084
 1034TIP3    H1 3047   5.629   4.080   3.575 -0.2661 -0.9571 -0.2091
 1034TIP3    H2 3048   5.746   3.985   3.570  0.0347 -0.6176  0.3334
 1035TIP3   OH2 3049   1.605   1.378   0.817 -0.0765 -0.1288  0.1039
 1035TIP3    H1 3050   1.671   1.440   0.788  1.7003 -1.8535  0.1963
 1035TIP3    H2 3051   1.525   1.404   0.771  0.7106  1.8657 -0.2369
 1036TIP3   OH2 3052   5.732   2.330   1.114 -0.5941 -0.5968 -0.0805
 1036TIP3    H1 3053   5.683   2.395   1.063 -0.0503 -1.3957 -1.6981
 1036TIP3    H2 3054   5.824   2.347   1.092 -0.2133 -0.0387  1.8007
 1037TIP3   OH2 3055   6.866   5.373   2.875 -0.4653  0.8249 -0.0302
 1037TIP3    H1 3056   6.867   5.310   2.804  4.5826  0.8492 -0.3234
 1037TIP3    H2 3057   6.863   5.458   2.831  1.4644  0.8149 -0.2703
 1038TIP3   OH2 3058   2.795   3.469   2.155 -0.0168  0.4747  0.0936
 1038TIP3    H1 3059   2.732   3.429   2.215 -0.3597  1.8526  0.6905
 1038TIP3    H2 3060   2.876   3.420   2.169 -0.0854  0.7573  1.7008
 1039TIP3   OH2 3061   3.195   5.462   3.863  0.1068  0.1524  0.1005
 1039TIP3    H1 3062   3.267   5.404   3.887  0.3677  0.2075 -0.5211
 1039TIP3    H2 3063   3.146   5.413   3.797 -0.2931  0.2118  0.3486
 1040TIP3   OH2 3064   6.621   5.871   1.211 -0.2981 -0.0266 -0.1143
 1040TIP3    H1 3065   6.692   5.845   1.152  0.2035  1.1876 -0.0592
 1040TIP3    H2 3066   6.666   5.907   1.288 -0.9451 -1.3291  0.9169
 1041TIP3   OH2 3067   7.819   3.789   1.416  0.1151 -0.5989 -0.0794
 1041TIP3    H1 3068   7.804   3.793   1.511  0.4418  0.1228 -0.0548
 1041TIP3    H2 3069   7.738   3.752   1.381  0.0266 -0.9627  0.4883
 1042TIP3   OH2 3070   1.412   5.710   0.016 -0.1148  0.5160  0.2438
 1042TIP3    H1 3071   1.478   5.671   0.073  0.8121 -0.5919 -1.4951
 1042TIP3    H2 3072   1.457   5.785  -0.024  0.2790 -0.5030 -1.2771
 1043TIP3   OH2 3073   4.451   2.557   3.762  0.1708 -0.0872  0.1346
 1043TIP3    H1 3074   4.361   2.535   3.786 -0.0882  2.5569  1.9831
 1043TIP3    H2 3075   4.491   2.585   3.844  1.8640  1.3678 -1.1153
 1044TIP3   OH2 3076   1.824   2.174   1.766 -0.2117  0.2925  0.1730
 1044TIP3    H1 3077   1.810   2.259   1.807 -0.3983  0.4476 -0.2054
 1044TIP3    H2 3078   1.745   2.159   1.714  0.5094  0.6375 -1.0505
 1045TIP3   OH2 3079   3.408   1.716   2.574 -0.2735 -0.3882 -0.7075
 1045TIP3    H1 3080   3.488   1.723   2.626 -0.2193 -1.4986 -0.6177
 1045TIP3    H2 3081   3.426   1.768   2.495 -0.1164  0.7808  0.0609
 1046TIP3   OH2 3082   7.650   2.033   2.545 -0.7002 -0.0853  0.0052
 1046TIP3    H1 3083   7.744   2.047   2.533 -0.4806 -0.6441  1.0277
 1046TIP3    H2 3084   7.627   2.087   2.621 -1.1626 -0.1423 -0.0903
 1047TIP3   OH2 3085   5.340   3.139   4.779  0.0649 -0.6312 -0.1489
 1047TIP3    H1 3086   5.416   3.166   4.831 -0.3603  1.6270 -0.6117
 1047TIP3    H2 3087   5.338   3.200   4.705 -1.3933 -1.5275 -0.8952
 1048TIP3   OH2 3088   5.131   5.729   6.007 -0.0715 -0.8753 -0.2950
 1048TIP3    H1 3089   5.150   5.655   5.949 -1.3587 -1.3150 -0.1935
 1048TIP3    H2 3090   5.136   5.806   5.951 -0.1401 -1.1845 -0.7297
 1049TIP3   OH2 3091   0.519   7.750   2.860 -0.3032  0.1281  0.0719
 1049TIP3    H1 3092   0.479   7.664   2.873 -1.7746  0.7991  0.1622
 1049TIP3    H2 3093   0.592   7.752   2.922 -0.1767 -1.0904 -0.0128
 1050TIP3   OH2 3094   6.318   2.708   4.411  0.1527  0.3801  0.1314
 1050TIP3    H1 3095   6.391   2.739   4.464  0.6796 -0.2223 -0.2301
 1050TIP3    H2 3096   6.358   2.659   4.340 -0.6112 -0.2649  0.1233
 1051TIP3   OH2 3097   8.269   1.897   1.630  0.3547  0.0488 -0.3251
 1051TIP3    H1 3098   8.265   1.922   1.538 -1.4305 -1.3855 -0.6850
 1051TIP3    H2 3099   8.213   1.820   1.637 -0.2916  0.6491  2.1427
 1052TIP3   OH2 3100   7.090   2.563   3.669  0.0904  0.5733  0.0597
 1052TIP3    H1 3101   7.170   2.517   3.694  1.0118  1.8768 -0.3955
 1052TIP3    H2 3102   7.044   2.578   3.751 -0.5452 -1.6586  0.1643
 1053TIP3   OH2 3103   3.791   1.735   3.656  0.1731  0.2020  0.2882
 1053TIP3    H1 3104   3.860   1.746   3.591  0.2077  0.3689  0.3518
 1053TIP3    H2 3105   3.761   1.645   3.645  1.3570 -0.3387  1.1920
 1054TIP3   OH2 3106   4.146   6.357   0.174 -0.0526 -0.2625  0.3403
 1054TIP3    H1 3107   4.105   6.389   0.253  0.2384 -0.1120  0.4325
 1054TIP3    H2 3108   4.081   6.371   0.105 -0.5010 -0.8598  0.6356
 1055TIP3   OH2 3109   4.044   3.087   6.330 -0.3249 -0.4025 -0.1638
 1055TIP3    H1 3110   4.123   3.038   6.352  0.5825  0.2934 -1.7639
 1055TIP3    H2 3111   3.973   3.035   6.367  0.8272 -1.2658  0.9283
 1056TIP3   OH2 3112   5.800   5.875   3.589 -0.4730 -0.6537  0.3808
 1056TIP3    H1 3113   5.759   5.879   3.503  0.2184 -1.1700  0.0133
 1056TIP3    H2 3114   5.882   5.924   3.579 -0.1652 -1.1191  0.6097
 1057TIP3   OH2 3115   5.875   4.299   2.662 -0.5925  0.9786  0.0677
 1057TIP3    H1 3116   5.852   4.366   2.727 -1.9149 -0.2628  0.9309
 1057TIP3    H2 3117   5.804   4.235   2.667  1.0260 -0.9191 -0.1745
 1058TIP3   OH2 3118   4.192   2.449   3.838 -0.0362 -0.1097  0.0188
 1058TIP3    H1 3119   4.109   2.401   3.838 -0.8654  1.2507  0.8276
 1058TIP3    H2 3120   4.198   2.487   3.925 -0.5442  3.0188 -1.1710
 1059TIP3   OH2 3121   4.638   7.401   0.188 -0.0025 -0.4730 -0.5422
 1059TIP3    H1 3122   4.672   7.447   0.111  1.0780 -1.3676 -0.6049
 1059TIP3    H2 3123   4.633   7.469   0.256  2.1557 -0.3556 -0.4559
 1060TIP3   OH2 3124   5.224   1.341   3.053  0.2589 -0.4075  0.0505
 1060TIP3    H1 3125   5.137   1.366   3.023 -0.5339 -2.4137  0.5100
 1060TIP3    H2 3126   5.211   1.313   3.143  1.3062 -1.0831  0.0064
 1061TIP3   OH2 3127   0.130   0.730   2.023 -0.2856  0.6458  0.4137
 1061TIP3    H1 3128   0.110   0.714   2.115  0.9229  0.4590  0.6508
 1061TIP3    H2 3129   0.170   0.648   1.992  1.6650  1.5436  0.4152
 1062TIP3   OH2 3130   4.634   6.272   2.745  0.4798 -0.2642 -0.1641
 1062TIP3    H1 3131   4.564   6.244   2.804  0.5429 -0.2995 -0.1064
 1062TIP3    H2 3132   4.712   6.277   2.800  0.1790  1.4171  0.1427
 1063TIP3   OH2 3133   8.127   6.663   6.721  0.0337 -0.1157  0.3927
 1063TIP3    H1 3134   8.051   6.614   6.689  1.0577 -1.3758 -0.2128
 1063TIP3    H2 3135   8.146   6.624   6.807  0.7793 -0.7195 -0.0373
 1064TIP3   OH2 3136   2.385   1.992   5.942  0.1732  0.0741  0.0347
 1064TIP3    H1 3137   2.404   2.065   6.000 -1.3993  1.7437 -1.4569
 1064TIP3    H2 3138   2.444   1.922   5.972 -0.5467  0.7875  3.5957
 1065TIP3   OH2 3139   5.480   2.602   4.824  0.5811 -0.0309  0.2807
 1065TIP3    H1 3140   5.435   2.552   4.756  1.1329 -1.4075  0.8918
 1065TIP3    H2 3141   5.560   2.635   4.781  1.0605 -1.1152  0.3017
 1066TIP3   OH2 3142   5.242   2.883   1.439  0.1686 -0.1701  0.1276
 1066TIP3    H1 3143   5.337   2.876   1.433  0.1750 -1.0243  1.0400
 1066TIP3    H2 3144   5.223   2.878   1.532 -0.6045  2.7218  0.2299
 1067TIP3   OH2 3145   1.471   6.695   2.569  0.0474  0.0093  0.1501
 1067TIP3    H1 3146   1.506   6.783   2.567  0.9852 -0.3200  1.1845
 1067TIP3    H2 3147   1.524   6.646   2.505  0.1487 -0.0233  0.2592
 1068TIP3   OH2 3148   7.412   5.633   2.506 -0.3971  0.1710 -0.2204
 1068TIP3    H1 3149   7.415   5.542   2.478 -3.1314 -0.0947  0.0785
 1068TIP3    H2 3150   7.368   5.631   2.591  1.5392  1.6188  0.9286
 1069TIP3   OH2 3151   0.455   2.344   6.343 -0.3612  0.0426 -0.5015
 1069TIP3    H1 3152   0.524   2.316   6.283 -1.6703  0.1241 -2.1383
 1069TIP3    H2 3153   0.475   2.301   6.426  0.5825 -1.4585 -1.4698
 1070TIP3   OH2 3154   0.609   6.160   0.862  0.5817  0.1514 -0.0213
 1070TIP3    H1 3155   0.643   6.141   0.949 -1.6660 -0.8920  0.6980
 1070TIP3    H2 3156   0.557   6.239   0.874 -1.3630 -1.0899  0.0845
 1071TIP3   OH2 3157   5.469   4.029   4.280  0.4507  0.6021  0.2170
 1071TIP3    H1 3158   5.440   4.082   4.206 -2.3954 -0.9332  0.1079
 1071TIP3    H2 3159   5.463   4.087   4.356 -1.9283  0.7159  0.0052
 1072TIP3   OH2 3160   5.721   6.526   5.303  0.4109 -0.1647  0.1505
 1072TIP3    H1 3161   5.654   6.502   5.239  2.3112 -0.1524 -1.9796
 1072TIP3    H2 3162   5.736   6.619   5.289 -0.0817  0.1550  1.5948
 1073TIP3   OH2 3163   7.370   0.873   2.083 -0.2358 -0.8742  0.1673
 1073TIP3    H1 3164   7.441   0.852   2.023 -0.9499  1.1506 -1.5299
 1073TIP3    H2 3165   7.302   0.909   2.027 -1.4862 -0.1142  2.0766
 1074TIP3   OH2 3166   8.275   1.571   2.794  0.2190 -0.6084  0.3496
 1074TIP3    H1 3167   8.254   1.662   2.772  1.2634 -0.3843  0.2175
 1074TIP3    H2 3168   8.338   1.544   2.727 -0.1199 -1.4469  0.3613
 1075TIP3   OH2 3169   6.588   2.684   1.567  0.3683  0.0424 -0.3004
 1075TIP3    H1 3170   6.548   2.603   1.596 -0.0073  0.4165  0.2296
 1075TIP3    H2 3171   6.605   2.734   1.647  3.2088 -0.6845 -0.3250
 1076TIP3   OH2 3172   8.245   6.719   5.190 -0.0878 -0.0045 -0.3076
 1076TIP3    H1 3173   8.300   6.797   5.194  0.4636 -0.4191  0.1724
 1076TIP3    H2 3174   8.163   6.750   5.152  0.5174  0.5878 -1.1675
 1077TIP3   OH2 3175   0.304   0.527   1.946  0.2608  0.0523 -0.2006
 1077TIP3    H1 3176   0.269   0.462   1.885  0.8527 -0.3094 -0.1646
 1077TIP3    H2 3177   0.299   0.485   2.032  1.4198 -0.2883 -0.2813
 1078TIP3   OH2 3178   5.602   5.454   1.997 -0.6250  0.2398 -0.7191
 1078TIP3    H1 3179   5.660   5.431   2.070 -2.1707 -0.2035  0.4478
 1078TIP3    H2 3180   5.619   5.387   1.931  0.4272  0.3305 -0.5497
 1079TIP3   OH2 3181   4.582   7.420   3.066 -0.1830  0.1766 -0.0576
 1079TIP3    H1 3182   4.583   7.324   3.073 -1.6047  0.2314  1.7122
 1079TIP3    H2 3183   4.513   7.438   3.001  0.8592  0.0219 -1.2555
 1080TIP3   OH2 3184   4.141   7.059   0.078 -0.3832  0.4674  0.4964
 1080TIP3    H1 3185   4.162   7.115   0.003  0.1639  0.8837  0.9570
 1080TIP3    H2 3186   4.050   7.079   0.098 -0.4503  0.5566  0.1160
 1081TIP3   OH2 3187   3.080   4.114   1.132 -0.0317 -0.0003 -0.3765
 1081TIP3    H1 3188   3.153   4.164   1.096  0.1620  0.3695  0.5084
 1081TIP3    H2 3189   3.043   4.068   1.057 -0.1221  1.3530 -1.1980
 1082TIP3   OH2 3190   1.940   0.648   6.025  0.1101 -0.3874 -0.2236
 1082TIP3    H1 3191   1.984   0.677   5.946 -0.9160 -1.3520 -1.1825
 1082TIP3    H2 3192   1.855   0.693   6.023 -1.0702 -2.5193 -1.1833
 1083TIP3   OH2 3193   7.778   1.553   4.095 -0.0101 -0.0103  0.0768
 1083TIP3    H1 3194   7.829   1.633   4.109  1.7919 -1.2827  1.2026
 1083TIP3    H2 3195   7.713   1.554   4.165 -2.4623  2.1681 -1.9956
 1084TIP3   OH2 3196   0.073   4.758   4.661 -0.4542 -0.8610  0.3334
 1084TIP3    H1 3197  -0.020   4.753   4.685 -0.5092  2.3651  1.2691
 1084TIP3    H2 3198   0.116   4.786   4.742  0.9642  0.0710 -0.7065
 1085TIP3   OH2 3199   7.597   3.063   4.032  0.0771 -0.6699 -0.1116
 1085TIP3    H1 3200   7.637   3.080   3.947  1.2834 -0.1756  0.5431
 1085TIP3    H2 3201   7.596   2.967   4.039  0.0091 -0.7135 -0.6431
 1086TIP3   OH2 3202   7.008   5.261   0.967 -0.2965 -0.4033  0.3676
 1086TIP3    H1 3203   6.923   5.289   0.932 -0.4846 -0.5668  0.6930
 1086TIP3    H2 3204   7.036   5.190   0.909 -0.6423 -0.7231  0.5937
 1087TIP3   OH2 3205   7.233   0.216   2.989  0.7427  0.5540 -0.1293
 1087TIP3    H1 3206   7.190   0.271   3.054 -1.0456  1.1901 -1.7897
 1087TIP3    H2 3207   7.296   0.274   2.946  1.8859  0.1471  0.9212
 1088TIP3   OH2 3208   0.067   3.515   4.743 -0.3710 -0.0331 -1.1391
 1088TIP3    H1 3209  -0.005   3.491   4.685 -1.0893 -1.9869  0.4470
 1088TIP3    H2 3210   0.142   3.464   4.711 -1.1330 -2.2728  0.3957
 1089TIP3   OH2 3211   6.678   0.410   6.166  0.3389  0.3313  0.3036
 1089TIP3    H1 3212   6.603   0.384   6.113  1.0617 -0.6354 -0.2686
 1089TIP3    H2 3213   6.724   0.328   6.184 -0.6088  0.3578  3.6186
 1090TIP3   OH2 3214   4.916   3.079   2.844 -0.3054 -0.1023  1.0173
 1090TIP3    H1 3215   4.857   3.037   2.782 -2.8604  1.2813  2.3298
 1090TIP3    H2 3216   4.978   3.011   2.869  0.1907 -0.9948 -2.1507
 1091TIP3   OH2 3217   4.669   6.464   3.584 -0.8266 -0.2870 -0.5057
 1091TIP3    H1 3218   4.620   6.451   3.502 -2.7688  0.9189  0.3872
 1091TIP3    H2 3219   4.648   6.554   3.610  0.9387 -0.1502  0.5907
 1092TIP3   OH2 3220   3.518   7.100   6.707  0.1074  0.4639  0.3480
 1092TIP3    H1 3221   3.455   7.117   6.637  0.6422  1.0987  0.0031
 1092TIP3    H2 3222   3.571   7.028   6.674 -1.1676 -0.8726  1.1406
 1093TIP3   OH2 3223   8.244   5.998   5.870 -0.0643  0.2126 -0.0188
 1093TIP3    H1 3224   8.258   6.003   5.776 -1.0927  0.7061 -0.1571
 1093TIP3    H2 3225   8.169   5.939   5.880 -0.9720  1.3937  0.3764
 1094TIP3   OH2 3226   5.508   1.316   2.778  0.5963  0.2349  0.7497
 1094TIP3    H1 3227   5.478   1.363   2.700  0.6245  0.4210  0.8510
 1094TIP3    H2 3228   5.433   1.321   2.838 -0.1094 -1.4545  0.0645
 1095TIP3   OH2 3229   3.177   0.268   4.599 -0.0371  1.0033 -0.8188
 1095TIP3    H1 3230   3.212   0.179   4.612 -1.7609  0.4656  0.5589
 1095TIP3    H2 3231   3.149   0.269   4.508 -2.8971 -1.0752 -0.1159
 1096TIP3   OH2 3232   4.367   6.776   0.433  0.2896  0.4637 -0.2078
 1096TIP3    H1 3233   4.401   6.852   0.480  0.8500  0.1193 -0.0496
 1096TIP3    H2 3234   4.432   6.707   0.447  0.2715  0.2333 -1.1535
 1097TIP3   OH2 3235   3.984   4.093   2.782 -0.3124 -0.4721  0.5976
 1097TIP3    H1 3236   3.926   4.161   2.747  0.4708 -0.1518 -0.0938
 1097TIP3    H2 3237   3.971   4.019   2.722  1.0206  0.0720 -0.3982
 1098TIP3   OH2 3238   6.591   4.154   5.037 -0.3160  0.7148 -0.3047
 1098TIP3    H1 3239   6.602   4.213   5.112 -0.2458  0.4760 -0.1263
 1098TIP3    H2 3240   6.504   4.175   5.003 -0.3977  0.7403 -0.0812
 1099TIP3   OH2 3241   1.533   4.446   4.308 -0.1693 -0.1580 -0.2530
 1099TIP3    H1 3242   1.597   4.511   4.337 -0.3551 -0.4677  0.8862
 1099TIP3    H2 3243   1.529   4.382   4.379 -0.0554 -1.3835 -1.3174
 1100TIP3   OH2 3244   4.136   5.556   0.473 -0.0048 -0.5978 -0.0707
 1100TIP3    H1 3245   4.052   5.516   0.497  0.6110 -1.4137  0.7816
 1100TIP3    H2 3246   4.202   5.498   0.512  1.0863 -1.8381 -3.4597
 1101TIP3   OH2 3247   5.433   2.030   2.498 -0.2547 -0.1706  0.8572
 1101TIP3    H1 3248   5.497   2.024   2.569  0.4443 -1.6934  0.1639
 1101TIP3    H2 3249   5.371   1.959   2.515 -0.0476 -0.5891 -0.0574
 1102TIP3   OH2 3250   3.282   0.400   5.531  0.2736  0.1884 -0.4382
 1102TIP3    H1 3251   3.240   0.448   5.603  0.8188  0.2268 -0.1440
 1102TIP3    H2 3252   3.293   0.465   5.462  1.7923  0.7306  0.2717
 1103TIP3   OH2 3253   5.931   4.974   0.064 -0.3441 -0.1577 -0.3468
 1103TIP3    H1 3254   5.957   5.059   0.029 -0.4354  0.0022 -0.0335
 1103TIP3    H2 3255   5.936   4.914  -0.011 -1.6262  0.3936 -0.9009
 1104TIP3   OH2 3256   6.639   4.031   1.365  0.6151  0.1005  0.0237
 1104TIP3    H1 3257   6.556   4.066   1.398 -0.2032 -2.1654  0.5799
 1104TIP3    H2 3258   6.685   4.002   1.443  1.2348 -0.1004 -0.4091
 1105TIP3   OH2 3259   2.043   4.764   2.553 -0.1215 -0.1890 -0.2512
 1105TIP3    H1 3260   2.127   4.722   2.573 -0.7528 -0.7849  1.3554
 1105TIP3    H2 3261   2.012   4.796   2.638  0.1952  3.4167 -1.3210
 1106TIP3   OH2 3262   7.608   4.983   5.615  0.4758  0.2124 -0.3123
 1106TIP3    H1 3263   7.675   4.915   5.622 -0.1745 -0.4147 -0.0755
 1106TIP3    H2 3264   7.531   4.938   5.580 -0.4437  0.4706  1.2694
 1107TIP3   OH2 3265   8.206   4.708   6.348 -0.0569 -0.3307  0.0394
 1107TIP3    H1 3266   8.293   4.744   6.359 -0.1670 -0.0400 -0.0298
 1107TIP3    H2 3267   8.173   4.694   6.437  0.0547 -0.4268  0.0648
 1108TIP3   OH2 3268   2.395   7.754   3.311 -0.0351 -0.0913 -0.3626
 1108TIP3    H1 3269   2.489   7.767   3.307 -0.0562  0.3752  0.4476
 1108TIP3    H2 3270   2.383   7.665   3.342  0.1506  0.2238  0.6324
 1109TIP3   OH2 3271   2.827   3.090   0.442 -0.1034  0.4913 -0.8776
 1109TIP3    H1 3272   2.838   2.996   0.427  1.0864  0.7998 -2.0955
 1109TIP3    H2 3273   2.887   3.111   0.513  0.0855  0.4267 -1.0161
 1110TIP3   OH2 3274   3.248   1.642   1.640 -0.4796 -0.3382  0.1498
 1110TIP3    H1 3275   3.199   1.663   1.719 -0.6775  0.5993 -0.2105
 1110TIP3    H2 3276   3.218   1.706   1.575 -0.8652 -1.5448 -0.9120
 1111TIP3   OH2 3277   4.177   1.111   6.093 -0.3621 -0.6331  0.2254
 1111TIP3    H1 3278   4.176   1.202   6.123  2.0809 -0.1322 -0.9233
 1111TIP3    H2 3279   4.201   1.061   6.170  0.2602 -0.0408  0.4297
 1112TIP3   OH2 3280   1.688   1.157   4.639 -0.1575  0.2884  0.2754
 1112TIP3    H1 3281   1.669   1.231   4.582  0.5095  1.9340  2.0903
 1112TIP3    H2 3282   1.666   1.187   4.727  0.5686 -1.5192  1.1422
 1113TIP3   OH2 3283   7.520   5.959   0.575 -0.1209 -0.3283 -0.0641
 1113TIP3    H1 3284   7.521   5.864   0.568 -0.4383 -0.2320 -1.8415
 1113TIP3    H2 3285   7.592   5.980   0.634  0.4551 -1.6193 -0.2882
 1114TIP3   OH2 3286   1.365   4.736   2.407 -0.2519 -0.0392  0.5330
 1114TIP3    H1 3287   1.453   4.767   2.387 -0.0080 -0.3363  1.1148
 1114TIP3    H2 3288   1.307   4.792   2.354  0.2324  0.7740  0.8377
 1115TIP3   OH2 3289   7.896   2.105   1.444 -0.0045  0.6146  0.1384
 1115TIP3    H1 3290   7.937   2.141   1.365 -0.8722  1.1034 -0.1085
 1115TIP3    H2 3291   7.819   2.057   1.412  0.3670 -0.2967  0.5886
 1116TIP3   OH2 3292   3.034   4.780   3.717 -0.4099 -0.1345 -0.1572
 1116TIP3    H1 3293   3.035   4.820   3.804  1.1534 -2.0846  0.8144
 1116TIP3    H2 3294   3.022   4.686   3.734 -0.8177 -0.4809 -2.1159
 1117TIP3   OH2 3295   5.781   3.971   0.434  0.0681 -0.6444  0.4306
 1117TIP3    H1 3296   5.737   3.995   0.516  0.0569  3.5549 -0.5780
 1117TIP3    H2 3297   5.733   3.894   0.403 -1.3510 -1.0256  3.2634
 1118TIP3   OH2 3298   2.937   5.564   5.860 -0.2036 -0.2201  0.1427
 1118TIP3    H1 3299   2.930   5.479   5.817 -1.1371  0.7318 -1.7238
 1118TIP3    H2 3300   2.859   5.612   5.831  1.5963  2.1774 -1.0379
 1119TIP3   OH2 3301   1.703   4.980   3.341  0.3157  0.1127 -0.3610
 1119TIP3    H1 3302   1.738   4.929   3.414 -0.2898  1.6845  1.0999
 1119TIP3    H2 3303   1.622   4.936   3.317 -0.4850  0.6357  1.2407
 1120TIP3   OH2 3304   7.155   2.236   6.382 -0.0756 -0.9725  0.2607
 1120TIP3    H1 3305   7.139   2.253   6.289  0.4683 -1.5873  0.0439
 1120TIP3    H2 3306   7.165   2.141   6.387  1.3355 -0.8183  0.7058
 1121TIP3   OH2 3307   3.307   2.872   2.834 -0.0935 -0.0932  0.0126
 1121TIP3    H1 3308   3.254   2.951   2.819  1.5682  1.5472  2.1630
 1121TIP3    H2 3309   3.245   2.808   2.869 -1.1050  0.9420  0.1827
 1122TIP3   OH2 3310   1.579   4.909   4.127 -0.7069  0.4118  0.2898
 1122TIP3    H1 3311   1.655   4.851   4.121 -0.4561  0.7858 -0.1324
 1122TIP3    H2 3312   1.614   4.992   4.159 -0.8655  0.7116 -0.3037
 1123TIP3   OH2 3313   6.985   4.230   1.262 -0.6317  0.1473 -0.0625
 1123TIP3    H1 3314   6.961   4.138   1.254 -1.0508  0.2524 -0.0555
 1123TIP3    H2 3315   7.072   4.229   1.302 -0.9459 -0.2270  0.6310
 1124TIP3   OH2 3316   4.532   1.502   4.078  0.2949 -0.5607  0.7867
 1124TIP3    H1 3317   4.560   1.570   4.140  0.8575  0.5848 -0.6572
 1124TIP3    H2 3318   4.531   1.547   3.993 -1.2444 -1.8596  0.0684
 1125TIP3   OH2 3319   4.818   4.738   2.843 -0.4678 -0.1342  0.3179
 1125TIP3    H1 3320   4.783   4.814   2.888 -0.8209 -0.2010  0.1658
 1125TIP3    H2 3321   4.867   4.690   2.910  0.1529  0.4703  0.2971
 1126TIP3   OH2 3322   2.775   5.306   3.784  0.0717  0.0883  0.2854
 1126TIP3    H1 3323   2.708   5.238   3.786 -0.0964  0.2107 -0.8764
 1126TIP3    H2 3324   2.731   5.383   3.748  0.0738  1.0549  2.1829
 1127TIP3   OH2 3325   3.899   5.032   4.835  0.0332  0.0863 -0.4774
 1127TIP3    H1 3326   3.825   5.050   4.893 -0.2077  1.4949 -1.1771
 1127TIP3    H2 3327   3.976   5.039   4.891 -0.3576 -2.7956  0.5830
 1128TIP3   OH2 3328   5.644   7.441   2.273 -0.2144  0.0839  0.1272
 1128TIP3    H1 3329   5.701   7.389   2.330 -1.8036 -0.4452  1.3205
 1128TIP3    H2 3330   5.609   7.509   2.330 -4.0558 -2.1018  0.7562
 1129TIP3   OH2 3331   2.226   2.248   0.612  0.2350 -0.1386  0.2601
 1129TIP3    H1 3332   2.246   2.330   0.567 -0.5630  1.4153  2.5533
 1129TIP3    H2 3333   2.155   2.209   0.561  0.2148  0.8964 -0.5274
 1130TIP3   OH2 3334   0.733   1.435   2.798  0.0264 -0.4091 -0.5055
 1130TIP3    H1 3335   0.652   1.397   2.764 -0.6979 -0.0074  0.7248
 1130TIP3    H2 3336   0.791   1.360   2.813 -0.4086 -0.7662 -0.6125
 1131TIP3   OH2 3337   7.759   6.660   4.812 -0.0243  0.1812 -0.0122
 1131TIP3    H1 3338   7.731   6.737   4.763 -2.7931 -0.4190  0.4553
 1131TIP3    H2 3339   7.690   6.596   4.797  1.1796 -1.4867  1.2745
 1132TIP3   OH2 3340   7.140   4.671   6.216  0.0352  0.3203 -0.1437
 1132TIP3    H1 3341   7.107   4.729   6.147  0.8767  1.5612  0.4719
 1132TIP3    H2 3342   7.061   4.644   6.264 -0.4516  0.2578 -0.9518
 1133TIP3   OH2 3343   8.203   0.321   2.060 -0.7772 -0.4177 -0.3104
 1133TIP3    H1 3344   8.246   0.377   2.125 -0.4749  0.3006 -1.1131
 1133TIP3    H2 3345   8.111   0.345   2.065 -1.0156 -1.4886  0.9453
 1134TIP3   OH2 3346   7.200   0.157   0.528 -0.2722 -0.5957  0.6503
 1134TIP3    H1 3347   7.192   0.228   0.591 -0.4382  0.1667 -0.2119
 1134TIP3    H2 3348   7.110   0.127   0.514 -0.0250 -2.5352  2.7129
 1135TIP3   OH2 3349   6.021   1.531   1.938 -0.5524  0.0560 -0.0357
 1135TIP3    H1 3350   6.008   1.438   1.957 -0.6211 -0.1087 -0.8584
 1135TIP3    H2 3351   5.989   1.542   1.849  2.0843  0.2615 -1.0581
 1136TIP3   OH2 3352   5.740   1.528   6.444 -0.4469 -0.3050 -0.2993
 1136TIP3    H1 3353   5.816   1.561   6.491 -0.5296  0.4876 -0.7098
 1136TIP3    H2 3354   5.756   1.434   6.437  0.0521 -0.2829  0.4148
 1137TIP3   OH2 3355   3.098   6.891   3.461 -0.2083 -0.7562  0.2789
 1137TIP3    H1 3356   3.058   6.914   3.377  1.0498 -0.4347 -0.2504
 1137TIP3    H2 3357   3.077   6.964   3.518 -2.7281 -1.8243  0.8750
 1138TIP3   OH2 3358   5.540   6.062   0.362 -0.3651  0.2728  0.5565
 1138TIP3    H1 3359   5.536   6.007   0.284 -0.1598 -0.7595  1.2454
 1138TIP3    H2 3360   5.545   5.999   0.435  0.2036  1.2135  1.3477
 1139TIP3   OH2 3361   6.416   0.505   1.641  0.5388  0.0174  0.5716
 1139TIP3    H1 3362   6.430   0.545   1.726 -2.5944 -1.5843  2.0355
 1139TIP3    H2 3363   6.365   0.426   1.660 -0.4731 -0.3133 -2.7838
 1140TIP3   OH2 3364   5.389   5.012   3.735 -0.0297  0.0669 -0.0495
 1140TIP3    H1 3365   5.482   5.025   3.719 -0.2563  2.2324  0.1278
 1140TIP3    H2 3366   5.383   4.994   3.829  0.1440  0.7687  0.0995
 1141TIP3   OH2 3367   1.154   2.810   4.924 -0.0951 -0.0395  0.0366
 1141TIP3    H1 3368   1.181   2.719   4.912 -0.2051 -0.2480  1.1749
 1141TIP3    H2 3369   1.104   2.832   4.845 -0.0024 -0.9455 -0.2789
 1142TIP3   OH2 3370   2.823   4.637   5.378  0.2259 -0.5567  0.0466
 1142TIP3    H1 3371   2.887   4.590   5.431  1.4322  0.5767 -0.3778
 1142TIP3    H2 3372   2.817   4.724   5.418 -1.1199 -0.6654  0.1295
 1143TIP3   OH2 3373   0.041   6.473   5.128 -0.2431 -0.2683 -0.0458
 1143TIP3    H1 3374   0.011   6.561   5.150  0.6123  0.0452 -0.0866
 1143TIP3    H2 3375   0.058   6.431   5.212  1.4628  0.3728 -0.0379
 1144TIP3   OH2 3376   3.789   4.425   3.921  0.3034  1.0942 -0.3554
 1144TIP3    H1 3377   3.852   4.459   3.857  0.6486  1.6297  0.2538
 1144TIP3    H2 3378   3.813   4.333   3.930  1.1724  1.3490  0.0569
 1145TIP3   OH2 3379   4.879   4.171   5.959  0.0113 -0.3121 -0.0802
 1145TIP3    H1 3380   4.854   4.082   5.984  0.4066 -0.5282 -0.4362
 1145TIP3    H2 3381   4.899   4.215   6.042 -0.3535 -0.4994  0.1091
 1146TIP3   OH2 3382   2.136   3.643   6.352  0.6696 -0.2772  0.5138
 1146TIP3    H1 3383   2.167   3.692   6.276 -0.0443 -0.6091 -0.0028
 1146TIP3    H2 3384   2.122   3.710   6.420 -2.7981  0.7037 -0.9665
 1147TIP3   OH2 3385   1.803   7.453   0.791  0.2615  0.5277  0.3510
 1147TIP3    H1 3386   1.815   7.362   0.817 -1.4550 -0.2892 -1.4176
 1147TIP3    H2 3387   1.779   7.498   0.872  0.5061 -0.7075  1.1440
 1148TIP3   OH2 3388   3.031   5.366   3.681  0.5937 -0.1190  0.1481
 1148TIP3    H1 3389   2.942   5.347   3.710 -0.0169  3.4566  1.1357
 1148TIP3    H2 3390   3.022   5.388   3.588  0.0603  1.8378  0.6157
 1149TIP3   OH2 3391   1.448   1.276   6.181 -0.4347  0.7030 -0.0096
 1149TIP3    H1 3392   1.458   1.200   6.238  0.1908  0.6878 -0.1278
 1149TIP3    H2 3393   1.354   1.279   6.161 -0.3539 -0.5351 -0.6813
 1150TIP3   OH2 3394   1.919   3.435   5.864  0.0631 -0.7957  0.0655
 1150TIP3    H1 3395   1.939   3.346   5.893 -0.5853 -1.2497 -0.8080
 1150TIP3    H2 3396   1.911   3.428   5.769  0.2346  0.2479 -0.0391
 1151TIP3   OH2 3397   7.654   5.830   0.305  0.2787  0.2010 -0.0757
 1151TIP3    H1 3398   7.579   5.883   0.330 -0.5617  0.5516 -2.8918
 1151TIP3    H2 3399   7.725   5.893   0.291  0.1007  0.2914 -0.6286
 1152TIP3   OH2 3400   5.010   2.071   3.288 -0.2986  0.5173  0.0257
 1152TIP3    H1 3401   4.972   2.123   3.360  0.1478 -0.9251  1.3662
 1152TIP3    H2 3402   5.046   2.137   3.229  0.4449  1.7841  1.7692
 1153TIP3   OH2 3403   5.289   6.042   3.872 -0.5207  0.3219 -0.4038
 1153TIP3    H1 3404   5.335   6.075   3.794  1.4163 -0.4396  0.3528
 1153TIP3    H2 3405   5.309   5.949   3.873  1.6559  0.7016  2.3348
 1154TIP3   OH2 3406   6.584   2.344   6.439 -0.2766  1.0839  0.7343
 1154TIP3    H1 3407   6.579   2.268   6.381  3.3523  2.0923 -1.2188
 1154TIP3    H2 3408   6.499   2.346   6.483 -2.6806 -0.8159 -3.2151
 1155TIP3   OH2 3409   0.216   5.798   6.288 -0.8439 -0.4549  0.0199
 1155TIP3    H1 3410   0.235   5.789   6.195  3.4358 -0.2027  0.6849
 1155TIP3    H2 3411   0.288   5.850   6.323 -3.7223  1.9655  3.1068
 1156TIP3   OH2 3412   1.428   2.539   2.334  0.0725 -0.2815 -0.0312
 1156TIP3    H1 3413   1.496   2.607   2.339  1.2718 -1.4551  0.1065
 1156TIP3    H2 3414   1.370   2.558   2.408  1.9134 -0.9641  1.6728
 1157TIP3   OH2 3415   4.106   5.177   1.749 -0.5380 -0.1897  0.2404
 1157TIP3    H1 3416   4.179   5.234   1.774 -0.5500 -1.2541  3.0772
 1157TIP3    H2 3417   4.052   5.231   1.692 -0.0960  2.4065  2.0751
 1158TIP3   OH2 3418   3.560   1.782   4.317  0.8401 -0.0149 -0.0031
 1158TIP3    H1 3419   3.486   1.837   4.343  0.3753 -0.4499 -0.3767
 1158TIP3    H2 3420   3.548   1.701   4.365  0.4798 -0.4809 -0.8625
 1159TIP3   OH2 3421   7.503   0.356   3.258 -0.1903 -0.1041  0.2423
 1159TIP3    H1 3422   7.535   0.277   3.302  1.2473  0.5992  0.5061
 1159TIP3    H2 3423   7.511   0.425   3.323 -1.1793  0.3331 -0.0765
 1160TIP3   OH2 3424   2.093   6.824   1.103  0.1135  0.1994  0.1848
 1160TIP3    H1 3425   2.071   6.820   1.196 -0.6375 -0.3380 -0.0036
 1160TIP3    H2 3426   2.043   6.752   1.064  0.0674  0.6997 -0.6969
 1161TIP3   OH2 3427   7.414   2.139   2.305  0.2781  0.7266 -0.0344
 1161TIP3    H1 3428   7.425   2.128   2.399 -0.9680 -0.2988  0.0143
 1161TIP3    H2 3429   7.468   2.215   2.283  0.2277  1.2577  1.5792
 1162TIP3   OH2 3430   2.835   7.608   0.875 -0.3957  0.2219 -0.3786
 1162TIP3    H1 3431   2.748   7.569   0.864 -0.4822 -0.1468  1.4352
 1162TIP3    H2 3432   2.893   7.552   0.822 -1.2936  0.7773 -2.0384
 1163TIP3   OH2 3433   5.367   6.399   5.417 -0.0597 -0.0045  0.3619
 1163TIP3    H1 3434   5.406   6.484   5.435 -0.4680  0.7900 -2.1607
 1163TIP3    H2 3435   5.272   6.414   5.420 -0.1731 -0.7224  1.2163
 1164TIP3   OH2 3436   1.248   2.372   6.537 -0.2723  1.0366 -0.2143
 1164TIP3    H1 3437   1.210   2.454   6.506 -1.4663  1.0889  1.2643
 1164TIP3    H2 3438   1.340   2.393   6.553 -0.2475  1.6977 -1.1512
 1165TIP3   OH2 3439   2.803   2.968   5.198  0.1560 -0.8065  0.2929
 1165TIP3    H1 3440   2.829   2.929   5.115  2.0291 -0.9767  0.9209
 1165TIP3    H2 3441   2.807   2.896   5.261 -2.1202 -0.9013  0.4355
 1166TIP3   OH2 3442   4.357   1.774   2.863  0.1275  0.3437 -0.7314
 1166TIP3    H1 3443   4.405   1.714   2.806 -0.2814 -0.9690  0.2708
 1166TIP3    H2 3444   4.423   1.805   2.926  0.2498  0.6480 -1.0062
 1167TIP3   OH2 3445   1.100   0.750   1.991 -0.5174  0.9243 -0.1007
 1167TIP3    H1 3446   1.130   0.706   2.071  0.9210  0.1426 -1.0311
 1167TIP3    H2 3447   1.052   0.826   2.023  0.4445  0.9073  1.5151
 1168TIP3   OH2 3448   0.153   7.480   2.697 -0.3459 -0.0517 -0.1367
 1168TIP3    H1 3449   0.224   7.528   2.655 -0.9413  0.5578 -0.4701
 1168TIP3    H2 3450   0.140   7.524   2.781  2.1483 -2.4476  1.6837
 1169TIP3   OH2 3451   6.441   4.878   1.371 -0.8033  0.1096 -0.7975
 1169TIP3    H1 3452   6.410   4.841   1.454  1.8692 -0.8026 -0.1263
 1169TIP3    H2 3453   6.396   4.962   1.365 -2.5423 -0.6401  0.5673
 1170TIP3   OH2 3454   4.203   2.537   5.478  0.0807 -0.1123  0.6194
 1170TIP3    H1 3455   4.259   2.604   5.440 -2.2849  1.2120 -0.8319
 1170TIP3    H2 3456   4.251   2.455   5.467  1.0674  0.7132 -2.0119
 1171TIP3   OH2 3457   5.661   5.235   3.164  0.1944  0.0615  0.1798
 1171TIP3    H1 3458   5.588   5.256   3.106  1.4469  2.2650 -0.7383
 1171TIP3    H2 3459   5.619   5.214   3.248 -1.5270  0.1438 -0.6200
 1172TIP3   OH2 3460   4.070   0.011   2.649  1.0140 -0.5191  0.2312
 1172TIP3    H1 3461   4.133   0.039   2.716  0.7249  0.7605 -0.0027
 1172TIP3    H2 3462   4.124  -0.033   2.583  1.4690 -0.7045  0.7207
 1173TIP3   OH2 3463   2.618   6.114   0.392 -0.6156  0.9102  0.1139
 1173TIP3    H1 3464   2.689   6.110   0.456 -2.1251  0.0386  1.8588
 1173TIP3    H2 3465   2.641   6.050   0.326  0.2945  0.7665  0.5584
 1174TIP3   OH2 3466   8.100   5.670   3.106  0.4511 -0.5940 -0.0685
 1174TIP3    H1 3467   8.062   5.746   3.150 -0.7659  0.3699 -2.5830
 1174TIP3    H2 3468   8.187   5.699   3.078  0.4176 -0.4968 -0.0735
 1175TIP3   OH2 3469   4.579   7.133   1.234 -0.6682 -0.4431  0.1802
 1175TIP3    H1 3470   4.502   7.181   1.203 -1.1516 -2.5570 -2.1714
 1175TIP3    H2 3471   4.653   7.183   1.200 -1.1037 -0.3968 -0.7146
 1176TIP3   OH2 3472   7.123   5.155   0.018  0.2454 -0.1310  0.4175
 1176TIP3    H1 3473   7.052   5.128   0.076  0.2786 -0.6778  0.2016
 1176TIP3    H2 3474   7.161   5.232   0.061 -1.1386  0.8136  0.0181
 1177TIP3   OH2 3475   8.126   6.465   4.347 -0.4980  0.0299 -0.0963
 1177TIP3    H1 3476   8.159   6.493   4.262 -0.3710  0.5202  0.1125
 1177TIP3    H2 3477   8.129   6.370   4.344  1.3252  0.0549  0.0671
 1178TIP3   OH2 3478   3.563   3.002   2.883  0.3553 -0.2842 -0.7073
 1178TIP3    H1 3479   3.486   2.948   2.862  0.7366 -0.9439 -0.4469
 1178TIP3    H2 3480   3.570   2.998   2.978  1.7426 -1.7342 -0.8218
 1179TIP3   OH2 3481   0.671   5.019   0.085  0.1834 -0.0211  0.0927
 1179TIP3    H1 3482   0.688   4.952   0.151 -0.4178  0.7912  1.0919
 1179TIP3    H2 3483   0.661   5.100   0.134 -1.2281  0.4498 -0.8956
 1180TIP3   OH2 3484   7.461   6.123   1.770  0.1941 -0.3383 -0.0014
 1180TIP3    H1 3485   7.411   6.192   1.726 -0.0684  0.4946  1.5498
 1180TIP3    H2 3486   7.552   6.152   1.764  0.1996 -0.4299 -0.3555
 1181TIP3   OH2 3487   5.935   5.236   5.629  0.6972 -0.2410  0.3278
 1181TIP3    H1 3488   5.929   5.143   5.652 -0.0760 -0.5446 -1.0047
 1181TIP3    H2 3489   6.029   5.251   5.619  0.7662 -1.2678 -0.8525
 1182TIP3   OH2 3490   5.515   5.900   0.568 -0.2107 -0.8116  0.2070
 1182TIP3    H1 3491   5.566   5.834   0.615 -1.7016 -1.9958  0.2384
 1182TIP3    H2 3492   5.431   5.902   0.613 -0.2197  1.1500  0.2061
 1183TIP3   OH2 3493   6.659   5.831   0.552  0.1476 -0.0568  0.5430
 1183TIP3    H1 3494   6.566   5.849   0.546 -0.3426 -2.4149 -0.0088
 1183TIP3    H2 3495   6.680   5.842   0.644 -0.8762 -0.3586  0.8223
 1184TIP3   OH2 3496   1.860   6.019   2.844  0.5881 -0.0367  0.4854
 1184TIP3    H1 3497   1.862   6.049   2.753  1.4279 -0.5110  0.3342
 1184TIP3    H2 3498   1.811   5.937   2.842  0.3188  0.1207  0.5212
 1185TIP3   OH2 3499   5.379   1.076   6.266  0.1983 -0.0828 -0.2566
 1185TIP3    H1 3500   5.356   1.032   6.348 -2.2590 -2.0648 -1.8670
 1185TIP3    H2 3501   5.456   1.029   6.234 -1.5087 -2.3866 -1.2188
 1186TIP3   OH2 3502   4.265   0.443   5.752  0.1364  0.3759 -0.1650
 1186TIP3    H1 3503   4.191   0.384   5.767 -1.3729  1.8802 -1.2285
 1186TIP3    H2 3504   4.318   0.399   5.685 -2.3944  1.2479 -2.9643
 1187TIP3   OH2 3505   4.566   3.126   4.538 -0.3223  0.1077  0.2430
 1187TIP3    H1 3506   4.575   3.150   4.631  3.0528  0.4503 -0.0243
 1187TIP3    H2 3507   4.561   3.209   4.492  1.2886  0.0854 -0.0340
 1188TIP3   OH2 3508   2.877   3.027   3.727 -0.2217  0.3095 -0.2017
 1188TIP3    H1 3509   2.913   2.978   3.801  1.3137 -0.6121 -1.4995
 1188TIP3    H2 3510   2.937   3.100   3.715 -0.5320  0.5213 -0.4830
 1189TIP3   OH2 3511   3.844   1.769   4.086  0.0643 -0.1720 -0.3279
 1189TIP3    H1 3512   3.869   1.824   4.011  1.3278  0.4697  0.5243
 1189TIP3    H2 3513   3.882   1.684   4.067  0.0188 -0.1297 -0.6140
 1190TIP3   OH2 3514   7.568   5.426   2.272  0.1472  0.0101  0.0340
 1190TIP3    H1 3515   7.558   5.427   2.177  0.2255 -3.9703 -0.1902
 1190TIP3    H2 3516   7.480   5.414   2.306  0.2540  0.1848  0.3850
 1191TIP3   OH2 3517   6.877   2.070   1.244 -0.5631 -0.0893  0.2826
 1191TIP3    H1 3518   6.864   2.008   1.173 -1.1476  0.2391  0.0985
 1191TIP3    H2 3519   6.972   2.084   1.248 -0.5388 -0.0356 -0.4898
 1192TIP3   OH2 3520   4.636   4.815   4.819 -0.0881  0.0818  0.2515
 1192TIP3    H1 3521   4.683   4.877   4.764 -0.5000  0.0726 -0.1140
 1192TIP3    H2 3522   4.546   4.846   4.818 -0.3267 -0.6073 -0.0587
 1193TIP3   OH2 3523   2.619   4.770   2.605  0.7092  0.0019 -0.1794
 1193TIP3    H1 3524   2.667   4.814   2.675  0.3577  0.3892 -0.1802
 1193TIP3    H2 3525   2.604   4.838   2.540  0.7840 -0.2909 -0.5069
 1194TIP3   OH2 3526   1.022   5.829   4.349 -0.5196 -0.1997 -0.4611
 1194TIP3    H1 3527   0.952   5.830   4.284 -1.6792 -0.2659  0.7374
 1194TIP3    H2 3528   1.076   5.906   4.329 -0.1050 -0.9052 -2.2424
 1195TIP3   OH2 3529   2.972   6.592   2.204  0.1563 -0.0162 -0.0430
 1195TIP3    H1 3530   2.967   6.497   2.200 -0.2356  0.0440 -1.2650
 1195TIP3    H2 3531   3.066   6.610   2.218  0.2876 -0.5624 -0.2020
 1196TIP3   OH2 3532   2.128   1.292   3.641  0.4930  0.1394  0.9393
 1196TIP3    H1 3533   2.219   1.266   3.636  0.0491 -1.3273 -0.3758
 1196TIP3    H2 3534   2.084   1.219   3.685  0.0579  1.1826  2.2914
 1197TIP3   OH2 3535   1.870   4.001   5.291  0.1719 -0.4266  0.0131
 1197TIP3    H1 3536   1.848   3.932   5.354 -1.2761  0.2956  0.3608
 1197TIP3    H2 3537   1.815   3.982   5.215 -1.3017  1.0758  0.6465
 1198TIP3   OH2 3538   2.320   4.330   2.026  0.0683 -0.2974 -0.2350
 1198TIP3    H1 3539   2.245   4.329   1.967 -0.8709  1.1965  0.8788
 1198TIP3    H2 3540   2.284   4.312   2.112  0.8423  1.2291  0.4460
 1199TIP3   OH2 3541   1.110   2.466   1.705 -0.2322  0.7594  0.2002
 1199TIP3    H1 3542   1.194   2.468   1.752 -0.3766 -2.3799  0.8140
 1199TIP3    H2 3543   1.062   2.542   1.739  1.7914  1.7988  0.9098
 1200TIP3   OH2 3544   0.120   0.770   3.847 -0.0971  0.1694 -0.6016
 1200TIP3    H1 3545   0.199   0.721   3.870 -0.5900 -0.1132  0.5586
 1200TIP3    H2 3546   0.048   0.707   3.860 -0.6108  0.7608 -0.5231
 1201TIP3   OH2 3547   7.640   7.288   0.070 -0.3224  0.2431  0.0716
 1201TIP3    H1 3548   7.571   7.300   0.135 -0.3641  0.0535  0.0628
 1201TIP3    H2 3549   7.692   7.369   0.074 -0.3478  0.2476  0.3120
 1202TIP3   OH2 3550   7.903   3.242   0.336  0.1904 -0.3507  0.2925
 1202TIP3    H1 3551   7.926   3.331   0.311 -1.4183 -0.2646 -1.0544
 1202TIP3    H2 3552   7.927   3.236   0.429 -0.3021  1.7011  0.6042
 1203TIP3   OH2 3553   0.598   3.620   1.570 -0.0215  0.1799 -0.4937
 1203TIP3    H1 3554   0.586   3.525   1.567 -0.7232  0.2741 -1.4702
 1203TIP3    H2 3555   0.619   3.640   1.661 -1.4270 -0.7476  0.0621
 1204TIP3   OH2 3556   3.427   6.289   5.856 -0.4820  0.2851  0.0810
 1204TIP3    H1 3557   3.470   6.357   5.805  0.5644 -0.3639  0.0661
 1204TIP3    H2 3558   3.343   6.276   5.813 -0.5846  1.3721 -0.0722
 1205TIP3   OH2 3559   2.345   5.398   4.748  0.1059 -0.4792 -0.1181
 1205TIP3    H1 3560   2.395   5.479   4.749 -1.7525  0.7237  1.1090
 1205TIP3    H2 3561   2.403   5.334   4.791  1.3044  0.3639 -0.4186
 1206TIP3   OH2 3562   3.414   7.477   3.023  0.4809  0.3205  0.1140
 1206TIP3    H1 3563   3.501   7.516   3.012  0.4821  0.7665  1.5348
 1206TIP3    H2 3564   3.359   7.548   3.056 -0.1596 -0.2348  0.2615
 1207TIP3   OH2 3565   1.798   5.341   0.134  0.0526  0.1571 -0.2353
 1207TIP3    H1 3566   1.793   5.256   0.178  0.8426  0.0085 -0.4285
 1207TIP3    H2 3567   1.891   5.363   0.133  0.0501  0.1768 -1.8039
 1208TIP3   OH2 3568   6.735   1.987   5.595  0.0539 -0.9184  0.0485
 1208TIP3    H1 3569   6.780   2.048   5.535 -1.6579 -0.0221 -0.3874
 1208TIP3    H2 3570   6.713   1.912   5.540  0.0366 -0.8705 -0.0105
 1209TIP3   OH2 3571   0.822   2.315   0.729 -0.2360  0.4216  0.2294
 1209TIP3    H1 3572   0.817   2.399   0.683  2.4395  0.9466  0.7870
 1209TIP3    H2 3573   0.779   2.332   0.813  1.3830  1.6675  0.8604
 1210TIP3   OH2 3574   8.277   3.294   1.216 -0.4018 -0.0156 -0.1970
 1210TIP3    H1 3575   8.234   3.359   1.162 -0.7300  1.1843  1.4341
 1210TIP3    H2 3576   8.303   3.341   1.296  0.9513 -1.4703  0.2862
 1211TIP3   OH2 3577   3.298   3.887   1.124  0.7268  0.0284  0.0803
 1211TIP3    H1 3578   3.293   3.977   1.157 -1.4471 -0.3253  0.8765
 1211TIP3    H2 3579   3.324   3.896   1.032  1.9179  1.3510  0.5042
 1212TIP3   OH2 3580   0.535   3.182   0.761  0.1615  0.7212 -0.3076
 1212TIP3    H1 3581   0.510   3.149   0.847  2.3722 -1.7767 -0.4759
 1212TIP3    H2 3582   0.454   3.214   0.722 -1.1515  0.5395  2.1161
 1213TIP3   OH2 3583   5.215   0.455   0.580 -0.0910  0.0248 -0.4486
 1213TIP3    H1 3584   5.258   0.540   0.566 -0.0828 -0.4162 -3.7117
 1213TIP3    H2 3585   5.280   0.391   0.552 -0.8828 -0.9621 -0.0500
 1214TIP3   OH2 3586   4.999   1.126   3.031  0.9945  0.1235  0.1033
 1214TIP3    H1 3587   4.941   1.050   3.030 -0.2430  1.0302  1.1443
 1214TIP3    H2 3588   4.996   1.160   2.942  0.3615 -0.1552  0.0169
 1215TIP3   OH2 3589   7.021   3.591   1.605  0.5602  0.3604 -0.0156
 1215TIP3    H1 3590   7.039   3.515   1.661 -1.1972  0.4790  0.7730
 1215TIP3    H2 3591   6.926   3.602   1.609  0.3511  0.5131 -2.8871
 1216TIP3   OH2 3592   0.797   7.262   4.705  0.2787 -0.2027  0.0750
 1216TIP3    H1 3593   0.795   7.168   4.722 -0.1411 -0.0728  0.8028
 1216TIP3    H2 3594   0.705   7.288   4.702  0.3747  0.0242 -1.0986
 1217TIP3   OH2 3595   7.681   4.114   4.378 -0.1415  0.1896  0.1763
 1217TIP3    H1 3596   7.693   4.128   4.284 -2.1358 -1.3396 -0.3689
 1217TIP3    H2 3597   7.620   4.182   4.405  0.4540  0.6473  0.4010
 1218TIP3   OH2 3598   1.007   3.953   0.425 -0.5516 -0.2615 -0.5320
 1218TIP3    H1 3599   1.061   3.955   0.346  1.4072 -1.7102  0.6716
 1218TIP3    H2 3600   0.977   3.862   0.430 -0.7533 -0.1491  0.3268
 1219TIP3   OH2 3601   1.102   5.640   2.473  0.6189 -0.1781 -0.3463
 1219TIP3    H1 3602   1.102   5.573   2.542  0.2324 -0.1175 -0.2878
 1219TIP3    H2 3603   1.195   5.657   2.457  0.7399  1.1696  1.4922
 1220TIP3   OH2 3604   8.308   5.197   3.665  0.2560 -0.4281 -0.3804
 1220TIP3    H1 3605   8.213   5.188   3.664  0.2815 -0.6953 -0.3564
 1220TIP3    H2 3606   8.326   5.269   3.604 -0.0311  0.2539  0.3201
 1221TIP3   OH2 3607   0.806   6.475   2.569 -0.1179 -0.2726  0.0135
 1221TIP3    H1 3608   0.827   6.473   2.476  1.9494 -1.4288  0.4324
 1221TIP3    H2 3609   0.754   6.396   2.584 -0.4822 -0.0662 -0.1794
 1222TIP3   OH2 3610   4.645   2.447   6.592  0.1656  0.0578  0.8361
 1222TIP3    H1 3611   4.692   2.378   6.545  2.9412  1.0963  1.8793
 1222TIP3    H2 3612   4.574   2.402   6.638  1.6802 -2.0749  1.2118
 1223TIP3   OH2 3613   3.666   5.319   2.863 -0.3241 -0.1867 -0.1302
 1223TIP3    H1 3614   3.708   5.245   2.821 -1.2308 -0.4013 -0.6939
 1223TIP3    H2 3615   3.600   5.279   2.921 -0.2564  0.1546  0.1847
 1224TIP3   OH2 3616   2.006   3.739   5.254 -0.0440 -0.2966  0.2347
 1224TIP3    H1 3617   2.038   3.813   5.201  0.5302  0.6881  1.8572
 1224TIP3    H2 3618   2.085   3.687   5.271 -0.2737 -0.7506 -0.0590
 1225TIP3   OH2 3619   2.728   2.654   2.894 -0.2049  0.1437  0.1005
 1225TIP3    H1 3620   2.706   2.617   2.808  0.1132  1.2561 -0.4839
 1225TIP3    H2 3621   2.744   2.746   2.876  0.5099  0.2586  1.2596
 1226TIP3   OH2 3622   0.585   2.020   5.595 -0.4303  0.2346 -0.1402
 1226TIP3    H1 3623   0.543   1.940   5.563 -0.1827  0.3780 -0.8488
 1226TIP3    H2 3624   0.666   1.989   5.636 -0.0744  0.1625 -0.8846
 1227TIP3   OH2 3625   2.655   5.231   3.124 -0.2596  0.1600  0.1671
 1227TIP3    H1 3626   2.658   5.138   3.101  1.7173  0.3106 -0.3759
 1227TIP3    H2 3627   2.586   5.267   3.069 -2.8550 -1.3810  2.1840
 1228TIP3   OH2 3628   0.594   0.496   1.830  0.1478 -0.4049 -0.2174
 1228TIP3    H1 3629   0.648   0.558   1.878 -1.4510  0.7210  0.2024
 1228TIP3    H2 3630   0.514   0.489   1.882 -0.3514 -1.5856 -1.1034
 1229TIP3   OH2 3631   3.658   7.240   2.856 -0.5102  0.2724  0.2122
 1229TIP3    H1 3632   3.595   7.194   2.801  1.5894 -3.1574  0.4035
 1229TIP3    H2 3633   3.710   7.293   2.795  0.1341 -1.4841 -0.8231
 1230TIP3   OH2 3634   8.281   5.236   1.135 -0.5299 -0.4290  0.1272
 1230TIP3    H1 3635   8.195   5.195   1.122  0.5089 -2.5240 -0.7129
 1230TIP3    H2 3636   8.297   5.227   1.229 -0.2041 -2.3702 -0.0693
 1231TIP3   OH2 3637   2.103   7.316   2.062 -0.0806 -0.6045  0.2222
 1231TIP3    H1 3638   2.053   7.329   2.143  2.0649  2.2999  1.2607
 1231TIP3    H2 3639   2.151   7.398   2.050  2.5911 -2.3165 -1.9550
 1232TIP3   OH2 3640   3.348   4.819   1.418 -0.0607 -0.3811  0.1892
 1232TIP3    H1 3641   3.425   4.877   1.413 -0.6605  0.4367  0.2312
 1232TIP3    H2 3642   3.370   4.756   1.487 -0.5023  1.5162  2.1767
 1233TIP3   OH2 3643   4.334   6.931   1.752 -0.2034 -0.0059 -0.3005
 1233TIP3    H1 3644   4.393   6.963   1.685 -0.5208  0.8452 -0.1838
 1233TIP3    H2 3645   4.246   6.948   1.717 -0.3715  0.0840  0.1555
 1234TIP3   OH2 3646   1.558   1.615   2.255 -0.1405 -0.2718 -0.3956
 1234TIP3    H1 3647   1.510   1.537   2.282 -0.3510  0.3844  1.2408
 1234TIP3    H2 3648   1.615   1.636   2.330  1.6705 -0.1933 -1.7192
 1235TIP3   OH2 3649   5.571   6.595   0.091  0.7433 -0.4125  0.4829
 1235TIP3    H1 3650   5.496   6.550   0.129 -1.2019  2.3296  0.1771
 1235TIP3    H2 3651   5.589   6.546   0.010 -0.8649 -1.0290  0.4551
 1236TIP3   OH2 3652   7.488   0.441   6.691 -0.5853  0.0121 -0.3932
 1236TIP3    H1 3653   7.461   0.361   6.646 -3.0723 -0.7924  2.2205
 1236TIP3    H2 3654   7.499   0.415   6.782  3.5265  1.7067 -0.2018
 1237TIP3   OH2 3655   2.135   0.955   3.107  0.0893 -0.2296  0.0740
 1237TIP3    H1 3656   2.151   0.980   3.198 -0.6991 -0.7031  0.3515
 1237TIP3    H2 3657   2.060   0.896   3.111 -1.3636  1.4086 -1.0903
 1238TIP3   OH2 3658   4.715   4.479   6.240  0.1465  0.2788 -0.0328
 1238TIP3    H1 3659   4.683   4.454   6.327 -1.3815  0.3307 -0.5436
 1238TIP3    H2 3660   4.638   4.472   6.184  0.9700  0.8266 -1.2691
 1239TIP3   OH2 3661   7.671   2.314   3.501 -0.0771 -0.0617 -1.0374
 1239TIP3    H1 3662   7.694   2.368   3.577 -1.1066 -0.8840 -0.1077
 1239TIP3    H2 3663   7.701   2.365   3.426  1.1654  0.6763 -0.0797
 1240TIP3   OH2 3664   0.558   5.677   1.462 -0.2757 -0.1990  0.3053
 1240TIP3    H1 3665   0.462   5.671   1.453 -0.1235 -1.2580 -0.8511
 1240TIP3    H2 3666   0.586   5.725   1.384  0.3573 -2.2960 -0.8175
 1241TIP3   OH2 3667   5.124   6.060   2.869 -0.1745 -0.4998 -0.2222
 1241TIP3    H1 3668   5.123   6.049   2.964 -1.6619 -0.2169 -0.1802
 1241TIP3    H2 3669   5.119   6.155   2.856 -2.3028 -0.6117 -0.5526
 1242TIP3   OH2 3670   6.776   5.201   5.675 -0.1412 -0.0112 -0.0436
 1242TIP3    H1 3671   6.812   5.157   5.752  1.8705  0.8183 -0.4555
 1242TIP3    H2 3672   6.740   5.130   5.621 -1.1807 -0.6356  1.4044
 1243TIP3   OH2 3673   5.314   7.541   0.953  0.1170 -0.1564 -0.5999
 1243TIP3    H1 3674   5.389   7.550   0.894  0.8862 -1.6502  0.1281
 1243TIP3    H2 3675   5.341   7.587   1.033  0.6691 -1.4896  0.0084
 1244TIP3   OH2 3676   4.723   6.452   6.187  0.2842 -0.0591  0.7939
 1244TIP3    H1 3677   4.636   6.484   6.164  0.1828 -0.2779  0.8665
 1244TIP3    H2 3678   4.711   6.413   6.274  0.5986  0.5035  1.0898
 1245TIP3   OH2 3679   3.192   6.493   6.365 -0.1249 -0.2955  0.2476
 1245TIP3    H1 3680   3.207   6.400   6.382 -2.0479 -0.8856 -0.9350
 1245TIP3    H2 3681   3.275   6.525   6.330  0.7048 -1.4353  1.1031
 1246TIP3   OH2 3682   4.882   1.360   1.215  0.4660  0.3429  0.5015
 1246TIP3    H1 3683   4.939   1.287   1.241 -0.8673 -0.8119  0.3509
 1246TIP3    H2 3684   4.879   1.416   1.292 -0.7701 -1.3100  1.7601
 1247TIP3   OH2 3685   6.915   2.019   5.159  0.2021 -0.4929 -0.2306
 1247TIP3    H1 3686   6.997   1.981   5.128  0.2269  1.0279 -2.2699
 1247TIP3    H2 3687   6.847   1.976   5.108 -0.0349 -0.0262 -0.3189
 1248TIP3   OH2 3688   6.825   7.704   6.551  0.5510 -0.1367 -0.5004
 1248TIP3    H1 3689   6.897   7.702   6.614  0.1995  1.7437  0.0472
 1248TIP3    H2 3690   6.792   7.794   6.556 -1.9484 -0.9633 -0.6071
 1249TIP3   OH2 3691   7.459   7.600   4.417 -0.5026  0.1625 -0.0553
 1249TIP3    H1 3692   7.445   7.625   4.326  1.3535  0.4952 -0.2822
 1249TIP3    H2 3693   7.461   7.683   4.465 -0.5772  0.0491  0.1450
 1250TIP3   OH2 3694   3.796   1.836   4.473  0.3086  0.0877  0.3900
 1250TIP3    H1 3695   3.711   1.852   4.433  0.1770  1.1331  1.0408
 1250TIP3    H2 3696   3.775   1.811   4.564  0.7158  2.0795  1.0796
 1251TIP3   OH2 3697   7.704   7.563   1.249  0.1674  0.0996  0.0842
 1251TIP3    H1 3698   7.729   7.530   1.163  1.1441 -1.9029  1.0762
 1251TIP3    H2 3699   7.745   7.649   1.254 -0.0689  0.3426 -1.5083
 1252TIP3   OH2 3700   4.571   6.180   4.910  0.3321 -0.3293  0.2320
 1252TIP3    H1 3701   4.489   6.203   4.867  0.7180  0.2430 -0.2205
 1252TIP3    H2 3702   4.616   6.263   4.922  0.2346 -0.4701  1.7850
 1253TIP3   OH2 3703   5.724   5.636   6.125 -0.4458 -0.4099 -0.0065
 1253TIP3    H1 3704   5.819   5.638   6.134 -0.5432  2.7483  2.0683
 1253TIP3    H2 3705   5.694   5.570   6.187  0.3644 -1.2469 -0.4985
 1254TIP3   OH2 3706   4.384   3.352   5.287  0.0518  0.1390  0.1212
 1254TIP3    H1 3707   4.362   3.324   5.198 -0.5265 -0.6013  0.4856
 1254TIP3    H2 3708   4.345   3.285   5.343 -1.7033  1.8676  1.0604
 1255TIP3   OH2 3709   0.159   7.196   1.615  0.1032 -0.1527  0.0720
 1255TIP3    H1 3710   0.254   7.196   1.616  0.1261 -0.7398  1.8265
 1255TIP3    H2 3711   0.134   7.113   1.657 -1.1812  0.1019 -0.1340
 1256TIP3   OH2 3712   0.127   7.052   1.152  0.0844 -0.4685 -0.4113
 1256TIP3    H1 3713   0.200   7.037   1.092  0.2308 -1.4696 -0.0043
 1256TIP3    H2 3714   0.049   7.048   1.096  0.2132 -1.4855 -0.5466
 1257TIP3   OH2 3715   7.437   2.210   6.566  0.7299  0.5720 -0.1973
 1257TIP3    H1 3716   7.519   2.252   6.593 -0.5719  1.3046  3.1652
 1257TIP3    H2 3717   7.380   2.283   6.540  0.1324  0.4239  0.6395
 1258TIP3   OH2 3718   5.711   6.503   4.885 -0.3907  0.7084  0.3777
 1258TIP3    H1 3719   5.709   6.444   4.960 -0.8873  0.1974 -0.0242
 1258TIP3    H2 3720   5.637   6.562   4.899 -0.5986  0.4922  0.1982
 1259TIP3   OH2 3721   2.938   0.997   1.578  0.2523 -0.6068  0.0367
 1259TIP3    H1 3722   3.027   0.966   1.600 -1.0370 -3.4915  1.8337
 1259TIP3    H2 3723   2.920   0.960   1.492  0.4724 -0.7919  0.0679
 1260TIP3   OH2 3724   7.453   1.216   5.729 -0.5292 -0.1403  0.2542
 1260TIP3    H1 3725   7.526   1.278   5.736  1.1525 -1.3961 -3.4019
 1260TIP3    H2 3726   7.486   1.137   5.771  0.2407 -0.6367 -1.2007
 1261TIP3   OH2 3727   2.461   3.481   2.561  0.2865  0.3367 -0.5597
 1261TIP3    H1 3728   2.383   3.438   2.598 -0.1063  1.9674  0.6334
 1261TIP3    H2 3729   2.524   3.481   2.633  1.1848 -0.4264 -1.3323
 1262TIP3   OH2 3730   3.690   3.707   0.140 -0.0195  0.4776  0.1673
 1262TIP3    H1 3731   3.759   3.696   0.075  0.0569 -0.1275  0.3477
 1262TIP3    H2 3732   3.621   3.754   0.093 -1.2035 -2.4577 -1.2925
 1263TIP3   OH2 3733   4.810   4.920   3.286  0.0046  0.5654 -0.3777
 1263TIP3    H1 3734   4.802   4.846   3.347  0.0456  0.4435 -0.5171
 1263TIP3    H2 3735   4.738   4.978   3.308  0.2908  0.7498  0.0955
 1264TIP3   OH2 3736   3.998   3.467   0.252 -0.0255  0.4895 -0.0798
 1264TIP3    H1 3737   4.058   3.462   0.327  1.2095 -0.0362 -1.0554
 1264TIP3    H2 3738   3.919   3.507   0.287  1.1801  1.9828  1.0912
 1265TIP3   OH2 3739   2.928   0.498   0.793  0.0026  0.0069 -0.2035
 1265TIP3    H1 3740   2.926   0.588   0.826  0.4385 -0.1965  0.3970
 1265TIP3    H2 3741   2.864   0.497   0.722  0.6565  1.0243 -0.8192
 1266TIP3   OH2 3742   1.288   4.817   5.347  0.6054 -0.3623 -0.1066
 1266TIP3    H1 3743   1.280   4.768   5.265  1.3087  1.8418 -1.5842
 1266TIP3    H2 3744   1.371   4.865   5.338  0.0969  0.8580  1.3503
 1267TIP3   OH2 3745   3.719   3.083   1.699 -0.0689 -0.1307 -0.0056
 1267TIP3    H1 3746   3.781   3.011   1.710 -0.3221 -0.2901  0.4052
 1267TIP3    H2 3747   3.694   3.080   1.607  1.3910  0.6349 -0.4712
 1268TIP3   OH2 3748   4.627   4.349   1.983  0.3589 -0.3277 -0.1282
 1268TIP3    H1 3749   4.656   4.294   2.056  0.9754 -0.7454 -0.6747
 1268TIP3    H2 3750   4.535   4.366   2.001  0.8738  0.9215  1.5793
 1269TIP3   OH2 3751   3.157   7.545   3.376  0.3438 -0.0187  0.2445
 1269TIP3    H1 3752   3.232   7.586   3.334 -0.8702  1.4979 -0.5285
 1269TIP3    H2 3753   3.195   7.492   3.446  2.1974 -0.2677 -0.8905
 1270TIP3   OH2 3754   4.230   3.054   3.985 -0.3267 -0.0612 -0.1050
 1270TIP3    H1 3755   4.243   3.047   4.080 -2.3063  0.0642  0.2270
 1270TIP3    H2 3756   4.202   2.966   3.959 -1.5428  0.3417 -0.2245
 1271TIP3   OH2 3757   3.919   1.979   6.634  0.0539  0.2693  0.1629
 1271TIP3    H1 3758   3.878   1.937   6.709  0.7500 -0.4918  0.1384
 1271TIP3    H2 3759   4.013   1.965   6.647  0.1893  0.1817 -0.8070
 1272TIP3   OH2 3760   2.634   2.826   1.012 -0.3973  0.1478 -0.3705
 1272TIP3    H1 3761   2.596   2.763   0.951  0.8402  0.5226 -1.5874
 1272TIP3    H2 3762   2.672   2.772   1.082  0.4489 -0.4707 -1.2824
 1273TIP3   OH2 3763   0.156   6.247   1.778  0.0021  0.9853  0.0938
 1273TIP3    H1 3764   0.131   6.228   1.687  0.7654 -0.0901  0.0913
 1273TIP3    H2 3765   0.096   6.316   1.805 -0.5592  0.9828 -1.0739
 1274TIP3   OH2 3766   5.188   5.507   6.367 -0.2037  0.5210 -0.1631
 1274TIP3    H1 3767   5.096   5.504   6.341 -0.1450 -0.3262 -0.3050
 1274TIP3    H2 3768   5.206   5.600   6.382 -1.4434  0.5702  1.2105
 1275TIP3   OH2 3769   0.997   5.509   3.257 -0.7790 -0.7753  0.2641
 1275TIP3    H1 3770   0.983   5.600   3.284  1.9092  0.2950 -1.5141
 1275TIP3    H2 3771   1.071   5.479   3.310 -1.5421 -1.9099  0.7251
 1276TIP3   OH2 3772   6.068   0.420   3.757  0.0290 -0.3952 -0.1236
 1276TIP3    H1 3773   6.025   0.505   3.749  2.1706  0.6736 -1.1641
 1276TIP3    H2 3774   6.124   0.429   3.834 -1.1020 -1.5665  0.8829
 1277TIP3   OH2 3775   4.746   1.544   3.020  0.0816  0.3735  0.2359
 1277TIP3    H1 3776   4.790   1.629   3.023  2.1339 -0.6518  0.4396
 1277TIP3    H2 3777   4.764   1.504   3.104 -1.0284 -0.2178  0.2121
 1278TIP3   OH2 3778   1.821   7.680   6.674  0.0009  0.0333  0.4206
 1278TIP3    H1 3779   1.754   7.683   6.743  0.9203  1.7109  1.3182
 1278TIP3    H2 3780   1.772   7.688   6.592 -0.9946 -0.1213  0.9832
 1279TIP3   OH2 3781   6.259   4.985   1.876 -0.0066  0.1242  0.2323
 1279TIP3    H1 3782   6.286   4.944   1.958 -0.9892  2.0077  1.5868
 1279TIP3    H2 3783   6.339   4.990   1.823  0.4425 -1.9918  0.6322
 1280TIP3   OH2 3784   5.676   5.904   6.221 -0.0079  0.4374  0.0657
 1280TIP3    H1 3785   5.720   5.987   6.204  2.4916 -0.2862  2.4248
 1280TIP3    H2 3786   5.735   5.838   6.186 -1.4848 -0.4323 -0.8631
 1281TIP3   OH2 3787   1.642   1.621   1.716  0.3339  0.7947 -0.0032
 1281TIP3    H1 3788   1.703   1.549   1.732 -2.4825 -1.6005  0.7379
 1281TIP3    H2 3789   1.610   1.645   1.802 -1.6630  0.1881 -0.5359
 1282TIP3   OH2 3790   7.399   5.585   3.440  0.1535 -0.3359 -0.1518
 1282TIP3    H1 3791   7.464   5.524   3.477 -1.4981 -1.0807  1.7138
 1282TIP3    H2 3792   7.398   5.566   3.347  0.8153 -2.0566  0.1613
 1283TIP3   OH2 3793   2.552   0.481   0.868 -0.0996  0.1537 -0.7994
 1283TIP3    H1 3794   2.511   0.567   0.875 -2.3513 -0.9343  0.0701
 1283TIP3    H2 3795   2.480   0.421   0.853  1.1592 -1.8962  0.8981
 1284TIP3   OH2 3796   1.281   0.273   3.961  0.0166 -0.2436  0.0520
 1284TIP3    H1 3797   1.357   0.331   3.967  1.1866 -1.8680  2.8067
 1284TIP3    H2 3798   1.218   0.309   4.023 -1.6546  1.1629 -2.3043
 1285TIP3   OH2 3799   5.116   3.160   2.283 -0.3900 -0.0934 -0.4887
 1285TIP3    H1 3800   5.061   3.124   2.214  0.7649 -0.9443 -0.9956
 1285TIP3    H2 3801   5.195   3.191   2.237  1.2535 -2.4072  0.6031
 1286TIP3   OH2 3802   8.116   0.086   5.742 -0.2081 -0.5181  0.4458
 1286TIP3    H1 3803   8.090   0.114   5.655 -1.1092 -1.3767  0.4175
 1286TIP3    H2 3804   8.092  -0.006   5.746  0.0264 -0.5514  1.5292
 1287TIP3   OH2 3805   4.633   3.878   5.482  0.3990 -0.1644  0.0542
 1287TIP3    H1 3806   4.548   3.891   5.439 -0.4060  0.2560  1.6764
 1287TIP3    H2 3807   4.694   3.932   5.431 -0.4340  0.0436 -0.7611
 1288TIP3   OH2 3808   2.177   4.485   0.656  0.3735  0.6371  0.2241
 1288TIP3    H1 3809   2.176   4.453   0.566 -0.9349 -0.7903  0.7061
 1288TIP3    H2 3810   2.182   4.580   0.647  1.4087  0.4754 -1.3169
 1289TIP3   OH2 3811   7.655   2.823   0.260 -0.1975 -0.8523  0.2239
 1289TIP3    H1 3812   7.605   2.752   0.302  0.3408  0.1283  2.7300
 1289TIP3    H2 3813   7.737   2.782   0.233 -0.3810 -1.4389  0.5239
 1290TIP3   OH2 3814   8.079   4.200   1.757 -0.2058  0.4245 -0.5821
 1290TIP3    H1 3815   8.076   4.284   1.711 -1.4397 -0.0584 -1.4494
 1290TIP3    H2 3816   7.987   4.177   1.770  0.1221  0.0722  1.2984
 1291TIP3   OH2 3817   6.308   0.914   4.371  0.4251 -0.0423  0.3150
 1291TIP3    H1 3818   6.340   0.825   4.385 -1.0484 -0.7122 -0.3974
 1291TIP3    H2 3819   6.233   0.904   4.313 -0.3389  1.5874  0.9571
 1292TIP3   OH2 3820   1.498   2.077   6.698  0.4565  0.5961 -0.2604
 1292TIP3    H1 3821   1.573   2.020   6.709  0.8199  0.6127 -2.2538
 1292TIP3    H2 3822   1.491   2.124   6.781  1.9425 -0.2256  0.3664
 1293TIP3   OH2 3823   5.295   2.658   3.347 -0.0183 -0.0887  0.3074
 1293TIP3    H1 3824   5.282   2.728   3.284  0.5429  0.1681  0.4713
 1293TIP3    H2 3825   5.365   2.689   3.405  1.6692 -1.5809 -0.8186
 1294TIP3   OH2 3826   7.675   2.342   4.698  0.5005 -0.7506  0.0537
 1294TIP3    H1 3827   7.755   2.383   4.663  0.0410  0.1287  0.0053
 1294TIP3    H2 3828   7.649   2.399   4.770  0.6030 -1.7296  0.8824
 1295TIP3   OH2 3829   7.257   0.265   5.401 -0.2469 -0.1901 -0.6171
 1295TIP3    H1 3830   7.201   0.269   5.479 -1.4781 -0.1432 -1.4720
 1295TIP3    H2 3831   7.285   0.355   5.387 -0.4063 -0.1222 -0.4995
 1296TIP3   OH2 3832   3.467   5.910   6.323  0.1469  0.7885 -0.0697
 1296TIP3    H1 3833   3.486   5.952   6.240  0.9017  1.8023  0.5989
 1296TIP3    H2 3834   3.371   5.916   6.331 -0.1351 -0.8033 -1.5970
 1297TIP3   OH2 3835   0.455   3.932   2.132  0.4411  0.7395  0.3241
 1297TIP3    H1 3836   0.359   3.923   2.134  0.5074 -0.0783  0.7241
 1297TIP3    H2 3837   0.472   4.007   2.076 -0.4949  1.8091  1.4118
 1298TIP3   OH2 3838   6.878   4.731   1.531  0.3043 -0.2272  0.0198
 1298TIP3    H1 3839   6.794   4.686   1.543  0.2587 -0.1021  0.1760
 1298TIP3    H2 3840   6.870   4.811   1.583  0.4778 -0.1591 -0.0586
 1299TIP3   OH2 3841   7.254   2.515   5.462  0.5216  0.6500  0.2672
 1299TIP3    H1 3842   7.325   2.569   5.426 -0.8898  0.8682 -2.5455
 1299TIP3    H2 3843   7.293   2.429   5.476  1.5304  0.9520 -0.5509
 1300TIP3   OH2 3844   0.620   3.210   6.301 -0.2296  0.3356  0.5625
 1300TIP3    H1 3845   0.573   3.291   6.281 -0.3067  0.4301  1.1121
 1300TIP3    H2 3846   0.578   3.144   6.245 -0.4352  0.5946  0.4100
 1301TIP3   OH2 3847   1.050   1.016   1.831  0.1271  0.7114  0.6683
 1301TIP3    H1 3848   0.971   0.985   1.876  0.6394  1.0118  1.8219
 1301TIP3    H2 3849   1.034   0.998   1.738 -1.4550  1.1286  0.8432
 1302TIP3   OH2 3850   4.793   6.257   4.485 -0.0412  0.1558 -0.1437
 1302TIP3    H1 3851   4.763   6.224   4.400  1.0314  0.1286 -0.5236
 1302TIP3    H2 3852   4.741   6.209   4.549 -0.8884  0.1998 -0.7776
 1303TIP3   OH2 3853   0.406   1.096   2.231 -1.0467  0.1909 -0.0491
 1303TIP3    H1 3854   0.346   1.066   2.161 -1.0134  0.0237 -0.0066
 1303TIP3    H2 3855   0.402   1.026   2.296 -2.7588  1.3222  1.1476
 1304TIP3   OH2 3856   4.553   7.360   3.423  0.2613  0.2370 -0.2775
 1304TIP3    H1 3857   4.602   7.339   3.503 -0.1633  1.1845  0.2494
 1304TIP3    H2 3858   4.592   7.442   3.393 -1.5707  1.5154  0.6621
 1305TIP3   OH2 3859   6.323   3.930   3.052  0.0152 -0.5958 -0.0167
 1305TIP3    H1 3860   6.402   3.877   3.068  0.5598 -0.0364 -0.7703
 1305TIP3    H2 3861   6.251   3.874   3.082  0.7059 -1.0204  0.9262
 1306TIP3   OH2 3862   5.468   4.353   5.949 -0.5597  0.2450  0.0859
 1306TIP3    H1 3863   5.420   4.307   5.880  1.0282  1.8494 -2.2295
 1306TIP3    H2 3864   5.548   4.301   5.962 -0.5130  0.3446  0.2082
 1307TIP3   OH2 3865   0.189   3.784   4.099  0.3428 -0.9443 -0.6520
 1307TIP3    H1 3866   0.281   3.802   4.117  0.0751  0.0038 -0.2056
 1307TIP3    H2 3867   0.155   3.747   4.180  0.0600 -0.2364 -0.4438
 1308TIP3   OH2 3868   3.426   4.361   4.396  0.5012 -0.3063  0.0376
 1308TIP3    H1 3869   3.504   4.327   4.440  1.0460 -2.0323 -2.0728
 1308TIP3    H2 3870   3.457   4.439   4.349  0.9123 -0.7704 -0.4878
 1309TIP3   OH2 3871   3.909   7.123   5.589 -0.2338 -0.1050 -0.1181
 1309TIP3    H1 3872   3.870   7.120   5.502  0.7147  0.6054 -0.5828
 1309TIP3    H2 3873   3.999   7.094   5.576  1.2009  3.7690 -0.1608
 1310TIP3   OH2 3874   4.498   6.397   6.570  0.5866 -0.0883  0.0124
 1310TIP3    H1 3875   4.452   6.461   6.515  0.9548 -0.3321 -0.5917
 1310TIP3    H2 3876   4.560   6.450   6.621  0.8887  0.0383 -0.4822
 1311TIP3   OH2 3877   0.643   7.595   0.808 -0.3203 -0.2216  0.3694
 1311TIP3    H1 3878   0.630   7.507   0.773  1.4845 -0.2129 -0.4280
 1311TIP3    H2 3879   0.658   7.582   0.902 -2.8992 -0.4425  0.8494
 1312TIP3   OH2 3880   7.974   5.266   0.850  0.3688  0.6938 -0.0358
 1312TIP3    H1 3881   7.900   5.319   0.820 -1.2817 -0.8423  1.1223
 1312TIP3    H2 3882   8.047   5.328   0.852 -1.1005  2.5551 -0.2101
 1313TIP3   OH2 3883   3.535   2.947   1.195 -0.2527 -0.2939  0.0986
 1313TIP3    H1 3884   3.524   3.021   1.136 -2.2609 -1.0419 -0.5386
 1313TIP3    H2 3885   3.490   2.973   1.275  1.4498  0.2450  0.9308
 1314TIP3   OH2 3886   3.417   0.269   0.749  0.3766 -0.2262 -0.1269
 1314TIP3    H1 3887   3.327   0.300   0.752  0.8340  1.1120  0.9013
 1314TIP3    H2 3888   3.409   0.174   0.739 -1.1084 -0.0315 -1.1184
 1315TIP3   OH2 3889   2.059   6.751   1.389 -0.1951  0.2965 -0.0375
 1315TIP3    H1 3890   2.066   6.658   1.411 -4.5115 -0.1408  0.3766
 1315TIP3    H2 3891   2.111   6.796   1.456 -0.5475 -1.6882  1.6698
 1316TIP3   OH2 3892   4.873   7.562   4.824  0.0220  0.0267 -0.1847
 1316TIP3    H1 3893   4.921   7.599   4.751  0.1454 -0.3821 -0.3160
 1316TIP3    H2 3894   4.933   7.566   4.898 -0.1280  0.5048 -0.0904
 1317TIP3   OH2 3895   6.473   4.074   5.642 -0.3844 -0.7922  0.3589
 1317TIP3    H1 3896   6.388   4.090   5.684 -0.3344  0.9914 -0.1488
 1317TIP3    H2 3897   6.526   4.035   5.711 -2.1319 -3.8630  0.1731
 1318TIP3   OH2 3898   1.653   4.729   4.402  0.2074 -0.3326  0.4225
 1318TIP3    H1 3899   1.725   4.741   4.463  1.6292  1.2838 -1.4351
 1318TIP3    H2 3900   1.658   4.804   4.343 -2.6574 -0.4776 -0.1595
 1319TIP3   OH2 3901   5.427   5.412   3.936 -0.3930  0.2584  0.0783
 1319TIP3    H1 3902   5.513   5.382   3.963 -1.5713 -1.4055  2.2842
 1319TIP3    H2 3903   5.445   5.486   3.878  2.4762  0.5067  1.1152
 1320TIP3   OH2 3904   2.000   7.612   6.082 -0.0317 -0.6456 -0.4775
 1320TIP3    H1 3905   2.060   7.553   6.036 -0.9742 -2.0639  0.0207
 1320TIP3    H2 3906   1.914   7.594   6.043 -0.5760 -0.6936  0.7000
 1321TIP3   OH2 3907   2.564   4.213   0.116  0.3073  0.3133 -0.0025
 1321TIP3    H1 3908   2.556   4.289   0.173  0.3859  0.6869 -0.4859
 1321TIP3    H2 3909   2.640   4.166   0.148  0.4280  0.5920  0.1206
 1322TIP3   OH2 3910   2.480   7.334   1.545 -0.3550  0.1638 -0.0832
 1322TIP3    H1 3911   2.537   7.293   1.610 -1.9290  0.0563  1.3255
 1322TIP3    H2 3912   2.394   7.335   1.587 -1.5359 -0.2261 -2.3196
 1323TIP3   OH2 3913   8.158   4.289   5.849 -0.8827  0.3653 -0.0254
 1323TIP3    H1 3914   8.239   4.305   5.800 -0.1289 -0.4918  0.8939
 1323TIP3    H2 3915   8.090   4.280   5.782  0.4975 -3.2288 -1.1619
 1324TIP3   OH2 3916   5.712   5.384   0.637  0.4972 -0.0412  0.2914
 1324TIP3    H1 3917   5.674   5.382   0.725  0.3353 -0.2572  0.2174
 1324TIP3    H2 3918   5.762   5.302   0.631  1.7384  0.6475  0.7217
 1325TIP3   OH2 3919   3.015   3.733   5.057 -0.3165 -0.2045 -0.3438
 1325TIP3    H1 3920   3.087   3.676   5.084 -0.6768  0.1711  1.5363
 1325TIP3    H2 3921   2.939   3.676   5.054 -0.4477 -0.0716  0.3518
 1326TIP3   OH2 3922   6.677   3.581   1.997 -0.2821  0.7679 -0.1516
 1326TIP3    H1 3923   6.589   3.618   1.993 -0.0373  1.7559  1.9327
 1326TIP3    H2 3924   6.666   3.495   2.036 -0.3784  0.6382 -0.4641
 1327TIP3   OH2 3925   6.148   4.101   6.068  0.6834 -0.4961  0.4323
 1327TIP3    H1 3926   6.208   4.174   6.051  2.0363 -1.6993 -0.1833
 1327TIP3    H2 3927   6.104   4.125   6.150  0.7974  1.1780  0.0421
 1328TIP3   OH2 3928   1.268   0.988   3.608  0.1614  0.1347 -0.5713
 1328TIP3    H1 3929   1.282   0.914   3.667 -0.4095  1.0609  0.7876
 1328TIP3    H2 3930   1.320   0.967   3.530 -1.1013 -2.3695 -0.8650
 1329TIP3   OH2 3931   2.190   7.779   4.262  0.0538  0.2523 -0.0638
 1329TIP3    H1 3932   2.102   7.808   4.240 -0.0667  1.2163  1.5722
 1329TIP3    H2 3933   2.245   7.856   4.248  0.3273  0.2075  0.7048
 1330TIP3   OH2 3934   3.519   0.185   2.810  0.1312 -0.3377 -0.3111
 1330TIP3    H1 3935   3.577   0.113   2.786 -1.7159 -1.7557 -0.7916
 1330TIP3    H2 3936   3.534   0.252   2.743  0.9603 -0.7887 -0.5915
 1331TIP3   OH2 3937   7.048   1.019   3.176 -0.0941  0.2644  0.7379
 1331TIP3    H1 3938   7.076   1.104   3.142  0.8654 -0.4287 -0.2784
 1331TIP3    H2 3939   7.033   1.034   3.269 -2.4600  2.1556  0.1502
 1332TIP3   OH2 3940   2.759   3.406   6.275  0.3014 -0.2912 -0.4748
 1332TIP3    H1 3941   2.695   3.473   6.251 -0.0687 -0.1468  0.8332
 1332TIP3    H2 3942   2.718   3.323   6.249 -0.6541 -0.2380  0.7931
 1333TIP3   OH2 3943   4.791   4.267   4.657  0.3408  0.1637  0.0020
 1333TIP3    H1 3944   4.865   4.214   4.628  0.1880 -0.4198  0.6526
 1333TIP3    H2 3945   4.830   4.340   4.704  0.4918 -1.8739  3.3052
 1334TIP3   OH2 3946   6.912   1.271   5.852  0.1422  0.1690  0.2176
 1334TIP3    H1 3947   6.902   1.313   5.938 -2.4057 -0.6721  0.4302
 1334TIP3    H2 3948   7.004   1.246   5.848  0.9072  2.4143  1.6208
 1335TIP3   OH2 3949   2.081   4.863   2.799 -0.6022  0.1064  0.0697
 1335TIP3    H1 3950   2.053   4.935   2.856 -0.6896 -1.1250  1.6514
 1335TIP3    H2 3951   2.169   4.887   2.771 -1.6790  2.1917 -1.8375
 1336TIP3   OH2 3952   4.330   7.684   2.808 -0.3785 -0.5966  0.3985
 1336TIP3    H1 3953   4.359   7.745   2.741  0.7063 -2.0368 -0.5147
 1336TIP3    H2 3954   4.398   7.686   2.875 -0.6798 -0.2973  0.6940
 1337TIP3   OH2 3955   0.895   5.510   6.104 -0.7129 -0.0856 -0.4802
 1337TIP3    H1 3956   0.879   5.534   6.195  1.4890 -1.1773  0.2585
 1337TIP3    H2 3957   0.831   5.440   6.087 -1.1125  0.0892  0.2404
 1338TIP3   OH2 3958   1.375   5.058   6.422  0.1674 -0.2736  0.1295
 1338TIP3    H1 3959   1.404   4.968   6.414  0.2081 -0.2691  0.2229
 1338TIP3    H2 3960   1.441   5.109   6.374 -0.3171 -0.3758 -0.6573
 1339TIP3   OH2 3961   5.258   1.323   1.389  0.5941  0.5142 -0.4104
 1339TIP3    H1 3962   5.313   1.378   1.444  0.2272  1.7220 -1.2079
 1339TIP3    H2 3963   5.285   1.345   1.300 -0.9386  0.9091 -0.8053
 1340TIP3   OH2 3964   0.521   2.650   1.413 -0.0873 -0.3306 -0.1124
 1340TIP3    H1 3965   0.603   2.633   1.367 -0.6291 -0.9282 -0.8890
 1340TIP3    H2 3966   0.493   2.736   1.381 -0.3990 -0.6887 -0.8226
 1341TIP3   OH2 3967   5.721   5.989   5.619 -0.0646 -0.2464  0.4403
 1341TIP3    H1 3968   5.634   5.980   5.580 -0.4682  1.7486  0.7597
 1341TIP3    H2 3969   5.754   5.900   5.626 -2.0169 -1.0350  0.1631
 1342TIP3   OH2 3970   7.134   3.206   5.618 -0.0669  0.1881  0.5230
 1342TIP3    H1 3971   7.170   3.172   5.536  0.0463 -0.1211  0.7002
 1342TIP3    H2 3972   7.200   3.268   5.649  0.7822 -1.0743  1.3316
 1343TIP3   OH2 3973   7.587   5.123   0.415  0.2627 -0.5233 -0.0130
 1343TIP3    H1 3974   7.681   5.117   0.399  0.4071 -3.9764  1.1380
 1343TIP3    H2 3975   7.546   5.090   0.335  0.3260 -2.8099  0.7968
 1344TIP3   OH2 3976   4.718   4.347   1.420  0.4144  0.2497 -0.4890
 1344TIP3    H1 3977   4.790   4.291   1.449  0.5410 -1.0306 -3.0074
 1344TIP3    H2 3978   4.760   4.421   1.377  0.2701 -0.5464 -2.0440
 1345TIP3   OH2 3979   3.665   3.125   6.158 -0.9812 -0.6180  0.4898
 1345TIP3    H1 3980   3.583   3.077   6.168 -0.1291 -1.8218  2.0764
 1345TIP3    H2 3981   3.673   3.176   6.239 -0.2849 -0.3008  0.2307
 1346TIP3   OH2 3982   7.682   4.721   4.036  0.1817 -0.0814 -0.3790
 1346TIP3    H1 3983   7.764   4.736   3.988  1.2203 -0.8346  1.1062
 1346TIP3    H2 3984   7.705   4.659   4.105 -1.2846  0.8994  1.0534
 1347TIP3   OH2 3985   3.740   0.738   0.102  0.2090 -0.0680 -0.2346
 1347TIP3    H1 3986   3.740   0.778   0.189 -1.1146  0.8608 -0.6224
 1347TIP3    H2 3987   3.830   0.710   0.088  0.3359 -0.7496  1.6499
 1348TIP3   OH2 3988   7.020   7.743   0.144 -0.2539  0.5449  0.3077
 1348TIP3    H1 3989   7.008   7.772   0.234  0.2497 -2.4146  1.4363
 1348TIP3    H2 3990   7.115   7.729   0.135 -0.5448 -2.0442  0.4048
 1349TIP3   OH2 3991   2.249   7.800   3.922 -0.5460  0.4282 -0.2343
 1349TIP3    H1 3992   2.323   7.795   3.862  0.5102 -0.4498  1.0999
 1349TIP3    H2 3993   2.280   7.854   3.995 -0.9594 -0.5050  0.6675
 1350TIP3   OH2 3994   0.713   1.486   6.780  0.8616 -0.6462 -0.3934
 1350TIP3    H1 3995   0.665   1.567   6.761  0.8065 -0.2980  1.1326
 1350TIP3    H2 3996   0.702   1.433   6.701  0.1138  0.4450 -1.0594
 1351TIP3   OH2 3997   7.667   2.452   1.445 -0.3481 -0.1739 -0.1337
 1351TIP3    H1 3998   7.658   2.367   1.402  3.1076 -0.0582 -1.3834
 1351TIP3    H2 3999   7.696   2.431   1.534  0.4872 -0.3599 -0.4367
 1352TIP3   OH2 4000   8.148   3.742   0.971 -0.1549 -0.0694 -0.5888
 1352TIP3    H1 4001   8.145   3.792   1.053  0.0196 -0.6365 -0.2297
 1352TIP3    H2 4002   8.236   3.757   0.937  0.4587 -1.3884  0.3333
 1353TIP3   OH2 4003   7.565   3.318   0.362  0.1688 -0.1810  0.3463
 1353TIP3    H1 4004   7.594   3.235   0.324 -0.6866 -1.5486  2.4555
 1353TIP3    H2 4005   7.475   3.301   0.390 -0.3111  1.7574  0.0939
 1354TIP3   OH2 4006   7.811   7.017   3.112  0.4042 -0.0869 -0.2092
 1354TIP3    H1 4007   7.823   6.924   3.133  1.9598  0.2538  0.5670
 1354TIP3    H2 4008   7.753   7.050   3.180  1.1007 -0.1734  0.4447
 1355TIP3   OH2 4009   6.944   7.741   2.453 -0.4264 -0.7376  0.2614
 1355TIP3    H1 4010   7.003   7.775   2.386 -2.1910 -0.6979 -1.3253
 1355TIP3    H2 4011   6.969   7.649   2.463  0.5585 -0.4678  0.3784
 1356TIP3   OH2 4012   3.406   3.633   4.639 -0.0858 -0.2124 -0.2767
 1356TIP3    H1 4013   3.499   3.629   4.663 -0.5576 -0.5138  1.5929
 1356TIP3    H2 4014   3.407   3.637   4.543  1.8685  0.4697 -0.2776
 1357TIP3   OH2 4015   5.626   2.011   6.293 -0.8171  0.1304 -0.0904
 1357TIP3    H1 4016   5.573   2.039   6.218 -1.3988 -3.0997 -1.0356
 1357TIP3    H2 4017   5.713   2.046   6.274 -1.3066  0.6706 -1.4952
 1358TIP3   OH2 4018   1.061   1.828   2.512 -0.1283  0.0860 -0.2953
 1358TIP3    H1 4019   1.032   1.744   2.548 -1.8852  0.2200 -1.2808
 1358TIP3    H2 4020   1.130   1.805   2.450 -2.0968 -0.9482 -2.2458
 1359TIP3   OH2 4021   3.995   4.229   5.917 -0.2776  0.3763  0.0654
 1359TIP3    H1 4022   3.977   4.194   6.005 -1.4269 -1.3113 -0.8015
 1359TIP3    H2 4023   4.021   4.153   5.866  2.8753  1.6852 -0.5119
 1360TIP3   OH2 4024   7.304   0.201   0.161  0.1464  0.5322 -0.4639
 1360TIP3    H1 4025   7.294   0.296   0.155 -0.8583  0.4419 -0.3779
 1360TIP3    H2 4026   7.391   0.189   0.200  0.2315  1.4148 -0.3449
 1361TIP3   OH2 4027   6.834   4.034   5.343  0.4959 -0.1359 -1.0761
 1361TIP3    H1 4028   6.884   4.075   5.272 -1.5568  2.1486 -1.3212
 1361TIP3    H2 4029   6.783   3.966   5.300  0.3128  0.3006 -1.5651
 1362TIP3   OH2 4030   4.991   4.343   5.791  0.0341  0.1016 -0.5651
 1362TIP3    H1 4031   4.976   4.310   5.702 -0.4264 -1.1637 -0.0356
 1362TIP3    H2 4032   4.964   4.272   5.848  3.3297 -0.4165  0.5680
 1363TIP3   OH2 4033   0.510   6.393   3.573 -0.1561  0.3668 -0.1395
 1363TIP3    H1 4034   0.431   6.400   3.519 -0.6531 -1.5263  0.2936
 1363TIP3    H2 4035   0.486   6.333   3.644  1.6914 -0.3173 -0.0378
 1364TIP3   OH2 4036   1.359   3.903   2.370 -0.4330  0.1350 -0.4150
 1364TIP3    H1 4037   1.338   3.984   2.416 -3.5172 -1.8334  2.0521
 1364TIP3    H2 4038   1.295   3.899   2.299  0.8795  0.6393 -1.6642
 1365TIP3   OH2 4039   5.274   3.253   4.232 -0.0085 -0.2880 -0.5352
 1365TIP3    H1 4040   5.328   3.314   4.181 -1.2601  0.6110 -0.8336
 1365TIP3    H2 4041   5.184   3.270   4.203 -0.4983 -1.5619  0.1356
 1366TIP3   OH2 4042   7.483   5.233   3.589  0.6035  0.4126  0.3806
 1366TIP3    H1 4043   7.390   5.250   3.603  0.7815  1.0894  0.7606
 1366TIP3    H2 4044   7.504   5.164   3.653 -0.4589 -2.4992 -2.1518
 1367TIP3   OH2 4045   0.424   1.615   1.979 -0.1369  0.2496  0.6696
 1367TIP3    H1 4046   0.425   1.711   1.973  1.1664  0.2306  0.1617
 1367TIP3    H2 4047   0.463   1.586   1.897 -0.0395 -0.7011  1.0468
 1368TIP3   OH2 4048   4.503   6.994   1.480  0.3988 -0.5332 -0.1457
 1368TIP3    H1 4049   4.535   7.024   1.395  0.1423  0.9132  0.2347
 1368TIP3    H2 4050   4.412   7.022   1.483  0.8395  0.9858  1.2345
 1369TIP3   OH2 4051   3.069   3.832   6.634 -0.0765 -0.4648 -0.0726
 1369TIP3    H1 4052   3.121   3.819   6.554  1.1915 -0.6182  0.7415
 1369TIP3    H2 4053   3.132   3.868   6.696 -0.9786 -0.6417  0.9552
 1370TIP3   OH2 4054   1.010   4.798   1.506 -0.6692 -0.1977  0.3049
 1370TIP3    H1 4055   1.061   4.806   1.587  0.2664  0.0589 -0.2942
 1370TIP3    H2 4056   1.072   4.818   1.436 -1.3011 -1.0260 -0.5222
 1371TIP3   OH2 4057   2.039   2.777   0.231  0.1778 -0.2166  0.0409
 1371TIP3    H1 4058   2.055   2.689   0.198 -0.6077 -1.2983  2.3354
 1371TIP3    H2 4059   2.124   2.820   0.230  0.7026 -1.2428 -0.3713
 1372TIP3   OH2 4060   6.890   3.855   3.045  0.1326  0.5432  0.0262
 1372TIP3    H1 4061   6.839   3.825   3.120 -1.2937  0.4317 -0.9509
 1372TIP3    H2 4062   6.936   3.777   3.015 -0.8360  0.1156 -0.3887
 1373TIP3   OH2 4063   5.838   2.313   4.320  0.2055  0.0395 -0.4964
 1373TIP3    H1 4064   5.768   2.352   4.267  1.0714 -0.3195 -1.9798
 1373TIP3    H2 4065   5.917   2.325   4.267  1.3768  0.9178  1.3756
 1374TIP3   OH2 4066   3.876   4.528   6.320 -0.4713 -0.0753  0.1306
 1374TIP3    H1 4067   3.919   4.448   6.289  0.3582  0.7048 -0.8200
 1374TIP3    H2 4068   3.893   4.592   6.251 -0.2897  1.1852  1.3063
 1375TIP3   OH2 4069   0.979   5.666   0.686  0.3585  0.0479  0.0871
 1375TIP3    H1 4070   1.015   5.609   0.755  0.0944 -0.2941 -0.0547
 1375TIP3    H2 4071   1.056   5.701   0.642  0.5401  0.6875  0.8876
 1376TIP3   OH2 4072   6.334   7.388   3.794  0.0626 -0.1482  0.4770
 1376TIP3    H1 4073   6.410   7.445   3.782 -0.0777 -0.0512  0.0199
 1376TIP3    H2 4074   6.261   7.448   3.810 -0.1473 -0.1795 -0.3401
 1377TIP3   OH2 4075   8.166   3.470   1.012  0.1802  0.1852 -0.9399
 1377TIP3    H1 4076   8.206   3.475   0.926  0.8195 -0.0342 -0.6646
 1377TIP3    H2 4077   8.122   3.555   1.024  1.4719  0.8533 -0.8138
 1378TIP3   OH2 4078   1.178   2.494   1.011  0.7107 -0.0111 -0.1363
 1378TIP3    H1 4079   1.168   2.452   0.925  0.4429  2.3284 -1.3260
 1378TIP3    H2 4080   1.270   2.520   1.014  0.5403  0.5818 -0.0378
 1379TIP3   OH2 4081   4.071   6.436   3.939 -0.6794  0.2093 -0.2558
 1379TIP3    H1 4082   4.124   6.501   3.892 -1.4181  0.2747 -1.0085
 1379TIP3    H2 4083   4.036   6.485   4.014 -1.2728  0.7029 -0.8465
 1380TIP3   OH2 4084   2.476   4.299   5.709  0.5004 -0.0862 -0.1745
 1380TIP3    H1 4085   2.515   4.304   5.796 -1.7437  0.8111  0.8431
 1380TIP3    H2 4086   2.459   4.390   5.685 -1.5961 -0.4386 -0.2307
 1381TIP3   OH2 4087   5.399   4.735   4.942 -0.3180 -0.0066 -0.0360
 1381TIP3    H1 4088   5.494   4.736   4.928 -0.0922 -2.6404  0.6759
 1381TIP3    H2 4089   5.386   4.789   5.020  0.5310  0.7461 -0.3969
 1382TIP3   OH2 4090   4.133   7.414   4.341 -0.1938  0.3586  0.4159
 1382TIP3    H1 4091   4.058   7.387   4.394 -0.8414  3.1324  1.0787
 1382TIP3    H2 4092   4.199   7.440   4.405  0.8487 -0.6868 -0.1859
 1383TIP3   OH2 4093   4.039   7.083   1.173  0.4001  0.3776 -0.5796
 1383TIP3    H1 4094   4.105   7.016   1.155  0.5574 -0.0441  1.4255
 1383TIP3    H2 4095   3.960   7.051   1.130 -0.0272 -2.0562  1.7894
 1384TIP3   OH2 4096   3.963   5.472   1.147  0.8162  0.5159  0.0095
 1384TIP3    H1 4097   3.975   5.436   1.059  0.4575  0.4662 -0.0167
 1384TIP3    H2 4098   4.038   5.531   1.158  0.4630  1.0951 -0.6203
 1385TIP3   OH2 4099   1.866   3.626   6.447  0.0758 -0.0981  0.3767
 1385TIP3    H1 4100   1.836   3.577   6.370  1.2942  2.0008 -1.5344
 1385TIP3    H2 4101   1.818   3.709   6.444  1.9073  1.0315  0.4331
 1386TIP3   OH2 4102   7.951   3.272   3.989  0.1203  0.0750  0.3077
 1386TIP3    H1 4103   8.045   3.284   4.003  0.2487 -1.4105  0.8185
 1386TIP3    H2 4104   7.933   3.182   4.016 -1.4677  0.3475  0.2772
 1387TIP3   OH2 4105   4.983   6.093   1.720 -0.8281  0.0760  0.5387
 1387TIP3    H1 4106   4.946   6.011   1.752 -1.7868  0.5684  0.7211
 1387TIP3    H2 4107   5.078   6.079   1.723 -0.9207 -0.4844  2.0447
 1388TIP3   OH2 4108   1.463   6.875   6.689  0.1304  0.7326 -0.4791
 1388TIP3    H1 4109   1.475   6.801   6.629 -0.1656 -0.3319  0.7213
 1388TIP3    H2 4110   1.536   6.868   6.751 -1.0108  0.1853  0.8702
 1389TIP3   OH2 4111   3.384   7.550   6.745 -0.4524 -0.0104  0.1298
 1389TIP3    H1 4112   3.472   7.566   6.779 -0.8672 -1.7401  2.2275
 1389TIP3    H2 4113   3.345   7.637   6.740  0.5679  0.5878  1.6105
 1390TIP3   OH2 4114   4.089   7.031   6.610  0.1742 -0.0451  0.6438
 1390TIP3    H1 4115   4.044   7.023   6.694  1.2291 -1.8684  1.0886
 1390TIP3    H2 4116   4.061   6.955   6.560  0.0671  0.6719 -0.4302
 1391TIP3   OH2 4117   3.500   6.314   0.932 -0.2036 -0.0137 -0.3703
 1391TIP3    H1 4118   3.550   6.290   0.855  1.8135 -1.3044  1.2281
 1391TIP3    H2 4119   3.428   6.251   0.936  0.4120 -0.7350 -0.5284
 1392TIP3   OH2 4120   0.038   4.309   0.272 -0.3776 -0.4217 -0.3189
 1392TIP3    H1 4121  -0.007   4.372   0.216  0.2358  2.1403  1.8589
 1392TIP3    H2 4122   0.130   4.313   0.244 -0.5904 -1.8113 -1.3624
 1393TIP3   OH2 4123   3.954   6.483   5.853 -0.0374  0.3116 -0.2298
 1393TIP3    H1 4124   4.022   6.512   5.914 -0.3537  0.9600 -0.1699
 1393TIP3    H2 4125   4.001   6.432   5.787  0.3619 -0.0802  0.3463
 1394TIP3   OH2 4126   0.936   3.218   4.832 -0.1730 -0.4212 -0.1101
 1394TIP3    H1 4127   0.949   3.192   4.923 -0.6611  1.5901  0.5742
 1394TIP3    H2 4128   0.984   3.301   4.823 -0.8467 -0.1504 -1.4416
 1395TIP3   OH2 4129   2.160   3.294   4.794  0.4631 -0.0838  0.0620
 1395TIP3    H1 4130   2.072   3.317   4.825  0.3147 -0.2816 -0.2187
 1395TIP3    H2 4131   2.210   3.376   4.802  0.3713 -0.0804  0.6333
 1396TIP3   OH2 4132   2.371   0.634   1.399 -0.7492  0.2903  0.0997
 1396TIP3    H1 4133   2.384   0.543   1.422  1.4077  0.8951  1.5759
 1396TIP3    H2 4134   2.359   0.634   1.304 -1.0017 -1.5146  0.1086
 1397TIP3   OH2 4135   2.291   7.014   6.547 -0.3429  0.5209 -0.6463
 1397TIP3    H1 4136   2.356   7.051   6.607 -0.3251 -0.4177 -0.0691
 1397TIP3    H2 4137   2.334   6.936   6.511 -0.1728  1.3148 -2.2464
 1398TIP3   OH2 4138   4.473   6.770   3.878 -0.6036 -0.0760  0.0872
 1398TIP3    H1 4139   4.557   6.786   3.836 -0.8119  1.0361  0.0791
 1398TIP3    H2 4140   4.473   6.676   3.895  0.2976 -0.2222 -0.6382
 1399TIP3   OH2 4141   7.327   5.977   5.159  0.0787 -0.2517  0.5330
 1399TIP3    H1 4142   7.251   5.996   5.213  0.5271  1.6382  0.5681
 1399TIP3    H2 4143   7.402   6.001   5.213  0.5362  1.5827 -0.8280
 1400TIP3   OH2 4144   1.070   6.725   0.322  0.0988  0.4647  0.7730
 1400TIP3    H1 4145   1.109   6.777   0.392  1.3961  0.4457  0.0946
 1400TIP3    H2 4146   1.086   6.634   0.348 -1.0450  0.4125  1.3364
 1401TIP3   OH2 4147   5.942   0.372   3.488  0.1515 -0.5831 -0.3195
 1401TIP3    H1 4148   5.899   0.290   3.513 -1.0311  0.5121  1.5283
 1401TIP3    H2 4149   6.015   0.381   3.550  0.9329 -0.7512 -1.2072
 1402TIP3   OH2 4150   7.136   6.317   3.260  0.1686 -0.3413  0.2799
 1402TIP3    H1 4151   7.123   6.384   3.193  0.0086 -1.5846 -0.9983
 1402TIP3    H2 4152   7.079   6.244   3.232  0.2276 -0.9590  1.6864
 1403TIP3   OH2 4153   1.773   1.594   0.559 -0.6072 -0.6041  0.6074
 1403TIP3    H1 4154   1.678   1.581   0.553 -0.5841 -0.2951 -1.0038
 1403TIP3    H2 4155   1.784   1.688   0.573 -0.5394 -0.4260 -0.5220
 1404TIP3   OH2 4156   1.524   6.990   1.268  0.3409 -0.4480 -0.0562
 1404TIP3    H1 4157   1.506   6.972   1.175 -0.7631  0.8437 -0.1147
 1404TIP3    H2 4158   1.438   6.985   1.310  0.7936 -0.6860  0.8515
 1405TIP3   OH2 4159   6.100   5.767   3.199 -0.2298  0.0290 -0.4072
 1405TIP3    H1 4160   6.052   5.837   3.156 -0.6482  0.0770  0.1192
 1405TIP3    H2 4161   6.032   5.707   3.230  0.1376 -0.7996 -1.1565
 1406TIP3   OH2 4162   0.979   5.651   1.989  0.6378 -0.1319  0.4026
 1406TIP3    H1 4163   0.917   5.713   1.953  0.9861 -0.6621 -1.1657
 1406TIP3    H2 4164   1.041   5.633   1.918  1.0373 -1.6193  1.0701
 1407TIP3   OH2 4165   0.240   2.859   4.473  0.3551  0.3927  0.8506
 1407TIP3    H1 4166   0.191   2.840   4.393 -2.9425  2.3905  2.1720
 1407TIP3    H2 4167   0.237   2.778   4.523  1.9843 -0.7148 -0.7480
 1408TIP3   OH2 4168   1.226   0.769   5.045 -0.0022 -0.0643 -0.2989
 1408TIP3    H1 4169   1.163   0.721   5.099  0.9252 -2.7753 -1.4500
 1408TIP3    H2 4170   1.307   0.767   5.096  0.2702 -0.5368 -0.7414
 1409TIP3   OH2 4171   3.138   2.624   2.814 -0.3710 -0.0806 -0.4944
 1409TIP3    H1 4172   3.061   2.628   2.757 -0.8445 -1.2112  0.0365
 1409TIP3    H2 4173   3.178   2.540   2.795 -0.1542 -0.1763  0.3616
 1410TIP3   OH2 4174   4.567   4.840   5.265 -0.0258  0.2849  0.5446
 1410TIP3    H1 4175   4.627   4.849   5.191 -2.2493  0.2634 -1.3819
 1410TIP3    H2 4176   4.615   4.787   5.329  1.8024 -0.1370 -1.0810
 1411TIP3   OH2 4177   3.592   7.685   4.262  0.2300  0.0793  0.4510
 1411TIP3    H1 4178   3.552   7.699   4.348 -0.0023 -0.8194  0.5005
 1411TIP3    H2 4179   3.686   7.686   4.279  0.1773 -1.5464  0.9764
 1412TIP3   OH2 4180   4.378   6.459   3.798 -0.3201  0.4448 -0.5128
 1412TIP3    H1 4181   4.310   6.527   3.797 -2.1544 -1.2679  0.6703
 1412TIP3    H2 4182   4.377   6.423   3.709 -1.4298  0.0430 -0.3560
 1413TIP3   OH2 4183   4.276   7.169   2.962 -0.5541  0.0415 -0.1092
 1413TIP3    H1 4184   4.186   7.168   2.927 -0.8025 -0.0242  0.5236
 1413TIP3    H2 4185   4.306   7.079   2.951 -1.6547 -0.7202  2.4060
 1414TIP3   OH2 4186   4.474   5.851   1.200 -0.0389 -0.3236  0.3818
 1414TIP3    H1 4187   4.529   5.899   1.262 -0.9109  0.0713  0.8616
 1414TIP3    H2 4188   4.387   5.890   1.209 -0.0512  0.2249 -1.6144
 1415TIP3   OH2 4189   2.875   5.367   0.019 -0.3113 -0.3174  0.3879
 1415TIP3    H1 4190   2.910   5.395   0.103  0.5899  1.8797 -0.6094
 1415TIP3    H2 4191   2.914   5.281   0.003  1.1004  0.1086  1.3440
 1416TIP3   OH2 4192   3.157   0.526   6.472  0.2850 -0.1751  0.0128
 1416TIP3    H1 4193   3.155   0.591   6.542  1.0170  0.0273 -0.1440
 1416TIP3    H2 4194   3.212   0.565   6.405  0.8424 -1.0031 -0.0289
 1417TIP3   OH2 4195   6.050   3.817   1.137 -0.4383 -0.0209 -0.3231
 1417TIP3    H1 4196   6.025   3.794   1.226  1.3337 -0.8173  0.0255
 1417TIP3    H2 4197   6.138   3.855   1.146  1.0189 -2.6858 -1.9260
 1418TIP3   OH2 4198   3.716   3.310   3.032  0.4560  0.4676 -0.3940
 1418TIP3    H1 4199   3.634   3.268   3.005 -0.2896  0.9705  0.9576
 1418TIP3    H2 4200   3.720   3.390   2.979  0.0489  0.4606 -0.4421
 1419TIP3   OH2 4201   6.923   5.604   5.348 -0.1396  0.5908  0.1279
 1419TIP3    H1 4202   7.014   5.632   5.339  0.0227  0.5235  1.3737
 1419TIP3    H2 4203   6.874   5.662   5.290  0.5729  1.3427  0.2518
 1420TIP3   OH2 4204   5.789   2.807   5.584  0.5096 -0.4708  0.6943
 1420TIP3    H1 4205   5.727   2.878   5.598  1.1008 -0.0516  1.2534
 1420TIP3    H2 4206   5.830   2.793   5.670  0.9986 -0.9161  0.3986
 1421TIP3   OH2 4207   6.550   1.485   4.183  0.1488  0.1404 -0.0027
 1421TIP3    H1 4208   6.544   1.578   4.165  0.6913 -0.2765 -2.9137
 1421TIP3    H2 4209   6.486   1.445   4.124  3.3462 -1.5688 -2.6970
 1422TIP3   OH2 4210   6.458   6.294   2.627 -0.0148 -0.0138 -0.2246
 1422TIP3    H1 4211   6.421   6.329   2.546 -1.7698 -0.1904  0.4510
 1422TIP3    H2 4212   6.479   6.372   2.679  0.1753  0.0895 -0.4575
 1423TIP3   OH2 4213   2.736   5.545   2.476  0.1303 -0.0993 -0.2171
 1423TIP3    H1 4214   2.797   5.590   2.417 -0.8296  0.8430 -0.5146
 1423TIP3    H2 4215   2.767   5.569   2.564  0.4049  0.0694 -0.3568
 1424TIP3   OH2 4216   4.760   2.371   6.199 -0.1402  0.5304 -0.7778
 1424TIP3    H1 4217   4.801   2.455   6.177 -0.2992  0.6777 -0.5104
 1424TIP3    H2 4218   4.672   2.394   6.228  0.2197  0.3892  0.4729
 1425TIP3   OH2 4219   4.712   3.260   1.374  0.2901  0.6176  0.2944
 1425TIP3    H1 4220   4.650   3.199   1.416 -0.4380  1.7487  0.8985
 1425TIP3    H2 4221   4.796   3.241   1.416 -0.2307  1.0389  1.5724
 1426TIP3   OH2 4222   3.314   6.645   6.663  0.7494 -0.4011  0.1957
 1426TIP3    H1 4223   3.250   6.585   6.701  0.1070 -0.0923 -0.3616
 1426TIP3    H2 4224   3.395   6.627   6.709  0.1634 -0.5300  1.2018
 1427TIP3   OH2 4225   3.186   3.451   3.092  0.3591  0.3942  0.1759
 1427TIP3    H1 4226   3.109   3.500   3.120 -0.2530  0.3943 -1.3911
 1427TIP3    H2 4227   3.260   3.493   3.137 -0.4478  0.9795  0.9759
 1428TIP3   OH2 4228   4.796   7.055   0.615  0.1131 -0.3008 -0.0480
 1428TIP3    H1 4229   4.854   7.128   0.632  0.2055  0.3520 -2.6931
 1428TIP3    H2 4230   4.817   7.027   0.526 -0.6989 -2.8454  0.4579
 1429TIP3   OH2 4231   2.859   2.666   2.302  0.1072  0.1456 -0.4366
 1429TIP3    H1 4232   2.872   2.713   2.220  1.0617 -0.1048 -0.4493
 1429TIP3    H2 4233   2.934   2.693   2.356  0.4580 -1.0561 -0.3089
 1430TIP3   OH2 4234   5.258   3.099   2.737 -0.2764 -0.3714 -0.0784
 1430TIP3    H1 4235   5.209   3.097   2.654  0.7759  1.6479 -0.8381
 1430TIP3    H2 4236   5.210   3.162   2.791 -0.1443 -0.5690  0.2659
 1431TIP3   OH2 4237   7.288   1.446   6.649  0.3385  0.4240  0.7010
 1431TIP3    H1 4238   7.305   1.441   6.743  0.8488  0.0238  0.5869
 1431TIP3    H2 4239   7.193   1.458   6.643  0.2099 -0.2802  1.2395
 1432TIP3   OH2 4240   5.872   2.480   0.313 -0.0107  0.5560 -0.8459
 1432TIP3    H1 4241   5.924   2.422   0.368 -1.2529  1.0347  0.9479
 1432TIP3    H2 4242   5.841   2.424   0.241  2.2658  0.0962 -1.5478
 1433TIP3   OH2 4243   7.558   6.524   5.295  0.5504  0.5487  0.3260
 1433TIP3    H1 4244   7.607   6.450   5.330 -0.7458 -0.3834  0.2451
 1433TIP3    H2 4245   7.469   6.490   5.282  0.1008  1.9162 -0.3892
 1434TIP3   OH2 4246   6.191   7.506   0.758 -0.6291  0.7395  0.1925
 1434TIP3    H1 4247   6.110   7.457   0.770 -0.9260  0.4301 -2.4469
 1434TIP3    H2 4248   6.165   7.585   0.710  0.6116  0.5365 -0.8999
 1435TIP3   OH2 4249   7.270   7.383   3.734  0.1266 -0.8690  0.4057
 1435TIP3    H1 4250   7.335   7.453   3.736 -1.6914  0.8982  0.8672
 1435TIP3    H2 4251   7.217   7.401   3.657 -1.5894 -0.5281  1.6048
 1436TIP3   OH2 4252   8.017   3.239   4.691 -0.7927  0.1433  0.3404
 1436TIP3    H1 4253   8.054   3.314   4.643 -0.1770 -1.0244 -1.1022
 1436TIP3    H2 4254   8.092   3.198   4.733 -0.4193 -1.7690 -1.9393
 1437TIP3   OH2 4255   5.873   3.662   3.963  0.3177 -0.2214  0.0584
 1437TIP3    H1 4256   5.845   3.752   3.981  0.2656  0.0150 -1.1378
 1437TIP3    H2 4257   5.806   3.608   4.005  0.9808  0.2437  1.8254
 1438TIP3   OH2 4258   5.886   0.959   6.177 -0.1060  0.1896  0.0364
 1438TIP3    H1 4259   5.864   1.046   6.144  0.6572  0.4002  0.0558
 1438TIP3    H2 4260   5.894   0.904   6.099  1.3053  0.5937 -0.1279
 1439TIP3   OH2 4261   6.516   1.128   2.629  0.1585  0.0328  0.0551
 1439TIP3    H1 4262   6.612   1.123   2.625  0.2941  1.3166  0.9644
 1439TIP3    H2 4263   6.488   1.039   2.649  1.0748 -0.6046 -1.3338
 1440TIP3   OH2 4264   2.677   2.418   5.054  0.0155 -0.7169 -0.4268
 1440TIP3    H1 4265   2.650   2.509   5.041 -1.3262 -0.9498  0.4724
 1440TIP3    H2 4266   2.686   2.382   4.966  1.2478  0.4486 -0.8147
 1441TIP3   OH2 4267   4.679   2.851   1.880  0.3408  0.1921  0.8262
 1441TIP3    H1 4268   4.614   2.781   1.881  1.8737 -1.4032 -1.5072
 1441TIP3    H2 4269   4.734   2.835   1.957  0.8728 -1.4563  0.1483
 1442TIP3   OH2 4270   2.907   5.549   6.135 -0.1140  0.4220  0.1860
 1442TIP3    H1 4271   2.993   5.571   6.171 -0.5471  0.1410  1.4511
 1442TIP3    H2 4272   2.922   5.539   6.041  1.2495  0.3136  0.3960
 1443TIP3   OH2 4273   8.252   3.068   0.903 -0.5938 -0.0989 -0.0309
 1443TIP3    H1 4274   8.237   3.110   0.818 -0.9833  0.7437  0.4412
 1443TIP3    H2 4275   8.202   2.987   0.899 -2.4274  0.9704  0.1793
 1444TIP3   OH2 4276   6.113   2.498   2.514  0.4406  0.3286  0.0965
 1444TIP3    H1 4277   6.133   2.418   2.563 -0.2857  0.9936  1.5485
 1444TIP3    H2 4278   6.136   2.478   2.424 -1.4707 -2.2132  0.0541
 1445TIP3   OH2 4279   3.403   3.325   1.870 -0.1076 -0.2847 -0.0653
 1445TIP3    H1 4280   3.458   3.252   1.898  1.7596  0.9030 -0.4407
 1445TIP3    H2 4281   3.422   3.395   1.933 -1.7237 -0.0518  0.1875
 1446TIP3   OH2 4282   7.744   1.295   4.943 -0.2244 -0.1981  0.1845
 1446TIP3    H1 4283   7.678   1.354   4.905  1.0012  0.8893 -0.3513
 1446TIP3    H2 4284   7.734   1.307   5.037  2.4887  4.0134  0.2091
 1447TIP3   OH2 4285   2.731   5.332   4.606  0.1607 -0.1461 -0.2039
 1447TIP3    H1 4286   2.645   5.340   4.564 -0.1003 -0.8989  0.1595
 1447TIP3    H2 4287   2.757   5.422   4.626 -0.4884  0.0976 -0.4330
 1448TIP3   OH2 4288   0.225   2.213   3.698  0.8026 -0.2899 -0.1379
 1448TIP3    H1 4289   0.302   2.234   3.645  0.9930  0.9295  0.5819
 1448TIP3    H2 4290   0.261   2.185   3.782  0.4972  1.5008  0.6439
 1449TIP3   OH2 4291   6.143   2.416   6.688  0.6619 -0.4861  0.4912
 1449TIP3    H1 4292   6.139   2.360   6.766  0.9966  0.4255  1.1794
 1449TIP3    H2 4293   6.183   2.497   6.719 -2.7734  1.4584  0.3074
 1450TIP3   OH2 4294   5.454   1.781   3.339 -0.4544 -0.0029 -0.3347
 1450TIP3    H1 4295   5.420   1.869   3.323 -0.0279 -0.0691 -1.6693
 1450TIP3    H2 4296   5.389   1.722   3.300 -0.0332 -0.2299 -0.6934
 1451TIP3   OH2 4297   2.614   7.735   2.594 -0.6800 -0.0279  0.0407
 1451TIP3    H1 4298   2.615   7.706   2.503  0.6180  0.2429 -0.0536
 1451TIP3    H2 4299   2.548   7.681   2.637 -0.5965 -0.8372 -0.8402
 1452TIP3   OH2 4300   3.903   7.766   0.149  0.2501 -0.0017 -0.1746
 1452TIP3    H1 4301   3.912   7.861   0.145 -0.0927  0.2012  2.1646
 1452TIP3    H2 4302   3.859   7.742   0.068  0.0763  1.8668 -0.6735
 1453TIP3   OH2 4303   3.045   0.599   5.407  0.6295 -0.2217  0.4395
 1453TIP3    H1 4304   3.008   0.566   5.489  0.4771 -0.3950  0.3016
 1453TIP3    H2 4305   3.135   0.623   5.429  1.2904 -2.2403  0.1709
 1454TIP3   OH2 4306   5.964   7.787   3.992  0.6506  0.4733  0.1965
 1454TIP3    H1 4307   6.058   7.773   4.001  0.6877 -0.2466 -1.1229
 1454TIP3    H2 4308   5.953   7.822   3.903 -0.4214 -0.5447 -0.1021
 1455TIP3   OH2 4309   0.028   3.539   1.373 -0.3259 -0.0567  0.2799
 1455TIP3    H1 4310  -0.010   3.623   1.397  0.1956  0.2160  0.1549
 1455TIP3    H2 4311   0.019   3.485   1.452 -0.3970  0.2060  0.4518
 1456TIP3   OH2 4312   3.878   3.554   2.723 -0.1245 -0.2382  0.1077
 1456TIP3    H1 4313   3.971   3.562   2.698 -0.2641  0.2055 -0.2870
 1456TIP3    H2 4314   3.869   3.464   2.754  0.7587  0.1166  1.4836
 1457TIP3   OH2 4315   8.007   3.149   3.685 -0.2318  0.0178  0.2199
 1457TIP3    H1 4316   8.031   3.240   3.705 -0.5840  0.1332  0.1273
 1457TIP3    H2 4317   7.985   3.150   3.592  1.2060 -0.4804 -0.1407
 1458TIP3   OH2 4318   3.100   7.822   1.928 -0.0436  0.2214 -0.0317
 1458TIP3    H1 4319   3.168   7.852   1.988 -0.0207 -0.2647  0.1881
 1458TIP3    H2 4320   3.102   7.726   1.935 -0.6654  0.1975 -0.1160
 1459TIP3   OH2 4321   0.141   0.293   5.459  0.1651  0.0801 -0.7485
 1459TIP3    H1 4322   0.210   0.321   5.519 -0.7014 -0.2544  0.4465
 1459TIP3    H2 4323   0.152   0.199   5.451  1.4476  0.3434 -2.6698
 1460TIP3   OH2 4324   3.464   1.870   2.364  0.7940  0.9643 -0.0387
 1460TIP3    H1 4325   3.457   1.965   2.368  0.6373  1.0040 -1.1837
 1460TIP3    H2 4326   3.507   1.852   2.281 -1.7637 -0.0806 -1.2427
 1461TIP3   OH2 4327   8.209   3.258   2.288  0.3093 -0.5331  0.3054
 1461TIP3    H1 4328   8.281   3.308   2.326 -0.8774 -0.2075  2.2626
 1461TIP3    H2 4329   8.173   3.316   2.220  1.5688 -0.5201 -0.3746
 1462TIP3   OH2 4330   0.950   3.636   5.930  0.3675 -0.1699 -0.1681
 1462TIP3    H1 4331   0.990   3.722   5.946 -0.9384  0.4029  0.0965
 1462TIP3    H2 4332   1.023   3.582   5.900  1.1254  1.1631 -0.8324
 1463TIP3   OH2 4333   0.891   7.381   4.967  0.2510 -0.3846  0.1951
 1463TIP3    H1 4334   0.939   7.435   4.904 -0.1396  1.4458  1.4043
 1463TIP3    H2 4335   0.950   7.308   4.985  0.5627 -0.7272 -1.9019
 1464TIP3   OH2 4336   4.083   3.867   0.792 -0.7140  0.4365  0.0426
 1464TIP3    H1 4337   4.109   3.802   0.726  0.7464  1.6712 -0.6708
 1464TIP3    H2 4338   3.993   3.888   0.770 -0.3131  0.6939 -1.4948
 1465TIP3   OH2 4339   4.554   4.249   1.190  0.2344  0.0500 -0.4410
 1465TIP3    H1 4340   4.581   4.260   1.281  0.9275 -0.3620 -0.5912
 1465TIP3    H2 4341   4.595   4.321   1.143  1.0552 -0.5476 -0.6605
 1466TIP3   OH2 4342   3.544   3.109   1.949 -0.0761 -0.3785  0.5047
 1466TIP3    H1 4343   3.602   3.098   1.874 -0.7374  0.9827 -0.2426
 1466TIP3    H2 4344   3.538   3.021   1.988  2.4482 -0.5638  0.6340
 1467TIP3   OH2 4345   0.804   1.716   0.292 -0.1915  0.3225 -0.4741
 1467TIP3    H1 4346   0.846   1.641   0.249  1.0604  1.3194 -1.0583
 1467TIP3    H2 4347   0.824   1.704   0.385  0.5113  0.2371 -0.6295
 1468TIP3   OH2 4348   0.684   3.579   6.490  0.5118  0.4301 -0.2538
 1468TIP3    H1 4349   0.693   3.543   6.578  0.7921  0.8743 -0.0998
 1468TIP3    H2 4350   0.773   3.585   6.457  0.3621 -0.4296 -0.8552
 1469TIP3   OH2 4351   3.652   7.075   3.591  0.8192 -0.0665  0.5886
 1469TIP3    H1 4352   3.576   7.076   3.532  1.1422 -0.0313  0.1706
 1469TIP3    H2 4353   3.633   7.144   3.654  0.5093 -0.0471  0.4804
 1470TIP3   OH2 4354   4.740   5.589   4.578  0.1834 -0.4563  0.4717
 1470TIP3    H1 4355   4.768   5.528   4.646  0.0115 -0.5208  0.4847
 1470TIP3    H2 4356   4.662   5.549   4.540 -0.5153  0.2340  1.1534
 1471TIP3   OH2 4357   8.275   2.680   1.674  0.3457  0.1074 -0.0776
 1471TIP3    H1 4358   8.360   2.723   1.685 -0.3610  1.9979 -1.4386
 1471TIP3    H2 4359   8.211   2.752   1.676 -0.9577 -0.9048 -1.8766
 1472TIP3   OH2 4360   4.663   1.673   3.549  0.1135 -0.0506 -0.0151
 1472TIP3    H1 4361   4.731   1.740   3.559  1.4153 -1.4106  0.7947
 1472TIP3    H2 4362   4.581   1.721   3.557  0.8272  2.0201 -3.1425
 1473TIP3   OH2 4363   3.640   2.524   3.493 -0.0350 -0.0422  0.4298
 1473TIP3    H1 4364   3.677   2.599   3.539  0.4845 -0.0553  0.0481
 1473TIP3    H2 4365   3.713   2.490   3.440 -0.8489  0.5082 -1.0883
 1474TIP3   OH2 4366   2.400   0.758   0.138  0.0402 -0.2641  0.1114
 1474TIP3    H1 4367   2.473   0.820   0.150 -0.2982 -0.0528  1.2648
 1474TIP3    H2 4368   2.401   0.705   0.218 -2.6618  1.4744  1.4680
 1475TIP3   OH2 4369   8.069   2.932   2.811  0.0550 -0.0221  0.2214
 1475TIP3    H1 4370   8.092   2.857   2.757  3.9147 -1.3395  3.2443
 1475TIP3    H2 4371   8.143   2.993   2.802 -1.4593  1.9512  0.3684
 1476TIP3   OH2 4372   5.439   1.424   5.498  0.0259 -0.3190 -0.3360
 1476TIP3    H1 4373   5.361   1.430   5.553  0.0367 -2.4697  0.0347
 1476TIP3    H2 4374   5.510   1.457   5.554 -0.5863  1.7440 -0.7147
 1477TIP3   OH2 4375   0.780   3.560   0.255 -0.2628 -0.4444 -0.5846
 1477TIP3    H1 4376   0.766   3.465   0.248 -1.4000 -0.3144 -0.2881
 1477TIP3    H2 4377   0.692   3.596   0.266  0.2372  0.5824  0.1454
 1478TIP3   OH2 4378   2.059   2.253   6.076 -0.3508 -0.1348 -0.4780
 1478TIP3    H1 4379   1.972   2.231   6.108 -0.2079 -0.6973 -0.4765
 1478TIP3    H2 4380   2.118   2.226   6.146 -0.1170 -0.4429 -0.7892
 1479TIP3   OH2 4381   1.719   1.405   1.474 -0.1878 -0.5547 -1.2252
 1479TIP3    H1 4382   1.702   1.345   1.546 -2.7109 -0.8236 -1.9385
 1479TIP3    H2 4383   1.649   1.470   1.479  1.1632  1.0072 -1.8331
 1480TIP3   OH2 4384   6.230   3.040   4.764  0.0338  0.3909  0.3443
 1480TIP3    H1 4385   6.179   3.040   4.845  0.9680  1.6983  0.9554
 1480TIP3    H2 4386   6.164   3.051   4.695 -0.5115  3.0782  1.1746
 1481TIP3   OH2 4387   5.491   4.056   5.752  0.1252  0.9417 -0.4638
 1481TIP3    H1 4388   5.411   4.024   5.710  1.0032 -1.7936 -0.2402
 1481TIP3    H2 4389   5.478   4.036   5.845  0.8808  0.8208 -0.3784
 1482TIP3   OH2 4390   4.256   6.440   1.441 -0.1489 -0.2387 -0.1047
 1482TIP3    H1 4391   4.257   6.346   1.421 -0.7805 -0.6339  1.6089
 1482TIP3    H2 4392   4.164   6.466   1.434  0.1546  0.5753 -1.7722
 1483TIP3   OH2 4393   6.470   0.188   3.528  0.4041  0.3956  0.1053
 1483TIP3    H1 4394   6.461   0.275   3.567 -0.0202 -0.3791  1.8482
 1483TIP3    H2 4395   6.384   0.149   3.536  0.5202 -0.0935 -0.9284
 1484TIP3   OH2 4396   0.663   4.093   3.606 -0.3118 -0.0617  0.7703
 1484TIP3    H1 4397   0.603   4.051   3.667  1.0855 -1.0110  1.5286
 1484TIP3    H2 4398   0.735   4.125   3.660  1.5209 -1.9188 -0.4199
 1485TIP3   OH2 4399   6.590   5.986   3.045  0.0737 -0.3215  0.0602
 1485TIP3    H1 4400   6.582   5.891   3.046 -1.4494 -0.2427 -1.3409
 1485TIP3    H2 4401   6.634   6.006   2.963  0.2381  0.2017  0.2727
 1486TIP3   OH2 4402   1.363   2.442   5.956  0.1012 -0.2104  0.4166
 1486TIP3    H1 4403   1.295   2.503   5.929 -0.0987 -0.7535 -0.3571
 1486TIP3    H2 4404   1.389   2.470   6.044  0.9854  1.8220 -0.4383
 1487TIP3   OH2 4405   0.599   7.347   0.004 -0.5026 -0.2737 -0.1312
 1487TIP3    H1 4406   0.672   7.409  -0.006 -2.4151  2.1139 -0.2534
 1487TIP3    H2 4407   0.567   7.362   0.094 -0.4793 -1.7403  0.1409
 1488TIP3   OH2 4408   5.841   2.170   6.111  0.2055 -0.2442  0.3327
 1488TIP3    H1 4409   5.785   2.126   6.046 -0.1071  1.3967 -0.5710
 1488TIP3    H2 4410   5.929   2.169   6.072  0.3152 -0.6141  0.5916
 1489TIP3   OH2 4411   6.115   4.545   1.572  0.9049  0.3516  0.0041
 1489TIP3    H1 4412   6.100   4.518   1.663 -0.7372  0.6715 -0.1375
 1489TIP3    H2 4413   6.027   4.558   1.537  1.3362 -2.3276 -2.4362
 1490TIP3   OH2 4414   4.841   1.980   5.257  0.0824 -0.0121  0.0190
 1490TIP3    H1 4415   4.806   1.907   5.309 -2.3563  0.9978 -0.0330
 1490TIP3    H2 4416   4.900   2.026   5.316  0.4688 -1.1513  0.5477
 1491TIP3   OH2 4417   5.344   0.654   5.853  0.4416  0.1715  0.0796
 1491TIP3    H1 4418   5.249   0.662   5.863  0.1376 -0.4188 -1.9186
 1491TIP3    H2 4419   5.356   0.582   5.792  2.1223  1.0761 -0.7340
 1492TIP3   OH2 4420   0.578   4.855   1.643 -0.8462 -0.1410 -0.2849
 1492TIP3    H1 4421   0.585   4.768   1.682  0.8980  1.1575  2.6401
 1492TIP3    H2 4422   0.513   4.900   1.696 -1.2045  0.5916 -1.3066
 1493TIP3   OH2 4423   1.166   7.618   2.733 -0.0945  0.6840  0.0433
 1493TIP3    H1 4424   1.089   7.612   2.677 -0.3702  1.0206  0.3817
 1493TIP3    H2 4425   1.213   7.695   2.702  0.6864 -0.1406 -0.8742
 1494TIP3   OH2 4426   7.351   0.331   1.518 -0.2941 -0.2765  0.1233
 1494TIP3    H1 4427   7.429   0.332   1.574  2.3856  3.1917 -3.1104
 1494TIP3    H2 4428   7.303   0.410   1.541 -0.4878 -0.1192 -0.7781
 1495TIP3   OH2 4429   0.179   1.718   6.611  0.6584  0.1072 -0.0494
 1495TIP3    H1 4430   0.155   1.634   6.649  2.4449 -0.0510  0.8433
 1495TIP3    H2 4431   0.109   1.778   6.636 -1.9553 -1.5502 -2.7887
 1496TIP3   OH2 4432   7.090   1.680   3.620  0.0263  0.2958 -0.0681
 1496TIP3    H1 4433   7.110   1.642   3.534 -0.0523  0.7451 -0.2859
 1496TIP3    H2 4434   7.014   1.736   3.604 -0.8634 -0.6823  0.5677
 1497TIP3   OH2 4435   7.742   1.064   3.847 -0.7474  0.1689 -0.5525
 1497TIP3    H1 4436   7.786   1.097   3.769  1.1739 -2.5026 -0.7737
 1497TIP3    H2 4437   7.654   1.040   3.817 -0.0216 -0.8896 -2.0107
 1498TIP3   OH2 4438   4.882   4.446   0.599 -0.0993 -0.0025 -0.2143
 1498TIP3    H1 4439   4.867   4.410   0.511 -0.0625  1.0979 -0.6815
 1498TIP3    H2 4440   4.905   4.370   0.652 -3.2741 -1.2260 -0.3695
 1499TIP3   OH2 4441   2.310   3.650   4.126 -0.0378 -0.0828 -0.3665
 1499TIP3    H1 4442   2.366   3.577   4.154  0.4911 -0.1705 -1.6038
 1499TIP3    H2 4443   2.221   3.615   4.127 -0.0385 -0.1085  1.0676
 1500TIP3   OH2 4444   3.451   3.101   0.065  0.0176  0.3794 -0.3596
 1500TIP3    H1 4445   3.545   3.091   0.085  0.1948 -1.2470 -1.7213
 1500TIP3    H2 4446   3.441   3.192   0.039  1.5008  0.2909 -1.3827
 1501TIP3   OH2 4447   7.129   3.320   5.309 -0.3085 -0.2717  0.3455
 1501TIP3    H1 4448   7.175   3.305   5.391 -0.8088  1.0303  0.8893
 1501TIP3    H2 4449   7.118   3.415   5.305  0.0281 -0.2714 -1.4115
 1502TIP3   OH2 4450   0.054   1.822   4.032  0.0620 -0.9305  0.4514
 1502TIP3    H1 4451   0.146   1.831   4.007 -0.0333 -0.4574  0.2721
 1502TIP3    H2 4452   0.044   1.880   4.107 -0.3163 -0.2614 -0.1100
 1503TIP3   OH2 4453   3.141   7.433   5.943 -0.0356  0.2662 -0.0277
 1503TIP3    H1 4454   3.152   7.491   5.868 -0.1614 -0.5900 -0.7246
 1503TIP3    H2 4455   3.205   7.464   6.007  0.8445  0.3236 -0.9176
 1504TIP3   OH2 4456   3.119   5.099   4.193  0.3650 -0.0427  0.5778
 1504TIP3    H1 4457   3.128   5.137   4.106 -0.5860  0.9699  0.8956
 1504TIP3    H2 4458   3.063   5.160   4.240 -0.5221 -1.4214  1.3824
 1505TIP3   OH2 4459   0.692   2.101   5.288 -0.0623 -0.5248 -0.2843
 1505TIP3    H1 4460   0.630   2.143   5.347 -0.5027  0.6378 -1.5282
 1505TIP3    H2 4461   0.684   2.008   5.308 -0.9684 -0.2514  0.7416
 1506TIP3   OH2 4462   6.173   7.559   6.738  0.1051  0.3321  0.0304
 1506TIP3    H1 4463   6.221   7.548   6.656  0.2150 -0.0514  0.1433
 1506TIP3    H2 4464   6.095   7.610   6.713  0.9576  1.6537 -0.0025
 1507TIP3   OH2 4465   1.492   0.006   4.995  0.1233 -0.1099  0.1626
 1507TIP3    H1 4466   1.542   0.017   4.914 -0.8537 -1.1344 -0.6206
 1507TIP3    H2 4467   1.518   0.080   5.050 -0.3552  1.5244 -1.6968
 1508TIP3   OH2 4468   7.821   4.908   0.651 -0.0722  0.1066  0.0596
 1508TIP3    H1 4469   7.831   4.991   0.605 -3.0260 -0.1254 -1.2429
 1508TIP3    H2 4470   7.830   4.931   0.744  0.1939  1.6763 -0.3216
 1509TIP3   OH2 4471   1.243   6.870   6.449  0.4639  0.3068 -0.2898
 1509TIP3    H1 4472   1.284   6.928   6.513  0.2367  0.2253 -0.0686
 1509TIP3    H2 4473   1.240   6.785   6.493  0.2836  0.2563 -0.3995
 1510TIP3   OH2 4474   0.877   3.289   2.489  0.5206 -0.3350 -0.3242
 1510TIP3    H1 4475   0.855   3.265   2.579  1.6123 -0.7346 -0.1471
 1510TIP3    H2 4476   0.912   3.377   2.496  1.0211 -0.5352 -0.2919
 1511TIP3   OH2 4477   3.486   0.557   0.936  0.3478 -0.3782  0.0258
 1511TIP3    H1 4478   3.410   0.528   0.886  0.4917 -0.8805  0.0907
 1511TIP3    H2 4479   3.468   0.529   1.025 -0.4237  1.5022  0.5028
 1512TIP3   OH2 4480   3.955   3.198   0.538  0.2344  0.0348  0.2660
 1512TIP3    H1 4481   4.009   3.169   0.612  0.4123  0.5234  0.3348
 1512TIP3    H2 4482   3.868   3.212   0.576  0.3249  0.2827  0.3814
 1513TIP3   OH2 4483   7.027   2.131   1.565 -0.0805 -0.0286  0.1859
 1513TIP3    H1 4484   6.954   2.069   1.565  0.7758 -1.0698 -0.0323
 1513TIP3    H2 4485   6.989   2.214   1.593 -0.7980 -1.2312  3.1950
 1514TIP3   OH2 4486   8.259   7.563   0.612 -0.1859  0.2615 -0.2715
 1514TIP3    H1 4487   8.325   7.497   0.630 -0.1203  0.5190  0.4581
 1514TIP3    H2 4488   8.229   7.592   0.698 -0.8683  0.5305 -0.5859
 1515TIP3   OH2 4489   0.088   4.879   2.239  0.1259  0.1747  0.2177
 1515TIP3    H1 4490   0.043   4.865   2.323  0.1646 -2.0605 -0.1008
 1515TIP3    H2 4491   0.114   4.792   2.210  1.0873  1.0162 -1.6126
 1516TIP3   OH2 4492   0.792   1.995   6.415 -0.2908 -0.1044 -0.0391
 1516TIP3    H1 4493   0.859   2.040   6.363  0.3686  0.6114  1.3521
 1516TIP3    H2 4494   0.842   1.952   6.485 -1.2071 -0.3067  0.5012
 1517TIP3   OH2 4495   3.080   7.554   3.976 -0.0188  0.1394  0.2457
 1517TIP3    H1 4496   3.034   7.638   3.987 -0.6314  0.4659 -3.4414
 1517TIP3    H2 4497   3.022   7.502   3.921  1.9038 -1.3342 -0.5000
 1518TIP3   OH2 4498   1.395   7.112   5.803  0.2945 -0.0850  0.3220
 1518TIP3    H1 4499   1.320   7.158   5.764  0.7173 -0.7829 -1.4288
 1518TIP3    H2 4500   1.454   7.181   5.832 -1.3850  0.5072  2.5969
 1519TIP3   OH2 4501   2.408   3.950   1.993  0.4089  0.6192 -0.6450
 1519TIP3    H1 4502   2.385   3.878   2.052 -0.3369  1.0833 -0.3552
 1519TIP3    H2 4503   2.348   3.940   1.919  0.5918  0.6960 -0.8044
 1520TIP3   OH2 4504   2.849   3.402   4.756 -0.4609  0.8423  0.2352
 1520TIP3    H1 4505   2.869   3.346   4.681  0.3046  0.5186  0.6658
 1520TIP3    H2 4506   2.931   3.449   4.773 -0.6115  0.8841  0.8806
 1521TIP3   OH2 4507   0.804   1.223   5.764 -0.1231 -0.2100 -0.2606
 1521TIP3    H1 4508   0.810   1.317   5.778  0.0056 -0.3944  1.0323
 1521TIP3    H2 4509   0.713   1.208   5.738 -0.4982  0.1279  0.8047
 1522TIP3   OH2 4510   0.599   6.341   0.636  0.2036 -0.1768  0.3646
 1522TIP3    H1 4511   0.625   6.252   0.661  1.2174 -0.3055 -1.0025
 1522TIP3    H2 4512   0.682   6.389   0.629 -0.0718  0.1104 -1.5794
 1523TIP3   OH2 4513   3.929   7.288   4.062  0.0084 -0.3992 -0.2344
 1523TIP3    H1 4514   4.016   7.327   4.057  0.0991 -0.5350  0.2952
 1523TIP3    H2 4515   3.878   7.350   4.115 -0.3542 -0.0748 -0.9438
 1524TIP3   OH2 4516   4.745   3.289   5.681  0.1057  0.4458  0.6669
 1524TIP3    H1 4517   4.757   3.357   5.614 -0.4141  1.2164  1.3409
 1524TIP3    H2 4518   4.834   3.261   5.703  0.2699 -0.2462 -0.7550
 1525TIP3   OH2 4519   5.825   2.531   3.628 -0.1083 -0.4656  0.8294
 1525TIP3    H1 4520   5.747   2.508   3.678 -0.1018 -3.3518 -0.3380
 1525TIP3    H2 4521   5.895   2.539   3.693 -0.3911 -2.7825  1.4879
 1526TIP3   OH2 4522   4.381   1.662   0.191  0.0031  0.4618 -0.0133
 1526TIP3    H1 4523   4.310   1.693   0.134  0.3416  3.3163  0.9139
 1526TIP3    H2 4524   4.424   1.743   0.221  3.5873 -1.1357 -0.3914
 1527TIP3   OH2 4525   0.733   4.035   5.122 -0.1900  0.3773  0.2258
 1527TIP3    H1 4526   0.701   4.110   5.073  1.2855  1.8510  1.4337
 1527TIP3    H2 4527   0.656   3.978   5.131 -0.5640  0.0892 -3.5229
 1528TIP3   OH2 4528   0.796   1.672   5.587 -0.0480  0.1244  0.3328
 1528TIP3    H1 4529   0.808   1.631   5.673 -0.6370 -0.6623  0.0453
 1528TIP3    H2 4530   0.873   1.645   5.537  0.0482  0.1685  0.4575
 1529TIP3   OH2 4531   6.037   0.103   5.566  0.0933 -0.3329 -0.2084
 1529TIP3    H1 4532   6.060   0.113   5.474 -1.0766  1.1014 -0.3733
 1529TIP3    H2 4533   6.078   0.020   5.592  1.2691 -0.2807 -1.7368
 1530TIP3   OH2 4534   2.251   3.258   0.025 -0.0728 -0.0026 -0.0395
 1530TIP3    H1 4535   2.333   3.211   0.042  0.1441  0.0519 -0.8670
 1530TIP3    H2 4536   2.183   3.191   0.031  0.1573 -0.2788 -0.4618
 1531TIP3   OH2 4537   5.901   1.710   2.487 -0.0897 -0.2140 -0.8303
 1531TIP3    H1 4538   5.981   1.675   2.527  0.7995  0.5435 -1.8893
 1531TIP3    H2 4539   5.902   1.803   2.510 -0.8974 -0.2856 -0.4959
 1532TIP3   OH2 4540   4.176   0.762   0.449  0.3372  0.5199  0.5345
 1532TIP3    H1 4541   4.120   0.725   0.518 -0.8106 -0.8689 -1.0499
 1532TIP3    H2 4542   4.261   0.773   0.491 -0.1372 -0.9170  2.0044
 1533TIP3   OH2 4543   3.959   2.992   6.051  0.7754  0.0959 -0.1775
 1533TIP3    H1 4544   4.018   2.919   6.034 -0.7497 -1.0043 -0.9799
 1533TIP3    H2 4545   3.975   3.014   6.143 -0.5762 -3.0938  0.9879
 1534TIP3   OH2 4546   4.933   7.440   5.663  0.1273  0.0569 -0.0293
 1534TIP3    H1 4547   4.935   7.456   5.569  0.2789 -0.1850 -0.0680
 1534TIP3    H2 4548   4.842   7.457   5.688  0.3525  1.2873 -0.0091
 1535TIP3   OH2 4549   3.565   1.000   0.934 -0.5031  0.2611  0.6406
 1535TIP3    H1 4550   3.539   0.976   1.023 -0.1652 -0.1342  0.6344
 1535TIP3    H2 4551   3.536   0.926   0.881  1.0184 -0.3953  0.6883
 1536TIP3   OH2 4552   2.322   4.932   5.534  0.2157 -0.4845 -0.2484
 1536TIP3    H1 4553   2.335   4.938   5.629  0.8989  1.2248 -0.4141
 1536TIP3    H2 4554   2.243   4.984   5.517  0.2877 -0.5067 -0.6568
 1537TIP3   OH2 4555   4.086   5.302   2.447 -0.2108 -0.2202 -0.0091
 1537TIP3    H1 4556   4.016   5.244   2.477 -0.6903  0.7657  0.8428
 1537TIP3    H2 4557   4.147   5.245   2.400 -0.3715 -1.5059  1.2900
 1538TIP3   OH2 4558   3.263   6.663   3.508  0.0581  0.1057  0.2168
 1538TIP3    H1 4559   3.206   6.617   3.570 -1.4401  1.2619 -0.2371
 1538TIP3    H2 4560   3.208   6.734   3.474  0.7180 -0.6278 -2.6243
 1539TIP3   OH2 4561   2.519   5.267   6.023  0.3268  0.2112  0.4519
 1539TIP3    H1 4562   2.566   5.228   5.949  0.8133 -0.7584  1.2563
 1539TIP3    H2 4563   2.428   5.239   6.010  0.6319 -1.0383  0.8985
 1540TIP3   OH2 4564   7.746   1.787   5.519  0.0268  0.5022  0.0591
 1540TIP3    H1 4565   7.812   1.830   5.464  4.0475 -1.9049  2.4498
 1540TIP3    H2 4566   7.775   1.804   5.608 -2.0465 -1.5305  1.2275
 1541TIP3   OH2 4567   0.550   4.407   2.095  0.6299  0.2021  0.1407
 1541TIP3    H1 4568   0.631   4.413   2.145  0.6823 -0.4537  0.1501
 1541TIP3    H2 4569   0.520   4.497   2.085  2.0541  0.5866 -0.9959
 1542TIP3   OH2 4570   6.989   6.827   2.337  0.4806 -0.3437  0.0791
 1542TIP3    H1 4571   7.075   6.836   2.297  0.7670  1.7357  1.0647
 1542TIP3    H2 4572   6.961   6.738   2.313  3.0733 -1.2524  0.1326
 1543TIP3   OH2 4573   4.322   6.154   1.052  0.3615 -0.2350 -0.1389
 1543TIP3    H1 4574   4.230   6.131   1.067  0.8373 -2.2303  0.0479
 1543TIP3    H2 4575   4.319   6.236   1.002 -1.5035 -0.1543  0.0428
 1544TIP3   OH2 4576   6.928   3.323   6.765  0.5667 -0.1789 -0.3943
 1544TIP3    H1 4577   6.870   3.354   6.695  2.3441  1.2614 -1.3400
 1544TIP3    H2 4578   6.967   3.243   6.730  2.5702  1.3042 -1.8213
 1545TIP3   OH2 4579   0.987   3.577   1.931  0.1415  0.1376  0.4180
 1545TIP3    H1 4580   0.991   3.606   2.022 -0.9072  0.7866  0.2780
 1545TIP3    H2 4581   1.077   3.586   1.899  0.6204 -0.5895  1.5220
 1546TIP3   OH2 4582   4.548   1.325   0.602  0.1763  0.1148 -0.2557
 1546TIP3    H1 4583   4.476   1.313   0.541  0.4208 -1.7875 -0.2336
 1546TIP3    H2 4584   4.627   1.315   0.549  0.4492 -3.9512  0.5369
 1547TIP3   OH2 4585   7.885   5.940   0.194 -0.3851 -0.0212  0.5096
 1547TIP3    H1 4586   7.929   5.955   0.110  0.2062  0.4417  0.8940
 1547TIP3    H2 4587   7.912   6.014   0.249 -2.6010  0.9592  0.4024
 1548TIP3   OH2 4588   0.551   1.127   6.662 -0.3355  0.0634  0.2306
 1548TIP3    H1 4589   0.516   1.214   6.682 -0.0791 -0.0851  1.4095
 1548TIP3    H2 4590   0.637   1.126   6.705 -0.0456 -0.5282 -0.3601
 1549TIP3   OH2 4591   7.263   6.125   0.506 -0.0028 -0.3630  0.1157
 1549TIP3    H1 4592   7.242   6.072   0.429  0.2531 -0.8031  0.3446
 1549TIP3    H2 4593   7.339   6.082   0.544 -0.0155 -0.0354  0.5103
 1550TIP3   OH2 4594   1.127   4.074   6.669 -0.6650  0.1875  0.1085
 1550TIP3    H1 4595   1.042   4.107   6.695 -0.1907  0.1252  1.8901
 1550TIP3    H2 4596   1.179   4.152   6.650 -0.3486  0.4059  1.6820
 1551TIP3   OH2 4597   2.269   6.553   3.692 -0.5462 -0.7027 -0.1847
 1551TIP3    H1 4598   2.308   6.565   3.606  0.1774  0.6501  0.3145
 1551TIP3    H2 4599   2.285   6.635   3.738 -1.6285 -1.1033  0.9708
 1552TIP3   OH2 4600   0.251   3.390   4.386 -0.3212 -0.0475 -0.2762
 1552TIP3    H1 4601   0.264   3.302   4.422  0.7622  0.3485  0.3488
 1552TIP3    H2 4602   0.280   3.449   4.455  1.4962  0.7500 -1.6463
 1553TIP3   OH2 4603   1.732   2.571   2.510 -0.1613 -0.9035 -0.1282
 1553TIP3    H1 4604   1.658   2.550   2.566 -0.1417 -1.0672 -0.1621
 1553TIP3    H2 4605   1.804   2.589   2.570 -0.3234 -0.3762 -0.0883
 1554TIP3   OH2 4606   3.888   3.453   5.322 -0.2472 -0.2289 -0.1465
 1554TIP3    H1 4607   3.942   3.380   5.352  1.4191  0.9753 -0.0862
 1554TIP3    H2 4608   3.894   3.450   5.227  0.7767  0.4948 -0.1156
 1555TIP3   OH2 4609   1.361   1.135   3.989  0.8387 -0.2820 -0.4123
 1555TIP3    H1 4610   1.337   1.156   3.898  0.8584  4.0482  0.3597
 1555TIP3    H2 4611   1.284   1.093   4.026 -0.1099  0.1698 -1.8009
 1556TIP3   OH2 4612   6.927   3.111   1.910 -0.2396 -0.7382  0.4252
 1556TIP3    H1 4613   6.953   3.023   1.938  1.2139 -0.2634  0.6462
 1556TIP3    H2 4614   7.001   3.167   1.933 -0.6880  0.3748 -0.6953
 1557TIP3   OH2 4615   6.308   4.762   4.079 -0.5026  0.2458 -0.5872
 1557TIP3    H1 4616   6.309   4.710   3.999 -0.7798  0.3926 -0.6875
 1557TIP3    H2 4617   6.216   4.769   4.103 -0.3717 -0.3733  0.1274
 1558TIP3   OH2 4618   6.062   6.670   2.737 -0.0288 -0.4157 -0.1801
 1558TIP3    H1 4619   6.140   6.645   2.688 -0.3888  0.5663 -1.2838
 1558TIP3    H2 4620   6.081   6.758   2.769 -0.5286 -0.3320 -0.1090
 1559TIP3   OH2 4621   0.882   4.286   4.264  0.1041  0.0641  0.1204
 1559TIP3    H1 4622   0.935   4.228   4.320 -2.1149 -0.8296  1.4551
 1559TIP3    H2 4623   0.885   4.371   4.309  1.7354  0.5106 -0.7554
 1560TIP3   OH2 4624   6.089   7.125   3.642  0.4494  0.4063 -0.2366
 1560TIP3    H1 4625   6.179   7.150   3.621  0.8695 -0.3062  0.6554
 1560TIP3    H2 4626   6.091   7.104   3.735  0.4018 -3.7618 -0.9708
 1561TIP3   OH2 4627   1.532   1.196   2.789  0.3396 -0.1564 -0.0883
 1561TIP3    H1 4628   1.609   1.182   2.734  0.0178 -1.3920 -0.2595
 1561TIP3    H2 4629   1.552   1.150   2.870  0.0619  0.1088  0.1327
 1562TIP3   OH2 4630   7.112   0.935   2.906  0.1024 -0.0085  0.7369
 1562TIP3    H1 4631   7.059   0.970   2.977 -2.7818  0.6324 -1.5228
 1562TIP3    H2 4632   7.048   0.909   2.839  2.6272 -0.5344 -1.6499
 1563TIP3   OH2 4633   2.930   4.632   0.381  0.7599  0.4636  0.2840
 1563TIP3    H1 4634   2.990   4.643   0.455  1.7833 -0.5094 -0.3683
 1563TIP3    H2 4635   2.863   4.700   0.394  0.9869  0.3985  2.0148
 1564TIP3   OH2 4636   3.467   5.295   1.910  0.4730  0.8192  0.2446
 1564TIP3    H1 4637   3.388   5.349   1.921 -0.1806 -0.2503  0.9617
 1564TIP3    H2 4638   3.508   5.297   1.996 -1.2302 -2.3285  1.2798
 1565TIP3   OH2 4639   7.185   1.215   5.848 -0.1884  0.3121  0.3757
 1565TIP3    H1 4640   7.236   1.237   5.926 -0.5571  2.0112  0.1703
 1565TIP3    H2 4641   7.251   1.188   5.784  0.1612 -0.5646  1.0737
 1566TIP3   OH2 4642   5.869   7.201   4.360  0.5455 -0.2064  0.2816
 1566TIP3    H1 4643   5.811   7.264   4.317  0.1502  0.8559  2.2348
 1566TIP3    H2 4644   5.957   7.237   4.349  0.4575 -0.0002  0.2518
 1567TIP3   OH2 4645   5.183   7.008   5.433 -0.1617  0.4309 -0.0420
 1567TIP3    H1 4646   5.124   6.985   5.361 -0.3334  1.6295 -0.3034
 1567TIP3    H2 4647   5.223   6.925   5.459 -1.7756 -0.3672 -0.0157
 1568TIP3   OH2 4648   7.823   6.649   2.556 -0.5928 -0.3051  0.2796
 1568TIP3    H1 4649   7.894   6.686   2.608  0.3479  0.8744 -1.7227
 1568TIP3    H2 4650   7.761   6.721   2.545  0.3050  0.2198 -1.9941
 1569TIP3   OH2 4651   6.806   1.079   4.233  0.3808 -0.0500  0.1671
 1569TIP3    H1 4652   6.809   1.173   4.211  0.0301 -0.0472  0.1249
 1569TIP3    H2 4653   6.736   1.044   4.178 -0.1598 -0.1469  0.8932
 1570TIP3   OH2 4654   5.531   7.332   5.003  0.2897  0.0787  0.2475
 1570TIP3    H1 4655   5.571   7.264   5.057  1.6481 -1.0316 -2.0033
 1570TIP3    H2 4656   5.604   7.372   4.956 -0.9400 -0.3011 -2.1519
 1571TIP3   OH2 4657   1.591   1.634   1.372 -0.0365 -0.4585 -0.3648
 1571TIP3    H1 4658   1.589   1.718   1.327 -0.1635 -0.0398  0.3974
 1571TIP3    H2 4659   1.503   1.626   1.411  0.8085  0.4173  1.9397
 1572TIP3   OH2 4660   2.635   1.961   2.580  0.2563 -0.1650 -0.4071
 1572TIP3    H1 4661   2.599   2.033   2.632  0.0796 -1.9477  2.1327
 1572TIP3    H2 4662   2.730   1.973   2.585  0.2030  1.2194 -2.0915
 1573TIP3   OH2 4663   4.658   0.843   3.172 -0.4291 -0.0450  0.1646
 1573TIP3    H1 4664   4.593   0.901   3.134  0.0903  0.6973  0.3914
 1573TIP3    H2 4665   4.647   0.760   3.125 -0.9600  0.3280 -0.3781
 1574TIP3   OH2 4666   3.572   6.676   2.315 -0.3662  0.1317 -0.0511
 1574TIP3    H1 4667   3.484   6.687   2.279  0.2565  1.1874 -1.3308
 1574TIP3    H2 4668   3.624   6.745   2.273  0.8763  0.0908  1.3535
 1575TIP3   OH2 4669   2.528   3.766   0.634 -0.2749 -0.1007 -0.3534
 1575TIP3    H1 4670   2.526   3.671   0.640 -0.6630 -0.1218 -0.7612
 1575TIP3    H2 4671   2.568   3.795   0.716  1.2079 -0.6759 -0.8341
 1576TIP3   OH2 4672   3.013   0.018   1.619 -0.0541 -0.2170 -0.2968
 1576TIP3    H1 4673   3.055   0.100   1.593 -0.8248  0.3161  0.0668
 1576TIP3    H2 4674   2.946   0.045   1.682 -1.3975 -0.9438 -1.3611
 1577TIP3   OH2 4675   7.908   3.037   5.428  0.4114  0.1593  0.3457
 1577TIP3    H1 4676   7.934   3.113   5.479 -0.9137  0.7785  0.1601
 1577TIP3    H2 4677   7.861   3.074   5.353 -0.1496 -0.8316  0.1896
 1578TIP3   OH2 4678   2.830   1.370   3.052 -0.3103 -0.2447  0.0488
 1578TIP3    H1 4679   2.736   1.353   3.062 -0.2163 -0.3878  0.7327
 1578TIP3    H2 4680   2.872   1.290   3.085  0.0288 -1.0108 -2.0458
 1579TIP3   OH2 4681   2.099   5.204   0.185  0.4930  0.2739  0.4175
 1579TIP3    H1 4682   2.097   5.275   0.122 -0.8294  0.3129  0.4762
 1579TIP3    H2 4683   2.183   5.213   0.229  1.3960  0.3247 -1.2332
 1580TIP3   OH2 4684   0.678   4.478   2.837  0.4371 -0.4760 -0.3455
 1580TIP3    H1 4685   0.699   4.389   2.865  0.3171 -0.1899  0.7149
 1580TIP3    H2 4686   0.596   4.470   2.789  0.1866 -0.8698  0.1487
 1581TIP3   OH2 4687   3.746   0.045   3.772 -0.2762 -0.2567 -0.2907
 1581TIP3    H1 4688   3.810   0.114   3.751 -1.0531  0.3263 -0.8281
 1581TIP3    H2 4689   3.789  -0.036   3.746  0.6433  0.0172  0.3094
 1582TIP3   OH2 4690   2.281   1.136   1.585 -0.0509 -0.3185  0.0108
 1582TIP3    H1 4691   2.306   1.139   1.677  0.7404 -0.5685 -0.1876
 1582TIP3    H2 4692   2.287   1.044   1.561 -0.8316 -0.3350 -0.1434
 1583TIP3   OH2 4693   6.285   5.926   3.482 -0.0314 -0.5345 -0.4178
 1583TIP3    H1 4694   6.198   5.946   3.448  0.3509 -0.4377 -1.3706
 1583TIP3    H2 4695   6.282   5.832   3.500  0.3155 -0.9942 -2.5117
 1584TIP3   OH2 4696   5.972   2.418   4.686  0.0939  0.1661  0.4083
 1584TIP3    H1 4697   6.018   2.477   4.747  0.5088  0.3345 -0.0624
 1584TIP3    H2 4698   6.009   2.439   4.600  0.5780 -1.0953  0.2889
 1585TIP3   OH2 4699   3.542   6.401   5.439 -0.3990  0.1561  0.4971
 1585TIP3    H1 4700   3.461   6.350   5.438 -1.3210  1.5346  0.1500
 1585TIP3    H2 4701   3.577   6.392   5.350 -1.0924  0.8937  0.1330
 1586TIP3   OH2 4702   4.267   1.282   0.870  0.1994  0.0506 -0.1647
 1586TIP3    H1 4703   4.204   1.353   0.884 -0.5585 -0.9009  1.5655
 1586TIP3    H2 4704   4.218   1.215   0.823  0.4277 -0.0019 -0.3287
 1587TIP3   OH2 4705   4.206   2.190   6.667 -0.1486  0.0536  0.2456
 1587TIP3    H1 4706   4.285   2.176   6.720 -1.9324 -1.8603  2.6382
 1587TIP3    H2 4707   4.137   2.208   6.731 -1.7338  1.5667 -1.7571
 1588TIP3   OH2 4708   7.476   2.502   1.233  0.3543 -0.3928  0.4198
 1588TIP3    H1 4709   7.536   2.510   1.306  0.0869  0.8505  0.5193
 1588TIP3    H2 4710   7.505   2.568   1.170  0.1510 -0.9693 -0.3028
 1589TIP3   OH2 4711   6.605   1.648   4.507  0.2291 -0.0233 -0.0869
 1589TIP3    H1 4712   6.694   1.633   4.473 -0.2909 -1.8001 -0.7968
 1589TIP3    H2 4713   6.565   1.561   4.508 -1.2243  0.6113  1.0870
 1590TIP3   OH2 4714   5.873   4.586   2.206 -0.3498 -0.0505  0.5067
 1590TIP3    H1 4715   5.810   4.514   2.208 -0.1292 -0.2262  1.4613
 1590TIP3    H2 4716   5.824   4.660   2.168 -0.2867 -0.9477 -1.4656
 1591TIP3   OH2 4717   1.472   7.205   2.763  0.0079  0.2857 -0.1447
 1591TIP3    H1 4718   1.410   7.278   2.757  2.4661  2.6202  0.7643
 1591TIP3    H2 4719   1.473   7.182   2.855 -1.9442 -2.1959 -0.6139
 1592TIP3   OH2 4720   5.508   6.612   6.463 -0.6224  0.1960 -0.7590
 1592TIP3    H1 4721   5.424   6.602   6.418 -0.7370  0.5278 -0.6156
 1592TIP3    H2 4722   5.486   6.608   6.556 -0.1771 -2.4768 -0.6722
 1593TIP3   OH2 4723   6.688   6.428   4.036 -0.3133  0.0309 -0.2527
 1593TIP3    H1 4724   6.653   6.517   4.026 -0.4836  0.0581  0.5158
 1593TIP3    H2 4725   6.618   6.371   4.003 -0.1655  0.1764 -0.8370
 1594TIP3   OH2 4726   6.938   0.985   3.887  0.3025 -0.5534  0.0101
 1594TIP3    H1 4727   6.861   1.038   3.864 -0.1217  0.1562  2.7604
 1594TIP3    H2 4728   6.901   0.905   3.923  0.7673  0.0926  2.0269
 1595TIP3   OH2 4729   6.973   2.381   1.615 -0.0344 -0.0615  0.6248
 1595TIP3    H1 4730   6.926   2.407   1.695  0.4070 -0.5226  1.0461
 1595TIP3    H2 4731   6.953   2.450   1.552 -1.2720 -0.2408  0.7942
 1596TIP3   OH2 4732   5.740   5.925  -0.015 -0.2089  0.0685  0.3931
 1596TIP3    H1 4733   5.772   5.895   0.070 -2.1447 -2.5846  0.3227
 1596TIP3    H2 4734   5.658   5.877  -0.028 -1.8329  3.0659 -1.4127
 1597TIP3   OH2 4735   4.027   6.069   3.504 -0.2904  0.5241  0.3325
 1597TIP3    H1 4736   4.105   6.083   3.451  0.1836  1.3126  1.2120
 1597TIP3    H2 4737   3.979   6.000   3.458  0.8016  0.1865 -0.3468
 1598TIP3   OH2 4738   5.671   6.789   1.991  0.1954 -0.0483  0.1390
 1598TIP3    H1 4739   5.693   6.699   2.016 -1.4602  0.0867  2.4577
 1598TIP3    H2 4740   5.755   6.833   1.983  1.0243 -1.7032 -0.6404
 1599TIP3   OH2 4741   1.499   5.304   4.221  0.1448  0.2209  0.2897
 1599TIP3    H1 4742   1.567   5.271   4.163  0.0044  2.9211 -1.5908
 1599TIP3    H2 4743   1.548   5.345   4.293  0.4687  0.2578  0.0538
 1600TIP3   OH2 4744   7.863   1.103   0.365 -0.1567  0.4649 -0.2731
 1600TIP3    H1 4745   7.859   1.190   0.405 -0.6609 -0.3500  1.5612
 1600TIP3    H2 4746   7.790   1.055   0.403 -0.8978 -0.2995 -2.5096
 1601TIP3   OH2 4747   7.148   2.093   1.300  0.8603 -0.0550  0.4671
 1601TIP3    H1 4748   7.237   2.068   1.322  0.2302 -0.9380  2.2449
 1601TIP3    H2 4749   7.098   2.074   1.380 -0.7683  1.1659 -0.2136
 1602TIP3   OH2 4750   5.762   1.338   2.896 -0.3820 -0.4449 -0.2860
 1602TIP3    H1 4751   5.780   1.419   2.848  0.0617 -1.4010 -1.8021
 1602TIP3    H2 4752   5.669   1.320   2.880 -0.3635 -0.4890 -0.3437
 1603TIP3   OH2 4753   7.983   1.744   3.995 -0.4488  0.0470 -0.3804
 1603TIP3    H1 4754   7.976   1.833   4.030 -1.8770 -0.6051  1.1106
 1603TIP3    H2 4755   7.965   1.754   3.901  1.0411  1.5205 -0.5518
 1604TIP3   OH2 4756   7.559   5.779   1.916  0.0526 -0.0200  0.0840
 1604TIP3    H1 4757   7.553   5.683   1.924  0.9266 -0.1027 -0.1615
 1604TIP3    H2 4758   7.564   5.795   1.822  2.7262  0.0338  0.1412
 1605TIP3   OH2 4759   4.037   1.193   1.165  0.2904  0.1844 -0.0365
 1605TIP3    H1 4760   4.002   1.269   1.213  1.2688  0.9785 -0.5288
 1605TIP3    H2 4761   4.059   1.130   1.233  1.9297  1.3988  0.6469
 1606TIP3   OH2 4762   8.120   1.385   6.742  0.2096 -0.0435 -0.4929
 1606TIP3    H1 4763   8.213   1.391   6.762  0.0518  0.8172  0.0282
 1606TIP3    H2 4764   8.115   1.405   6.648  0.5524 -0.0707 -0.5185
 1607TIP3   OH2 4765   1.716   0.939   2.942  0.1767  0.2842  0.8006
 1607TIP3    H1 4766   1.747   1.026   2.919  0.7511  0.5177  2.3539
 1607TIP3    H2 4767   1.791   0.897   2.985 -0.6449 -0.3052  1.7174
 1608TIP3   OH2 4768   3.687   1.988   3.190  0.4629 -0.5440  0.4830
 1608TIP3    H1 4769   3.731   1.975   3.106 -0.0089 -0.7940  0.2700
 1608TIP3    H2 4770   3.754   1.966   3.255  1.1066  0.4888  0.2065
 1609TIP3   OH2 4771   3.706   2.517   4.561  0.0734 -0.1762  0.3954
 1609TIP3    H1 4772   3.634   2.472   4.517  0.3822 -0.1309 -0.1601
 1609TIP3    H2 4773   3.785   2.481   4.522  0.3716 -0.4647  1.2363
 1610TIP3   OH2 4774   8.092   2.519   2.254  0.5102  0.7297  0.2745
 1610TIP3    H1 4775   8.120   2.560   2.173 -0.1721 -0.3839 -0.5507
 1610TIP3    H2 4776   8.001   2.494   2.238  0.7947 -0.7853  0.8526
 1611TIP3   OH2 4777   1.390   4.391   1.039  0.1340  0.3422 -0.4499
 1611TIP3    H1 4778   1.467   4.338   1.018  0.4718  0.1583  1.1316
 1611TIP3    H2 4779   1.405   4.421   1.129 -3.1317 -2.5508  1.3190
 1612TIP3   OH2 4780   7.205   1.103   2.229  0.7845 -0.2352 -0.0131
 1612TIP3    H1 4781   7.190   1.060   2.313  2.1299 -0.5894  0.0627
 1612TIP3    H2 4782   7.267   1.173   2.249  0.3236  0.3378 -0.5401
 1613TIP3   OH2 4783   6.329   6.388   2.404  0.1502 -0.3212 -0.4388
 1613TIP3    H1 4784   6.409   6.390   2.352 -0.4347  1.0117 -1.3275
 1613TIP3    H2 4785   6.264   6.347   2.347 -0.7365  1.9956 -1.1702
 1614TIP3   OH2 4786   2.745   6.062   2.671 -0.3056 -0.3192  0.6502
 1614TIP3    H1 4787   2.677   6.070   2.738 -0.6242 -0.6757  0.3735
 1614TIP3    H2 4788   2.821   6.028   2.718  0.0316  1.1259  1.1756
 1615TIP3   OH2 4789   4.381   7.351   6.430 -0.0259  0.1483  0.5788
 1615TIP3    H1 4790   4.449   7.305   6.380 -0.0157 -0.4771  1.1574
 1615TIP3    H2 4791   4.425   7.382   6.509 -0.5322 -0.7950  1.2560
 1616TIP3   OH2 4792   5.071   5.879   5.524  0.1811 -0.3985 -0.2588
 1616TIP3    H1 4793   5.062   5.784   5.522  0.3535 -0.4503  0.8812
 1616TIP3    H2 4794   5.015   5.908   5.597 -0.0802  0.4059 -0.7543
 1617TIP3   OH2 4795   7.833   6.523   1.776 -0.1530 -0.2312 -0.7946
 1617TIP3    H1 4796   7.928   6.532   1.770  0.0119 -1.2743  0.0243
 1617TIP3    H2 4797   7.819   6.447   1.832 -1.4696 -0.5580 -1.5169
 1618TIP3   OH2 4798   4.167   1.102   3.841 -0.5707 -0.1482 -0.1251
 1618TIP3    H1 4799   4.167   1.054   3.923 -2.3744 -2.3795 -1.3075
 1618TIP3    H2 4800   4.256   1.094   3.807  0.1770  0.7533  1.4988
 1619TIP3   OH2 4801   5.698   4.308   1.884 -0.3017 -0.1223  0.5525
 1619TIP3    H1 4802   5.681   4.402   1.882  0.5079  0.0107 -0.3214
 1619TIP3    H2 4803   5.611   4.269   1.899 -1.1735  0.6371 -1.9746
 1620TIP3   OH2 4804   4.133   1.930   0.825 -0.1392  0.1821  0.3017
 1620TIP3    H1 4805   4.114   1.955   0.735  0.4412  1.0251  0.4116
 1620TIP3    H2 4806   4.228   1.937   0.833 -0.0549 -1.0022  0.6591
 1621TIP3   OH2 4807   5.326   4.577   2.620 -0.3104  0.6945 -0.1021
 1621TIP3    H1 4808   5.395   4.513   2.607  0.9251  1.9928 -0.1539
 1621TIP3    H2 4809   5.255   4.528   2.663 -0.1734 -1.1351 -1.7929
 1622TIP3   OH2 4810   1.174   4.830   0.283 -0.0833  0.3344 -0.0431
 1622TIP3    H1 4811   1.203   4.778   0.359 -0.8473 -0.1341 -0.0627
 1622TIP3    H2 4812   1.237   4.808   0.214  0.8939  1.1134  0.5663
 1623TIP3   OH2 4813   7.103   7.336   1.240  0.3309  0.5185  0.1396
 1623TIP3    H1 4814   7.171   7.302   1.183  1.3037 -0.7102  1.9539
 1623TIP3    H2 4815   7.039   7.265   1.247  0.6083  0.3595  1.1644
 1624TIP3   OH2 4816   6.786   1.733   3.220 -0.2431 -0.7100  0.3346
 1624TIP3    H1 4817   6.768   1.684   3.300 -2.1744  2.4876  2.0549
 1624TIP3    H2 4818   6.807   1.665   3.155  2.5709 -3.4545  3.6507
 1625TIP3   OH2 4819   0.596   4.228   3.844 -0.7998  0.6866  0.0801
 1625TIP3    H1 4820   0.512   4.264   3.815 -0.5141  1.2786 -0.0245
 1625TIP3    H2 4821   0.583   4.211   3.938 -1.2762  0.0612 -0.0938
 1626TIP3   OH2 4822   5.129   3.001   6.392 -0.1488 -0.0702 -0.0059
 1626TIP3    H1 4823   5.037   2.993   6.367  0.1102 -0.6682 -0.7963
 1626TIP3    H2 4824   5.165   3.068   6.335 -0.4272  1.2514  1.3099
 1627TIP3   OH2 4825   7.357   3.222   2.441 -0.2085 -0.2661 -0.4902
 1627TIP3    H1 4826   7.441   3.193   2.407 -0.5773  0.1855 -1.8494
 1627TIP3    H2 4827   7.309   3.141   2.458 -0.2847 -0.5329 -1.8138
 1628TIP3   OH2 4828   5.315   1.112   2.439  0.0897  0.4780  0.7035
 1628TIP3    H1 4829   5.388   1.052   2.450  1.3993  2.1760  1.9090
 1628TIP3    H2 4830   5.313   1.132   2.346  0.7751 -0.0758  0.5635
 1629TIP3   OH2 4831   3.551   2.038   0.567 -0.0859  0.4652 -0.4724
 1629TIP3    H1 4832   3.641   2.050   0.597 -0.3548  3.6437 -0.6142
 1629TIP3    H2 4833   3.497   2.070   0.639 -1.1388 -1.1751 -0.4927
 1630TIP3   OH2 4834   4.790   1.834   5.906 -0.2554 -0.4365  0.0971
 1630TIP3    H1 4835   4.789   1.898   5.834  0.1131  0.6195  1.0069
 1630TIP3    H2 4836   4.724   1.866   5.967  0.6030 -0.3920  1.0131
 1631TIP3   OH2 4837   1.736   6.646   2.804  0.3724 -0.2095  0.0939
 1631TIP3    H1 4838   1.683   6.716   2.843  1.4634  0.7931 -0.1817
 1631TIP3    H2 4839   1.761   6.680   2.718 -0.8339 -1.8222 -0.9500
 1632TIP3   OH2 4840   7.922   4.921   6.344  0.0427  0.4510 -0.3609
 1632TIP3    H1 4841   7.886   4.987   6.403 -1.0057 -0.4587  0.0681
 1632TIP3    H2 4842   7.900   4.837   6.386 -1.5297 -0.2708 -2.4074
 1633TIP3   OH2 4843   0.997   3.854   1.812  0.1464  0.6253  0.0353
 1633TIP3    H1 4844   0.953   3.784   1.861  1.1346  0.8893  1.3396
 1633TIP3    H2 4845   1.029   3.811   1.732 -0.3296 -0.1191  0.2342
 1634TIP3   OH2 4846   2.181   1.853   0.154  0.1196  0.1564 -0.4155
 1634TIP3    H1 4847   2.210   1.874   0.065 -0.8445 -1.0282 -1.0359
 1634TIP3    H2 4848   2.116   1.783   0.143 -0.1335  0.0857  1.2109
 1635TIP3   OH2 4849   0.344   7.304   6.332  0.7192  0.0798 -0.0919
 1635TIP3    H1 4850   0.322   7.394   6.355 -0.7756 -0.1161 -0.6316
 1635TIP3    H2 4851   0.302   7.251   6.399 -1.0587 -0.3344 -1.4539
 1636TIP3   OH2 4852   6.058   7.696   3.410  0.1267 -0.1783  0.0889
 1636TIP3    H1 4853   6.102   7.749   3.477  0.5252 -0.1693 -0.1777
 1636TIP3    H2 4854   5.969   7.686   3.443  0.1192  0.4397  0.2717
 1637TIP3   OH2 4855   7.097   4.167   6.667  0.0311 -0.9659  0.2081
 1637TIP3    H1 4856   7.108   4.115   6.587 -0.7993 -0.0523 -0.5260
 1637TIP3    H2 4857   7.092   4.257   6.636  0.3169 -0.5416  1.3634
 1638TIP3   OH2 4858   5.442   4.316   1.952 -0.1849  0.0588  0.3468
 1638TIP3    H1 4859   5.425   4.377   1.880 -2.6262  0.1967  0.9537
 1638TIP3    H2 4860   5.407   4.361   2.029  0.9832 -0.7402  1.3694
 1639TIP3   OH2 4861   1.002   4.962   3.271 -0.8937 -0.1177  0.1648
 1639TIP3    H1 4862   0.981   5.055   3.283  2.0370  0.4095  2.2527
 1639TIP3    H2 4863   1.072   4.962   3.205 -1.1296 -0.8821 -0.0846
 1640TIP3   OH2 4864   4.181   7.394   4.036  0.2505  0.2069 -0.1466
 1640TIP3    H1 4865   4.186   7.454   4.111  1.7371  0.3644 -0.3348
 1640TIP3    H2 4866   4.267   7.352   4.034 -1.0758 -2.8292  0.6739
 1641TIP3   OH2 4867   4.952   1.478   0.316  0.0330  0.3706  0.1481
 1641TIP3    H1 4868   4.892   1.501   0.244  1.5156 -0.7203 -1.5439
 1641TIP3    H2 4869   5.025   1.539   0.306  0.4407 -0.0623  0.4627
 1642TIP3   OH2 4870   5.898   3.021   1.981  0.1530 -0.2412 -0.3706
 1642TIP3    H1 4871   5.940   2.958   2.040  1.4734  0.6207 -0.3499
 1642TIP3    H2 4872   5.884   2.972   1.900  1.5014 -0.4841 -0.4787
 1643TIP3   OH2 4873   7.617   7.799   6.553  0.1673 -0.2431  0.3277
 1643TIP3    H1 4874   7.633   7.893   6.544 -0.2336 -0.1955  0.0556
 1643TIP3    H2 4875   7.696   7.758   6.518  1.2546 -0.0082  2.3700
 1644TIP3   OH2 4876   3.776   6.265   5.534 -0.2676 -0.4946 -0.0729
 1644TIP3    H1 4877   3.805   6.266   5.443 -1.1074  0.9449 -0.3581
 1644TIP3    H2 4878   3.691   6.310   5.532  1.6597  3.8759  1.9954
 1645TIP3   OH2 4879   2.394   5.787   1.121 -0.0340  0.1121  0.4551
 1645TIP3    H1 4880   2.454   5.742   1.180  0.3921 -0.1388 -0.1551
 1645TIP3    H2 4881   2.317   5.731   1.118 -0.2683  0.3877  1.1680
 1646TIP3   OH2 4882   7.837   1.640   4.439  0.3680 -0.1088  0.0379
 1646TIP3    H1 4883   7.862   1.582   4.510  1.6918  0.8699  0.4196
 1646TIP3    H2 4884   7.776   1.589   4.386 -0.1035 -1.0928  1.4811
 1647TIP3   OH2 4885   3.363   0.893   4.672 -0.1670 -0.3461 -0.1754
 1647TIP3    H1 4886   3.450   0.898   4.710  0.0005 -1.6820 -0.3488
 1647TIP3    H2 4887   3.371   0.826   4.604 -0.8110  0.9664 -1.6059
 1648TIP3   OH2 4888   3.470   5.562   6.081  0.3839  0.0673 -0.1126
 1648TIP3    H1 4889   3.565   5.573   6.091  0.2277  2.2182 -0.3967
 1648TIP3    H2 4890   3.447   5.623   6.011 -0.9251 -2.1335 -1.6767
 1649TIP3   OH2 4891   0.006   3.433   5.014 -0.8365 -0.4590 -0.9783
 1649TIP3    H1 4892   0.010   3.467   4.925  2.1965  1.1593 -0.3569
 1649TIP3    H2 4893   0.086   3.382   5.024  0.1981  1.4279  1.4975
 1650TIP3   OH2 4894   0.901   6.124   5.482 -0.2957  0.1123  0.4839
 1650TIP3    H1 4895   0.809   6.098   5.480 -0.3006  0.1526  0.2129
 1650TIP3    H2 4896   0.907   6.197   5.421 -0.2216  0.5653  1.0229
 1651TIP3   OH2 4897   3.598   1.831   2.120  0.2289  0.0119  0.1414
 1651TIP3    H1 4898   3.616   1.831   2.026 -0.3478 -0.8771  0.0162
 1651TIP3    H2 4899   3.599   1.738   2.144 -1.4102  0.0790  0.6371
 1652TIP3   OH2 4900   2.516   7.183   5.252  0.0486  0.1225 -0.2975
 1652TIP3    H1 4901   2.486   7.260   5.299  2.3898  0.7992  0.1995
 1652TIP3    H2 4902   2.596   7.211   5.207  0.5709 -1.8161 -0.6935
 1653TIP3   OH2 4903   8.038   1.613   0.711  0.4838  0.6855 -0.9235
 1653TIP3    H1 4904   8.071   1.595   0.623 -0.6701 -0.0308 -1.2375
 1653TIP3    H2 4905   7.956   1.660   0.697 -1.2998 -2.0073 -0.4164
 1654TIP3   OH2 4906   1.756   6.846   4.912  0.1579  0.3354 -0.7105
 1654TIP3    H1 4907   1.765   6.812   4.823 -0.5161 -0.5292 -0.4625
 1654TIP3    H2 4908   1.840   6.828   4.954  0.7916  1.5270 -1.4111
 1655TIP3   OH2 4909   4.623   0.077   4.520 -0.0710  0.3545  0.4987
 1655TIP3    H1 4910   4.696   0.041   4.571  0.8011  1.6617  0.2460
 1655TIP3    H2 4911   4.588   0.003   4.472  1.0185 -0.3382  0.7361
 1656TIP3   OH2 4912   0.743   2.283   1.552 -0.0088  0.1696 -0.3555
 1656TIP3    H1 4913   0.683   2.319   1.487 -1.8213 -2.5370 -0.3499
 1656TIP3    H2 4914   0.829   2.313   1.525 -0.9771  1.1660 -2.5454
 1657TIP3   OH2 4915   3.206   5.841   1.125 -0.4219  0.4313  0.6274
 1657TIP3    H1 4916   3.258   5.815   1.202  0.5558  0.9086  0.1518
 1657TIP3    H2 4917   3.270   5.842   1.054 -1.4191 -0.5163 -0.3066
 1658TIP3   OH2 4918   6.162   7.413   3.187 -0.3387 -0.1330 -0.2401
 1658TIP3    H1 4919   6.132   7.400   3.097 -0.1973  0.6277 -0.3952
 1658TIP3    H2 4920   6.206   7.497   3.187  0.3361 -0.4746  0.3763
 1659TIP3   OH2 4921   0.544   2.042   4.395  0.7970 -0.9104  0.1789
 1659TIP3    H1 4922   0.574   2.085   4.315  0.4739 -0.9656  0.0291
 1659TIP3    H2 4923   0.449   2.039   4.387  0.8949 -3.9980 -1.0542
 1660TIP3   OH2 4924   7.388   6.112   6.048 -0.3586  0.4158 -0.3712
 1660TIP3    H1 4925   7.447   6.187   6.058  0.7546 -0.4352 -0.4572
 1660TIP3    H2 4926   7.377   6.102   5.953  0.3769 -0.2004 -0.3966
 1661TIP3   OH2 4927   7.264   0.761   3.033  0.6390 -0.4591  0.2514
 1661TIP3    H1 4928   7.244   0.674   2.999  0.7336 -0.4418  0.1528
 1661TIP3    H2 4929   7.203   0.819   2.989  1.8539 -0.1893 -1.1518
 1662TIP3   OH2 4930   7.789   2.802   4.662  0.2289 -0.2041 -0.6868
 1662TIP3    H1 4931   7.814   2.882   4.615  1.9166  0.1034  0.6286
 1662TIP3    H2 4932   7.726   2.759   4.605 -1.5301  2.5520 -0.9875
 1663TIP3   OH2 4933   5.544   5.717   1.932  0.2256 -0.0929  0.3292
 1663TIP3    H1 4934   5.590   5.758   2.006  3.4165 -0.8621 -1.0466
 1663TIP3    H2 4935   5.549   5.624   1.950 -0.3789 -0.2118 -0.1020
 1664TIP3   OH2 4936   0.895   5.019   6.584  0.8626 -0.2341 -0.0761
 1664TIP3    H1 4937   0.821   5.010   6.524 -0.9676  1.9266  1.6780
 1664TIP3    H2 4938   0.965   5.057   6.531 -0.0909 -0.0560 -1.2456
 1665TIP3   OH2 4939   1.364   7.572   4.246  0.5493  0.2142 -0.3313
 1665TIP3    H1 4940   1.272   7.569   4.220  0.2667 -0.2068  0.6702
 1665TIP3    H2 4941   1.405   7.630   4.182 -0.4854  0.7052 -0.5724
 1666TIP3   OH2 4942   6.894   1.841   6.335 -0.4700 -0.2273 -0.0879
 1666TIP3    H1 4943   6.869   1.929   6.363 -0.6509 -0.8347  1.8591
 1666TIP3    H2 4944   6.844   1.783   6.393  2.2546 -1.5501  1.1034
 1667TIP3   OH2 4945   6.721   2.363   6.103 -0.2473  0.3276 -0.5260
 1667TIP3    H1 4946   6.815   2.358   6.090  0.0230  2.1733  0.4072
 1667TIP3    H2 4947   6.709   2.434   6.166 -2.2726  0.2490 -0.7525
 1668TIP3   OH2 4948   6.251   6.750   5.632 -0.0017  0.1841 -0.0370
 1668TIP3    H1 4949   6.211   6.774   5.548  0.2406  1.4651  0.1973
 1668TIP3    H2 4950   6.313   6.820   5.650 -0.4047  0.1793  1.4510
 1669TIP3   OH2 4951   0.239   5.536   4.967 -0.4980 -0.0736  0.8831
 1669TIP3    H1 4952   0.197   5.605   4.917  0.1177 -0.6615 -0.5070
 1669TIP3    H2 4953   0.198   5.455   4.936  0.9834 -0.5817  0.1516
 1670TIP3   OH2 4954   4.381   3.791   4.378 -0.1725 -0.1551  0.1171
 1670TIP3    H1 4955   4.445   3.862   4.388  0.9993 -0.9189 -1.4562
 1670TIP3    H2 4956   4.367   3.759   4.467 -0.3817  1.7279  0.8022
 1671TIP3   OH2 4957   0.934   2.949   2.604  0.5489 -0.5174 -0.1796
 1671TIP3    H1 4958   0.933   2.939   2.509  0.6149 -3.4564  0.0544
 1671TIP3    H2 4959   1.027   2.949   2.627  0.5149 -1.2004 -0.0226
 1672TIP3   OH2 4960   2.998   5.930   3.219 -0.0296 -0.5518 -0.2029
 1672TIP3    H1 4961   3.029   5.966   3.136 -1.2290  1.5576  0.1733
 1672TIP3    H2 4962   2.982   5.838   3.202 -1.5587  0.0936 -2.7470
 1673TIP3   OH2 4963   1.217   3.521   3.082  0.1269  0.7221  0.2321
 1673TIP3    H1 4964   1.297   3.538   3.034  0.4486 -0.2383  0.3951
 1673TIP3    H2 4965   1.210   3.425   3.083 -0.9908  0.7913  0.2611
 1674TIP3   OH2 4966   7.123   4.361   2.504 -0.9014  0.0575  0.0690
 1674TIP3    H1 4967   7.130   4.442   2.453  0.3315 -0.3849 -0.5155
 1674TIP3    H2 4968   7.192   4.368   2.570 -3.6995  1.5107  3.1064
 1675TIP3   OH2 4969   1.806   5.539   4.747 -0.2601  0.3133 -1.0713
 1675TIP3    H1 4970   1.895   5.517   4.775  0.2623  1.1873 -2.0113
 1675TIP3    H2 4971   1.791   5.487   4.669 -1.7674 -2.2141  0.7428
 1676TIP3   OH2 4972   2.185   5.435   5.624  0.8093 -0.0147  0.0274
 1676TIP3    H1 4973   2.274   5.406   5.604  0.5755 -0.6795 -0.0953
 1676TIP3    H2 4974   2.193   5.484   5.706  1.0913 -1.3305  0.8306
 1677TIP3   OH2 4975   3.424   3.701   3.007  0.5536  0.0918 -0.2654
 1677TIP3    H1 4976   3.487   3.629   3.014 -1.0578 -1.7402 -2.7886
 1677TIP3    H2 4977   3.408   3.728   3.097  1.3939 -2.5966  0.7833
 1678TIP3   OH2 4978   7.050   2.266   2.578 -0.5427  0.5167 -0.2528
 1678TIP3    H1 4979   7.078   2.252   2.668 -2.1074 -0.9664  0.0493
 1678TIP3    H2 4980   7.127   2.304   2.535  0.1307  1.6142  1.7508
 1679TIP3   OH2 4981   5.050   1.149   0.580 -0.0730 -0.1146  0.0144
 1679TIP3    H1 4982   5.004   1.129   0.498 -1.1049 -1.9059  0.9829
 1679TIP3    H2 4983   5.130   1.098   0.576 -0.6389 -1.0657  0.5768
 1680TIP3   OH2 4984   7.303   6.350   2.158 -0.2297  0.3397 -0.1742
 1680TIP3    H1 4985   7.331   6.262   2.182 -0.1114  0.2651 -0.5743
 1680TIP3    H2 4986   7.311   6.401   2.238 -1.6627 -0.3481  0.4504
 1681TIP3   OH2 4987   5.752   4.885   4.253  0.4218  0.2252  0.3275
 1681TIP3    H1 4988   5.729   4.862   4.163  1.3025 -1.2584  0.4484
 1681TIP3    H2 4989   5.670   4.914   4.292 -0.1268  0.1318 -0.7233
 1682TIP3   OH2 4990   1.527   2.361   6.452 -0.4022  0.0891 -0.1154
 1682TIP3    H1 4991   1.512   2.420   6.526  0.2208  0.1428 -0.0243
 1682TIP3    H2 4992   1.536   2.274   6.492 -0.8011  0.0036 -0.2025
 1683TIP3   OH2 4993   7.151   4.376   4.552 -0.0206  0.5573  0.0079
 1683TIP3    H1 4994   7.179   4.365   4.643  0.0772  0.6025 -0.0176
 1683TIP3    H2 4995   7.056   4.383   4.557  0.0639  1.7508  0.2181
 1684TIP3   OH2 4996   4.749   2.875   2.937  0.5738 -0.0700  0.0476
 1684TIP3    H1 4997   4.828   2.927   2.939  0.3181  0.3076  0.5988
 1684TIP3    H2 4998   4.718   2.875   3.028 -0.1881 -0.0103 -0.2073
 1685TIP3   OH2 4999   6.677   1.147   0.263 -0.5458 -0.0267  0.6419
 1685TIP3    H1 5000   6.750   1.208   0.252  1.0890 -1.8029  1.0097
 1685TIP3    H2 5001   6.719   1.064   0.284 -2.4514 -2.0657 -2.7894
 1686TIP3   OH2 5002   6.956   6.021   4.481 -0.7374 -0.0006  0.4690
 1686TIP3    H1 5003   7.000   5.946   4.521 -2.3774 -2.0829 -1.3723
 1686TIP3    H2 5004   6.863   6.008   4.502 -1.2197  0.7328 -1.0765
 1687TIP3   OH2 5005   0.221   0.308   6.551  1.0276 -0.4652 -0.1461
 1687TIP3    H1 5006   0.250   0.366   6.621  2.9259 -2.3304  0.7157
 1687TIP3    H2 5007   0.282   0.324   6.479  0.3314 -0.0132 -0.6538
 1688TIP3   OH2 5008   4.764   3.303   2.136  0.4426 -0.0065 -0.7388
 1688TIP3    H1 5009   4.814   3.222   2.124 -0.3136 -0.4658 -0.8588
 1688TIP3    H2 5010   4.690   3.295   2.076 -0.3258  0.2022  0.1544
 1689TIP3   OH2 5011   6.507   4.861   0.386 -0.5913  0.3573  0.2910
 1689TIP3    H1 5012   6.424   4.822   0.357 -0.3266 -0.4707  0.6228
 1689TIP3    H2 5013   6.536   4.805   0.458  0.6000  0.2214 -0.2769
 1690TIP3   OH2 5014   7.302   1.121   2.999 -0.3099 -0.2323  0.0828
 1690TIP3    H1 5015   7.241   1.058   2.962  1.3470 -1.1805 -1.1432
 1690TIP3    H2 5016   7.320   1.088   3.087 -2.8165  1.0205  1.1935
 1691TIP3   OH2 5017   2.277   5.210   5.849  0.4377  0.2356  0.2077
 1691TIP3    H1 5018   2.321   5.256   5.778  1.9819 -0.3283  0.7554
 1691TIP3    H2 5019   2.307   5.119   5.841 -0.3589 -0.0935  0.8176
 1692TIP3   OH2 5020   6.921   7.195   1.912 -0.0683  0.2200  0.6997
 1692TIP3    H1 5021   6.929   7.163   1.822 -1.7210 -0.8003  0.8675
 1692TIP3    H2 5022   6.835   7.237   1.915 -0.4921 -0.6463  2.0249
 1693TIP3   OH2 5023   7.266   1.549   1.913  1.0545 -0.3009 -0.4957
 1693TIP3    H1 5024   7.279   1.532   1.820  1.6943 -0.1025 -0.4487
 1693TIP3    H2 5025   7.349   1.587   1.942 -0.1327  2.5514 -0.5030
 1694TIP3   OH2 5026   4.434   0.814   0.529 -0.2607  0.0074  0.4602
 1694TIP3    H1 5027   4.511   0.788   0.478 -1.7100 -1.5085 -1.0836
 1694TIP3    H2 5028   4.462   0.893   0.575  1.2423  1.3332 -2.4894
 1695TIP3   OH2 5029   7.948   7.407   1.556  0.3175  0.0009 -0.4619
 1695TIP3    H1 5030   7.975   7.443   1.640 -1.8626  1.7285 -0.3842
 1695TIP3    H2 5031   7.953   7.482   1.496 -1.5429 -0.2445 -1.0003
 1696TIP3   OH2 5032   4.655   1.254   2.863  0.5111 -0.3860  0.0549
 1696TIP3    H1 5033   4.640   1.341   2.900  0.4495 -0.6763  0.7219
 1696TIP3    H2 5034   4.695   1.271   2.777 -0.9690  0.3415 -0.5264
 1697TIP3   OH2 5035   1.323   3.941   1.034  0.7116  0.0832 -0.7062
 1697TIP3    H1 5036   1.348   3.868   0.977 -0.3336  0.6602 -1.9293
 1697TIP3    H2 5037   1.404   3.990   1.046  1.1794 -0.6471 -0.7916
 1698TIP3   OH2 5038   7.341   2.045   4.449  0.4088 -0.1525 -0.1500
 1698TIP3    H1 5039   7.402   2.060   4.377  0.1342  0.3040 -0.2973
 1698TIP3    H2 5040   7.347   2.125   4.502 -1.0073  0.4919 -0.8836
 1699TIP3   OH2 5041   2.529   7.246   5.780 -0.6611 -0.1079 -0.5604
 1699TIP3    H1 5042   2.465   7.291   5.724 -0.8376 -0.2587 -0.4818
 1699TIP3    H2 5043   2.478   7.218   5.856 -0.3984  0.2060 -0.2646
 1700TIP3   OH2 5044   5.500   7.515   0.111 -0.0016  0.3438 -0.1214
 1700TIP3    H1 5045   5.427   7.472   0.065  1.0716  1.2551 -2.8779
 1700TIP3    H2 5046   5.515   7.596   0.062  3.6640 -0.3814 -0.4644
 1701TIP3   OH2 5047   0.480   2.632   4.168 -0.1330  0.2888 -0.2813
 1701TIP3    H1 5048   0.553   2.620   4.107 -1.8497 -0.2290 -2.3477
 1701TIP3    H2 5049   0.476   2.549   4.217  0.7818  0.4083  0.0127
 1702TIP3   OH2 5050   2.227   4.513   5.690 -0.2299  0.0485  0.1643
 1702TIP3    H1 5051   2.170   4.589   5.703 -0.5612 -0.2443  0.4131
 1702TIP3    H2 5052   2.198   4.475   5.607 -0.1208  0.1365  0.0838
 1703TIP3   OH2 5053   3.332   4.959   2.393 -0.8067 -0.5913 -0.0301
 1703TIP3    H1 5054   3.295   4.946   2.481  0.0266 -1.8601  0.1554
 1703TIP3    H2 5055   3.350   4.871   2.361 -1.5503 -0.1664 -1.6989
 1704TIP3   OH2 5056   7.164   6.481   4.145 -0.1377 -0.0975 -0.0954
 1704TIP3    H1 5057   7.169   6.559   4.200 -0.9710  0.4043 -0.7142
 1704TIP3    H2 5058   7.167   6.408   4.207 -0.3982  0.4409  0.5644
 1705TIP3   OH2 5059   5.335   4.702   5.839  0.0248  0.0074  0.0350
 1705TIP3    H1 5060   5.332   4.609   5.818 -0.3564 -0.4935  2.1055
 1705TIP3    H2 5061   5.328   4.746   5.754  0.2059 -1.8313 -0.9865
 1706TIP3   OH2 5062   3.790   6.810   1.546  0.4112  0.9216  0.1045
 1706TIP3    H1 5063   3.768   6.768   1.463  0.7439  1.0894 -0.0744
 1706TIP3    H2 5064   3.853   6.751   1.587 -0.5661  0.3059  0.7413
 1707TIP3   OH2 5065   6.204   2.446   0.739 -0.0417  0.0287  0.4774
 1707TIP3    H1 5066   6.250   2.386   0.798  1.7351 -1.3314 -2.1055
 1707TIP3    H2 5067   6.266   2.516   0.722 -1.0047  1.0763  1.1226
 1708TIP3   OH2 5068   2.881   6.007   1.468 -0.3880 -1.0868  0.2534
 1708TIP3    H1 5069   2.804   6.038   1.515  0.4140  0.5181  0.5785
 1708TIP3    H2 5070   2.952   6.063   1.500  0.1024  0.5661 -3.2687
 1709TIP3   OH2 5071   2.017   5.804   2.449 -0.3682  0.1511 -0.0428
 1709TIP3    H1 5072   2.043   5.880   2.397  1.0754 -1.6819 -2.2064
 1709TIP3    H2 5073   1.978   5.744   2.385 -0.2579 -1.4532  1.3282
 1710TIP3   OH2 5074   0.712   7.175   5.095  0.0076 -0.3556  0.0886
 1710TIP3    H1 5075   0.694   7.227   5.173 -0.0495  1.9544 -1.3732
 1710TIP3    H2 5076   0.781   7.223   5.049  1.4295 -2.6771 -0.3965
 1711TIP3   OH2 5077   6.932   2.947   4.228  0.0961  0.3087 -0.3133
 1711TIP3    H1 5078   6.932   3.010   4.300  0.9339 -0.4690  0.4078
 1711TIP3    H2 5079   6.927   3.000   4.149 -1.5629  1.1624  0.3224
 1712TIP3   OH2 5080   3.283   3.168   3.683 -0.3225 -0.2186 -0.1105
 1712TIP3    H1 5081   3.280   3.128   3.770  2.6144  0.7942  0.5733
 1712TIP3    H2 5082   3.367   3.214   3.680  0.3319 -1.2991 -3.9963
 1713TIP3   OH2 5083   3.510   0.314   1.853 -0.7213 -0.7623  0.1865
 1713TIP3    H1 5084   3.486   0.317   1.761 -1.2706 -0.0437  0.3407
 1713TIP3    H2 5085   3.532   0.223   1.870  1.4170 -0.5568 -1.1512
 1714TIP3   OH2 5086   7.489   0.474   4.030  0.3709  0.3843 -0.0552
 1714TIP3    H1 5087   7.461   0.384   4.046  1.6142 -0.0676 -0.3069
 1714TIP3    H2 5088   7.554   0.467   3.961 -0.3077  1.6121 -0.8655
 1715TIP3   OH2 5089   4.566   7.421   6.625  0.6599 -0.8446 -0.4772
 1715TIP3    H1 5090   4.636   7.378   6.576  0.7997  0.3916 -1.4353
 1715TIP3    H2 5091   4.611   7.488   6.677  0.1623  0.7627 -1.9872
 1716TIP3   OH2 5092   6.653   1.968   3.086  0.5913  0.2811 -0.5227
 1716TIP3    H1 5093   6.683   2.004   3.170 -0.1144 -0.7423  0.1859
 1716TIP3    H2 5094   6.699   1.884   3.079 -0.5325 -0.3517 -0.4123
 1717TIP3   OH2 5095   3.968   6.797   4.107  1.0612  0.0842  0.3489
 1717TIP3    H1 5096   3.964   6.806   4.203  1.3008  1.2448  0.2661
 1717TIP3    H2 5097   4.062   6.797   4.087  1.0087  0.0319  0.0997
 1718TIP3   OH2 5098   2.478   5.779   2.989  0.4641  0.2623 -0.0969
 1718TIP3    H1 5099   2.425   5.839   3.041  0.3212  1.7763 -1.8998
 1718TIP3    H2 5100   2.438   5.693   3.002 -0.1259  0.7488  1.5027
 1719TIP3   OH2 5101   4.015   5.889   6.090 -0.0429 -0.4961 -0.1145
 1719TIP3    H1 5102   3.921   5.899   6.105  0.0121 -0.8413  0.5038
 1719TIP3    H2 5103   4.055   5.958   6.144  0.0723 -0.5225 -0.1652
 1720TIP3   OH2 5104   0.879   2.410   4.468  0.4670  0.0913 -0.5876
 1720TIP3    H1 5105   0.840   2.336   4.514  0.4841  1.2665  1.4353
 1720TIP3    H2 5106   0.806   2.467   4.448  0.7433  0.7893  0.3286
 1721TIP3   OH2 5107   4.452   5.220   3.634 -0.0470 -0.4232 -0.1966
 1721TIP3    H1 5108   4.474   5.174   3.553 -0.1646 -1.2097  0.2049
 1721TIP3    H2 5109   4.358   5.206   3.644 -0.2863  0.8100 -0.6111
 1722TIP3   OH2 5110   2.125   6.015   6.296 -0.3398 -0.3477 -0.3883
 1722TIP3    H1 5111   2.121   6.094   6.349  1.0024  0.5079 -1.4844
 1722TIP3    H2 5112   2.068   6.034   6.221 -0.0274 -0.4270 -0.6460
 1723TIP3   OH2 5113   2.395   3.697   2.976 -0.4125 -0.1561 -0.0571
 1723TIP3    H1 5114   2.373   3.727   3.064  1.3497 -0.6772  0.5973
 1723TIP3    H2 5115   2.314   3.709   2.926 -1.3647  0.4225  1.5429
 1724TIP3   OH2 5116   5.089   7.218   3.812 -0.1621 -0.3241 -0.0339
 1724TIP3    H1 5117   5.051   7.287   3.866 -2.8109 -0.9243 -0.9819
 1724TIP3    H2 5118   5.091   7.141   3.868  3.7713  0.5586  1.3753
 1725TIP3   OH2 5119   8.020   3.355   3.100  0.3286  0.1466  0.3323
 1725TIP3    H1 5120   8.113   3.364   3.082 -0.0565  1.5742 -1.1588
 1725TIP3    H2 5121   8.014   3.343   3.195  1.9901  0.2872  0.4702
 1726TIP3   OH2 5122   0.849   5.398   5.065 -0.7185  0.3820  0.4237
 1726TIP3    H1 5123   0.879   5.328   5.123 -1.6890 -1.3235 -0.9843
 1726TIP3    H2 5124   0.902   5.388   4.986 -0.0204  2.0799  0.6522
 1727TIP3   OH2 5125   3.811   2.495   2.213  0.6249 -0.3430  0.1945
 1727TIP3    H1 5126   3.797   2.526   2.302 -2.6980 -0.8843 -0.0048
 1727TIP3    H2 5127   3.784   2.568   2.157  0.5443 -0.7760 -0.3432
 1728TIP3   OH2 5128   5.263   3.231   6.314 -0.1585 -0.2546  0.4989
 1728TIP3    H1 5129   5.296   3.271   6.233 -0.3794 -0.3932  0.3388
 1728TIP3    H2 5130   5.301   3.284   6.384 -1.2984  0.9241  0.2660
 1729TIP3   OH2 5131   5.209   4.986   0.053 -0.2876  0.5625 -0.3487
 1729TIP3    H1 5132   5.274   4.987  -0.017 -1.2413  1.5317 -1.2717
 1729TIP3    H2 5133   5.192   4.893   0.069  2.1362  0.2460  0.7509
 1730TIP3   OH2 5134   0.276   4.442   6.170 -0.0437  0.0352 -0.0718
 1730TIP3    H1 5135   0.248   4.422   6.259 -1.8259  0.7365 -0.4271
 1730TIP3    H2 5136   0.312   4.359   6.137  0.3630 -0.3034  1.1845
 1731TIP3   OH2 5137   7.446   2.685   2.305 -0.1046 -0.1269 -0.3215
 1731TIP3    H1 5138   7.453   2.712   2.396 -1.6937  3.8657 -1.1777
 1731TIP3    H2 5139   7.500   2.748   2.257 -0.0339 -1.5757 -2.2714
 1732TIP3   OH2 5140   8.152   1.102   5.982  0.1899  0.5971  0.0368
 1732TIP3    H1 5141   8.224   1.085   5.922 -0.1638 -1.6701  0.1990
 1732TIP3    H2 5142   8.073   1.083   5.932 -0.2505  1.5572  0.3375
 1733TIP3   OH2 5143   3.057   6.114   3.595  0.3818 -0.2645  0.0391
 1733TIP3    H1 5144   3.004   6.138   3.671 -0.6491 -0.6322 -0.5372
 1733TIP3    H2 5145   3.102   6.034   3.622  1.8260  0.8313  1.0490
 1734TIP3   OH2 5146   1.491   0.594   5.605  0.1833  0.4389  0.3200
 1734TIP3    H1 5147   1.421   0.587   5.671 -0.6531  2.4248 -0.2747
 1734TIP3    H2 5148   1.455   0.552   5.527  1.0181 -1.5548  0.9603
 1735TIP3   OH2 5149   0.384   1.517   4.682 -0.4030  0.1635 -0.1123
 1735TIP3    H1 5150   0.432   1.456   4.627  2.7784  2.7397 -0.4749
 1735TIP3    H2 5151   0.296   1.521   4.643  0.7682 -0.5436 -3.0098
 1736TIP3   OH2 5152   5.310   7.741   0.378  0.6867  0.2891 -0.7534
 1736TIP3    H1 5153   5.286   7.833   0.385  2.1251  0.6194  0.3061
 1736TIP3    H2 5154   5.310   7.723   0.284  1.5244  1.6950 -1.0478
 1737TIP3   OH2 5155   6.187   4.683   2.968 -0.2776  0.1894 -0.7939
 1737TIP3    H1 5156   6.278   4.670   2.992 -0.6500  1.3009  1.4705
 1737TIP3    H2 5157   6.181   4.650   2.878  1.8782 -1.7133 -0.3317
 1738TIP3   OH2 5158   4.732   0.747   0.690 -0.1167 -0.7121  0.0270
 1738TIP3    H1 5159   4.739   0.841   0.675  0.3353 -0.5676  1.0489
 1738TIP3    H2 5160   4.819   0.713   0.672 -0.1807 -0.8769  0.0232
 1739TIP3   OH2 5161   6.064   7.465   2.940  0.4083  0.1680  0.3550
 1739TIP3    H1 5162   6.069   7.558   2.964  0.0615  0.7289 -1.5746
 1739TIP3    H2 5163   6.091   7.462   2.848 -0.2449 -1.5565  0.1709
 1740TIP3   OH2 5164   1.460   4.770   0.105  0.5524 -0.2588 -0.0188
 1740TIP3    H1 5165   1.497   4.755   0.019  0.5344  0.0198 -0.0767
 1740TIP3    H2 5166   1.453   4.683   0.144  0.4747 -0.3925 -0.3312
 1741TIP3   OH2 5167   7.364   3.902   0.829  0.0272 -0.3658  0.1199
 1741TIP3    H1 5168   7.414   3.980   0.805  0.7940 -1.0483 -0.5447
 1741TIP3    H2 5169   7.289   3.903   0.770  1.6394 -1.7640 -2.0903
 1742TIP3   OH2 5170   0.831   4.168   1.698 -0.3372  0.1784  0.8491
 1742TIP3    H1 5171   0.771   4.102   1.661  0.4782 -0.9366  1.4786
 1742TIP3    H2 5172   0.859   4.131   1.781  0.5214  1.1114  0.9879
 1743TIP3   OH2 5173   5.939   5.139   1.028 -0.0848 -0.9149 -0.1865
 1743TIP3    H1 5174   5.917   5.052   0.993  1.4368 -1.2665 -0.3847
 1743TIP3    H2 5175   5.918   5.199   0.956  0.8222 -1.3753 -0.8653
 1744TIP3   OH2 5176   8.222   6.083   0.689 -0.1294 -0.1106  0.1940
 1744TIP3    H1 5177   8.181   6.070   0.774 -0.0618  1.1366  0.4438
 1744TIP3    H2 5178   8.212   6.000   0.644  0.7972 -1.1591  1.8269
 1745TIP3   OH2 5179   5.562   7.104   3.611  0.0044 -0.4409  0.2931
 1745TIP3    H1 5180   5.606   7.024   3.584 -2.2593 -1.2454 -1.3698
 1745TIP3    H2 5181   5.535   7.088   3.701  2.2636 -0.2391  1.0616
 1746TIP3   OH2 5182   2.184   2.378   5.014  0.5856  0.3898 -0.4551
 1746TIP3    H1 5183   2.149   2.289   5.014  1.9425 -0.1679 -0.4358
 1746TIP3    H2 5184   2.276   2.368   5.039  0.0319  2.1222  2.6921
 1747TIP3   OH2 5185   4.584   2.547   4.032  0.3581  0.6177 -0.0152
 1747TIP3    H1 5186   4.670   2.509   4.021  0.0570  0.1791 -0.9197
 1747TIP3    H2 5187   4.586   2.585   4.120  0.1903 -2.7018  1.5752
 1748TIP3   OH2 5188   3.945   6.850   3.135 -0.3110  0.0361  0.7574
 1748TIP3    H1 5189   3.979   6.771   3.178 -0.4239 -1.3216 -1.5195
 1748TIP3    H2 5190   3.850   6.842   3.143 -0.3088  0.1955  0.9460
 1749TIP3   OH2 5191   6.284   1.032   3.973 -0.1618 -0.1995  0.3405
 1749TIP3    H1 5192   6.242   1.056   3.891 -0.3140  1.0831  0.7732
 1749TIP3    H2 5193   6.234   0.957   4.005  0.3441 -1.1761 -1.0668
 1750TIP3   OH2 5194   2.578   0.005   6.102  0.1588  0.7016  0.3231
 1750TIP3    H1 5195   2.483   0.012   6.108 -0.3503 -3.4552 -0.5027
 1750TIP3    H2 5196   2.610   0.089   6.137 -3.7367  2.7503 -0.4627
 1751TIP3   OH2 5197   4.253   5.605   0.871 -0.2855  0.3055  0.1109
 1751TIP3    H1 5198   4.318   5.613   0.941 -0.2320  1.2156 -0.0301
 1751TIP3    H2 5199   4.256   5.513   0.846  0.2621  0.1380  0.7634
 1752TIP3   OH2 5200   0.497   5.362   0.142  0.1777  0.3753  0.0327
 1752TIP3    H1 5201   0.465   5.444   0.103 -1.4674 -0.7956 -1.2681
 1752TIP3    H2 5202   0.589   5.358   0.118 -0.0800  1.1491 -1.2077
 1753TIP3   OH2 5203   4.559   6.203   1.201  0.0425  0.0176  0.4546
 1753TIP3    H1 5204   4.468   6.177   1.183 -0.5763  2.8887 -1.3405
 1753TIP3    H2 5205   4.607   6.120   1.205 -2.4182 -1.5557  0.0510
 1754TIP3   OH2 5206   2.522   1.022   3.149  0.5857 -0.0117  0.5051
 1754TIP3    H1 5207   2.541   0.984   3.063 -0.5229  0.5297 -0.0073
 1754TIP3    H2 5208   2.461   1.093   3.130  0.1031 -0.0644  1.7689
 1755TIP3   OH2 5209   1.109   4.223   5.974  0.2206 -0.1364 -0.3837
 1755TIP3    H1 5210   1.083   4.289   6.037  2.9332 -0.1201  0.8462
 1755TIP3    H2 5211   1.166   4.163   6.023 -0.5407 -2.2633 -1.9340
 1756TIP3   OH2 5212   4.578   2.952   0.755 -0.4588  0.0647 -0.2432
 1756TIP3    H1 5213   4.670   2.965   0.728 -0.8283  2.6217 -0.5854
 1756TIP3    H2 5214   4.538   2.909   0.680  0.0324  0.8891 -1.0110
 1757TIP3   OH2 5215   0.509   1.354   5.437 -0.1844 -0.2101 -0.5855
 1757TIP3    H1 5216   0.478   1.269   5.407 -0.2353  0.0263 -1.2051
 1757TIP3    H2 5217   0.539   1.338   5.527  1.4986 -1.2911 -1.2849
 1758TIP3   OH2 5218   3.556   7.178   5.744  0.3791 -0.0212 -0.1746
 1758TIP3    H1 5219   3.648   7.152   5.738  0.7371  0.8313  1.1335
 1758TIP3    H2 5220   3.508   7.108   5.700  1.5170 -1.4255  0.7355
 1759TIP3   OH2 5221   4.101   1.691   6.530  0.5694  0.3413 -0.4253
 1759TIP3    H1 5222   4.092   1.729   6.617 -1.3003  0.7459 -0.7509
 1759TIP3    H2 5223   4.011   1.677   6.500  1.1767 -0.5985 -1.9484
 1760TIP3   OH2 5224   5.013   0.382   2.568  0.2780 -0.2948 -0.0606
 1760TIP3    H1 5225   4.968   0.320   2.625  0.1503 -1.1672 -1.0744
 1760TIP3    H2 5226   5.094   0.337   2.542  1.6156  1.1074  1.4598
 1761TIP3   OH2 5227   4.230   6.730   6.482  0.1254 -0.1131  0.5273
 1761TIP3    H1 5228   4.288   6.771   6.546  0.2847  0.7723 -0.1526
 1761TIP3    H2 5229   4.178   6.668   6.532  0.6812  0.1066  1.3959
 1762TIP3   OH2 5230   0.166   6.372   3.751  0.2270 -0.5073 -0.1102
 1762TIP3    H1 5231   0.189   6.279   3.754  0.9803 -0.3728 -1.1753
 1762TIP3    H2 5232   0.202   6.408   3.832 -0.5962 -1.2412  0.6067
 1763TIP3   OH2 5233   4.569   7.204   3.800  0.0635 -0.0423 -0.1052
 1763TIP3    H1 5234   4.531   7.187   3.886  1.4974 -1.2890  0.3444
 1763TIP3    H2 5235   4.585   7.117   3.763 -1.1846  0.4619 -1.9808
 1764TIP3   OH2 5236   1.079   7.519   4.141  0.0320  0.4443  0.3882
 1764TIP3    H1 5237   1.019   7.534   4.068 -0.0195 -0.5207  0.2177
 1764TIP3    H2 5238   1.101   7.426   4.136  0.9241  0.6108  0.9278
 1765TIP3   OH2 5239   2.177   3.532   5.881  0.0291  0.2094  0.5743
 1765TIP3    H1 5240   2.190   3.564   5.792 -0.0503 -2.5958 -0.5448
 1765TIP3    H2 5241   2.086   3.503   5.885  0.1790 -0.2143  1.3722
 1766TIP3   OH2 5242   5.471   2.276   3.610 -0.1614 -0.0647  0.4836
 1766TIP3    H1 5243   5.456   2.354   3.664  1.2182  1.6555 -1.4269
 1766TIP3    H2 5244   5.383   2.242   3.592 -0.8849  1.5492  0.7246
 1767TIP3   OH2 5245   6.086   5.538   3.430  0.1886 -0.7230 -0.3720
 1767TIP3    H1 5246   6.015   5.537   3.365  0.0024  1.2062 -0.2535
 1767TIP3    H2 5247   6.048   5.582   3.506  1.6305  0.8191 -0.4877
 1768TIP3   OH2 5248   0.158   6.973   2.587  0.1300 -0.2374 -0.1833
 1768TIP3    H1 5249   0.228   6.949   2.648  0.2315 -0.5156 -0.4067
 1768TIP3    H2 5250   0.164   7.068   2.580  0.4470 -0.2534 -0.1532
 1769TIP3   OH2 5251   5.430   3.697   0.141  0.2773 -0.6411 -0.0804
 1769TIP3    H1 5252   5.342   3.722   0.111 -0.8529  0.0626  3.2786
 1769TIP3    H2 5253   5.427   3.601   0.143 -0.0385 -0.6613 -0.9214
 1770TIP3   OH2 5254   7.924   6.674   5.154  0.1433 -0.1243  0.4585
 1770TIP3    H1 5255   7.942   6.582   5.134 -0.8080 -0.1382 -0.3673
 1770TIP3    H2 5256   7.904   6.674   5.248 -0.0935 -0.7951  0.4120
 1771TIP3   OH2 5257   7.072   4.431   1.125 -0.3238 -0.0980  0.5653
 1771TIP3    H1 5258   7.039   4.356   1.173 -0.3953 -0.0442  0.5990
 1771TIP3    H2 5259   7.041   4.507   1.174 -0.8472 -0.0326  0.1348
 1772TIP3   OH2 5260   0.550   7.378   1.789  0.1015 -0.1892 -0.5688
 1772TIP3    H1 5261   0.598   7.444   1.739 -1.6121  0.1439 -1.8306
 1772TIP3    H2 5262   0.504   7.427   1.857  0.5352 -0.3613 -0.1448
 1773TIP3   OH2 5263   1.446   5.592   6.615 -0.8524 -0.4986 -0.3678
 1773TIP3    H1 5264   1.358   5.624   6.634 -0.1475  0.6047  1.3845
 1773TIP3    H2 5265   1.482   5.653   6.551 -0.6768  0.2857  0.4613
 1774TIP3   OH2 5266   1.090   7.363   2.119  0.3027  0.2841  0.2794
 1774TIP3    H1 5267   1.110   7.280   2.075  0.2950  1.1452 -1.4140
 1774TIP3    H2 5268   1.026   7.406   2.063  0.9497  1.8254  0.6650
 1775TIP3   OH2 5269   1.367   0.181   3.506  0.0866  0.1383 -0.3342
 1775TIP3    H1 5270   1.326   0.128   3.438 -1.6746 -0.9421  1.4658
 1775TIP3    H2 5271   1.430   0.123   3.547 -0.6343 -0.0364  0.5464
 1776TIP3   OH2 5272   2.339   0.842   2.882  0.2438 -0.4946 -0.5964
 1776TIP3    H1 5273   2.260   0.853   2.935  0.7679  0.3095  0.0556
 1776TIP3    H2 5274   2.307   0.808   2.798 -0.9231  0.7787 -0.7088
 1777TIP3   OH2 5275   2.911   5.153   4.959  0.3385  0.0078 -0.0338
 1777TIP3    H1 5276   2.932   5.239   4.995  1.3079  0.7228 -2.1163
 1777TIP3    H2 5277   2.992   5.123   4.919 -0.4015 -1.1475 -0.7316
 1778TIP3   OH2 5278   8.097   2.821   1.400 -0.5437  0.3622 -0.9851
 1778TIP3    H1 5279   8.111   2.745   1.344  0.0420 -0.1419 -0.1757
 1778TIP3    H2 5280   8.172   2.878   1.384 -0.0387 -0.0792 -0.2617
 1779TIP3   OH2 5281   6.211   5.645   5.677  0.3946  0.5949 -0.1860
 1779TIP3    H1 5282   6.166   5.715   5.630  1.2198 -0.8376 -3.3587
 1779TIP3    H2 5283   6.304   5.670   5.674  0.5418  0.0838 -0.0177
 1780TIP3   OH2 5284   0.066   5.399   2.986 -0.5156 -0.1561 -0.0545
 1780TIP3    H1 5285   0.038   5.406   3.078  1.0243 -1.0508  0.5038
 1780TIP3    H2 5286   0.114   5.480   2.970  0.1387 -0.4813  0.2603
 1781TIP3   OH2 5287   3.573   6.794   1.742 -0.6920 -1.0706 -0.0973
 1781TIP3    H1 5288   3.513   6.761   1.676  0.0183 -0.5247 -1.0312
 1781TIP3    H2 5289   3.656   6.806   1.696 -0.9276  2.1323  0.0963
 1782TIP3   OH2 5290   0.025   0.708   6.725  0.0228  0.5358 -0.3334
 1782TIP3    H1 5291   0.012   0.613   6.727  0.2344  0.4701  2.6981
 1782TIP3    H2 5292   0.111   0.721   6.764 -0.5150  2.0068  0.4466
 1783TIP3   OH2 5293   3.486   5.315   6.686 -0.2889 -0.0220 -0.3611
 1783TIP3    H1 5294   3.448   5.402   6.698  0.8236  0.2621  1.5080
 1783TIP3    H2 5295   3.428   5.271   6.624 -0.3260  2.3681 -2.1398
 1784TIP3   OH2 5296   6.786   3.320   0.890  0.3626 -0.1835  0.1716
 1784TIP3    H1 5297   6.757   3.290   0.804  0.3393  0.3371  0.0011
 1784TIP3    H2 5298   6.774   3.243   0.946  2.1027 -1.1155 -0.6524
 1785TIP3   OH2 5299   2.819   0.786   0.256  0.1605  0.3089  0.1921
 1785TIP3    H1 5300   2.754   0.802   0.187  0.7945 -0.2868 -0.5440
 1785TIP3    H2 5301   2.898   0.830   0.226  0.0591  1.2664  1.2171
 1786TIP3   OH2 5302   7.698   1.651   1.555 -0.0347 -0.2195  0.0744
 1786TIP3    H1 5303   7.779   1.612   1.526 -0.5776 -1.7423  0.5354
 1786TIP3    H2 5304   7.722   1.699   1.635  0.6393  0.4446 -0.5134
 1787TIP3   OH2 5305   6.039   4.396   5.403 -0.3330 -0.6557  0.0971
 1787TIP3    H1 5306   6.078   4.393   5.490  0.3752 -0.6421 -0.2128
 1787TIP3    H2 5307   6.112   4.384   5.343 -1.1564 -3.6213 -0.4767
 1788TIP3   OH2 5308   1.944   5.303   3.975 -0.3077  0.2108 -0.4228
 1788TIP3    H1 5309   1.970   5.214   3.999 -0.3600  0.7257  1.7978
 1788TIP3    H2 5310   1.992   5.359   4.036  0.2548  1.7813 -2.2134
 1789TIP3   OH2 5311   7.514   3.187   1.361 -0.0356  0.6960 -0.5188
 1789TIP3    H1 5312   7.427   3.152   1.343  0.6541 -1.6747  0.4082
 1789TIP3    H2 5313   7.509   3.222   1.450 -0.4878  2.3205 -1.1364
 1790TIP3   OH2 5314   4.627   2.252   5.958  0.3786 -0.1288 -0.0316
 1790TIP3    H1 5315   4.638   2.296   6.042  0.9566 -0.8665  0.2895
 1790TIP3    H2 5316   4.653   2.318   5.893  0.5703  0.2296  0.4050
 1791TIP3   OH2 5317   2.859   7.014   1.938  0.0943 -0.1830  1.0298
 1791TIP3    H1 5318   2.861   7.109   1.924  0.4698  0.1759  3.1739
 1791TIP3    H2 5319   2.768   6.995   1.958  0.2166 -0.0981  1.6643
 1792TIP3   OH2 5320   3.987   5.045   0.071  0.0842 -0.1523 -0.5448
 1792TIP3    H1 5321   3.987   5.111   0.002  0.1848 -1.2344 -1.6095
 1792TIP3    H2 5322   4.028   5.089   0.146 -1.0168  1.3976 -0.7881
 1793TIP3   OH2 5323   5.938   1.980   1.190 -0.0621  0.4181 -0.3474
 1793TIP3    H1 5324   5.945   1.885   1.203 -0.8712  0.1835 -1.5330
 1793TIP3    H2 5325   5.878   1.990   1.116 -0.0797  1.8650 -0.1607
 1794TIP3   OH2 5326   8.260   4.780   2.483  0.2898 -0.8153  0.6364
 1794TIP3    H1 5327   8.195   4.709   2.475 -3.1216  1.9171  1.7425
 1794TIP3    H2 5328   8.287   4.777   2.575  2.0849 -2.1095  0.1195
 1795TIP3   OH2 5329   6.063   1.759   6.117  0.6062  0.1074  0.0107
 1795TIP3    H1 5330   6.159   1.766   6.111  0.5979  1.7722  1.1643
 1795TIP3    H2 5331   6.031   1.795   6.034  0.9521 -0.4864 -0.3954
 1796TIP3   OH2 5332   2.466   3.549   2.004  0.2044 -0.0444 -0.4932
 1796TIP3    H1 5333   2.483   3.606   2.079 -0.7920  0.6537 -0.7684
 1796TIP3    H2 5334   2.374   3.564   1.983  0.2127 -0.9635 -1.2476
 1797TIP3   OH2 5335   2.199   0.408   2.044 -0.5481 -0.3847 -0.0387
 1797TIP3    H1 5336   2.256   0.339   2.011 -2.7442 -1.8415 -1.0397
 1797TIP3    H2 5337   2.245   0.489   2.022  2.1064 -1.4441  1.1664
 1798TIP3   OH2 5338   1.596   1.789   4.565  0.3227  0.1189  0.0524
 1798TIP3    H1 5339   1.501   1.784   4.573  0.4160 -0.8152  0.7986
 1798TIP3    H2 5340   1.624   1.844   4.638  0.5282 -1.7910  1.5189
 1799TIP3   OH2 5341   1.330   7.653   4.516 -0.2758 -0.2455  0.6996
 1799TIP3    H1 5342   1.311   7.582   4.578  1.9837 -0.2880  1.4764
 1799TIP3    H2 5343   1.341   7.609   4.432  0.1077 -0.7162  0.9821
 1800TIP3   OH2 5344   4.960   7.606   2.322 -0.4350  0.2535 -0.5679
 1800TIP3    H1 5345   4.937   7.697   2.305 -2.8418  0.2849  2.1232
 1800TIP3    H2 5346   4.926   7.558   2.246 -0.7432  1.4098 -1.1796
 1801TIP3   OH2 5347   2.608   2.789   2.072  0.1300  0.4525 -0.2877
 1801TIP3    H1 5348   2.666   2.716   2.053  0.9334  1.3597 -1.4280
 1801TIP3    H2 5349   2.657   2.844   2.133 -0.0544  0.5823 -0.2534
 1802TIP3   OH2 5350   6.093   0.861   0.755  0.4673  0.1933 -0.4581
 1802TIP3    H1 5351   6.183   0.856   0.785  0.0711  3.1752  1.6463
 1802TIP3    H2 5352   6.052   0.928   0.810 -2.2021  1.2153 -3.3452
 1803TIP3   OH2 5353   8.132   5.471   6.364 -0.2434 -0.1741 -0.1356
 1803TIP3    H1 5354   8.179   5.422   6.298 -0.6777  0.3025 -0.8136
 1803TIP3    H2 5355   8.199   5.518   6.413  0.2290 -1.8126  0.8650
 1804TIP3   OH2 5356   4.947   2.943   1.425 -0.0715 -0.2681 -0.3972
 1804TIP3    H1 5357   4.901   2.918   1.345 -1.6755 -1.3419  0.7934
 1804TIP3    H2 5358   5.019   2.880   1.431  0.0553 -0.1866 -0.9930
 1805TIP3   OH2 5359   1.084   5.385   2.604  0.2981  0.3696  0.1170
 1805TIP3    H1 5360   1.026   5.313   2.577 -0.5656  0.8515  0.6185
 1805TIP3    H2 5361   1.118   5.357   2.689 -1.3492  1.2437  1.1092
 1806TIP3   OH2 5362   0.679   4.616   0.703 -0.3584 -0.0106  0.1430
 1806TIP3    H1 5363   0.637   4.674   0.767  0.1957  0.6599 -0.0929
 1806TIP3    H2 5364   0.770   4.610   0.731 -0.0149  0.6145 -0.8050
 1807TIP3   OH2 5365  -0.005   6.373   0.620 -0.1468  0.2706 -0.0305
 1807TIP3    H1 5366   0.007   6.379   0.525 -2.8378 -0.1000 -0.4814
 1807TIP3    H2 5367   0.006   6.280   0.640  0.0829  0.2965 -0.0360
 1808TIP3   OH2 5368   4.841   3.290   6.598 -0.5072  0.9312  0.2769
 1808TIP3    H1 5369   4.926   3.322   6.568 -0.1470  0.3550  0.6534
 1808TIP3    H2 5370   4.839   3.313   6.691 -0.2697 -0.0649  0.5387
 1809TIP3   OH2 5371   7.730   2.435   1.712 -0.6937  0.1881  0.2151
 1809TIP3    H1 5372   7.816   2.470   1.689 -1.2090  0.3534 -1.6598
 1809TIP3    H2 5373   7.737   2.411   1.804  2.0177 -1.7579 -0.3858
 1810TIP3   OH2 5374   3.423   6.538   5.053 -0.3531  0.1843  0.1385
 1810TIP3    H1 5375   3.400   6.448   5.029 -1.6969  0.3296  0.7632
 1810TIP3    H2 5376   3.484   6.528   5.126 -0.8847 -0.2414  0.5420
 1811TIP3   OH2 5377   4.452   5.483   2.608 -0.0658 -0.2666 -0.5909
 1811TIP3    H1 5378   4.357   5.497   2.610  0.1231  1.3572  2.0104
 1811TIP3    H2 5379   4.466   5.411   2.670  0.5205  0.8329  0.5926
 1812TIP3   OH2 5380   1.737   1.852   4.078 -0.8915  0.4093 -0.1095
 1812TIP3    H1 5381   1.728   1.760   4.054  1.2579  0.0447  0.2527
 1812TIP3    H2 5382   1.831   1.864   4.092 -1.1349  2.6291  0.0209
 1813TIP3   OH2 5383   2.066   3.916   6.035  0.6291 -0.1275  0.2405
 1813TIP3    H1 5384   2.056   3.980   5.965 -0.6013  1.0915  1.4799
 1813TIP3    H2 5385   1.990   3.859   6.027  0.3763  0.1383  0.6807
 1814TIP3   OH2 5386   6.381   5.394   6.737 -0.2291 -0.0796  0.4434
 1814TIP3    H1 5387   6.420   5.330   6.678  1.8425  0.3087  1.2984
 1814TIP3    H2 5388   6.319   5.345   6.790  1.0539 -1.3285  0.8382
 1815TIP3   OH2 5389   4.821   7.201   3.469  0.3320  0.6373 -0.5342
 1815TIP3    H1 5390   4.911   7.191   3.501  0.2977  1.4595 -0.1414
 1815TIP3    H2 5391   4.775   7.124   3.500  0.4461  1.1283  0.9312
 1816TIP3   OH2 5392   4.946   0.243   1.649  0.1312  0.3212 -0.3913
 1816TIP3    H1 5393   4.900   0.323   1.676 -0.3791  0.9536 -2.8094
 1816TIP3    H2 5394   4.876   0.179   1.637  0.2464  0.2548 -0.7360
 1817TIP3   OH2 5395   8.234   6.871   2.460 -0.0628 -0.4151 -0.1607
 1817TIP3    H1 5396   8.189   6.825   2.532  1.1031 -2.1326 -0.4664
 1817TIP3    H2 5397   8.309   6.912   2.501  0.5258 -1.2807 -0.3423
 1818TIP3   OH2 5398   0.692   4.874   6.090 -0.0557  0.0525 -0.6772
 1818TIP3    H1 5399   0.661   4.862   6.000 -0.0684  0.0827 -0.6772
 1818TIP3    H2 5400   0.678   4.790   6.133 -1.0297  0.3429 -0.4075
 1819TIP3   OH2 5401   0.034   5.472   3.249  0.0851 -0.0490  0.2612
 1819TIP3    H1 5402  -0.026   5.520   3.305  0.4751  0.5746  0.1493
 1819TIP3    H2 5403   0.120   5.510   3.267  0.2599 -0.0653 -0.5179
 1820TIP3   OH2 5404   2.153   3.928   5.089 -0.4964  0.0005  0.7528
 1820TIP3    H1 5405   2.164   4.016   5.053 -0.2357 -1.1629 -2.2959
 1820TIP3    H2 5406   2.232   3.912   5.140 -0.5299  1.4659  1.3083
 1821TIP3   OH2 5407   7.066   6.080   1.975  0.3155  0.1006 -0.4223
 1821TIP3    H1 5408   7.089   6.107   1.886 -0.5967 -1.8726 -1.3214
 1821TIP3    H2 5409   7.132   6.014   1.998  1.2597  1.4371  0.8826
 1822TIP3   OH2 5410   4.282   3.861   0.992 -0.0021  0.0249 -0.5490
 1822TIP3    H1 5411   4.213   3.862   0.925 -0.9007  0.3624  0.3601
 1822TIP3    H2 5412   4.300   3.953   1.010  0.2492 -0.0645 -0.3382
 1823TIP3   OH2 5413   4.018   0.739   4.785  0.8586 -0.3342  0.5301
 1823TIP3    H1 5414   4.015   0.693   4.701 -0.7817 -1.3391  1.0880
 1823TIP3    H2 5415   4.078   0.812   4.771  1.3184 -1.0111 -1.2341
 1824TIP3   OH2 5416   0.083   0.862   0.924  0.3964  0.5467  0.6823
 1824TIP3    H1 5417   0.002   0.810   0.919  0.2494  0.8890 -2.7404
 1824TIP3    H2 5418   0.058   0.949   0.894  2.0998  0.4810 -1.1520
 1825TIP3   OH2 5419   2.816   5.558   4.964  0.1975 -0.0064 -0.0397
 1825TIP3    H1 5420   2.875   5.492   5.002 -0.3485  0.2965  1.3857
 1825TIP3    H2 5421   2.835   5.638   5.013 -1.6020  0.0277  0.6745
 1826TIP3   OH2 5422   2.118   3.296   1.151  0.2955  0.5649 -0.2103
 1826TIP3    H1 5423   2.095   3.229   1.086  1.8503 -0.9023  0.6631
 1826TIP3    H2 5424   2.069   3.270   1.229 -0.9923  1.9004 -0.5307
 1827TIP3   OH2 5425   2.151   1.390   1.537  0.0658 -0.5159  0.3864
 1827TIP3    H1 5426   2.134   1.317   1.597  0.4114 -0.9644 -0.0549
 1827TIP3    H2 5427   2.233   1.366   1.494  0.2238  0.1772  0.2984
 1828TIP3   OH2 5428   5.885   2.350   5.579  0.5270 -0.0454 -0.0367
 1828TIP3    H1 5429   5.885   2.313   5.491 -1.8616  1.3175 -0.7003
 1828TIP3    H2 5430   5.973   2.386   5.591  1.4037 -1.7097 -1.1752
 1829TIP3   OH2 5431   7.442   3.956   3.523  0.3159  0.1828 -0.5459
 1829TIP3    H1 5432   7.403   3.887   3.577 -0.5571  0.3296 -0.9619
 1829TIP3    H2 5433   7.445   4.032   3.580  0.6375 -0.0144 -0.2972
 1830TIP3   OH2 5434   4.651   5.078   0.719 -0.1173 -1.1526 -0.1521
 1830TIP3    H1 5435   4.745   5.094   0.722 -0.0602 -1.1428 -1.3968
 1830TIP3    H2 5436   4.619   5.134   0.648 -0.9809 -1.5149 -0.0678
 1831TIP3   OH2 5437   2.233   5.014   1.481 -0.4992 -0.4460  0.2554
 1831TIP3    H1 5438   2.311   5.037   1.432  0.9673 -0.8318  2.2914
 1831TIP3    H2 5439   2.193   5.098   1.503 -0.3916 -0.2284 -0.3573
 1832TIP3   OH2 5440   1.518   4.720   3.415 -0.0756 -0.2217 -0.5507
 1832TIP3    H1 5441   1.492   4.648   3.472  1.7665 -1.0637 -0.6977
 1832TIP3    H2 5442   1.560   4.678   3.340  0.9462  0.9826 -0.6936
 1833TIP3   OH2 5443   1.079   4.211   4.558  0.3687  0.3814  0.5000
 1833TIP3    H1 5444   1.161   4.169   4.585 -0.3577 -1.2338  0.2940
 1833TIP3    H2 5445   1.043   4.152   4.492 -1.0483  0.9900  0.6964
 1834TIP3   OH2 5446   1.693   3.656   1.209 -0.1528 -0.0264  0.0900
 1834TIP3    H1 5447   1.625   3.697   1.262 -0.3234  1.2137 -1.0469
 1834TIP3    H2 5448   1.647   3.590   1.157 -0.8278  1.8484 -1.8140
 1835TIP3   OH2 5449   4.213   5.439   6.689 -0.3217 -0.0828  0.5370
 1835TIP3    H1 5450   4.228   5.448   6.595  0.2862 -0.2244  0.6144
 1835TIP3    H2 5451   4.241   5.350   6.709  2.9492  1.0105  1.4506
 1836TIP3   OH2 5452   6.757   5.039   4.536 -0.2458 -0.7888 -0.3362
 1836TIP3    H1 5453   6.809   5.054   4.615  0.7171 -1.8660 -0.7302
 1836TIP3    H2 5454   6.808   5.080   4.466 -1.2686  0.4797 -0.3921
 1837TIP3   OH2 5455   0.250   7.058   6.130 -0.5362  0.0933  0.0077
 1837TIP3    H1 5456   0.286   7.143   6.157  0.4565  0.0141 -0.9992
 1837TIP3    H2 5457   0.197   7.079   6.053  1.5000 -0.4518 -1.6195
 1838TIP3   OH2 5458   7.757   0.149   1.682 -0.4064 -0.2354 -0.2788
 1838TIP3    H1 5459   7.790   0.099   1.607  1.2489  0.1468  0.1571
 1838TIP3    H2 5460   7.695   0.211   1.643  0.1180 -0.3131 -1.2847
 1839TIP3   OH2 5461   1.036   0.724   2.344 -0.3410  0.0378 -0.2497
 1839TIP3    H1 5462   1.043   0.747   2.437  0.9260  0.4152 -0.4107
 1839TIP3    H2 5463   0.970   0.656   2.341 -1.8194  1.3674  0.6732
 1840TIP3   OH2 5464   7.540   0.751   2.933  0.0237  0.1148 -0.1913
 1840TIP3    H1 5465   7.570   0.791   3.015  0.7231  0.9367 -0.8282
 1840TIP3    H2 5466   7.445   0.762   2.934 -0.1419 -1.0998  1.1260
 1841TIP3   OH2 5467   2.202   3.618   2.333 -0.6104  0.1748  0.0641
 1841TIP3    H1 5468   2.224   3.525   2.320  2.9258  0.8162  0.4233
 1841TIP3    H2 5469   2.167   3.622   2.421  0.9572 -0.6593  0.7789
 1842TIP3   OH2 5470   4.332   6.303   3.535  0.5507 -0.1213  0.3825
 1842TIP3    H1 5471   4.412   6.320   3.487  1.1440  0.2262  1.4676
 1842TIP3    H2 5472   4.284   6.240   3.480  2.1470 -1.3648  0.3410
 1843TIP3   OH2 5473   0.853   6.083   6.178 -0.6167 -0.2511 -0.0295
 1843TIP3    H1 5474   0.881   6.137   6.104  0.8081 -2.6638 -1.3999
 1843TIP3    H2 5475   0.851   5.994   6.143  0.0883 -1.5040  2.8116
 1844TIP3   OH2 5476   7.603   3.606   2.098  0.3056 -0.4370  0.0194
 1844TIP3    H1 5477   7.635   3.542   2.035 -0.1003 -0.7052  0.0835
 1844TIP3    H2 5478   7.522   3.640   2.058 -1.3135 -2.3746  1.4829
 1845TIP3   OH2 5479   0.801   1.359   2.428  0.0713 -0.5794 -0.0043
 1845TIP3    H1 5480   0.788   1.333   2.337  0.1621 -0.8548  0.0606
 1845TIP3    H2 5481   0.729   1.419   2.447  0.0288 -0.5557 -0.2452
 1846TIP3   OH2 5482   6.859   4.002   4.779 -0.3897  0.1205 -0.1798
 1846TIP3    H1 5483   6.843   3.921   4.828  2.8307 -0.6429 -0.1723
 1846TIP3    H2 5484   6.814   3.988   4.696 -0.4320 -1.4098  0.0540
 1847TIP3   OH2 5485   3.081   4.413   2.484 -0.3224 -0.1041 -0.5050
 1847TIP3    H1 5486   2.994   4.432   2.447 -0.7349 -1.1696 -0.1160
 1847TIP3    H2 5487   3.142   4.456   2.424 -1.0885  0.1056 -1.1531
 1848TIP3   OH2 5488   5.634   2.044   5.399  0.6056 -0.2268  0.3308
 1848TIP3    H1 5489   5.596   2.045   5.487  0.2242 -0.1198  0.1674
 1848TIP3    H2 5490   5.722   2.077   5.410  0.0508  1.2857  0.4414
 1849TIP3   OH2 5491   4.957   0.859   3.086 -0.2987  0.4874  0.4986
 1849TIP3    H1 5492   4.875   0.809   3.092 -0.4164  0.8033  2.1806
 1849TIP3    H2 5493   4.980   0.877   3.177  0.3310  2.5557 -0.0240
 1850TIP3   OH2 5494   6.569   6.400   5.644  0.4978  0.4274  0.4776
 1850TIP3    H1 5495   6.554   6.474   5.703 -1.5015  0.6632 -0.2395
 1850TIP3    H2 5496   6.664   6.393   5.638  0.7346  2.2898  1.3808
 1851TIP3   OH2 5497   0.324   4.198   3.417  1.4228 -0.0479  0.2430
 1851TIP3    H1 5498   0.411   4.239   3.410  0.4510  1.9040 -1.9004
 1851TIP3    H2 5499   0.292   4.197   3.327 -1.3257  0.5257  1.1354
 1852TIP3   OH2 5500   4.149   3.112   0.742 -0.6978 -0.0945  0.0169
 1852TIP3    H1 5501   4.139   3.040   0.804  2.1474 -1.3317 -0.7590
 1852TIP3    H2 5502   4.242   3.136   0.749 -0.6994  0.9281 -2.4605
 1853TIP3   OH2 5503   8.067   5.397   1.319  0.0331 -0.4883 -0.1475
 1853TIP3    H1 5504   8.024   5.338   1.258 -0.4740  1.0532 -1.3356
 1853TIP3    H2 5505   8.003   5.412   1.389 -0.9035  0.7640 -1.2372
 1854TIP3   OH2 5506   7.481   5.374   2.556 -0.3565 -0.2725 -0.0210
 1854TIP3    H1 5507   7.561   5.340   2.518 -0.3515 -0.6479  0.3171
 1854TIP3    H2 5508   7.474   5.330   2.641 -1.9127 -1.6915 -0.8397
 1855TIP3   OH2 5509   5.212   6.781   3.560 -0.3835  0.0910 -0.2920
 1855TIP3    H1 5510   5.271   6.720   3.516  3.0167  2.1118  1.0706
 1855TIP3    H2 5511   5.204   6.855   3.499  0.2674  0.7548  0.4156
 1856TIP3   OH2 5512   1.224   3.652   0.264 -0.7228  0.3663  0.0761
 1856TIP3    H1 5513   1.255   3.563   0.282 -1.3347  0.5643  2.4582
 1856TIP3    H2 5514   1.287   3.709   0.307 -1.8870  0.9446  1.0629
 1857TIP3   OH2 5515   0.703   1.705   2.271 -0.2237  0.1717  0.2144
 1857TIP3    H1 5516   0.656   1.757   2.206  0.3299 -1.1898 -1.3343
 1857TIP3    H2 5517   0.693   1.614   2.242  2.4049 -0.2664  0.4117
 1858TIP3   OH2 5518   2.926   2.577   4.899  0.1048  0.2113  0.5291
 1858TIP3    H1 5519   2.914   2.487   4.929 -0.4355 -0.2141 -0.8644
 1858TIP3    H2 5520   2.998   2.571   4.836  0.3910  0.8496  0.7905
 1859TIP3   OH2 5521   8.088   4.039   0.438 -0.0046  0.1181  0.0492
 1859TIP3    H1 5522   8.113   4.079   0.355  1.2400 -1.6996 -0.5394
 1859TIP3    H2 5523   8.172   4.018   0.480 -0.6156 -0.1335  1.1747
 1860TIP3   OH2 5524   2.813   6.613   4.438  0.4912 -0.2336 -0.1320
 1860TIP3    H1 5525   2.727   6.572   4.426  0.7866 -1.1135  0.6519
 1860TIP3    H2 5526   2.838   6.590   4.527  1.6540 -0.1763 -0.4330
 1861TIP3   OH2 5527   3.557   1.839   5.820 -0.5381  0.0141 -0.4328
 1861TIP3    H1 5528   3.638   1.869   5.779  0.1233  0.2989  1.0368
 1861TIP3    H2 5529   3.531   1.909   5.879  0.5094 -1.7555  2.3422
 1862TIP3   OH2 5530   0.681   2.089   0.613 -0.1250  0.2012 -0.0208
 1862TIP3    H1 5531   0.627   2.123   0.542 -0.7523  0.9312  0.8041
 1862TIP3    H2 5532   0.726   2.165   0.649  0.3804 -0.2011  0.2235
 1863TIP3   OH2 5533   1.895   1.262   6.489  0.7745  0.0126 -0.2054
 1863TIP3    H1 5534   1.811   1.261   6.536 -0.0888 -1.9235 -1.6315
 1863TIP3    H2 5535   1.899   1.349   6.450 -1.1692 -0.2080 -1.0414
 1864TIP3   OH2 5536   7.391   6.341   5.212 -0.0928  0.2409  0.5016
 1864TIP3    H1 5537   7.416   6.357   5.121 -0.4396 -4.6134 -0.7226
 1864TIP3    H2 5538   7.299   6.366   5.217  0.3247  2.0429  0.0991
 1865TIP3   OH2 5539   7.820   4.025   5.995 -0.1524 -0.3377  0.3546
 1865TIP3    H1 5540   7.797   3.965   6.066  1.0590 -3.2480 -1.5285
 1865TIP3    H2 5541   7.899   4.069   6.025 -0.9823  0.2659  1.7295
 1866TIP3   OH2 5542   2.250   6.154   0.660 -0.2626 -0.2261 -0.0602
 1866TIP3    H1 5543   2.269   6.101   0.737  1.0454 -0.0710 -0.2527
 1866TIP3    H2 5544   2.318   6.131   0.597  1.0844  2.4714  0.2468
 1867TIP3   OH2 5545   6.387   0.268   2.498 -0.2598  0.4331  0.1740
 1867TIP3    H1 5546   6.327   0.196   2.515 -1.3221  1.4815  1.0378
 1867TIP3    H2 5547   6.459   0.255   2.560 -1.4114  1.1694  1.7139
 1868TIP3   OH2 5548  -0.003   2.332   2.681 -0.4400 -0.3304 -0.6075
 1868TIP3    H1 5549   0.092   2.317   2.681 -0.1381 -0.2488  4.2341
 1868TIP3    H2 5550  -0.039   2.250   2.715 -1.6554  0.7171  0.7671
 1869TIP3   OH2 5551   3.516   0.929   1.522 -0.3082 -0.2250 -0.4231
 1869TIP3    H1 5552   3.551   0.970   1.443 -0.8210 -0.1981 -0.6441
 1869TIP3    H2 5553   3.463   0.998   1.563  0.8828  0.1403  0.5737
 1870TIP3   OH2 5554   5.819   2.877   1.101 -0.2544  0.1492 -0.0834
 1870TIP3    H1 5555   5.817   2.799   1.045  0.8252  0.5123 -0.6401
 1870TIP3    H2 5556   5.727   2.892   1.123 -0.3966 -2.1960  1.3490
 1871TIP3   OH2 5557   3.364   6.691   1.109 -0.2179  0.5658  0.4578
 1871TIP3    H1 5558   3.355   6.725   1.198  1.7664  2.0448  0.1642
 1871TIP3    H2 5559   3.432   6.623   1.116  1.7329  2.3361 -0.2331
 1872TIP3   OH2 5560   1.622   6.501   3.017 -0.0211  0.2148 -0.6900
 1872TIP3    H1 5561   1.528   6.498   3.002 -0.2620  0.6401  0.5772
 1872TIP3    H2 5562   1.655   6.561   2.950 -0.9734  1.7931  0.1967
 1873TIP3   OH2 5563   7.838   4.027   1.288 -0.1524  0.1548 -0.2265
 1873TIP3    H1 5564   7.790   4.058   1.211  0.9002 -1.9091 -1.8303
 1873TIP3    H2 5565   7.780   3.963   1.329 -0.5686  0.9963  0.5299
 1874TIP3   OH2 5566   0.679   3.208   6.601  0.1546 -0.1281  0.0466
 1874TIP3    H1 5567   0.766   3.217   6.640  0.2191 -1.8290  0.3725
 1874TIP3    H2 5568   0.683   3.260   6.521  0.5270  2.1603  1.4463
 1875TIP3   OH2 5569   7.990   6.257   3.036  0.1662  0.3274  0.6058
 1875TIP3    H1 5570   7.919   6.276   3.097  0.2869  1.3093  0.4622
 1875TIP3    H2 5571   7.975   6.316   2.963 -0.5175 -1.4941 -0.7951
 1876TIP3   OH2 5572   5.817   0.720   6.054 -0.2308  0.2977 -0.5634
 1876TIP3    H1 5573   5.852   0.635   6.028 -1.7933 -1.4374  2.4066
 1876TIP3    H2 5574   5.742   0.735   5.995 -1.6016 -1.8050  0.5050
 1877TIP3   OH2 5575   6.135   2.626   0.513 -0.5372 -0.0158 -0.1057
 1877TIP3    H1 5576   6.082   2.547   0.505 -0.4699 -0.2532  1.4568
 1877TIP3    H2 5577   6.074   2.692   0.548 -0.0016 -0.1092  1.0548
 1878TIP3   OH2 5578   7.056   2.045   3.510 -0.0147 -0.0667 -0.2939
 1878TIP3    H1 5579   7.123   2.098   3.552 -0.3170  0.2663 -0.2303
 1878TIP3    H2 5580   7.092   2.026   3.423 -1.5563  3.6302 -1.9248
 1879TIP3   OH2 5581   6.058   6.582   6.130 -0.5074  0.3228 -0.2982
 1879TIP3    H1 5582   6.064   6.579   6.034 -0.5433 -1.0791 -0.2659
 1879TIP3    H2 5583   6.040   6.492   6.156 -0.3813  0.6708  1.0435
 1880TIP3   OH2 5584   7.828   1.507   3.000  0.0125  0.7605  0.3376
 1880TIP3    H1 5585   7.763   1.438   3.014  1.0903 -0.0088  1.8149
 1880TIP3    H2 5586   7.903   1.461   2.962  0.5251  1.2213  0.7854
 1881TIP3   OH2 5587   6.808   1.393   4.199 -0.3345 -0.4448 -0.4549
 1881TIP3    H1 5588   6.722   1.432   4.212  0.3930  0.8594  0.7469
 1881TIP3    H2 5589   6.847   1.389   4.286  1.6215  1.0288 -1.1719
 1882TIP3   OH2 5590   4.348   2.148   5.574  0.4388 -0.3138  0.6257
 1882TIP3    H1 5591   4.384   2.176   5.490 -2.4248 -1.8315 -1.2427
 1882TIP3    H2 5592   4.297   2.070   5.554 -1.9132  0.3528  3.4269
 1883TIP3   OH2 5593   1.426   6.524   0.283  0.3825 -0.0480 -0.5113
 1883TIP3    H1 5594   1.383   6.595   0.330  1.0135 -0.2890  0.4838
 1883TIP3    H2 5595   1.472   6.566   0.211 -0.2227  0.4007 -0.6394
 1884TIP3   OH2 5596   6.105   1.022   2.707 -0.1983  0.2708  0.5927
 1884TIP3    H1 5597   6.110   0.979   2.622 -0.5549  1.0342  0.1782
 1884TIP3    H2 5598   6.110   0.951   2.771 -0.9991 -0.4008 -0.0838
 1885TIP3   OH2 5599   3.946   0.818   1.064  0.0633 -0.1791 -0.0152
 1885TIP3    H1 5600   3.875   0.757   1.043  0.7058 -0.7556 -0.5575
 1885TIP3    H2 5601   3.921   0.899   1.020  0.0182 -0.5502 -0.6894
 1886TIP3   OH2 5602   5.940   2.710   3.271 -0.6225  0.2303  0.1150
 1886TIP3    H1 5603   5.921   2.726   3.179 -0.4448  3.4392  0.5032
 1886TIP3    H2 5604   5.992   2.630   3.272  1.2276  1.2416 -2.8050
 1887TIP3   OH2 5605   4.710   3.329   2.560 -0.7756 -0.1575 -0.9884
 1887TIP3    H1 5606   4.675   3.339   2.472 -1.2099 -0.8249 -0.9033
 1887TIP3    H2 5607   4.691   3.412   2.603  0.1550  0.4741 -1.7500
 1888TIP3   OH2 5608   6.302   3.708   4.885 -0.0236  0.6007  0.0683
 1888TIP3    H1 5609   6.275   3.623   4.921  1.7610  0.9391  2.4341
 1888TIP3    H2 5610   6.328   3.688   4.795  0.7420 -1.4839  0.6847
 1889TIP3   OH2 5611   1.133   2.565   1.309  0.1461  0.1043 -0.4232
 1889TIP3    H1 5612   1.225   2.540   1.312  0.0542 -0.7239 -2.8146
 1889TIP3    H2 5613   1.133   2.650   1.265 -0.1710  0.6727  0.6371
 1890TIP3   OH2 5614   2.795   1.212   0.192  0.3711 -0.3867 -0.6403
 1890TIP3    H1 5615   2.849   1.214   0.113  0.0719 -0.5246 -0.8512
 1890TIP3    H2 5616   2.778   1.304   0.212  2.1496 -0.2580  0.4483
 1891TIP3   OH2 5617   4.380   5.850   2.408  0.1189 -0.7722  0.6258
 1891TIP3    H1 5618   4.406   5.911   2.338  0.5026 -1.3691  0.2413
 1891TIP3    H2 5619   4.424   5.883   2.486  0.4341 -0.6327  0.3913
 1892TIP3   OH2 5620   5.756   6.612   1.461  0.4376  0.5064  0.1951
 1892TIP3    H1 5621   5.765   6.647   1.550  1.5811 -0.4433  0.4792
 1892TIP3    H2 5622   5.770   6.688   1.404  1.4866  0.8038  0.8134
 1893TIP3   OH2 5623   3.144   2.997   1.037  0.2591 -0.0502 -0.4497
 1893TIP3    H1 5624   3.167   2.949   1.117  2.4081 -1.4811 -1.8498
 1893TIP3    H2 5625   3.182   3.084   1.050 -2.2600  0.8893  1.4092
 1894TIP3   OH2 5626   5.725   4.649   3.283 -0.2221  0.4027 -0.0073
 1894TIP3    H1 5627   5.704   4.556   3.276  2.0116 -0.5093  3.1392
 1894TIP3    H2 5628   5.780   4.666   3.206  0.0178 -1.1178 -0.2108
 1895TIP3   OH2 5629   7.994   4.439   4.333 -0.1620  0.4958 -0.0005
 1895TIP3    H1 5630   8.073   4.478   4.371  0.6446 -0.2519 -0.8484
 1895TIP3    H2 5631   7.989   4.352   4.373  0.2933 -0.0220 -1.0270
 1896TIP3   OH2 5632   5.005   3.392   4.507 -0.4402  0.1180 -0.5706
 1896TIP3    H1 5633   4.949   3.432   4.573 -1.1679 -1.8710  0.0883
 1896TIP3    H2 5634   4.981   3.436   4.425 -3.2259 -0.8357 -0.3632
 1897TIP3   OH2 5635   0.896   5.709   5.499  0.2658  0.0673  0.3288
 1897TIP3    H1 5636   0.931   5.682   5.415 -1.2047  1.8673 -0.9407
 1897TIP3    H2 5637   0.865   5.628   5.540 -1.4755 -0.5814 -2.0778
 1898TIP3   OH2 5638   3.730   4.507   4.228 -0.0694 -1.1233 -0.5867
 1898TIP3    H1 5639   3.792   4.435   4.229  1.6777  0.2401 -2.1177
 1898TIP3    H2 5640   3.679   4.494   4.148 -0.4277 -1.2127 -0.3420
 1899TIP3   OH2 5641   7.909   4.345   5.027  0.1647  0.0011 -0.4676
 1899TIP3    H1 5642   7.962   4.267   5.019 -0.2828 -0.4197  0.5988
 1899TIP3    H2 5643   7.966   4.410   5.067  0.4430  0.1417 -1.0774
 1900TIP3   OH2 5644   8.022   1.513   2.578  0.6441  0.0106  0.2778
 1900TIP3    H1 5645   8.056   1.436   2.624  1.1982 -0.6314 -1.1438
 1900TIP3    H2 5646   8.098   1.547   2.529  0.2462  1.0746  0.3918
 1901TIP3   OH2 5647   1.057   3.894   3.907  0.2125  0.1332 -0.1020
 1901TIP3    H1 5648   0.961   3.900   3.904  0.0749 -0.6861  1.5110
 1901TIP3    H2 5649   1.086   3.984   3.921 -0.2954  0.4381 -0.9562
 1902TIP3   OH2 5650   7.152   2.351   6.633  0.3353  0.0920  0.0915
 1902TIP3    H1 5651   7.130   2.323   6.544 -0.0338  0.8238 -0.0489
 1902TIP3    H2 5652   7.089   2.419   6.654  0.2650 -0.2343  1.0118
 1903TIP3   OH2 5653   6.783   1.020   5.658 -0.2773 -0.3926 -0.1924
 1903TIP3    H1 5654   6.820   1.095   5.611  0.1538 -0.9187 -0.6980
 1903TIP3    H2 5655   6.749   1.058   5.739 -0.8155  0.4879 -0.8048
 1904TIP3   OH2 5656   2.227   6.572   1.136  0.3353  0.1887 -0.6351
 1904TIP3    H1 5657   2.297   6.514   1.166 -2.6381 -2.9074  1.0363
 1904TIP3    H2 5658   2.236   6.574   1.040  3.1755  0.7106 -0.4185
 1905TIP3   OH2 5659   4.556   0.624   6.701  0.3288  0.0615 -0.2529
 1905TIP3    H1 5660   4.636   0.575   6.722  0.4317  0.1055 -0.5322
 1905TIP3    H2 5661   4.575   0.714   6.729  1.2005  0.5558 -2.2231
 1906TIP3   OH2 5662   7.274   0.206   1.292 -0.5237  0.1907 -0.3953
 1906TIP3    H1 5663   7.326   0.231   1.368 -0.5589 -1.5520  0.2433
 1906TIP3    H2 5664   7.328   0.234   1.217  1.9102 -2.3736  0.2209
 1907TIP3   OH2 5665   3.881   4.312   2.643  0.2871  0.4123 -0.4414
 1907TIP3    H1 5666   3.949   4.263   2.597 -0.9500 -0.1641 -1.7494
 1907TIP3    H2 5667   3.888   4.401   2.610 -2.3078 -0.5124 -4.0325
 1908TIP3   OH2 5668   2.198   1.678   5.907 -0.9303  0.3449  0.2035
 1908TIP3    H1 5669   2.199   1.672   5.811 -1.6406 -1.3751  0.2672
 1908TIP3    H2 5670   2.141   1.753   5.925  0.2728  1.5258 -0.7040
 1909TIP3   OH2 5671   7.485   1.412   3.620  0.5240  0.2858 -0.1216
 1909TIP3    H1 5672   7.471   1.472   3.547  0.7237 -0.3795 -0.7296
 1909TIP3    H2 5673   7.568   1.368   3.599 -0.4486 -1.4297 -0.5885
 1910TIP3   OH2 5674   6.808   4.204   6.336  0.2548 -0.3698 -0.0422
 1910TIP3    H1 5675   6.768   4.133   6.386 -0.1795  0.5518  0.9665
 1910TIP3    H2 5676   6.749   4.218   6.261 -0.8877  0.3877  0.9556
 1911TIP3   OH2 5677   2.642   1.577   2.118  0.2940  0.1970 -0.2090
 1911TIP3    H1 5678   2.688   1.537   2.045  1.0085 -1.7682  1.2307
 1911TIP3    H2 5679   2.674   1.667   2.121  1.1355 -0.0408 -1.5566
 1912TIP3   OH2 5680   3.130   1.327   3.064 -0.1217 -0.9686  1.0434
 1912TIP3    H1 5681   3.056   1.361   3.014  0.0345 -3.3236 -0.9550
 1912TIP3    H2 5682   3.153   1.398   3.124 -2.4786  0.7070  0.0985
 1913TIP3   OH2 5683   5.768   2.808   2.442 -0.6214  0.0268  0.7742
 1913TIP3    H1 5684   5.717   2.735   2.479 -1.2415  0.1063  0.0887
 1913TIP3    H2 5685   5.750   2.805   2.348  0.6221  0.0794  0.5135
 1914TIP3   OH2 5686   3.231   0.469   5.994  0.3934 -0.5478  0.0924
 1914TIP3    H1 5687   3.297   0.400   6.002  2.6086  1.4678  0.3153
 1914TIP3    H2 5688   3.224   0.483   5.899  1.5969  0.3439  0.1071
 1915TIP3   OH2 5689   4.831   6.726   2.650  0.1749 -0.1410  0.2179
 1915TIP3    H1 5690   4.833   6.733   2.555 -4.4893 -0.0065 -0.1455
 1915TIP3    H2 5691   4.780   6.803   2.678 -1.5301 -1.9116  2.3705
 1916TIP3   OH2 5692   1.210   0.654   3.274 -0.3564  0.3344  0.6317
 1916TIP3    H1 5693   1.249   0.669   3.360 -0.1182 -1.4783  0.8716
 1916TIP3    H2 5694   1.116   0.667   3.288 -0.3346 -0.1013  1.2056
 1917TIP3   OH2 5695   0.913   2.922   5.468  0.0564 -0.2099 -0.4002
 1917TIP3    H1 5696   0.954   2.836   5.458  0.5354  0.0328 -0.5180
 1917TIP3    H2 5697   0.964   2.980   5.412 -0.3827  0.1152 -0.4644
 1918TIP3   OH2 5698   0.226   6.355   0.413  0.0834 -0.1617  0.2896
 1918TIP3    H1 5699   0.236   6.301   0.492 -0.1261 -0.2029  0.2889
 1918TIP3    H2 5700   0.312   6.395   0.400 -0.4936  1.8263  1.9771
 1919TIP3   OH2 5701   2.878   5.798   5.114  0.2680  0.0283 -0.0225
 1919TIP3    H1 5702   2.846   5.845   5.191  0.1775  0.0331 -0.0635
 1919TIP3    H2 5703   2.966   5.835   5.099  1.3461 -1.7288  1.5711
 1920TIP3   OH2 5704   0.739   5.054   6.339 -0.0171 -0.3072  0.0392
 1920TIP3    H1 5705   0.773   5.051   6.249 -0.4172 -2.3924 -0.0982
 1920TIP3    H2 5706   0.722   5.147   6.355 -0.0022  0.1154 -2.0671
 1921TIP3   OH2 5707   0.970   7.474   0.210  0.4603  0.3341  0.2881
 1921TIP3    H1 5708   0.896   7.504   0.157  0.8831  0.4996 -0.2232
 1921TIP3    H2 5709   1.002   7.396   0.164  0.0275 -0.2822  1.0232
 1922TIP3   OH2 5710   3.903   2.835   1.665  0.1792 -0.0156 -0.2266
 1922TIP3    H1 5711   3.909   2.743   1.638  0.1408  0.1445 -0.7814
 1922TIP3    H2 5712   3.958   2.882   1.603 -0.0829  0.3831 -0.1596
 1923TIP3   OH2 5713   4.424   3.435   4.239 -0.3035  0.4224 -0.1542
 1923TIP3    H1 5714   4.377   3.428   4.322  0.4504  0.3706  0.2689
 1923TIP3    H2 5715   4.489   3.365   4.242  0.5944  1.2416 -0.2195
 1924TIP3   OH2 5716   3.646   6.398   4.807 -0.0160 -0.3702  0.3360
 1924TIP3    H1 5717   3.589   6.349   4.866  0.8755  0.0233  1.5781
 1924TIP3    H2 5718   3.729   6.403   4.854 -0.2588  2.9258  0.5963
 1925TIP3   OH2 5719   6.493   5.723   5.654  0.8173  0.2813  0.6250
 1925TIP3    H1 5720   6.515   5.807   5.694  0.5706  0.6636 -0.0162
 1925TIP3    H2 5721   6.575   5.693   5.614  0.5508  1.0039 -0.5200
 1926TIP3   OH2 5722   0.538   3.432   5.417  0.0315 -0.1096  0.3527
 1926TIP3    H1 5723   0.606   3.372   5.447 -0.7059 -1.5794 -0.8186
 1926TIP3    H2 5724   0.460   3.408   5.467  0.1119  0.9625  1.0290
 1927TIP3   OH2 5725   7.372   7.773   1.169 -0.0539  0.2082  0.0494
 1927TIP3    H1 5726   7.438   7.759   1.237  1.4513 -0.3119 -1.4665
 1927TIP3    H2 5727   7.325   7.852   1.198  0.8459  0.2751  1.4338
 1928TIP3   OH2 5728   5.528   5.765   3.181 -0.3287  0.0046  0.2732
 1928TIP3    H1 5729   5.545   5.766   3.087 -3.7965 -0.4458 -0.5087
 1928TIP3    H2 5730   5.550   5.675   3.208 -2.6542 -1.0396 -0.9862
 1929TIP3   OH2 5731   7.495   6.333   6.314 -0.4406  0.1186  0.7590
 1929TIP3    H1 5732   7.461   6.376   6.235  1.7012  0.4067 -0.0688
 1929TIP3    H2 5733   7.588   6.354   6.315 -0.3290 -0.2215  3.1869
 1930TIP3   OH2 5734   6.485   6.567   5.831 -0.0745  0.0279  0.1828
 1930TIP3    H1 5735   6.563   6.584   5.883 -0.1212  2.9475 -0.5619
 1930TIP3    H2 5736   6.412   6.594   5.886 -0.2909  0.7668 -0.4542
 1931TIP3   OH2 5737   0.120   1.162   2.312 -0.0514 -0.1547  0.2585
 1931TIP3    H1 5738   0.097   1.073   2.339 -1.4274  0.0538 -0.1575
 1931TIP3    H2 5739   0.036   1.204   2.294  0.6653  0.3466 -2.3414
 1932TIP3   OH2 5740   2.520   3.936   2.685 -0.1355  0.0117 -0.1679
 1932TIP3    H1 5741   2.588   3.883   2.726 -0.3025  0.0824  0.2074
 1932TIP3    H2 5742   2.511   3.900   2.597  0.2424 -0.1296 -0.1478
 1933TIP3   OH2 5743   2.691   3.796   5.709 -0.2730 -0.9579  0.1914
 1933TIP3    H1 5744   2.623   3.743   5.751  0.6290 -1.9527  0.4356
 1933TIP3    H2 5745   2.772   3.773   5.754  0.5762 -1.3815 -1.4570
 1934TIP3   OH2 5746   4.068   4.762   0.102 -0.9661 -0.3920 -0.0869
 1934TIP3    H1 5747   3.988   4.764   0.154 -3.0355 -1.1222 -3.0313
 1934TIP3    H2 5748   4.087   4.854   0.083 -2.6862 -0.2921 -1.5257
 1935TIP3   OH2 5749   5.781   3.681   6.135 -0.1365  0.1150 -0.0279
 1935TIP3    H1 5750   5.776   3.600   6.187 -0.5288  0.3744  0.3424
 1935TIP3    H2 5751   5.710   3.672   6.071  0.1111 -0.0363 -0.2854
 1936TIP3   OH2 5752   0.716   3.184   2.280  0.4200  0.3697 -0.3031
 1936TIP3    H1 5753   0.756   3.230   2.354  0.1484 -0.2701  0.2578
 1936TIP3    H2 5754   0.740   3.092   2.294 -0.3253  0.1312 -0.5549
 1937TIP3   OH2 5755   7.916   4.660   2.788 -0.0650 -0.2237 -0.4290
 1937TIP3    H1 5756   7.823   4.666   2.810 -0.4792 -0.9143 -1.8629
 1937TIP3    H2 5757   7.921   4.684   2.695  1.2402  0.1261 -0.2902
 1938TIP3   OH2 5758   6.730   4.455   3.079  0.9116  0.1887 -0.2024
 1938TIP3    H1 5759   6.680   4.386   3.124 -0.6015  0.2513 -1.6680
 1938TIP3    H2 5760   6.808   4.411   3.046 -0.2269 -0.9879 -1.4676
 1939TIP3   OH2 5761   0.130   2.734   0.051  0.4155 -0.5151  0.2533
 1939TIP3    H1 5762   0.187   2.663   0.077 -0.4875 -1.1115  0.6623
 1939TIP3    H2 5763   0.135   2.736  -0.044  1.2501 -0.4342  0.2935
 1940TIP3   OH2 5764   5.743   1.917   5.748 -0.1286 -0.8095  0.4220
 1940TIP3    H1 5765   5.734   1.986   5.813 -0.8296  0.2014 -0.7008
 1940TIP3    H2 5766   5.653   1.888   5.731  0.0264 -0.9674 -0.1651
 1941TIP3   OH2 5767   6.696   7.306   0.187  0.3612  0.1207  0.1335
 1941TIP3    H1 5768   6.631   7.371   0.164 -0.7204 -1.1015 -0.3763
 1941TIP3    H2 5769   6.653   7.222   0.171  1.9767 -0.7256  0.0081
 1942TIP3   OH2 5770   6.839   1.010   1.317 -0.4271 -0.3521  0.2838
 1942TIP3    H1 5771   6.848   1.067   1.241 -0.0183 -0.2538  0.3991
 1942TIP3    H2 5772   6.814   1.070   1.388  0.0812 -0.2991  0.4225
 1943TIP3   OH2 5773   2.172   0.662   6.769 -0.8795  0.4218 -0.1536
 1943TIP3    H1 5774   2.099   0.632   6.715 -0.8344  0.8773 -0.4787
 1943TIP3    H2 5775   2.197   0.586   6.821 -2.3657  0.5799  0.8566
 1944TIP3   OH2 5776   4.094   1.911   2.541 -0.6637  0.1478 -0.1018
 1944TIP3    H1 5777   4.057   1.830   2.506 -0.4497  0.4926 -1.1711
 1944TIP3    H2 5778   4.029   1.978   2.521  0.0413  0.5760 -1.0558
 1945TIP3   OH2 5779   3.171   3.620   3.915 -0.0337  0.6138 -0.5374
 1945TIP3    H1 5780   3.156   3.526   3.921  1.3115  0.3760 -0.6283
 1945TIP3    H2 5781   3.182   3.648   4.006 -1.1036  0.8116 -0.4609
 1946TIP3   OH2 5782   3.716   6.353   2.591  0.3255 -0.1240 -0.3784
 1946TIP3    H1 5783   3.671   6.427   2.632  0.4714  0.5103 -1.3278
 1946TIP3    H2 5784   3.648   6.308   2.542  0.4286 -0.0184 -0.6229
 1947TIP3   OH2 5785   0.032   4.049   6.427 -0.2575 -0.5377  0.3913
 1947TIP3    H1 5786  -0.023   4.037   6.504 -0.5326 -0.3747  0.2225
 1947TIP3    H2 5787   0.004   3.980   6.367  1.0643 -1.6905  1.0548
 1948TIP3   OH2 5788   3.176   2.091   6.596  0.5958  0.6753 -0.5369
 1948TIP3    H1 5789   3.239   2.139   6.650  0.2113 -0.6510  1.1759
 1948TIP3    H2 5790   3.100   2.079   6.653 -0.8111  1.2991 -2.2017
 1949TIP3   OH2 5791   0.235   6.557   3.568 -0.5003 -0.1384 -0.1610
 1949TIP3    H1 5792   0.243   6.637   3.619 -0.3277 -0.0452 -0.3320
 1949TIP3    H2 5793   0.190   6.496   3.626  1.3023 -0.6338  0.7691
 1950TIP3   OH2 5794   7.949   2.798   3.046 -0.2041  0.2177 -1.4491
 1950TIP3    H1 5795   8.034   2.761   3.071 -0.0651 -0.3657 -2.7144
 1950TIP3    H2 5796   7.968   2.855   2.972 -0.8118  0.7116 -1.2349
 1951TIP3   OH2 5797   4.499   5.495   3.678  0.2237 -0.2396 -0.5975
 1951TIP3    H1 5798   4.480   5.404   3.655  1.9761 -0.4183 -1.4614
 1951TIP3    H2 5799   4.416   5.529   3.712  0.0316 -2.7632  1.8094
 1952TIP3   OH2 5800   6.323   2.907   3.181 -0.2187 -0.2336  0.6095
 1952TIP3    H1 5801   6.364   2.911   3.094  1.2632  0.2180  1.2970
 1952TIP3    H2 5802   6.238   2.950   3.169 -0.3873 -0.9213 -0.7948
 1953TIP3   OH2 5803   5.221   5.992   5.927  0.2821  0.1597  0.5636
 1953TIP3    H1 5804   5.226   6.087   5.937  1.1155 -0.0448  2.7763
 1953TIP3    H2 5805   5.312   5.963   5.928  0.0475 -0.6428 -0.4118
 1954TIP3   OH2 5806   4.380   7.145   4.953 -0.0731  0.9541  0.1952
 1954TIP3    H1 5807   4.460   7.092   4.958 -0.8552 -0.5879 -2.1177
 1954TIP3    H2 5808   4.375   7.171   4.861 -0.9920  3.0976  0.8039
 1955TIP3   OH2 5809   4.807   3.227   4.728  0.1151 -0.0445  0.7108
 1955TIP3    H1 5810   4.811   3.150   4.670 -0.3508  0.3808  0.1039
 1955TIP3    H2 5811   4.828   3.192   4.815 -1.6241 -1.1541  0.7187
 1956TIP3   OH2 5812   0.503   3.017   0.050 -0.1590 -0.4615  0.0971
 1956TIP3    H1 5813   0.525   2.930   0.083 -2.0110 -0.9550  0.1610
 1956TIP3    H2 5814   0.586   3.052   0.017  0.3982 -2.8500 -1.3158
 1957TIP3   OH2 5815   5.232   1.390   5.659 -0.2269 -0.0995 -0.0572
 1957TIP3    H1 5816   5.163   1.432   5.609  0.7460  0.2506 -1.1571
 1957TIP3    H2 5817   5.210   1.407   5.750 -0.4127  1.9387 -0.4402
 1958TIP3   OH2 5818   7.865   2.113   3.608 -0.3962  0.1593 -0.1400
 1958TIP3    H1 5819   7.807   2.188   3.593 -0.4953 -0.3110 -2.4197
 1958TIP3    H2 5820   7.929   2.145   3.672 -1.3330  1.6759  0.0998
 1959TIP3   OH2 5821   4.293   3.772   2.656 -0.0208  0.2943 -0.2595
 1959TIP3    H1 5822   4.371   3.762   2.601 -0.9727 -1.8019 -1.3395
 1959TIP3    H2 5823   4.286   3.689   2.703  0.5796  1.9075  2.9230
 1960TIP3   OH2 5824   7.013   4.702   0.263 -0.4196 -0.3952  0.5482
 1960TIP3    H1 5825   7.014   4.703   0.167  2.1590  1.1284  0.5032
 1960TIP3    H2 5826   6.932   4.746   0.287 -1.7054 -1.8661 -0.8704
 1961TIP3   OH2 5827   6.091   2.598   3.735  0.5015  0.1102  0.0304
 1961TIP3    H1 5828   6.138   2.642   3.663  1.8590 -0.6221  0.4278
 1961TIP3    H2 5829   6.127   2.509   3.736  0.2255 -0.0047  1.3787
 1962TIP3   OH2 5830   3.699   1.039   5.652 -0.0441  0.0063  0.6400
 1962TIP3    H1 5831   3.698   0.998   5.565  1.1324  0.1131  0.5578
 1962TIP3    H2 5832   3.791   1.034   5.680  0.1904  2.6010  0.6065
 1963TIP3   OH2 5833   3.266   6.171   5.684  0.1497 -0.3648  0.2181
 1963TIP3    H1 5834   3.191   6.231   5.685 -0.0594 -0.6104 -0.1018
 1963TIP3    H2 5835   3.264   6.133   5.595  0.2759 -0.8401  0.4135
 1964TIP3   OH2 5836   5.491   7.263   1.153  0.5773  0.1222 -0.2400
 1964TIP3    H1 5837   5.529   7.340   1.195  0.1964 -0.4376  1.2150
 1964TIP3    H2 5838   5.561   7.197   1.155 -0.3580 -0.9785  2.6324
 1965TIP3   OH2 5839   1.227   2.928   2.083 -0.0326 -0.2044 -0.3826
 1965TIP3    H1 5840   1.199   2.886   2.165  1.6555 -0.2879  0.2094
 1965TIP3    H2 5841   1.231   2.856   2.020 -0.6622 -0.2712 -0.3474
 1966TIP3   OH2 5842   6.387   2.008   6.461  0.0504 -0.5367  0.1534
 1966TIP3    H1 5843   6.377   2.087   6.513 -0.1921  1.4529 -2.7119
 1966TIP3    H2 5844   6.303   1.999   6.415  0.7384 -1.3894 -0.9819
 1967TIP3   OH2 5845   1.227   0.410   4.504 -0.4557  0.2507 -0.1167
 1967TIP3    H1 5846   1.136   0.425   4.529 -0.1872 -0.0344  1.0870
 1967TIP3    H2 5847   1.264   0.362   4.577  1.3695  2.6722  0.6774
 1968TIP3   OH2 5848   2.792   6.747   3.333  0.0395 -0.3240  0.4128
 1968TIP3    H1 5849   2.837   6.692   3.268 -0.9470 -0.9301  0.2219
 1968TIP3    H2 5850   2.796   6.696   3.414 -1.4111 -0.9761  0.0926
 1969TIP3   OH2 5851   7.201   4.905   2.475  0.0799  0.1745  0.3047
 1969TIP3    H1 5852   7.267   4.971   2.452  1.5580 -0.6358  2.0298
 1969TIP3    H2 5853   7.180   4.924   2.566 -0.5763 -0.8411  0.3679
 1970TIP3   OH2 5854   6.824   0.887   2.383 -0.8632 -0.0084 -0.0022
 1970TIP3    H1 5855   6.812   0.981   2.391 -0.2799  0.0807 -0.0874
 1970TIP3    H2 5856   6.896   0.878   2.319 -1.4351 -0.5260 -0.5876
 1971TIP3   OH2 5857   4.248   1.182   5.373  0.1960  0.1779 -0.6949
 1971TIP3    H1 5858   4.161   1.179   5.333  0.1232  2.9460 -0.9755
 1971TIP3    H2 5859   4.245   1.119   5.444 -1.8413 -0.2018 -1.0677
 1972TIP3   OH2 5860   5.187   2.922   0.548 -0.0184 -0.0016  0.4789
 1972TIP3    H1 5861   5.153   3.012   0.552  0.7106  0.2713  0.6111
 1972TIP3    H2 5862   5.276   2.928   0.583  0.0764 -0.7594  0.3856
 1973TIP3   OH2 5863   6.882   5.693   4.498  0.1804 -0.4396  0.0738
 1973TIP3    H1 5864   6.931   5.700   4.580 -2.6595  0.0264  1.9076
 1973TIP3    H2 5865   6.937   5.734   4.432  1.4494  1.7546  2.3311
 1974TIP3   OH2 5866   3.509   2.185   6.339 -0.2621 -0.0801  0.3416
 1974TIP3    H1 5867   3.557   2.114   6.382 -1.4648 -1.2630 -0.2254
 1974TIP3    H2 5868   3.480   2.241   6.411 -0.7229 -1.0657  0.9380
 1975TIP3   OH2 5869   0.203   3.605   5.198 -0.5504 -0.1699 -0.0930
 1975TIP3    H1 5870   0.205   3.689   5.244 -1.4940  0.4283 -1.0935
 1975TIP3    H2 5871   0.263   3.616   5.124 -0.6523 -0.3915 -0.2109
 1976TIP3   OH2 5872   1.864   3.025   5.631  0.6074 -0.0115  0.0589
 1976TIP3    H1 5873   1.915   3.106   5.623 -1.0084  1.1055  0.5650
 1976TIP3    H2 5874   1.776   3.049   5.602  0.0688 -1.5742  0.3103
 1977TIP3   OH2 5875   2.564   3.455   4.662 -0.1788  0.3787 -0.2100
 1977TIP3    H1 5876   2.639   3.399   4.681 -0.4812 -0.8524 -2.3013
 1977TIP3    H2 5877   2.603   3.539   4.636  0.3167  0.7999  1.7493
 1978TIP3   OH2 5878   0.031   4.010   2.909 -0.2573 -0.3084  0.0277
 1978TIP3    H1 5879   0.056   4.066   2.835 -1.0984 -0.9616 -0.7628
 1978TIP3    H2 5880  -0.062   3.994   2.898 -0.4729 -0.1800  1.4084
 1979TIP3   OH2 5881   3.447   4.884   0.656 -0.1638  0.2059  0.3851
 1979TIP3    H1 5882   3.466   4.925   0.740 -0.0664 -0.9736  0.9592
 1979TIP3    H2 5883   3.417   4.796   0.678  1.4547 -0.7281 -0.8638
 1980TIP3   OH2 5884   2.229   4.645   4.034 -0.4518 -0.2949 -0.5738
 1980TIP3    H1 5885   2.177   4.698   4.095  0.1609  2.5642 -2.3408
 1980TIP3    H2 5886   2.193   4.664   3.948  2.6930  1.0070 -1.7684
 1981TIP3   OH2 5887   0.450   7.817   5.733  0.6691 -0.2053 -0.1401
 1981TIP3    H1 5888   0.376   7.817   5.672  0.2479 -1.3721  0.3296
 1981TIP3    H2 5889   0.460   7.725   5.758  1.1978  0.1701  1.1081
 1982TIP3   OH2 5890   6.060   7.536   1.284  0.1039 -0.1836  0.0168
 1982TIP3    H1 5891   6.107   7.568   1.208 -0.0881 -2.2910 -1.0556
 1982TIP3    H2 5892   6.014   7.457   1.254  0.3070 -1.3173  2.3714
 1983TIP3   OH2 5893   0.398   3.770   0.607 -0.0980  0.8854 -0.4085
 1983TIP3    H1 5894   0.472   3.747   0.664  0.7883  2.5936 -0.8015
 1983TIP3    H2 5895   0.360   3.848   0.647 -1.5059  0.2339 -0.4132
 1984TIP3   OH2 5896   4.249   1.611   4.002 -0.4123  0.3470  0.2625
 1984TIP3    H1 5897   4.306   1.581   3.932 -0.9469 -1.0474  0.3880
 1984TIP3    H2 5898   4.265   1.705   4.008  0.4136  0.3045 -1.0039
 1985TIP3   OH2 5899   3.358   6.937   2.330 -0.4859  0.6735  0.1123
 1985TIP3    H1 5900   3.329   6.873   2.265 -1.2279  2.1439 -1.0662
 1985TIP3    H2 5901   3.337   7.022   2.291 -2.3669  1.6165  2.8930
 1986TIP3   OH2 5902   7.460   7.597   4.826 -0.1070  0.7628  0.3337
 1986TIP3    H1 5903   7.464   7.563   4.736 -0.8571  0.1166  0.5256
 1986TIP3    H2 5904   7.387   7.548   4.866 -0.4925  1.8256  0.9630
 1987TIP3   OH2 5905   4.974   0.886   3.359  0.1447 -0.3682 -0.0649
 1987TIP3    H1 5906   5.023   0.935   3.424 -1.9244  1.3947  0.2844
 1987TIP3    H2 5907   4.908   0.838   3.409 -0.8625  0.2626 -0.7378
 1988TIP3   OH2 5908   3.320   5.621   4.937  0.2084 -0.3312 -0.0442
 1988TIP3    H1 5909   3.383   5.551   4.916  0.8848  0.1668  0.3044
 1988TIP3    H2 5910   3.262   5.582   5.003 -0.8038 -1.2975 -1.4429
 1989TIP3   OH2 5911   7.777   0.673   4.027  0.3040  0.1878  0.4020
 1989TIP3    H1 5912   7.728   0.737   4.078 -1.9937 -0.9533 -0.2143
 1989TIP3    H2 5913   7.826   0.623   4.091  0.0818  0.9013  1.1428
 1990TIP3   OH2 5914   4.016   2.731   6.223  0.1233 -0.3401  0.1373
 1990TIP3    H1 5915   4.037   2.675   6.298  0.3953 -0.9677 -0.4012
 1990TIP3    H2 5916   3.926   2.706   6.199 -0.3432  0.5581  0.8539
 1991TIP3   OH2 5917   2.541   5.458   6.525  0.4204  0.2206 -0.2949
 1991TIP3    H1 5918   2.568   5.545   6.555 -1.8256  0.7941  0.3017
 1991TIP3    H2 5919   2.511   5.472   6.435 -0.0665  0.1096 -0.1544
 1992TIP3   OH2 5920   6.795   0.979   3.094 -0.5326 -0.4340  0.1494
 1992TIP3    H1 5921   6.888   0.984   3.118 -1.0702  0.2638  2.3589
 1992TIP3    H2 5922   6.783   1.052   3.033  0.1941  0.0639  0.5731
 1993TIP3   OH2 5923   0.046   4.490   1.547  0.8276 -0.0330 -0.1686
 1993TIP3    H1 5924   0.088   4.494   1.633 -1.0097  0.4126  0.7551
 1993TIP3    H2 5925  -0.047   4.479   1.566  0.4595 -0.6692 -2.1258
 1994TIP3   OH2 5926   7.813   1.836   5.790  0.5102  0.4101  0.1131
 1994TIP3    H1 5927   7.778   1.826   5.879  1.7727 -2.7064  0.3644
 1994TIP3    H2 5928   7.877   1.907   5.797 -1.1219  1.8698  1.0567
 1995TIP3   OH2 5929   5.577   4.956   1.030 -0.2391 -0.0703 -0.2217
 1995TIP3    H1 5930   5.539   4.906   0.958  0.0662 -2.4041  1.1311
 1995TIP3    H2 5931   5.672   4.943   1.021 -0.2046 -0.4711  0.6301
 1996TIP3   OH2 5932   5.135   5.446   1.881 -0.2334 -0.4190  0.2364
 1996TIP3    H1 5933   5.087   5.407   1.808  1.2584 -0.0382 -1.0132
 1996TIP3    H2 5934   5.197   5.378   1.907  1.6362  0.6305 -1.2318
 1997TIP3   OH2 5935   5.359   7.432   6.043 -0.0001 -0.0813  0.3146
 1997TIP3    H1 5936   5.348   7.371   6.117  2.1136 -1.4181 -0.3764
 1997TIP3    H2 5937   5.349   7.377   5.965 -0.5874  0.9872 -0.3844
 1998TIP3   OH2 5938   5.355   6.228   6.064 -0.5084 -0.6230  0.3569
 1998TIP3    H1 5939   5.446   6.258   6.056 -1.0031  0.8205 -0.2240
 1998TIP3    H2 5940   5.361   6.145   6.110  1.2030 -1.1060 -0.6547
 1999TIP3   OH2 5941   5.755   4.798   2.499 -0.1618 -0.5624 -0.2170
 1999TIP3    H1 5942   5.843   4.822   2.528 -0.3275  0.2595 -0.3595
 1999TIP3    H2 5943   5.750   4.704   2.513  0.2783 -0.4197  1.0383
 2000TIP3   OH2 5944   7.370   7.239   2.567 -0.2659 -0.1136  0.1849
 2000TIP3    H1 5945   7.342   7.330   2.557 -1.4500 -0.2805  1.6134
 2000TIP3    H2 5946   7.307   7.189   2.514  1.1396 -0.0673 -1.6484
 2001TIP3   OH2 5947   6.814   0.684   4.522 -0.0162  0.1704 -0.3945
 2001TIP3    H1 5948   6.753   0.753   4.548 -0.2668 -0.2138  0.0498
 2001TIP3    H2 5949   6.847   0.712   4.437 -0.4592  0.6132 -0.4244
 2002TIP3   OH2 5950   1.980   3.447   0.724 -0.9239  0.6155 -0.1472
 2002TIP3    H1 5951   2.044   3.486   0.665 -0.1476 -0.3537  0.0345
 2002TIP3    H2 5952   1.937   3.522   0.765 -1.4721  1.3168 -1.9092
 2003TIP3   OH2 5953   4.733   6.625   4.611 -0.6043 -0.0754  0.9327
 2003TIP3    H1 5954   4.638   6.612   4.614 -0.4961 -0.9185  1.0669
 2003TIP3    H2 5955   4.769   6.547   4.655  0.1580  0.0328  0.5142
 2004TIP3   OH2 5956   7.116   4.868   1.468  0.1046  0.1765  0.5493
 2004TIP3    H1 5957   7.077   4.781   1.480  0.6209 -0.1656 -0.1755
 2004TIP3    H2 5958   7.042   4.923   1.440  0.3923 -0.9662 -3.0586
 2005TIP3   OH2 5959   6.761   6.693   4.755 -0.3573 -0.3789  0.0460
 2005TIP3    H1 5960   6.774   6.668   4.847  1.8442  0.4535  0.0081
 2005TIP3    H2 5961   6.835   6.654   4.709 -0.6512  0.4308 -1.1516
 2006TIP3   OH2 5962   3.236   2.391   0.904 -0.5802  0.3740  0.4917
 2006TIP3    H1 5963   3.173   2.456   0.871 -0.8475 -0.3599 -0.4957
 2006TIP3    H2 5964   3.185   2.310   0.911  0.1782 -0.1714 -0.0852
 2007TIP3   OH2 5965   7.697   4.261   5.722 -0.3965  0.4737 -0.3148
 2007TIP3    H1 5966   7.710   4.168   5.742  0.3128  0.3242 -1.3768
 2007TIP3    H2 5967   7.764   4.306   5.773  0.4057  0.2346 -1.1380
 2008TIP3   OH2 5968   4.562   0.218   0.347  0.0551 -0.8622 -0.3165
 2008TIP3    H1 5969   4.504   0.221   0.271 -0.8603 -0.0898  0.3801
 2008TIP3    H2 5970   4.634   0.161   0.320 -0.6013 -1.1728 -1.5041
 2009TIP3   OH2 5971   6.689   5.342   6.492  0.3217 -0.0030  0.0376
 2009TIP3    H1 5972   6.623   5.274   6.510  0.6960 -0.3362  0.1669
 2009TIP3    H2 5973   6.646   5.402   6.431 -0.3110  0.1158  0.5962
 2010TIP3   OH2 5974   5.574   0.308   6.727  0.3431 -0.4211  0.0686
 2010TIP3    H1 5975   5.657   0.284   6.767  0.7228  0.0414 -0.4219
 2010TIP3    H2 5976   5.591   0.393   6.686 -0.7630  0.3769  1.1930
 2011TIP3   OH2 5977   2.068   4.988   5.411 -0.8033  0.5059 -0.1150
 2011TIP3    H1 5978   2.090   4.993   5.318  2.4096 -0.2710  0.4810
 2011TIP3    H2 5979   2.056   4.894   5.427  0.3461  0.4427  0.5190
 2012TIP3   OH2 5980   5.867   2.556   5.041 -0.1726 -0.1255  0.0612
 2012TIP3    H1 5981   5.897   2.546   5.131 -2.1744 -1.3655  0.6380
 2012TIP3    H2 5982   5.827   2.643   5.038  1.2949  0.5767 -0.1050
 2013TIP3   OH2 5983   2.591   1.006   0.103 -0.5395 -0.5467 -0.2593
 2013TIP3    H1 5984   2.579   0.994   0.009 -0.5684  0.2872 -0.3681
 2013TIP3    H2 5985   2.590   1.101   0.115  1.8875 -0.5292  0.2572
 2014TIP3   OH2 5986   4.211   2.544   4.140 -0.2589  0.2360  0.1550
 2014TIP3    H1 5987   4.272   2.618   4.135 -0.8374  0.6965 -0.3149
 2014TIP3    H2 5988   4.126   2.584   4.159 -0.4254 -0.3922  0.7579
 2015TIP3   OH2 5989   2.624   7.424   4.360  0.7083  0.7681  0.1164
 2015TIP3    H1 5990   2.599   7.377   4.280  2.6232  0.0792 -0.1365
 2015TIP3    H2 5991   2.563   7.497   4.365 -1.3793 -0.8494 -0.3370
 2016TIP3   OH2 5992   1.230   6.562   1.300 -0.2274 -0.3289  0.0925
 2016TIP3    H1 5993   1.299   6.498   1.321 -0.8531 -1.9662 -2.3461
 2016TIP3    H2 5994   1.153   6.529   1.346 -0.4685 -1.2434 -0.9036
 2017TIP3   OH2 5995   5.816   7.335   2.947 -0.1847 -0.3575 -0.6810
 2017TIP3    H1 5996   5.893   7.391   2.947  0.0033 -0.4625  1.9160
 2017TIP3    H2 5997   5.850   7.247   2.928  1.2539 -1.1895  4.2350
 2018TIP3   OH2 5998   6.335   7.070   1.350 -0.1438 -0.1002 -0.0369
 2018TIP3    H1 5999   6.346   6.998   1.412 -2.1487 -0.3807  0.0444
 2018TIP3    H2 6000   6.409   7.128   1.368 -0.6610 -0.1385  2.6911
 2019TIP3   OH2 6001   3.409   6.395   2.889  0.2615 -0.2485  0.1416
 2019TIP3    H1 6002   3.323   6.434   2.904 -1.2305 -3.7351  1.5665
 2019TIP3    H2 6003   3.403   6.359   2.800 -0.2650 -1.5808  0.6986
 2020TIP3   OH2 6004   8.039   7.210   3.121  0.1501 -0.3193 -0.1530
 2020TIP3    H1 6005   7.959   7.195   3.072  0.7198 -1.3756 -0.8132
 2020TIP3    H2 6006   8.098   7.141   3.091  1.4866  0.7491 -0.0667
 2021TIP3   OH2 6007   5.113   2.391   4.791  0.0020  0.1989  0.1191
 2021TIP3    H1 6008   5.077   2.318   4.741  0.8231  0.6520 -1.2093
 2021TIP3    H2 6009   5.143   2.353   4.873  1.1011 -1.1259 -0.8472
 2022TIP3   OH2 6010   7.441   4.697   3.180  0.9174 -0.0081 -0.2570
 2022TIP3    H1 6011   7.474   4.607   3.179  1.5391  0.2162 -0.0599
 2022TIP3    H2 6012   7.374   4.698   3.112  0.2990 -0.8430  0.3298
 2023TIP3   OH2 6013   2.103   0.335   0.989  0.1628 -0.6428 -0.7146
 2023TIP3    H1 6014   2.122   0.359   1.080  2.1459 -0.7341 -1.0434
 2023TIP3    H2 6015   2.012   0.358   0.976  0.6745  2.4420  0.3635
 2024TIP3   OH2 6016   3.926   1.366   3.153 -0.0439 -0.3329  0.3285
 2024TIP3    H1 6017   3.856   1.370   3.087 -1.2630 -1.2192  1.5039
 2024TIP3    H2 6018   3.981   1.442   3.134 -0.3881 -0.5260 -1.6480
 2025TIP3   OH2 6019   8.014   3.057   1.563 -0.5252 -0.0928  0.0395
 2025TIP3    H1 6020   8.061   3.122   1.510 -0.9908  0.1493 -0.0860
 2025TIP3    H2 6021   8.030   2.974   1.519 -1.8491  0.2522 -1.1803
 2026TIP3   OH2 6022   3.468   3.131   4.937 -0.3623 -0.3147 -0.0249
 2026TIP3    H1 6023   3.415   3.081   4.999 -1.1414 -0.4260 -0.7681
 2026TIP3    H2 6024   3.408   3.198   4.904  0.9693  1.9979  1.9001
 2027TIP3   OH2 6025   8.095   0.400   4.401 -0.0928 -0.6803  0.2189
 2027TIP3    H1 6026   8.076   0.461   4.472 -0.7955  0.8430 -1.2165
 2027TIP3    H2 6027   8.032   0.329   4.413 -0.1173 -0.5028  1.1850
 2028TIP3   OH2 6028   0.584  -0.014   0.769 -0.3802  0.1587  0.4054
 2028TIP3    H1 6029   0.508  -0.020   0.711  0.5818  1.4768 -1.0892
 2028TIP3    H2 6030   0.585   0.077   0.799 -0.3776 -0.2901  1.8765
 2029TIP3   OH2 6031   6.328   2.795   6.644 -0.1538 -0.6477 -0.3036
 2029TIP3    H1 6032   6.376   2.811   6.726 -2.4511 -1.2756  1.2804
 2029TIP3    H2 6033   6.395   2.800   6.576  1.5700  1.7878  1.3730
 2030TIP3   OH2 6034   6.063   2.857   2.150  0.5397 -0.7213 -0.2925
 2030TIP3    H1 6035   6.040   2.886   2.238 -1.3710  0.5161 -1.1145
 2030TIP3    H2 6036   6.154   2.830   2.156  1.1513  1.4241  1.5984
 2031TIP3   OH2 6037   2.950   6.373   4.585 -0.0147  0.0893 -0.2224
 2031TIP3    H1 6038   2.919   6.283   4.598  1.2560 -0.2432  0.7751
 2031TIP3    H2 6039   2.975   6.376   4.493  0.5461 -0.8043 -0.1163
 2032TIP3   OH2 6040   3.856   7.562   5.331  0.1577 -0.4530 -0.7489
 2032TIP3    H1 6041   3.858   7.657   5.343 -0.1422 -0.3660 -1.3450
 2032TIP3    H2 6042   3.765   7.538   5.349  0.6513 -0.9414  1.5144
 2033TIP3   OH2 6043   3.416   2.877   5.520 -0.2180 -0.5150 -0.5786
 2033TIP3    H1 6044   3.445   2.943   5.458  0.7929  0.3722  0.7898
 2033TIP3    H2 6045   3.323   2.864   5.500 -0.4272  1.2823 -0.8963
 2034TIP3   OH2 6046   8.222   6.129   3.128 -0.2479  0.5615 -0.4878
 2034TIP3    H1 6047   8.209   6.095   3.217  2.9165  2.6448  0.9569
 2034TIP3    H2 6048   8.134   6.151   3.098 -1.6759 -2.3560  1.1218
 2035TIP3   OH2 6049   6.697   4.152   2.998  0.1015  0.3462  0.1657
 2035TIP3    H1 6050   6.721   4.098   2.923  0.7233  0.6539  0.1376
 2035TIP3    H2 6051   6.778   4.164   3.046 -0.3865 -0.2819  1.1779
 2036TIP3   OH2 6052   0.093   7.338   0.130 -0.5928  0.1208 -0.2733
 2036TIP3    H1 6053  -0.001   7.346   0.146 -0.5265  0.7362 -0.1796
 2036TIP3    H2 6054   0.105   7.371   0.041 -0.4759 -0.0577 -0.3258
 2037TIP3   OH2 6055   5.888   0.245   0.742 -0.3502 -0.5198 -0.8864
 2037TIP3    H1 6056   5.804   0.282   0.719 -1.3940 -2.2488 -0.0857
 2037TIP3    H2 6057   5.867   0.164   0.789  1.7244 -0.2419  0.7074
 2038TIP3   OH2 6058   1.846   4.269   0.469 -0.2352  0.3434 -0.1392
 2038TIP3    H1 6059   1.932   4.264   0.511 -0.4093  0.5120  0.2397
 2038TIP3    H2 6060   1.810   4.352   0.500 -0.3496  0.4847 -0.6537
 2039TIP3   OH2 6061   5.494   1.097   3.782  0.0522  0.3412 -0.4426
 2039TIP3    H1 6062   5.539   1.168   3.829 -1.5368  0.8251  0.4067
 2039TIP3    H2 6063   5.518   1.111   3.691  1.1499  0.9237 -0.0875
 2040TIP3   OH2 6064   4.780   4.569   5.436 -0.9599  0.3786 -0.8607
 2040TIP3    H1 6065   4.756   4.493   5.490 -1.0871  0.8970 -0.1830
 2040TIP3    H2 6066   4.798   4.639   5.499 -0.0274  0.6826 -1.4520
 2041TIP3   OH2 6067   7.659   3.284   1.164 -0.7506  0.2518 -0.4596
 2041TIP3    H1 6068   7.609   3.253   1.240  1.0059 -0.0339  0.6402
 2041TIP3    H2 6069   7.750   3.270   1.189 -0.1084  0.8599 -2.3503
 2042TIP3   OH2 6070   4.250   2.656   0.978 -0.4767  0.4254  0.6023
 2042TIP3    H1 6071   4.280   2.585   1.035  0.4853  1.0913  0.9501
 2042TIP3    H2 6072   4.209   2.611   0.904  0.6499 -0.5131  0.5131
 2043TIP3   OH2 6073   3.742   2.359   6.543 -0.2191  0.6173  0.1331
 2043TIP3    H1 6074   3.713   2.293   6.606 -2.1556 -0.5117 -1.8154
 2043TIP3    H2 6075   3.836   2.344   6.534 -0.3822 -0.9706  0.7694
 2044TIP3   OH2 6076   5.552   2.685   3.489  0.0861  0.0546 -0.0043
 2044TIP3    H1 6077   5.503   2.700   3.570 -2.2273 -1.7798 -0.9168
 2044TIP3    H2 6078   5.639   2.721   3.506 -0.6834  0.8651  2.8132
 2045TIP3   OH2 6079   8.071   1.839   0.116  0.3681 -0.0566  0.3205
 2045TIP3    H1 6080   7.983   1.876   0.111 -0.4215 -1.4077  2.8044
 2045TIP3    H2 6081   8.093   1.818   0.025 -0.5091  3.1496 -0.7728
 2046TIP3   OH2 6082   3.066   7.650   1.118  0.0024 -0.3539 -0.2916
 2046TIP3    H1 6083   3.052   7.733   1.164  2.2091  0.9842 -1.8372
 2046TIP3    H2 6084   3.145   7.614   1.159  0.3409 -0.5535 -1.1032
 2047TIP3   OH2 6085   7.528   4.487   4.840 -0.0342  0.2918 -0.2096
 2047TIP3    H1 6086   7.536   4.466   4.933 -1.4434 -1.7613 -0.4618
 2047TIP3    H2 6087   7.612   4.526   4.816  1.4828 -1.8305  1.3028
 2048TIP3   OH2 6088   3.735   0.050   6.458  0.1240 -0.0942 -0.3157
 2048TIP3    H1 6089   3.763   0.142   6.460 -2.8789  0.9219  1.7008
 2048TIP3    H2 6090   3.798   0.004   6.514  0.6769  1.0805  0.0509
 2049TIP3   OH2 6091   1.097   0.167   0.447  0.2605  0.3597 -0.1404
 2049TIP3    H1 6092   1.140   0.184   0.364 -1.8059 -0.1423 -1.3740
 2049TIP3    H2 6093   1.012   0.131   0.424  0.1749 -1.1885  2.2139
 2050TIP3   OH2 6094   3.007   5.992   6.163  0.2683  0.1543  0.0141
 2050TIP3    H1 6095   2.984   5.929   6.094 -0.1663  1.4584 -1.0596
 2050TIP3    H2 6096   2.998   6.077   6.122 -1.2701  1.0508  2.0781
 2051TIP3   OH2 6097   3.297   7.496   5.346 -0.0086  0.4270  0.1918
 2051TIP3    H1 6098   3.303   7.410   5.304  0.7446  0.5915 -0.0497
 2051TIP3    H2 6099   3.224   7.487   5.408 -1.2938  0.2539 -1.2821
 2052TIP3   OH2 6100   7.462   5.228   6.539 -0.6560  0.5032  0.2317
 2052TIP3    H1 6101   7.485   5.137   6.518  1.2698  0.9936  0.0377
 2052TIP3    H2 6102   7.402   5.220   6.614 -0.4328 -0.9226  0.2983
 2053TIP3   OH2 6103   0.862   6.069   5.754  0.0210 -0.2415 -0.4747
 2053TIP3    H1 6104   0.849   6.079   5.660  0.0385 -0.8332 -0.5433
 2053TIP3    H2 6105   0.807   5.994   5.778  0.5260 -0.5128 -0.1348
 2054TIP3   OH2 6106   5.816   0.813   4.859  0.1907  0.1602 -0.5189
 2054TIP3    H1 6107   5.725   0.788   4.844  0.6241 -0.8480 -1.6157
 2054TIP3    H2 6108   5.855   0.738   4.905  0.3013  0.9043  0.6511
 2055TIP3   OH2 6109   4.525   3.331   1.174  0.4109 -0.4180 -0.3006
 2055TIP3    H1 6110   4.608   3.350   1.130  0.5193  2.0527  0.8080
 2055TIP3    H2 6111   4.550   3.284   1.254  0.4994 -1.7013 -1.0490
 2056TIP3   OH2 6112   6.813   7.399   3.794  0.4144 -0.0532 -0.0018
 2056TIP3    H1 6113   6.826   7.356   3.709  1.7343 -0.0830  0.1848
 2056TIP3    H2 6114   6.730   7.365   3.826  0.4094 -0.8513 -0.8146
 2057TIP3   OH2 6115   2.690   6.379   3.245 -0.4541 -0.2630 -0.4175
 2057TIP3    H1 6116   2.647   6.458   3.214 -2.0815 -1.4051 -1.1706
 2057TIP3    H2 6117   2.781   6.405   3.257 -0.8614  1.6077 -1.0342
 2058TIP3   OH2 6118   7.172   5.133   3.386  0.8124 -0.3069  0.7930
 2058TIP3    H1 6119   7.207   5.213   3.348 -0.0043  0.6632  1.9925
 2058TIP3    H2 6120   7.203   5.063   3.328 -1.0707  1.0979 -2.1958
 2059TIP3   OH2 6121   1.525   6.047   5.498  0.0151 -0.0917  0.0131
 2059TIP3    H1 6122   1.442   6.040   5.451 -0.4063  0.9920  0.5560
 2059TIP3    H2 6123   1.590   6.065   5.429 -0.6662  1.9492 -0.1609
 2060TIP3   OH2 6124   5.167   6.949   3.769 -0.0832  0.7741 -0.5786
 2060TIP3    H1 6125   5.147   6.895   3.692 -3.9225  0.1087  0.6570
 2060TIP3    H2 6126   5.138   6.896   3.843  0.9607  2.4814  1.1355
 2061TIP3   OH2 6127   7.900   0.409   5.607  0.5705 -0.0152 -0.2815
 2061TIP3    H1 6128   7.976   0.352   5.599  0.5121 -0.1413  0.0728
 2061TIP3    H2 6129   7.828   0.358   5.570  0.5718 -0.0646 -0.2153
 2062TIP3   OH2 6130   0.421   2.510   3.090  0.1489 -0.1145  0.9592
 2062TIP3    H1 6131   0.436   2.603   3.073  1.1226 -0.2398  1.0540
 2062TIP3    H2 6132   0.492   2.466   3.043 -2.6846 -1.1816 -2.7676
 2063TIP3   OH2 6133   1.789   2.674   3.618  0.2373  0.2737 -0.0691
 2063TIP3    H1 6134   1.859   2.696   3.680 -0.6261  1.5023  0.5182
 2063TIP3    H2 6135   1.748   2.596   3.655  0.3361  0.4441  0.4081
 2064TIP3   OH2 6136   1.055   3.376   0.149 -0.4300  0.2273  0.5834
 2064TIP3    H1 6137   0.969   3.334   0.146 -0.3894  0.1852 -0.1461
 2064TIP3    H2 6138   1.065   3.418   0.063  0.7024 -0.6239  0.2686
 2065TIP3   OH2 6139   1.813   1.186   1.211 -0.0944  0.4301  0.4667
 2065TIP3    H1 6140   1.855   1.218   1.132  0.3081 -1.1316  0.0102
 2065TIP3    H2 6141   1.847   1.242   1.281  1.3020  0.4227 -0.1628
 2066TIP3   OH2 6142   5.599   7.732   0.334  0.2883 -0.4917 -0.1454
 2066TIP3    H1 6143   5.634   7.643   0.335 -0.1078 -0.7198  2.4568
 2066TIP3    H2 6144   5.506   7.721   0.356  0.4789  0.5706  1.3744
 2067TIP3   OH2 6145   5.967   4.277   6.433  0.0660 -0.2461 -0.4843
 2067TIP3    H1 6146   5.954   4.302   6.341 -1.9777  0.9661  0.0582
 2067TIP3    H2 6147   5.994   4.359   6.476  0.5241 -0.6947  0.0969
 2068TIP3   OH2 6148   3.139   5.232   0.282 -0.5113 -0.2765 -0.4101
 2068TIP3    H1 6149   3.059   5.280   0.262 -0.5061 -0.3846 -0.6860
 2068TIP3    H2 6150   3.164   5.190   0.200  1.6453  2.3852 -1.2506
 2069TIP3   OH2 6151   3.930   6.716   0.244  0.1703 -0.1120  0.1720
 2069TIP3    H1 6152   4.022   6.697   0.265 -0.1823  0.3703  2.4756
 2069TIP3    H2 6153   3.920   6.691   0.152  1.8373 -3.0296  0.6559
 2070TIP3   OH2 6154   3.187   0.827   5.743 -0.2316  0.3920  0.2798
 2070TIP3    H1 6155   3.242   0.905   5.751  0.7428 -0.2999  0.4656
 2070TIP3    H2 6156   3.106   0.859   5.703  1.2528  1.0528 -2.4381
 2071TIP3   OH2 6157   8.174   4.516   4.105  0.1795  0.1598  0.4328
 2071TIP3    H1 6158   8.191   4.422   4.101  0.5256  0.2317  0.1605
 2071TIP3    H2 6159   8.131   4.530   4.190 -0.8251 -0.3927  0.0357
 2072TIP3   OH2 6160   3.480   1.702   0.287  0.0853 -0.1061  0.6255
 2072TIP3    H1 6161   3.491   1.632   0.351 -0.6675  0.0455  0.9215
 2072TIP3    H2 6162   3.431   1.662   0.215 -0.1130  0.0465  0.6764
 2073TIP3   OH2 6163   5.455   5.530   2.958  0.0878  0.2061 -0.4533
 2073TIP3    H1 6164   5.384   5.498   3.014  0.1973  0.6587 -0.0512
 2073TIP3    H2 6165   5.412   5.587   2.895  0.1478  0.9003  0.1153
 2074TIP3   OH2 6166   4.301   5.092   2.024  0.2347  0.0353 -0.6174
 2074TIP3    H1 6167   4.396   5.083   2.021  0.2067 -1.3740  1.0882
 2074TIP3    H2 6168   4.280   5.148   1.949  2.2253 -1.0327 -2.0812
 2075TIP3   OH2 6169   4.336   2.943   1.887  0.0681 -0.5910 -0.1100
 2075TIP3    H1 6170   4.284   2.959   1.808  0.1882  1.1567  0.1245
 2075TIP3    H2 6171   4.385   2.863   1.867  3.2310  1.8281 -3.5555
 2076TIP3   OH2 6172   1.282   5.243   1.252  0.1836  0.4010 -0.0661
 2076TIP3    H1 6173   1.253   5.256   1.342 -0.5510  1.2655 -0.4178
 2076TIP3    H2 6174   1.339   5.317   1.234  1.1139 -0.2844 -0.0061
 2077TIP3   OH2 6175   6.639   0.705   5.049  0.0252  0.4575 -0.0603
 2077TIP3    H1 6176   6.578   0.633   5.062 -0.2904  0.8138  0.4530
 2077TIP3    H2 6177   6.725   0.663   5.041 -0.0464  0.0638  1.0232
 2078TIP3   OH2 6178   2.378   7.724   5.891 -0.3127 -0.8364  0.2176
 2078TIP3    H1 6179   2.418   7.795   5.942 -0.5992 -1.3801  1.2082
 2078TIP3    H2 6180   2.452   7.671   5.862  0.0300  0.5042 -1.5835
 2079TIP3   OH2 6181   7.384   4.418   1.934  0.1411  0.3081 -0.1401
 2079TIP3    H1 6182   7.322   4.416   2.006 -1.5008 -3.6960 -1.3716
 2079TIP3    H2 6183   7.329   4.420   1.855  1.6591 -0.1691 -1.2645
 2080TIP3   OH2 6184   0.786   4.288   6.492 -0.3659 -0.2359  0.4105
 2080TIP3    H1 6185   0.706   4.237   6.498  0.7096 -1.9786  0.8192
 2080TIP3    H2 6186   0.838   4.260   6.568  0.3489  1.3864  0.5644
 2081TIP3   OH2 6187   6.797   0.485   5.889  0.4957 -0.1920 -0.0297
 2081TIP3    H1 6188   6.718   0.448   5.850  2.0698 -2.2529 -1.4706
 2081TIP3    H2 6189   6.838   0.533   5.818  0.7212  0.6254  0.6360
 2082TIP3   OH2 6190   7.710   3.861   2.164  0.1210  0.1207 -0.3284
 2082TIP3    H1 6191   7.631   3.914   2.167 -0.1942 -0.2826 -1.2288
 2082TIP3    H2 6192   7.680   3.772   2.142  0.6824 -0.3434  0.7018
 2083TIP3   OH2 6193   7.172   7.056   4.159 -0.6633  0.0900  0.4162
 2083TIP3    H1 6194   7.242   7.046   4.223 -1.3518  0.0165  1.1638
 2083TIP3    H2 6195   7.218   7.064   4.075  0.2545  0.4025  0.9316
 2084TIP3   OH2 6196   5.461   5.918   0.139 -0.0357 -0.6359  0.5188
 2084TIP3    H1 6197   5.447   5.844   0.080  0.0819  1.8758 -2.9415
 2084TIP3    H2 6198   5.373   5.942   0.169 -0.6737  0.5616 -2.0886
 2085TIP3   OH2 6199   1.358   3.234   3.371 -0.0999  0.2000  0.0168
 2085TIP3    H1 6200   1.376   3.175   3.444 -0.6637  3.1999  2.8117
 2085TIP3    H2 6201   1.444   3.248   3.330  0.2726 -1.3618  0.2033
 2086TIP3   OH2 6202   3.502   5.820   3.139 -1.2023 -0.5594  0.0635
 2086TIP3    H1 6203   3.450   5.789   3.065 -0.8934 -3.4390  0.9333
 2086TIP3    H2 6204   3.565   5.750   3.154  1.8855  2.0034  0.1441
 2087TIP3   OH2 6205   3.908   1.123   6.299 -0.0340  0.2649  0.1622
 2087TIP3    H1 6206   3.869   1.107   6.213 -0.3670  1.6555  0.0247
 2087TIP3    H2 6207   3.943   1.212   6.293 -0.5940  0.6095  1.6560
 2088TIP3   OH2 6208   5.992   5.983   6.690 -0.0050 -0.0798  0.4193
 2088TIP3    H1 6209   6.084   5.963   6.712  0.4291 -1.4390 -2.2934
 2088TIP3    H2 6210   5.949   5.898   6.687 -1.1292  0.4621  0.6057
 2089TIP3   OH2 6211   1.882   5.487   0.717 -0.3851 -0.1985 -0.4559
 2089TIP3    H1 6212   1.812   5.537   0.759  1.7177  2.0838  0.5316
 2089TIP3    H2 6213   1.893   5.410   0.773 -0.9884  0.2540  0.3022
 2090TIP3   OH2 6214   3.293   4.065   5.558  0.2442  0.3617 -0.2549
 2090TIP3    H1 6215   3.275   3.992   5.617  0.0719  0.3012 -0.3829
 2090TIP3    H2 6216   3.319   4.136   5.616 -2.7643  1.2382  0.1717
 2091TIP3   OH2 6217   5.565   6.533   4.245  0.2600  0.4785 -0.6596
 2091TIP3    H1 6218   5.578   6.449   4.201 -0.1223 -0.1985  0.4759
 2091TIP3    H2 6219   5.638   6.587   4.216  1.0951 -0.5945 -0.5984
 2092TIP3   OH2 6220   5.068   4.112   2.201  0.3161 -0.2413 -0.2636
 2092TIP3    H1 6221   5.020   4.118   2.119  0.9849 -0.0752 -0.6470
 2092TIP3    H2 6222   5.107   4.025   2.201 -0.3315 -0.5415  0.2486
 2093TIP3   OH2 6223   7.215   7.793   4.564  0.7501  0.0358  0.3270
 2093TIP3    H1 6224   7.188   7.754   4.481 -0.7234  0.4664  0.5837
 2093TIP3    H2 6225   7.308   7.812   4.552  2.0417 -4.8106  0.6790
 2094TIP3   OH2 6226   3.500   4.395   5.028 -0.2296  0.3562  0.2488
 2094TIP3    H1 6227   3.466   4.392   5.117  0.1955 -0.5061  0.3943
 2094TIP3    H2 6228   3.512   4.303   5.004  1.2015  0.6145 -0.1001
 2095TIP3   OH2 6229   2.153   2.553   2.781 -0.1785  0.4084  0.8019
 2095TIP3    H1 6230   2.218   2.614   2.815  0.7289 -1.3022  2.2854
 2095TIP3    H2 6231   2.154   2.568   2.686  0.9020  1.7956  0.9958
 2096TIP3   OH2 6232   0.243   6.146   5.061 -0.0802  0.0560  0.1812
 2096TIP3    H1 6233   0.208   6.195   4.987 -1.4143 -0.1361  0.6570
 2096TIP3    H2 6234   0.315   6.094   5.025 -0.0914  0.6849 -0.7659
 2097TIP3   OH2 6235   5.523   6.157   5.460  0.7999 -0.3362 -0.0289
 2097TIP3    H1 6236   5.595   6.198   5.508  0.9969 -0.9244  0.1809
 2097TIP3    H2 6237   5.530   6.194   5.372  0.5364  0.6209  0.3422
 2098TIP3   OH2 6238   1.136   4.518   6.359  0.0905 -0.1741  0.2574
 2098TIP3    H1 6239   1.181   4.587   6.408  1.5230 -0.5261 -0.4758
 2098TIP3    H2 6240   1.130   4.552   6.270 -1.3370 -0.0538  0.3763
 2099TIP3   OH2 6241   1.083   5.395   5.521 -0.2921 -0.2877  0.6973
 2099TIP3    H1 6242   1.065   5.367   5.611 -1.1943  0.8129  0.8796
 2099TIP3    H2 6243   1.152   5.335   5.491 -0.4702 -1.1223  1.8703
 2100TIP3   OH2 6244   0.940   6.242   5.937 -0.2461 -0.0018 -0.3015
 2100TIP3    H1 6245   0.869   6.307   5.940 -0.8336 -0.5798 -1.1356
 2100TIP3    H2 6246   0.913   6.181   5.868  0.6907 -0.6754 -0.0852
 2101TIP3   OH2 6247   2.226   7.642   6.494 -0.5841 -0.3053  0.0204
 2101TIP3    H1 6248   2.151   7.682   6.451  0.7837  1.4032 -0.8527
 2101TIP3    H2 6249   2.275   7.600   6.424 -0.2878 -0.7536  0.4841
 2102TIP3   OH2 6250   5.899   6.026   4.834 -0.1519  0.5849  0.1677
 2102TIP3    H1 6251   5.936   6.084   4.767  0.5096 -0.4673 -0.4076
 2102TIP3    H2 6252   5.964   6.025   4.904  0.1872 -0.0508 -0.1560
 2103TIP3   OH2 6253   5.058   2.155   2.878  0.3288  0.0312 -0.0992
 2103TIP3    H1 6254   5.048   2.082   2.817 -0.3184 -0.3717  0.4756
 2103TIP3    H2 6255   5.106   2.221   2.828  0.8853 -0.7674 -0.6386
 2104TIP3   OH2 6256   0.966   7.152   6.359  0.3845 -0.0542 -0.2192
 2104TIP3    H1 6257   0.972   7.130   6.266  0.9883 -0.9385  0.0174
 2104TIP3    H2 6258   1.056   7.152   6.390  0.1899  0.2484  0.3676
 2105TIP3   OH2 6259   3.504   4.620   2.501  0.2164 -0.2363  0.2267
 2105TIP3    H1 6260   3.482   4.645   2.590 -0.3136  1.8251 -0.4333
 2105TIP3    H2 6261   3.423   4.583   2.466 -0.3089  1.1843 -0.1196
 2106TIP3   OH2 6262   4.156   4.878   2.718  0.0326 -0.1770  0.0831
 2106TIP3    H1 6263   4.094   4.873   2.646  2.6341  1.5476 -2.5397
 2106TIP3    H2 6264   4.151   4.793   2.761 -1.0616 -1.6423 -2.6981
 2107TIP3   OH2 6265   5.824   2.336   2.839 -0.8321 -0.4183  0.3126
 2107TIP3    H1 6266   5.837   2.396   2.766 -0.6265 -1.8105 -0.8410
 2107TIP3    H2 6267   5.780   2.389   2.906 -1.7885  0.6960 -1.1236
 2108TIP3   OH2 6268   6.735   2.760   6.498 -0.6548 -0.0937  0.4979
 2108TIP3    H1 6269   6.701   2.847   6.480 -1.2552 -0.3169  0.5083
 2108TIP3    H2 6270   6.738   2.755   6.594  0.6403  0.3799  0.5019
 2109TIP3   OH2 6271   5.089   3.594   2.451  0.3162  0.4243  0.6596
 2109TIP3    H1 6272   5.056   3.540   2.380 -0.1776  0.8164  0.5884
 2109TIP3    H2 6273   5.171   3.552   2.476  0.9372  0.7775 -0.7070
 2110TIP3   OH2 6274   1.763   3.188   6.165 -0.1252 -0.2441 -0.1785
 2110TIP3    H1 6275   1.697   3.168   6.099  0.1099 -1.3807 -0.0798
 2110TIP3    H2 6276   1.826   3.117   6.159 -1.5710 -2.0366  3.2008
 2111TIP3   OH2 6277   6.154   0.689   5.221  0.1852  0.5920 -0.6255
 2111TIP3    H1 6278   6.134   0.759   5.283  1.2939  0.1217  0.2894
 2111TIP3    H2 6279   6.154   0.609   5.273  1.6105  0.2445 -1.1065
 2112TIP3   OH2 6280   2.740   4.172   4.551 -0.2583 -0.1069 -0.5454
 2112TIP3    H1 6281   2.765   4.093   4.600 -1.0474 -0.0187  0.0171
 2112TIP3    H2 6282   2.820   4.224   4.549  0.5648 -1.3396 -1.7905
 2113TIP3   OH2 6283   5.651   2.548   6.455  0.0716 -0.1226  0.5504
 2113TIP3    H1 6284   5.702   2.592   6.523  1.7855 -0.8267 -0.2269
 2113TIP3    H2 6285   5.708   2.478   6.423 -2.2588 -2.4666  1.1864
 2114TIP3   OH2 6286   2.800   0.566   6.164  0.8263  0.3635  0.7740
 2114TIP3    H1 6287   2.737   0.632   6.133  0.6125  0.1517  0.7566
 2114TIP3    H2 6288   2.866   0.562   6.096 -0.7752 -1.7035 -0.7795
 2115TIP3   OH2 6289   1.465   4.006   5.845 -0.4679 -0.5898  0.5787
 2115TIP3    H1 6290   1.511   4.087   5.824  0.0853 -0.9626  0.3100
 2115TIP3    H2 6291   1.504   3.941   5.786  0.2779 -1.4070  1.9183
 2116TIP3   OH2 6292   6.920   5.808   3.569 -0.1453 -0.8047  0.3554
 2116TIP3    H1 6293   6.891   5.719   3.547 -0.9456 -0.8599  1.5877
 2116TIP3    H2 6294   6.840   5.855   3.591  0.5106 -0.4908  2.1856
 2117TIP3   OH2 6295   3.202   3.631   2.234  0.3129  0.1808 -0.4347
 2117TIP3    H1 6296   3.270   3.613   2.299 -0.3117 -0.1907  0.1291
 2117TIP3    H2 6297   3.159   3.547   2.219  0.8140  0.1321 -1.7882
 2118TIP3   OH2 6298   7.334   0.688   4.072  0.4629 -0.0819 -0.3933
 2118TIP3    H1 6299   7.385   0.607   4.074 -0.0338 -0.3868  0.3395
 2118TIP3    H2 6300   7.245   0.661   4.052  0.2227  0.2421  0.2172
 2119TIP3   OH2 6301   3.211   6.392   0.722 -0.2246 -0.0541 -0.1628
 2119TIP3    H1 6302   3.253   6.413   0.806 -0.8615  1.1299 -0.1198
 2119TIP3    H2 6303   3.245   6.459   0.662 -2.9233  1.7326  0.1553
 2120TIP3   OH2 6304   6.803   5.163   2.675 -0.1469  0.2418 -0.3774
 2120TIP3    H1 6305   6.717   5.180   2.635  0.4912  0.1308 -1.8932
 2120TIP3    H2 6306   6.863   5.164   2.600  0.8819 -1.8171  0.3776
 2121TIP3   OH2 6307   4.794   5.851   3.457 -0.4303  0.3388 -0.0272
 2121TIP3    H1 6308   4.825   5.761   3.450  0.4558  0.6528 -0.1999
 2121TIP3    H2 6309   4.699   5.842   3.469 -0.3516 -0.6129 -0.0111
 2122TIP3   OH2 6310   1.166   6.467   0.345 -0.5036 -0.3057  0.1980
 2122TIP3    H1 6311   1.128   6.380   0.354 -0.4620 -0.4872 -1.2541
 2122TIP3    H2 6312   1.257   6.451   0.320 -0.6645  0.1545 -0.7018
 2123TIP3   OH2 6313   5.644   6.935   5.642 -0.1512 -0.4650  0.4749
 2123TIP3    H1 6314   5.633   7.030   5.639 -0.3915 -0.4916  0.5427
 2123TIP3    H2 6315   5.641   6.913   5.736  1.9642 -0.2947  0.6385
 2124TIP3   OH2 6316   6.406   5.308   6.315 -0.1197 -0.2194 -0.2019
 2124TIP3    H1 6317   6.359   5.377   6.362  0.4107  0.3993 -0.5625
 2124TIP3    H2 6318   6.460   5.355   6.251  0.4960 -0.9460 -0.2332
 2125TIP3   OH2 6319   8.154   0.684   0.885  0.2958  0.0179  0.2775
 2125TIP3    H1 6320   8.109   0.663   0.803  0.5548 -0.2195  0.1936
 2125TIP3    H2 6321   8.084   0.696   0.949  0.0190  1.3042 -0.2199
 2126TIP3   OH2 6322   6.578   6.976   4.346  0.6066  0.1782 -0.7096
 2126TIP3    H1 6323   6.564   6.896   4.397 -0.1022 -0.2825 -1.5970
 2126TIP3    H2 6324   6.526   7.042   4.391 -1.7273 -0.7003 -1.9483
 2127TIP3   OH2 6325   4.312   2.300   0.841 -0.3487  0.1437  0.7183
 2127TIP3    H1 6326   4.218   2.305   0.855 -0.3314  0.1945  0.8266
 2127TIP3    H2 6327   4.323   2.280   0.748 -0.5034 -1.4105  1.0061
 2128TIP3   OH2 6328   3.972   2.585   5.012 -0.1043  0.1114  0.2256
 2128TIP3    H1 6329   4.058   2.603   5.050 -0.3654  0.2491  0.7758
 2128TIP3    H2 6330   3.982   2.600   4.919  0.2287  1.0489  0.4084
 2129TIP3   OH2 6331   6.805   2.467   1.819  0.1979  0.1327 -0.0376
 2129TIP3    H1 6332   6.720   2.433   1.793 -0.1879  1.3261 -0.4095
 2129TIP3    H2 6333   6.819   2.433   1.907 -0.2971 -0.7169 -0.2777
 2130TIP3   OH2 6334   0.397   0.921   1.267  0.0571 -0.3579  0.5214
 2130TIP3    H1 6335   0.381   0.873   1.186 -0.0493 -1.1947  1.0294
 2130TIP3    H2 6336   0.479   0.886   1.301  0.2090  0.1316  0.6735
 2131TIP3   OH2 6337   4.962   3.398   2.285 -0.3198  0.0441 -0.3287
 2131TIP3    H1 6338   5.021   3.324   2.296 -1.3812 -0.8257 -0.2928
 2131TIP3    H2 6339   4.887   3.362   2.237 -0.5768  1.2458 -0.8785
 2132TIP3   OH2 6340   5.875   4.310   3.227  0.1256 -0.4652  0.1167
 2132TIP3    H1 6341   5.926   4.239   3.266  0.2222  0.0746  1.0010
 2132TIP3    H2 6342   5.784   4.282   3.237  0.2090 -1.1138 -0.8395
 2133TIP3   OH2 6343   7.111   1.189   0.216 -0.1042  0.7154 -0.0194
 2133TIP3    H1 6344   7.029   1.230   0.243 -0.1047 -0.4046  1.8951
 2133TIP3    H2 6345   7.175   1.260   0.217 -0.8895  1.4575 -0.8462
 2134TIP3   OH2 6346   4.997   3.921   0.955 -0.5339 -0.3689  0.0939
 2134TIP3    H1 6347   4.984   3.923   0.860 -0.3166  2.0938  0.0551
 2134TIP3    H2 6348   4.909   3.932   0.992 -0.5309 -0.5510  0.1545
 2135TIP3   OH2 6349   7.294   3.566   3.004  0.0449 -0.1818 -0.0897
 2135TIP3    H1 6350   7.339   3.484   2.983  0.3587 -0.9192  3.0363
 2135TIP3    H2 6351   7.325   3.588   3.092 -0.7764  2.8058 -0.4554
 2136TIP3   OH2 6352   1.838   4.534   0.557 -0.2293 -0.8058 -0.4238
 2136TIP3    H1 6353   1.892   4.586   0.499 -0.2598  0.4970  0.6486
 2136TIP3    H2 6354   1.840   4.581   0.641 -0.6647 -2.2779  0.4648
 2137TIP3   OH2 6355   5.167   2.093   2.317  0.5285  0.2892  0.0086
 2137TIP3    H1 6356   5.229   2.109   2.388  0.1446 -0.3583  0.4990
 2137TIP3    H2 6357   5.205   2.020   2.268  0.4001  0.2192  0.0136
 2138TIP3   OH2 6358   2.013   2.427   4.574  0.4560 -0.3670 -0.0481
 2138TIP3    H1 6359   2.094   2.396   4.535 -0.2609 -0.3049 -1.6386
 2138TIP3    H2 6360   1.964   2.347   4.595 -0.3813 -0.4139 -1.9843
 2139TIP3   OH2 6361   7.654   1.016   0.531  0.8218 -0.2013  0.0939
 2139TIP3    H1 6362   7.590   1.013   0.601  0.1030 -1.1900 -0.5802
 2139TIP3    H2 6363   7.726   0.961   0.562 -0.5277 -2.6754 -0.8785
 2140TIP3   OH2 6364   4.314   5.396   0.647  0.1700 -0.2146  0.3592
 2140TIP3    H1 6365   4.370   5.394   0.724  0.7476  1.8262  0.0647
 2140TIP3    H2 6366   4.374   5.413   0.574 -0.7121  1.4538 -0.0343
 2141TIP3   OH2 6367   2.183   2.974   0.548  0.4159 -0.3377  0.3442
 2141TIP3    H1 6368   2.201   3.068   0.544  1.6456 -0.5914 -0.5498
 2141TIP3    H2 6369   2.224   2.945   0.630  1.2370 -0.3209 -0.0513
 2142TIP3   OH2 6370   7.355   5.676   0.791  0.4646  0.1698 -0.2948
 2142TIP3    H1 6371   7.411   5.620   0.845 -0.7730 -1.5889 -0.7352
 2142TIP3    H2 6372   7.359   5.636   0.704 -1.0826  0.2759 -0.4367
 2143TIP3   OH2 6373   1.326   1.541   5.919  0.5945  0.0948  0.5369
 2143TIP3    H1 6374   1.321   1.613   5.982  1.3368  1.7027 -1.1494
 2143TIP3    H2 6375   1.417   1.540   5.891  0.8599 -2.2143  1.2204
 2144TIP3   OH2 6376   0.576   4.393   6.307 -0.1658 -0.1808 -0.0847
 2144TIP3    H1 6377   0.531   4.428   6.384  0.0624  0.7536 -0.3717
 2144TIP3    H2 6378   0.638   4.330   6.343  0.5428  0.8753  0.5763
 2145TIP3   OH2 6379   3.622   4.124   4.688  0.3412 -0.5397 -0.1460
 2145TIP3    H1 6380   3.635   4.214   4.660  0.1950 -0.5024 -0.0969
 2145TIP3    H2 6381   3.581   4.080   4.613  1.1715 -0.7767 -0.4735
 2146TIP3   OH2 6382   4.319   6.118   3.759 -0.3540 -0.5507  0.6221
 2146TIP3    H1 6383   4.390   6.158   3.809  1.2294 -2.7010  0.2591
 2146TIP3    H2 6384   4.312   6.172   3.681  0.2243  0.2549  1.1046
 2147TIP3   OH2 6385   4.734   0.851   6.709  0.1715  0.3865  0.2490
 2147TIP3    H1 6386   4.805   0.795   6.677  0.4481  0.6328  0.4328
 2147TIP3    H2 6387   4.712   0.906   6.634  0.7428  0.8830  0.4344
 2148TIP3   OH2 6388   2.829   6.184   1.887 -0.0482 -0.0069 -0.0021
 2148TIP3    H1 6389   2.837   6.105   1.940 -1.0670  1.3530  2.3632
 2148TIP3    H2 6390   2.910   6.186   1.835  0.5351 -1.9607  0.7419
 2149TIP3   OH2 6391   2.140   2.810   3.066 -0.3252  0.4226  0.3744
 2149TIP3    H1 6392   2.062   2.848   3.024  0.2035 -0.9386 -2.0460
 2149TIP3    H2 6393   2.186   2.885   3.102 -1.5270  1.5582 -0.3523
 2150TIP3   OH2 6394   0.450   3.277   2.318  0.4204  0.2586  0.7242
 2150TIP3    H1 6395   0.537   3.240   2.331  0.6286  0.9510  1.4621
 2150TIP3    H2 6396   0.393   3.202   2.301  1.6217 -0.0447 -2.8871
 2151TIP3   OH2 6397   4.410   5.930   3.177 -0.1533 -0.5471 -0.2627
 2151TIP3    H1 6398   4.377   5.842   3.193 -0.5676 -0.6385 -1.4925
 2151TIP3    H2 6399   4.498   5.917   3.142  0.8254 -0.3442  1.9559
 2152TIP3   OH2 6400   4.225   6.176   1.493 -0.1615 -0.4806  0.4131
 2152TIP3    H1 6401   4.150   6.159   1.550  0.0618 -0.7425  0.6287
 2152TIP3    H2 6402   4.297   6.197   1.553  0.5929 -2.6493  0.3529
 2153TIP3   OH2 6403   2.355   4.556   6.546  0.1445  0.4566  0.0099
 2153TIP3    H1 6404   2.318   4.534   6.460  1.0582 -1.5314  0.0527
 2153TIP3    H2 6405   2.384   4.647   6.537  0.6684  0.1526 -1.9714
 2154TIP3   OH2 6406   7.358   3.876   6.441 -0.3521  0.1716  0.4218
 2154TIP3    H1 6407   7.295   3.839   6.503 -1.5969  1.7723  0.1931
 2154TIP3    H2 6408   7.392   3.954   6.485 -0.6239  0.8587 -0.5419
 2155TIP3   OH2 6409   6.674   6.959   6.019 -0.0111 -0.0729 -0.1956
 2155TIP3    H1 6410   6.599   6.976   5.961 -0.6798 -1.0752  0.3455
 2155TIP3    H2 6411   6.655   7.009   6.098 -1.0516 -1.7873  0.6671
 2156TIP3   OH2 6412   7.778   1.182   0.108  0.0226 -0.1231 -0.4275
 2156TIP3    H1 6413   7.710   1.248   0.104 -0.2406 -0.3536  0.1172
 2156TIP3    H2 6414   7.761   1.135   0.189  0.2929 -0.7643 -0.7330
 2157TIP3   OH2 6415   4.070   0.274   4.964 -0.2734  0.8499  0.1548
 2157TIP3    H1 6416   4.071   0.369   4.976 -0.7302  0.7081  1.5274
 2157TIP3    H2 6417   4.042   0.239   5.049 -0.0050 -0.5218 -0.2869
 2158TIP3   OH2 6418   5.279   3.660   5.865 -1.0329 -0.1514  0.0268
 2158TIP3    H1 6419   5.336   3.688   5.793 -0.5076 -0.5483  0.2816
 2158TIP3    H2 6420   5.196   3.705   5.849 -0.7699  0.1323 -0.5645
 2159TIP3   OH2 6421   2.875   7.408   3.789 -0.1707  0.0223  0.2047
 2159TIP3    H1 6422   2.936   7.472   3.753 -0.4235  0.1255 -0.0390
 2159TIP3    H2 6423   2.827   7.374   3.713  1.9874 -2.6577 -0.1317
 2160TIP3   OH2 6424   5.242   2.508   1.187  0.3765  0.9778  0.4380
 2160TIP3    H1 6425   5.160   2.556   1.179 -1.0473 -1.4318 -0.1299
 2160TIP3    H2 6426   5.222   2.435   1.246  2.6207  1.3119  1.7598
 2161TIP3   OH2 6427   4.015   3.895   2.973 -0.1814 -0.4714  0.1051
 2161TIP3    H1 6428   3.985   3.956   2.906  1.7792  1.5520  0.9607
 2161TIP3    H2 6429   3.991   3.936   3.056  0.5996 -1.1786  0.6948
 2162TIP3   OH2 6430   6.663   0.866   2.827  0.7382  0.3314 -0.0197
 2162TIP3    H1 6431   6.572   0.893   2.841  0.5415 -1.0938  1.8124
 2162TIP3    H2 6432   6.712   0.907   2.899  2.0341  2.9206 -2.1929
 2163TIP3   OH2 6433   4.573   3.238   6.600 -0.3758 -0.0596  0.4125
 2163TIP3    H1 6434   4.656   3.285   6.608 -0.9162  1.2348 -1.0818
 2163TIP3    H2 6435   4.597   3.152   6.567  0.3582  0.5216 -0.6237
 2164TIP3   OH2 6436   2.873   1.067   2.451  0.4342  0.2060  0.3559
 2164TIP3    H1 6437   2.862   1.104   2.539  4.3772  1.6099  0.4488
 2164TIP3    H2 6438   2.950   1.010   2.458 -1.0213 -2.2232 -1.5739
 2165TIP3   OH2 6439   1.686   7.172   6.652 -0.4612  0.3493 -0.0510
 2165TIP3    H1 6440   1.644   7.250   6.614  1.2311  0.5401 -1.6992
 2165TIP3    H2 6441   1.764   7.159   6.598  0.6297 -1.0361  1.7628
 2166TIP3   OH2 6442   3.984   5.213   1.983  0.0810  0.3360  0.2073
 2166TIP3    H1 6443   4.034   5.156   1.925  0.7163 -0.0234  1.0881
 2166TIP3    H2 6444   3.964   5.290   1.930  0.0499 -0.2808 -0.6941
 2167TIP3   OH2 6445   4.540   6.330   3.342 -0.5872 -0.3190 -0.3013
 2167TIP3    H1 6446   4.506   6.397   3.283 -1.2291 -0.6053 -0.2650
 2167TIP3    H2 6447   4.598   6.277   3.287 -0.0918  0.2375 -0.3355
 2168TIP3   OH2 6448   4.004   2.742   3.244 -0.1403  0.0259 -0.0963
 2168TIP3    H1 6449   3.944   2.773   3.312  1.1486 -0.6438  1.4183
 2168TIP3    H2 6450   4.089   2.733   3.289  0.1315 -3.2348 -0.9941
 2169TIP3   OH2 6451   3.755   6.874   4.939  0.7354  0.5685 -0.5834
 2169TIP3    H1 6452   3.806   6.870   5.020  1.3986  2.1738 -0.8867
 2169TIP3    H2 6453   3.732   6.966   4.929 -3.4563 -0.1855  0.2281
 2170TIP3   OH2 6454   0.581   0.742   1.649  0.4426 -0.2620  0.0557
 2170TIP3    H1 6455   0.580   0.752   1.744 -1.6111  1.1315 -0.0506
 2170TIP3    H2 6456   0.509   0.682   1.630 -0.1643  0.6737 -0.6967
 2171TIP3   OH2 6457   4.528   0.835   5.623  0.2944  0.1929 -0.1029
 2171TIP3    H1 6458   4.447   0.819   5.671  0.0881 -0.0356 -0.5273
 2171TIP3    H2 6459   4.508   0.812   5.532  1.2922 -1.4411  0.0471
 2172TIP3   OH2 6460   6.775   4.943   4.145  0.2786  0.3461 -0.1386
 2172TIP3    H1 6461   6.785   5.011   4.212 -0.7816  0.3922 -0.0218
 2172TIP3    H2 6462   6.714   4.980   4.082 -0.1560 -0.4241 -0.1764
 2173TIP3   OH2 6463   7.489   1.010   6.721 -0.6902 -0.1765 -0.2416
 2173TIP3    H1 6464   7.503   0.916   6.705  0.2016  0.1095 -1.2696
 2173TIP3    H2 6465   7.487   1.018   6.816  2.2380 -0.8632 -0.0339
 2174TIP3   OH2 6466   7.102   6.225   6.156  0.5662 -0.7267 -0.2433
 2174TIP3    H1 6467   7.105   6.248   6.249 -0.1033 -2.7939  0.3554
 2174TIP3    H2 6468   7.179   6.268   6.118 -0.0027  1.4314  0.9153
 2175TIP3   OH2 6469   4.206   5.737   1.452 -0.3378 -0.0352 -0.1662
 2175TIP3    H1 6470   4.150   5.805   1.414 -0.3946 -0.1266 -0.2457
 2175TIP3    H2 6471   4.155   5.701   1.524 -0.0264  0.4888  0.3230
 2176TIP3   OH2 6472   2.637   0.465   4.798  0.4853 -0.4829  0.9045
 2176TIP3    H1 6473   2.661   0.373   4.789 -0.0852 -0.5254 -0.3951
 2176TIP3    H2 6474   2.630   0.497   4.709  2.0547  1.2214  1.3266
 2177TIP3   OH2 6475   2.964   5.446   3.435 -0.1269  0.3310 -0.2847
 2177TIP3    H1 6476   2.901   5.517   3.449 -0.4304  0.3308 -1.5962
 2177TIP3    H2 6477   2.978   5.444   3.341  0.8763 -0.5101 -0.1355
 2178TIP3   OH2 6478   2.337   6.315   3.741  0.8219  0.3601  0.2546
 2178TIP3    H1 6479   2.310   6.407   3.734  0.5721  0.1825 -2.0504
 2178TIP3    H2 6480   2.288   6.282   3.816  1.0194  2.1126  1.2262
 2179TIP3   OH2 6481   2.349   6.158   5.703  0.4153  0.1304 -0.2499
 2179TIP3    H1 6482   2.425   6.189   5.654  0.9480 -1.2003 -0.2840
 2179TIP3    H2 6483   2.301   6.238   5.725  1.7387  0.9729 -0.3517
 2180TIP3   OH2 6484   1.677   0.641   3.631  0.0758 -0.2169  0.1839
 2180TIP3    H1 6485   1.671   0.548   3.650  0.2847 -0.1874  0.3956
 2180TIP3    H2 6486   1.766   0.653   3.597  0.3830  0.0632  1.0512
 2181TIP3   OH2 6487   0.884   3.488   3.962  0.1602 -0.3216 -0.0950
 2181TIP3    H1 6488   0.843   3.408   3.930 -0.3032 -0.3313  0.4968
 2181TIP3    H2 6489   0.894   3.473   4.057 -2.2037  1.2728  0.4797
 2182TIP3   OH2 6490   0.255   6.142   3.872 -0.1541 -0.1831  0.0505
 2182TIP3    H1 6491   0.287   6.083   3.939  0.1589  1.4038  1.3666
 2182TIP3    H2 6492   0.328   6.151   3.811  0.3065 -0.0708  0.6085
 2183TIP3   OH2 6493   0.272   7.655   3.021  0.1280 -0.3185  0.4339
 2183TIP3    H1 6494   0.208   7.700   2.966  1.7123 -0.1182 -1.3224
 2183TIP3    H2 6495   0.274   7.706   3.102 -0.0259  1.2352 -0.5019
 2184TIP3   OH2 6496   1.158   7.281   3.526 -0.2516  0.0823 -0.0637
 2184TIP3    H1 6497   1.252   7.266   3.538 -0.0034 -0.3856 -2.1996
 2184TIP3    H2 6498   1.153   7.355   3.466 -1.3579  2.4239  2.7442
 2185TIP3   OH2 6499   3.794   6.560   6.733 -0.4672  0.0815 -0.3925
 2185TIP3    H1 6500   3.883   6.534   6.712 -0.6995 -1.4518  0.3675
 2185TIP3    H2 6501   3.754   6.578   6.648 -0.0511 -1.3838 -0.9293
 2186TIP3   OH2 6502   6.369   2.149   4.402  0.1742  0.2855  0.1306
 2186TIP3    H1 6503   6.404   2.238   4.405 -0.0554  0.3586  1.2187
 2186TIP3    H2 6504   6.366   2.121   4.494  1.1176 -1.1990 -0.2375
 2187TIP3   OH2 6505   1.158   1.430   3.783  0.5107  0.3790  0.2387
 2187TIP3    H1 6506   1.165   1.413   3.877  2.6585  0.5191  0.1402
 2187TIP3    H2 6507   1.128   1.520   3.777 -1.5809 -0.2241  0.7446
 2188TIP3   OH2 6508   7.921   6.849   1.256 -0.2983 -0.5606  0.4834
 2188TIP3    H1 6509   7.988   6.786   1.282  0.7053  0.3838  0.2676
 2188TIP3    H2 6510   7.862   6.800   1.200  1.4738 -0.9053 -1.1846
 2189TIP3   OH2 6511   3.469   7.648   3.362  0.1345 -0.5173 -0.2599
 2189TIP3    H1 6512   3.502   7.728   3.320  0.0079 -0.8767 -1.0616
 2189TIP3    H2 6513   3.419   7.680   3.437  1.4806  0.0801  0.4200
 2190TIP3   OH2 6514   7.052   4.053   6.418  0.2767  0.2434  0.2051
 2190TIP3    H1 6515   7.003   3.985   6.465  0.0993  1.0273  1.1721
 2190TIP3    H2 6516   7.046   4.026   6.326  1.3055 -1.7536  0.6575
 2191TIP3   OH2 6517   3.407   0.496   2.726 -0.3593 -1.0369  0.0910
 2191TIP3    H1 6518   3.498   0.503   2.755 -0.3395  1.7756 -0.3457
 2191TIP3    H2 6519   3.412   0.450   2.642  1.3055  2.5088 -1.9964
 2192TIP3   OH2 6520   5.878   0.088   3.538  0.8323 -0.2749  0.3219
 2192TIP3    H1 6521   5.797   0.044   3.514  0.9058  0.3752 -1.2404
 2192TIP3    H2 6522   5.862   0.123   3.625 -1.3362  1.6211 -0.7334
 2193TIP3   OH2 6523   4.864   6.750   5.745 -0.1368 -0.2502  0.0364
 2193TIP3    H1 6524   4.789   6.784   5.794 -0.1428  0.7166 -0.6108
 2193TIP3    H2 6525   4.826   6.685   5.686 -0.1840 -1.1358  1.0082
 2194TIP3   OH2 6526   2.443   6.743   3.802  0.1590  0.2908  0.0219
 2194TIP3    H1 6527   2.526   6.699   3.785  0.7760  1.6445 -0.5604
 2194TIP3    H2 6528   2.467   6.834   3.821 -1.2295  0.8321 -0.6984
 2195TIP3   OH2 6529   0.739   0.844   5.756  0.5469  0.2489  0.0599
 2195TIP3    H1 6530   0.740   0.923   5.811  1.0399 -1.7899  3.1917
 2195TIP3    H2 6531   0.800   0.865   5.685  1.8446  2.1743  1.6024
 2196TIP3   OH2 6532   3.245   0.214   3.159 -0.7705 -0.0000 -0.2655
 2196TIP3    H1 6533   3.294   0.252   3.086 -0.4499 -0.6355 -0.3962
 2196TIP3    H2 6534   3.311   0.200   3.227 -0.8565 -0.4390 -0.2706
 2197TIP3   OH2 6535   2.788   6.302   0.830 -0.2479  0.0165  0.6887
 2197TIP3    H1 6536   2.703   6.343   0.849  0.4832  1.1136  1.6905
 2197TIP3    H2 6537   2.808   6.251   0.908 -0.3397 -0.8654  0.1400
 2198TIP3   OH2 6538   6.634   5.434   5.563 -0.4923  0.2175  0.9976
 2198TIP3    H1 6539   6.671   5.350   5.591 -0.5259  0.2088  1.0160
 2198TIP3    H2 6540   6.660   5.443   5.472  1.9293  1.4989  1.7368
 2199TIP3   OH2 6541   7.882   6.732   5.422 -0.3271 -0.0654 -0.2144
 2199TIP3    H1 6542   7.969   6.710   5.456  0.0428  0.8540 -0.5262
 2199TIP3    H2 6543   7.866   6.821   5.452 -0.6824  0.1717 -1.0674
 2200TIP3   OH2 6544   2.207   4.525   5.275  0.2285 -0.1149  0.1411
 2200TIP3    H1 6545   2.239   4.452   5.328  0.4466 -1.8163 -2.2069
 2200TIP3    H2 6546   2.287   4.566   5.241  0.0635  0.0561 -0.0369
 2201TIP3   OH2 6547   2.519   7.686   1.514 -0.1663 -0.4580  0.3194
 2201TIP3    H1 6548   2.522   7.772   1.472 -1.1010 -0.1930  0.7795
 2201TIP3    H2 6549   2.426   7.665   1.519 -0.1979 -0.0571  3.1066
 2202TIP3   OH2 6550   7.059   1.999   6.606 -0.5151 -0.2757  0.1203
 2202TIP3    H1 6551   7.057   2.057   6.682  0.3146  0.7334 -0.6119
 2202TIP3    H2 6552   6.992   2.034   6.547 -0.5715 -0.5482  0.0200
 2203TIP3   OH2 6553   4.122   6.668   0.845 -0.4260  0.3357  0.2446
 2203TIP3    H1 6554   4.033   6.647   0.818 -0.6519  0.2919  1.0012
 2203TIP3    H2 6555   4.137   6.756   0.810 -1.1128  0.7274  0.9056
 2204TIP3   OH2 6556   5.804   5.998   0.539  0.2364 -0.2937  0.5489
 2204TIP3    H1 6557   5.741   6.062   0.505  1.7850  0.5957 -0.7555
 2204TIP3    H2 6558   5.846   6.043   0.613  2.2131  0.8006 -1.1293
 2205TIP3   OH2 6559   4.963   7.745   0.866 -0.2332  0.0141 -0.4805
 2205TIP3    H1 6560   4.910   7.825   0.857  1.2420  0.9087 -1.6555
 2205TIP3    H2 6561   4.985   7.741   0.959  1.5337  2.2984 -0.7078
 2206TIP3   OH2 6562   1.517   6.539   5.100 -0.2651 -0.2440  0.2716
 2206TIP3    H1 6563   1.506   6.466   5.160 -1.6487 -0.8368 -0.6515
 2206TIP3    H2 6564   1.610   6.539   5.078  0.3771  0.3062  2.7533
 2207TIP3   OH2 6565   2.962   6.779   6.361  0.0487  0.6996  0.1188
 2207TIP3    H1 6566   2.891   6.738   6.312  3.2145 -2.1782 -2.5553
 2207TIP3    H2 6567   2.977   6.863   6.317 -1.4955  1.2459  0.6002
 2208TIP3   OH2 6568   3.826   5.493   6.658  0.0391 -0.1316 -0.0444
 2208TIP3    H1 6569   3.815   5.498   6.563  0.9736 -0.7545 -0.1883
 2208TIP3    H2 6570   3.883   5.418   6.672  0.7383  0.5636  0.9405
 2209TIP3   OH2 6571   7.333   5.939   2.735  0.1661  0.2186 -0.0409
 2209TIP3    H1 6572   7.367   6.025   2.711  1.7680 -0.6017 -0.8776
 2209TIP3    H2 6573   7.392   5.877   2.693 -1.3181 -1.3155  0.0187
 2210TIP3   OH2 6574   4.225   1.992   1.919 -0.1504  0.0024  0.3192
 2210TIP3    H1 6575   4.204   1.899   1.912  0.7391 -0.2367  0.6007
 2210TIP3    H2 6576   4.188   2.019   2.004 -0.1921 -0.1561  0.3517
 2211TIP3   OH2 6577   7.896   6.417   3.621 -0.1783 -0.0806 -0.2351
 2211TIP3    H1 6578   7.934   6.331   3.636  0.7499  0.4481  0.6352
 2211TIP3    H2 6579   7.869   6.416   3.530  1.9379 -0.5266 -0.9196
 2212TIP3   OH2 6580   8.192   6.145   2.356 -0.9027  0.4505 -0.1565
 2212TIP3    H1 6581   8.240   6.211   2.308 -0.8186 -0.0365 -0.7534
 2212TIP3    H2 6582   8.213   6.162   2.448  0.3332  0.3057 -0.4000
 2213TIP3   OH2 6583   2.264   5.628   2.525 -0.1495  0.3175 -0.3791
 2213TIP3    H1 6584   2.249   5.676   2.444 -0.0940  1.9304  0.5336
 2213TIP3    H2 6585   2.196   5.660   2.585 -0.9494 -1.7185 -0.1066
 2214TIP3   OH2 6586   0.758   5.558   4.376 -0.4601 -0.0415 -0.2619
 2214TIP3    H1 6587   0.760   5.494   4.304 -1.9713  0.5934 -0.9005
 2214TIP3    H2 6588   0.792   5.509   4.451 -0.2070 -1.1538 -1.0612
 2215TIP3   OH2 6589   2.781   6.282   2.836  0.0445 -0.0342  0.1447
 2215TIP3    H1 6590   2.729   6.266   2.915  1.4222 -0.0862  1.0794
 2215TIP3    H2 6591   2.860   6.229   2.849 -0.5405 -1.6187 -2.1911
 2216TIP3   OH2 6592   4.800   3.470   3.850 -0.7429 -0.2848 -0.1976
 2216TIP3    H1 6593   4.724   3.521   3.877  0.0125  0.5409  0.4182
 2216TIP3    H2 6594   4.769   3.379   3.847 -1.2766 -0.1998  1.8328
 2217TIP3   OH2 6595   6.220   0.645   3.079 -0.2735  0.1682 -0.6033
 2217TIP3    H1 6596   6.200   0.712   3.144 -0.6471  0.4494 -1.0003
 2217TIP3    H2 6597   6.308   0.614   3.102 -0.1892  0.6422 -0.2838
 2218TIP3   OH2 6598   0.749   0.486   5.223  0.0524 -0.3431 -0.4768
 2218TIP3    H1 6599   0.666   0.485   5.174 -1.0942 -2.8910  1.3221
 2218TIP3    H2 6600   0.770   0.579   5.231 -2.0868  0.3457 -1.8728
 2219TIP3   OH2 6601   4.302   6.352   0.878 -0.1404  0.2026  0.3936
 2219TIP3    H1 6602   4.366   6.399   0.824  1.5655 -1.1693  1.1435
 2219TIP3    H2 6603   4.251   6.302   0.814 -0.0662  0.8055 -0.1601
 2220TIP3   OH2 6604   6.888   6.281   2.960 -0.2498 -0.5163  0.0507
 2220TIP3    H1 6605   6.940   6.248   3.033 -2.8835 -2.4251  1.2069
 2220TIP3    H2 6606   6.808   6.315   3.000 -1.1221 -0.2219 -1.8178
 2221TIP3   OH2 6607   6.550   6.559   1.372 -0.0489 -0.4628 -0.2981
 2221TIP3    H1 6608   6.540   6.641   1.322  0.1993 -0.9650 -1.1893
 2221TIP3    H2 6609   6.579   6.495   1.307  2.1390 -0.7090  0.8264
 2222TIP3   OH2 6610   1.824   4.343   0.197  0.2203  0.6379  0.0906
 2222TIP3    H1 6611   1.821   4.325   0.290  0.7148 -1.5628 -0.2685
 2222TIP3    H2 6612   1.770   4.422   0.186 -0.6151  0.4006  2.0779
 2223TIP3   OH2 6613   6.805   0.279   5.546 -0.4266 -0.0101  0.1144
 2223TIP3    H1 6614   6.733   0.301   5.487  0.5683  0.0763 -1.1186
 2223TIP3    H2 6615   6.834   0.363   5.581 -1.5007 -0.1318  1.3342
 2224TIP3   OH2 6616   3.717   4.454   1.257 -0.6803 -0.2183  0.2819
 2224TIP3    H1 6617   3.685   4.542   1.238  0.2922  0.1020  0.0697
 2224TIP3    H2 6618   3.800   4.468   1.303 -0.1314 -1.0236 -0.4433
 2225TIP3   OH2 6619   1.180   3.409   6.374  0.0182 -0.0688  0.1753
 2225TIP3    H1 6620   1.257   3.465   6.385 -0.9299  1.4025 -0.2992
 2225TIP3    H2 6621   1.205   3.345   6.308  0.9668  0.1278  0.3313
 2226TIP3   OH2 6622   3.904   7.152   3.069  0.7467 -0.3382  0.8221
 2226TIP3    H1 6623   3.918   7.067   3.111  0.0830 -1.1493 -0.5430
 2226TIP3    H2 6624   3.927   7.138   2.978 -0.8147  0.5277  0.2500
 2227TIP3   OH2 6625   6.653   5.700   1.882 -0.8266 -0.4695 -0.2786
 2227TIP3    H1 6626   6.605   5.781   1.902  1.6041  0.8984  0.4635
 2227TIP3    H2 6627   6.614   5.670   1.800 -2.2740  1.0760 -0.2290
 2228TIP3   OH2 6628   2.265   6.269   0.924  0.4959 -0.3573  0.0358
 2228TIP3    H1 6629   2.276   6.174   0.919  0.7998 -0.4781  2.0648
 2228TIP3    H2 6630   2.171   6.284   0.910  0.7294 -0.7076 -2.3778
 2229TIP3   OH2 6631   6.534   4.106   0.116 -0.3681 -0.3498 -0.4095
 2229TIP3    H1 6632   6.580   4.125   0.197  0.3578  0.3524 -0.9728
 2229TIP3    H2 6633   6.508   4.192   0.082 -0.3133 -0.6030 -1.1162
 2230TIP3   OH2 6634   4.783   0.782   1.639  0.1059  0.0818  0.3643
 2230TIP3    H1 6635   4.803   0.760   1.548 -0.4574 -0.4635  0.3662
 2230TIP3    H2 6636   4.694   0.750   1.653 -2.1607  4.9744 -0.5333
 2231TIP3   OH2 6637   1.550   2.672   5.851  0.2190  0.4580  0.1975
 2231TIP3    H1 6638   1.576   2.587   5.886  0.7518 -0.6606 -2.6561
 2231TIP3    H2 6639   1.617   2.733   5.883  1.1471 -0.6416  0.3967
 2232TIP3   OH2 6640   6.997   5.997   5.024  0.2966 -0.2576 -0.3079
 2232TIP3    H1 6641   6.996   6.088   5.053 -0.0336 -0.3128 -0.1423
 2232TIP3    H2 6642   6.905   5.974   5.013  0.3882  0.4524 -3.6190
 2233TIP3   OH2 6643   3.573   5.443   0.468 -0.0167  0.2742  0.2366
 2233TIP3    H1 6644   3.558   5.391   0.546 -1.2034 -0.2133 -0.2894
 2233TIP3    H2 6645   3.504   5.416   0.408  0.1925  1.4583 -0.5628
 2234TIP3   OH2 6646   6.403   1.647   2.085 -0.0389 -0.1573  0.1344
 2234TIP3    H1 6647   6.404   1.562   2.042  3.9844  0.0239 -0.4407
 2234TIP3    H2 6648   6.401   1.710   2.013  2.4556  0.1366  0.2390
 2235TIP3   OH2 6649   2.615   4.552   3.887 -0.3777 -0.4001 -0.5557
 2235TIP3    H1 6650   2.612   4.487   3.817 -0.3997  0.6365 -1.5443
 2235TIP3    H2 6651   2.642   4.633   3.843  1.3639 -0.1115  0.9200
 2236TIP3   OH2 6652   5.918   2.681   4.415  0.7363  0.1496  0.2350
 2236TIP3    H1 6653   5.973   2.611   4.450  2.6526  1.1687 -0.5525
 2236TIP3    H2 6654   5.980   2.739   4.369 -0.8359  2.0830  0.4317
 2237TIP3   OH2 6655   6.527   4.916   1.789  0.1135 -0.4612  0.4395
 2237TIP3    H1 6656   6.518   4.850   1.857  0.0376 -2.0228 -1.0285
 2237TIP3    H2 6657   6.478   4.882   1.714 -0.0065  1.3070 -0.3544
 2238TIP3   OH2 6658   0.972   0.841   4.361  0.1725 -0.3829 -0.2487
 2238TIP3    H1 6659   1.060   0.835   4.325  0.0228 -2.2798 -0.3998
 2238TIP3    H2 6660   0.920   0.879   4.291  0.2988 -2.0861 -1.3168
 2239TIP3   OH2 6661   2.462   1.882   3.433  0.3130 -0.2272 -0.1101
 2239TIP3    H1 6662   2.438   1.973   3.419  1.0312  0.0567  0.4328
 2239TIP3    H2 6663   2.424   1.859   3.518 -1.7499 -1.1282 -1.2048
 2240TIP3   OH2 6664   0.483   0.333   3.696  0.9582 -0.1517 -0.0514
 2240TIP3    H1 6665   0.424   0.406   3.679  2.0082  1.3561  2.2357
 2240TIP3    H2 6666   0.492   0.289   3.612 -1.5599  0.9316 -0.9676
 2241TIP3   OH2 6667   6.013   6.774   0.881 -0.3588 -0.2932  0.1632
 2241TIP3    H1 6668   6.000   6.714   0.955  0.7285 -1.3694 -0.4744
 2241TIP3    H2 6669   6.088   6.737   0.834  0.2203  1.4805 -0.3737
 2242TIP3   OH2 6670   1.602   3.414   3.363  0.4441 -0.3768 -0.0105
 2242TIP3    H1 6671   1.563   3.501   3.363 -1.0125 -0.9992  0.5565
 2242TIP3    H2 6672   1.629   3.400   3.273  2.2496  1.3006  0.2099
 2243TIP3   OH2 6673   6.819   2.285   3.549 -0.2973  0.5792  0.3139
 2243TIP3    H1 6674   6.898   2.339   3.542  0.7998 -1.1364 -1.9808
 2243TIP3    H2 6675   6.772   2.301   3.467 -1.3227  0.0732  0.7901
 2244TIP3   OH2 6676   1.021   7.267   4.364 -0.5071 -0.4669 -0.3003
 2244TIP3    H1 6677   1.078   7.238   4.435 -0.9973 -0.5613  0.0644
 2244TIP3    H2 6678   1.074   7.258   4.285  1.2502  2.8040  0.3255
 2245TIP3   OH2 6679   6.503   2.927   4.471  0.6162 -0.2308 -0.1958
 2245TIP3    H1 6680   6.494   2.925   4.375  2.1569 -1.1349 -0.3621
 2245TIP3    H2 6681   6.581   2.979   4.487 -0.0199  0.5021  0.6343
 2246TIP3   OH2 6682   2.087   6.147   4.483 -0.0515  0.0077 -0.1894
 2246TIP3    H1 6683   2.083   6.240   4.505  0.4876  0.6650 -2.6671
 2246TIP3    H2 6684   2.156   6.140   4.417 -1.5455 -1.7900 -1.6683
 2247TIP3   OH2 6685   0.679   5.931   2.751  0.0580 -0.0778  0.3146
 2247TIP3    H1 6686   0.590   5.964   2.739  0.5884  1.0728 -0.8176
 2247TIP3    H2 6687   0.718   5.989   2.816  0.6997  1.0487 -0.9931
 2248TIP3   OH2 6688   6.493   2.400   3.145  0.1404  0.3376 -0.8580
 2248TIP3    H1 6689   6.454   2.321   3.106  2.5176 -0.2853 -2.1610
 2248TIP3    H2 6690   6.549   2.366   3.215  0.2830  0.9838 -0.6539
 2249TIP3   OH2 6691   1.950   3.262   6.407 -0.5248 -0.1263  0.4325
 2249TIP3    H1 6692   1.884   3.241   6.474 -0.8121 -1.1856 -0.1539
 2249TIP3    H2 6693   1.994   3.178   6.391  0.1194  0.3040 -0.0931
 2250TIP3   OH2 6694   2.729   2.700   1.226  0.4087 -0.1613 -0.7220
 2250TIP3    H1 6695   2.777   2.746   1.295  1.4912 -2.1378 -0.0697
 2250TIP3    H2 6696   2.798   2.658   1.174 -0.5249 -1.3290 -1.0504
 2251TIP3   OH2 6697   2.025   5.343   6.034  0.4646 -0.1532 -0.4913
 2251TIP3    H1 6698   2.062   5.299   5.957  1.6173  0.4851 -0.3332
 2251TIP3    H2 6699   1.968   5.411   5.998  1.5234  0.5881 -0.8187
 2252TIP3   OH2 6700   2.131   7.306   6.162 -0.3697 -0.4460  0.4222
 2252TIP3    H1 6701   2.132   7.241   6.232 -3.3250 -0.7362  0.2982
 2252TIP3    H2 6702   2.093   7.384   6.202 -0.4479 -0.0388 -0.4227
 2253TIP3   OH2 6703   0.244   7.097   2.275  0.3269 -0.2422 -0.3032
 2253TIP3    H1 6704   0.294   7.028   2.319  1.6891  0.2273 -1.0572
 2253TIP3    H2 6705   0.216   7.155   2.346 -1.9388 -2.1795  0.4980
 2254TIP3   OH2 6706   0.938   1.624   1.158 -0.1920 -0.4003 -0.6897
 2254TIP3    H1 6707   0.916   1.579   1.077  0.3269  0.4519 -1.3152
 2254TIP3    H2 6708   1.017   1.580   1.190  0.3333  0.0789 -1.3150
 2255TIP3   OH2 6709   7.824   2.824   1.183 -0.8056  0.1513 -0.1657
 2255TIP3    H1 6710   7.833   2.883   1.258  0.6910 -0.6352  0.3342
 2255TIP3    H2 6711   7.836   2.880   1.106  0.0922  0.5957  0.2788
 2256TIP3   OH2 6712   4.704   3.751   4.163 -0.5308 -0.2900 -0.3459
 2256TIP3    H1 6713   4.628   3.695   4.149 -0.7956  0.0256 -0.1783
 2256TIP3    H2 6714   4.738   3.767   4.074  0.9451 -2.6010 -0.2818
 2257TIP3   OH2 6715   7.080   1.142   0.879  0.2328  0.3109 -0.2647
 2257TIP3    H1 6716   7.004   1.084   0.879 -0.1036  0.7292 -1.1537
 2257TIP3    H2 6717   7.128   1.119   0.799  1.5590 -0.5845  0.7530
 2258TIP3   OH2 6718   3.825   1.126   4.363  0.2956  0.0352  0.3973
 2258TIP3    H1 6719   3.885   1.062   4.324  0.8485  0.3097  0.7928
 2258TIP3    H2 6720   3.831   1.202   4.305 -0.0743 -0.1278  0.1414
 2259TIP3   OH2 6721   1.674   2.053   3.839  0.2614  0.0166  0.2690
 2259TIP3    H1 6722   1.678   1.991   3.912  1.1171  0.1831  0.3678
 2259TIP3    H2 6723   1.677   2.139   3.881  0.6737  0.1120  0.0454
 2260TIP3   OH2 6724   4.445   4.841   0.357  0.6716 -0.4770  0.1495
 2260TIP3    H1 6725   4.477   4.836   0.447  2.7408 -0.4412 -0.5428
 2260TIP3    H2 6726   4.386   4.766   0.349  0.7327 -0.6789  1.4300
 2261TIP3   OH2 6727   1.306   3.167   5.527  0.0028 -0.0629  0.3879
 2261TIP3    H1 6728   1.310   3.222   5.449  2.9656  0.4083  0.7570
 2261TIP3    H2 6729   1.350   3.086   5.503  2.6940  0.8026  1.9800
 2262TIP3   OH2 6730   5.607   4.736   0.859  0.6257  0.0559 -0.0161
 2262TIP3    H1 6731   5.538   4.679   0.892  1.5586 -0.6124  0.8464
 2262TIP3    H2 6732   5.589   4.743   0.765 -0.7477  0.1073  0.2291
 2263TIP3   OH2 6733   1.865   7.226   3.746 -0.1588 -0.0484 -0.3714
 2263TIP3    H1 6734   1.941   7.218   3.689  0.1394  1.0082 -0.1492
 2263TIP3    H2 6735   1.845   7.320   3.745 -1.5273 -0.3151 -0.5165
 2264TIP3   OH2 6736   2.701   3.041   3.535  0.1163 -0.3689 -0.4428
 2264TIP3    H1 6737   2.747   3.046   3.618 -1.2332 -0.9125  0.3686
 2264TIP3    H2 6738   2.713   2.950   3.506  1.0227 -0.0474 -1.1223
 2265TIP3   OH2 6739   1.293   3.045   4.856 -0.4572  0.4024 -0.1547
 2265TIP3    H1 6740   1.214   2.993   4.866 -0.8013  0.8977 -0.2923
 2265TIP3    H2 6741   1.356   3.004   4.916 -0.5215 -0.5468 -0.7127
 2266TIP3   OH2 6742   0.285   0.365   1.721 -0.2967 -0.1344 -0.2841
 2266TIP3    H1 6743   0.205   0.324   1.687  0.0918  0.5980 -2.2020
 2266TIP3    H2 6744   0.303   0.437   1.659  1.4395  0.1658  0.5238
 2267TIP3   OH2 6745   6.945   0.049   3.888 -0.9639 -0.0075 -0.0348
 2267TIP3    H1 6746   6.881   0.119   3.902  0.6496  1.4885  0.2758
 2267TIP3    H2 6747   7.003   0.083   3.820  1.3764  0.1329  1.8879
 2268TIP3   OH2 6748   5.949   2.589   3.971 -0.0922 -0.1230  0.0467
 2268TIP3    H1 6749   5.924   2.676   4.004 -0.8911  0.0653 -1.0022
 2268TIP3    H2 6750   6.005   2.607   3.896  0.1436 -0.5264  0.1256
 2269TIP3   OH2 6751   2.485   0.976   6.214  0.2910 -0.1596 -0.1993
 2269TIP3    H1 6752   2.438   1.022   6.283  0.4211  0.4611 -0.5100
 2269TIP3    H2 6753   2.493   0.886   6.245  0.6174  0.1816  0.7238
 2270TIP3   OH2 6754   0.792   6.285   3.500  0.4910  0.3010  0.4175
 2270TIP3    H1 6755   0.704   6.281   3.538  0.5251  1.2781  0.6180
 2270TIP3    H2 6756   0.778   6.295   3.406  0.3840  0.9927  0.5075
 2271TIP3   OH2 6757   7.222   4.596   5.668  0.4715  0.3980  0.3503
 2271TIP3    H1 6758   7.204   4.668   5.728  0.0860  0.3997  0.2377
 2271TIP3    H2 6759   7.150   4.599   5.604  0.6611  0.1547  0.1188
 2272TIP3   OH2 6760   6.329   5.216   2.095 -0.2618  0.4162 -0.1159
 2272TIP3    H1 6761   6.332   5.127   2.129  1.5541  0.3845 -0.2777
 2272TIP3    H2 6762   6.394   5.264   2.148 -0.0000  1.2169 -1.1412
 2273TIP3   OH2 6763   1.036   6.115   3.031  0.0492  0.3180 -0.1492
 2273TIP3    H1 6764   1.057   6.022   3.025 -0.0766  0.3673 -2.1563
 2273TIP3    H2 6765   1.121   6.159   3.025  0.5964  0.4031  4.4779
 2274TIP3   OH2 6766   7.703   0.361   4.878  0.1188 -0.1667 -0.0917
 2274TIP3    H1 6767   7.697   0.431   4.942 -0.4530 -2.0213  1.9941
 2274TIP3    H2 6768   7.647   0.292   4.912  1.0937 -1.8901 -1.7620
 2275TIP3   OH2 6769   4.552   2.611   0.689 -0.4318  0.4016 -0.3003
 2275TIP3    H1 6770   4.531   2.588   0.779  0.6775  3.2624  0.8082
 2275TIP3    H2 6771   4.621   2.550   0.664  1.3387  1.3306  1.9110
 2276TIP3   OH2 6772   8.225   5.533   6.043  0.7727  0.1849  0.0410
 2276TIP3    H1 6773   8.305   5.495   6.079  0.0615 -0.5924  0.8632
 2276TIP3    H2 6774   8.213   5.614   6.092  0.3739 -0.3485  0.8596
 2277TIP3   OH2 6775   1.384   6.557   2.136  0.5123  0.7245  0.4690
 2277TIP3    H1 6776   1.432   6.498   2.077 -0.8550 -1.2725  1.2336
 2277TIP3    H2 6777   1.362   6.633   2.081 -0.2356 -0.8052 -1.4842
 2278TIP3   OH2 6778   5.364   6.187   3.668 -0.3505  0.1141 -0.3245
 2278TIP3    H1 6779   5.460   6.184   3.678 -0.4692 -0.7543  0.8380
 2278TIP3    H2 6780   5.350   6.240   3.590  1.1316 -0.6846 -1.1970
 2279TIP3   OH2 6781   6.441   5.651   1.285  0.5252  0.0913 -0.0280
 2279TIP3    H1 6782   6.462   5.735   1.245  0.9478 -0.5970 -1.3319
 2279TIP3    H2 6783   6.522   5.624   1.330  0.6481  0.0234 -0.2872
 2280TIP3   OH2 6784   7.242   6.016   4.793  0.5071 -0.2508 -0.5136
 2280TIP3    H1 6785   7.229   5.940   4.851  0.3373 -0.5987 -1.0066
 2280TIP3    H2 6786   7.215   6.091   4.846 -2.5345 -0.8194 -1.1055
 2281TIP3   OH2 6787   7.963   0.042   1.847 -0.2408  0.7593  0.0038
 2281TIP3    H1 6788   7.894   0.062   1.784 -1.0680 -0.5589  0.4453
 2281TIP3    H2 6789   7.918  -0.006   1.917  1.1859 -0.5223  0.0869
 2282TIP3   OH2 6790   5.169   6.122   4.126  0.2945 -0.3409 -0.1963
 2282TIP3    H1 6791   5.206   6.119   4.037 -1.2017 -0.1029 -0.8597
 2282TIP3    H2 6792   5.086   6.169   4.115  0.2424 -0.0271  1.3950
 2283TIP3   OH2 6793   3.204   2.386   6.598  0.2111 -0.3090 -0.2380
 2283TIP3    H1 6794   3.160   2.471   6.599 -0.3987 -0.5730 -1.8230
 2283TIP3    H2 6795   3.295   2.406   6.577  0.0977 -0.0285 -0.4655
 2284TIP3   OH2 6796   7.037   6.657   1.100  0.0301 -0.1455 -0.0560
 2284TIP3    H1 6797   7.007   6.740   1.062  2.0251  1.3810  1.4521
 2284TIP3    H2 6798   7.131   6.657   1.084  0.3379 -1.2240  1.5606
 2285TIP3   OH2 6799   1.644   6.222   3.057  0.1305  0.3897 -0.0119
 2285TIP3    H1 6800   1.572   6.216   2.993  0.9482  1.4186 -1.0823
 2285TIP3    H2 6801   1.669   6.314   3.056  1.2392  0.1138  0.6098
 2286TIP3   OH2 6802   4.070   7.737   6.240  0.2129  0.2339 -0.5170
 2286TIP3    H1 6803   4.049   7.707   6.152  1.0207 -1.3169 -0.2173
 2286TIP3    H2 6804   4.140   7.678   6.270 -1.1316 -0.3403  1.7556
 2287TIP3   OH2 6805   5.939   2.153   2.395 -0.4908  0.2544  0.0845
 2287TIP3    H1 6806   6.030   2.181   2.389  0.2567 -2.0282 -0.3868
 2287TIP3    H2 6807   5.896   2.194   2.320  0.1997  1.1499  0.1634
 2288TIP3   OH2 6808   5.304   4.471   5.670  0.3413  1.1296  0.5506
 2288TIP3    H1 6809   5.299   4.393   5.725  1.5326  0.2270 -0.5492
 2288TIP3    H2 6810   5.233   4.461   5.607  2.6371 -1.0804 -1.9627
 2289TIP3   OH2 6811   2.412   6.528   6.284 -0.4172 -0.1109  0.6238
 2289TIP3    H1 6812   2.341   6.522   6.220  0.9554  0.3794 -1.0072
 2289TIP3    H2 6813   2.464   6.449   6.269 -0.8850 -0.7573  2.2026
 2290TIP3   OH2 6814   4.802   2.842   4.517  0.0346  0.1919  0.0431
 2290TIP3    H1 6815   4.871   2.907   4.512  0.7030 -0.5730 -1.7004
 2290TIP3    H2 6816   4.848   2.759   4.527 -0.5845 -0.3508 -1.3548
 2291TIP3   OH2 6817   0.161   7.016   2.927 -0.1269 -0.2268  0.0965
 2291TIP3    H1 6818   0.118   6.947   2.875 -1.4319  0.3174  0.4120
 2291TIP3    H2 6819   0.241   7.036   2.878 -0.1485 -1.3756 -0.4438
 2292TIP3   OH2 6820   4.727   1.851   3.953  0.5191  0.1272  0.1693
 2292TIP3    H1 6821   4.697   1.838   4.043  2.9763  2.2808  1.4352
 2292TIP3    H2 6822   4.820   1.830   3.955  1.0889  2.1561 -1.3383
 2293TIP3   OH2 6823   1.049   5.013   2.070 -0.7799 -0.0645 -0.2836
 2293TIP3    H1 6824   0.988   4.952   2.029 -0.3030 -0.4355 -0.4539
 2293TIP3    H2 6825   1.083   5.066   1.998 -0.1399 -0.5417 -0.3428
 2294TIP3   OH2 6826   5.149   1.820   3.052 -0.3190  0.7755  0.2342
 2294TIP3    H1 6827   5.218   1.886   3.055 -0.2358  0.6729  1.9185
 2294TIP3    H2 6828   5.181   1.749   3.108 -0.7641 -0.3532 -0.8883
 2295TIP3   OH2 6829   5.392   4.266   0.243 -0.0959 -0.2662 -0.2110
 2295TIP3    H1 6830   5.418   4.355   0.221 -2.3536  0.3299 -0.7027
 2295TIP3    H2 6831   5.471   4.227   0.282  1.6258  1.2005 -1.9955
 2296TIP3   OH2 6832   2.145   2.032   2.647 -0.4523 -0.3562 -0.1275
 2296TIP3    H1 6833   2.135   2.007   2.739 -2.2353  0.9575  0.0731
 2296TIP3    H2 6834   2.177   1.953   2.605 -0.3454 -1.2173  1.4776
 2297TIP3   OH2 6835   1.059   1.541   4.089  0.5947 -0.1202 -0.1209
 2297TIP3    H1 6836   0.992   1.586   4.141  0.5181 -1.3413  0.9016
 2297TIP3    H2 6837   1.120   1.609   4.065  0.6739  0.5102  1.6852
 2298TIP3   OH2 6838   3.279   0.222   1.243 -0.0527 -0.5767 -0.4196
 2298TIP3    H1 6839   3.364   0.220   1.287  0.6417 -0.1188 -1.6986
 2298TIP3    H2 6840   3.259   0.130   1.224 -0.3699 -0.7851  0.8208
 2299TIP3   OH2 6841   3.340   4.193   1.078 -0.3599  0.4343 -0.2019
 2299TIP3    H1 6842   3.378   4.243   1.150 -1.2305 -1.7632  1.9406
 2299TIP3    H2 6843   3.416   4.159   1.030  0.4383 -1.1392  2.0062
 2300TIP3   OH2 6844   4.943   3.430   6.117 -0.2612 -0.2214 -0.0230
 2300TIP3    H1 6845   4.969   3.373   6.045  0.3377 -0.2632  0.2252
 2300TIP3    H2 6846   4.896   3.372   6.177 -0.3757 -0.2766 -0.1634
 2301TIP3   OH2 6847   1.456   1.186   5.180  0.0081 -0.0439 -0.0136
 2301TIP3    H1 6848   1.473   1.094   5.161  1.0135  0.4866 -2.0900
 2301TIP3    H2 6849   1.403   1.186   5.259 -1.2331 -2.4608 -0.7651
 2302TIP3   OH2 6850   4.139   7.263   4.941 -0.1775  0.0673  0.0945
 2302TIP3    H1 6851   4.227   7.228   4.953 -1.0500 -1.9566  1.0719
 2302TIP3    H2 6852   4.144   7.312   4.859  1.1693 -2.5110 -1.5061
 2303TIP3   OH2 6853   0.316   1.970   3.331  0.3554 -0.4940  0.7718
 2303TIP3    H1 6854   0.221   1.961   3.333  0.4215 -1.2596  0.8991
 2303TIP3    H2 6855   0.348   1.899   3.387  1.1228 -2.5088 -1.9610
 2304TIP3   OH2 6856   2.699   1.056   4.305  0.3956  0.4174 -0.2217
 2304TIP3    H1 6857   2.673   1.141   4.342  0.1584 -0.1687  1.0023
 2304TIP3    H2 6858   2.776   1.076   4.252  0.7210  1.3145  0.5580
 2305TIP3   OH2 6859   2.371   6.912   5.382  0.5585  0.4171 -0.3005
 2305TIP3    H1 6860   2.375   6.975   5.309 -0.3769  2.0736  1.0066
 2305TIP3    H2 6861   2.451   6.929   5.432  0.8350 -0.2168 -0.5091
 2306TIP3   OH2 6862   0.085   5.354   6.211 -0.1559  0.2473  0.1109
 2306TIP3    H1 6863   0.161   5.400   6.176 -1.1002  1.3355 -0.5567
 2306TIP3    H2 6864   0.120   5.269   6.240  1.3565  0.8457  0.1115
 2307TIP3   OH2 6865   6.355   6.216   6.612  0.0762 -0.1507 -0.2443
 2307TIP3    H1 6866   6.301   6.192   6.536 -1.4770  0.6313  0.5757
 2307TIP3    H2 6867   6.354   6.311   6.613  0.8393 -0.1349  0.2633
 2308TIP3   OH2 6868   3.668   7.118   2.398 -0.5423 -0.2007 -0.4362
 2308TIP3    H1 6869   3.597   7.058   2.422  0.9644 -2.0936 -0.4393
 2308TIP3    H2 6870   3.660   7.129   2.303 -0.7952 -0.4763 -0.4478
 2309TIP3   OH2 6871   6.476   5.101   4.555 -0.4776  0.2798  0.6332
 2309TIP3    H1 6872   6.567   5.073   4.542 -0.3901  0.5500  0.6473
 2309TIP3    H2 6873   6.476   5.194   4.530 -0.4004  0.7088  2.1553
 2310TIP3   OH2 6874   0.238   3.270   4.089  0.5972 -0.3154 -0.0448
 2310TIP3    H1 6875   0.195   3.225   4.162  0.0360 -0.4285 -0.4494
 2310TIP3    H2 6876   0.233   3.363   4.112 -0.1742 -0.3016 -0.2614
 2311TIP3   OH2 6877   8.117   5.648   2.376 -0.1538 -0.2506 -0.0646
 2311TIP3    H1 6878   8.128   5.611   2.289 -1.8323  0.2332 -0.5198
 2311TIP3    H2 6879   8.115   5.743   2.363 -1.4335 -0.1992  0.3365
 2312TIP3   OH2 6880   2.390   4.649   3.066 -0.1732  0.1683 -0.3990
 2312TIP3    H1 6881   2.457   4.704   3.106 -0.0300 -0.5839  0.4398
 2312TIP3    H2 6882   2.364   4.588   3.136  1.2318 -2.2770 -1.8718
 2313TIP3   OH2 6883   4.648   7.639   1.818  0.5266 -0.0637  0.0065
 2313TIP3    H1 6884   4.660   7.553   1.857 -1.8599 -1.4015 -1.9207
 2313TIP3    H2 6885   4.608   7.692   1.887  1.5239 -0.6186  1.0372
 2314TIP3   OH2 6886   4.604   2.677   4.269 -0.3339 -0.4733  0.1678
 2314TIP3    H1 6887   4.588   2.601   4.325  0.9880  0.2895  1.6603
 2314TIP3    H2 6888   4.562   2.750   4.315  1.2377  0.2627  0.5364
 2315TIP3   OH2 6889   0.803   0.143   1.458  0.5386  1.0187 -0.2786
 2315TIP3    H1 6890   0.766   0.206   1.520 -1.5865  0.2685 -0.7135
 2315TIP3    H2 6891   0.753   0.063   1.472  0.1429  0.7419 -2.7617
 2316TIP3   OH2 6892   2.008   1.274   3.118  0.1199 -0.1040 -0.0441
 2316TIP3    H1 6893   2.019   1.365   3.145  2.5585 -0.1157 -0.7536
 2316TIP3    H2 6894   2.032   1.222   3.195 -0.1918 -0.1552  0.0207
 2317TIP3   OH2 6895   7.968   7.726   0.330 -0.0573 -0.6670  0.1066
 2317TIP3    H1 6896   7.935   7.811   0.302 -1.5675 -1.2701 -0.0255
 2317TIP3    H2 6897   8.063   7.739   0.336 -0.0020  0.4464 -1.9437
 2318TIP3   OH2 6898   2.069   7.251   0.429  0.4938  0.0569 -0.3281
 2318TIP3    H1 6899   2.129   7.177   0.427  0.8030  0.2888  0.1780
 2318TIP3    H2 6900   1.983   7.211   0.443  0.5435 -0.2622 -0.9061
 2319TIP3   OH2 6901   3.220   5.345   0.577  0.1965 -0.4991  0.2541
 2319TIP3    H1 6902   3.267   5.328   0.659  1.1631 -0.3877 -0.2599
 2319TIP3    H2 6903   3.183   5.260   0.553 -0.0322 -0.5500  0.7649
 2320TIP3   OH2 6904   1.874   5.039   4.655 -0.1785  0.5548 -0.5625
 2320TIP3    H1 6905   1.784   5.040   4.688  0.5506 -0.0368  1.6050
 2320TIP3    H2 6906   1.878   4.959   4.603 -1.5429  1.8514 -2.8323
 2321TIP3   OH2 6907   5.658   7.142   1.496 -0.3942 -0.0254 -0.2646
 2321TIP3    H1 6908   5.683   7.097   1.577  0.8421 -0.5431 -0.9100
 2321TIP3    H2 6909   5.577   7.188   1.518  0.4650  0.6901  1.5677
 2322TIP3   OH2 6910   6.824   1.693   6.563  0.3088 -0.2484 -0.5284
 2322TIP3    H1 6911   6.849   1.731   6.647  2.2792 -1.4670 -0.4870
 2322TIP3    H2 6912   6.730   1.712   6.555  0.3543  1.0628  1.2902
 2323TIP3   OH2 6913   6.988   7.112   0.387  0.0237 -0.0293  0.4082
 2323TIP3    H1 6914   6.950   7.190   0.346  0.0069 -0.2375  0.0260
 2323TIP3    H2 6915   7.070   7.142   0.425  1.1831 -0.2946 -1.7362
 2324TIP3   OH2 6916   3.784   1.524   1.563  0.1846 -1.2585  0.5542
 2324TIP3    H1 6917   3.797   1.452   1.625 -0.6914 -1.6017  0.3676
 2324TIP3    H2 6918   3.690   1.520   1.542  0.2532 -0.4521  0.0612
 2325TIP3   OH2 6919   3.508   0.488   0.633 -0.0810  0.2809 -0.0732
 2325TIP3    H1 6920   3.469   0.414   0.679  1.2493  0.4325  1.4016
 2325TIP3    H2 6921   3.434   0.546   0.614 -1.4916 -2.2247 -3.0871
 2326TIP3   OH2 6922   2.517   3.320   3.669 -0.5667  0.4822 -0.5251
 2326TIP3    H1 6923   2.496   3.326   3.576 -1.0045 -0.9296 -0.5393
 2326TIP3    H2 6924   2.433   3.306   3.712 -0.2826  0.3489  0.0007
 2327TIP3   OH2 6925   7.780   3.391   5.380  0.1234  0.1741  0.0887
 2327TIP3    H1 6926   7.860   3.418   5.425  0.6257  0.8946 -1.1522
 2327TIP3    H2 6927   7.799   3.303   5.347  1.8682  1.5994 -3.2240
 2328TIP3   OH2 6928   1.474   2.063   6.413  0.0606 -0.3038  0.1956
 2328TIP3    H1 6929   1.471   2.067   6.508 -0.3034 -0.2196  0.1818
 2328TIP3    H2 6930   1.493   1.971   6.393 -2.0231 -0.8116  0.3091
 2329TIP3   OH2 6931   1.603   6.069   4.539 -0.1763  0.5930 -0.2893
 2329TIP3    H1 6932   1.668   6.136   4.516  1.5693  0.6657  4.0278
 2329TIP3    H2 6933   1.653   5.987   4.542  0.1405  0.7293  3.5990
 2330TIP3   OH2 6934   7.528   0.897   0.320 -0.1131 -0.2653 -0.5673
 2330TIP3    H1 6935   7.590   0.936   0.382  0.2503 -0.2760 -0.9193
 2330TIP3    H2 6936   7.574   0.899   0.236 -0.1960 -1.2207 -0.6401
 2331TIP3   OH2 6937   7.055   0.382   6.672  0.0894 -0.4402 -0.5583
 2331TIP3    H1 6938   6.974   0.431   6.685  0.0476 -1.1642  2.9134
 2331TIP3    H2 6939   7.110   0.440   6.620 -1.7605  1.1379 -0.8711
 2332TIP3   OH2 6940   1.933   7.646   1.485 -0.2565  0.0463 -0.1898
 2332TIP3    H1 6941   1.951   7.728   1.531 -0.7210  0.4472 -0.7158
 2332TIP3    H2 6942   1.838   7.641   1.480 -0.2643 -1.0343  0.7286
 2333TIP3   OH2 6943   4.038   6.781   2.876 -0.1493  0.0203 -0.0269
 2333TIP3    H1 6944   4.009   6.788   2.967 -1.3361 -0.1125 -0.3831
 2333TIP3    H2 6945   3.959   6.756   2.827  0.6090 -0.5584 -0.9989
 2334TIP3   OH2 6946   7.679   1.638   2.815  0.3514 -0.1969  1.0628
 2334TIP3    H1 6947   7.737   1.687   2.756  2.3182 -2.4298  1.0025
 2334TIP3    H2 6948   7.738   1.601   2.881 -1.2941 -1.0173  2.1356
 2335TIP3   OH2 6949   3.919   5.678   5.283 -0.1698 -0.3988  0.3078
 2335TIP3    H1 6950   3.980   5.693   5.356  0.6398  2.1169 -0.7638
 2335TIP3    H2 6951   3.955   5.603   5.236  0.6716 -0.5179  1.1173
 2336TIP3   OH2 6952   3.207   0.240   0.519  0.3529 -0.6192 -0.2879
 2336TIP3    H1 6953   3.143   0.231   0.449 -1.2972  0.2953  1.0320
 2336TIP3    H2 6954   3.292   0.222   0.477 -0.6152 -0.5177 -2.3851
 2337TIP3   OH2 6955   1.552   6.369   6.297  0.0120  0.3812 -0.4862
 2337TIP3    H1 6956   1.606   6.297   6.328 -0.2800  0.8544  1.2327
 2337TIP3    H2 6957   1.609   6.445   6.301  0.0027  0.4360 -1.2646
 2338TIP3   OH2 6958   0.703   4.946   0.509  0.4611 -0.3206  0.0439
 2338TIP3    H1 6959   0.654   4.910   0.584  1.3119 -0.1466  0.6964
 2338TIP3    H2 6960   0.665   5.033   0.496  0.6023 -0.1755  0.5658
 2339TIP3   OH2 6961   2.039   1.408   2.105  0.2142 -0.2412  0.1264
 2339TIP3    H1 6962   2.107   1.453   2.055 -0.1593 -1.2577 -1.3663
 2339TIP3    H2 6963   2.074   1.320   2.119 -0.7519 -0.7675 -0.6342
 2340TIP3   OH2 6964   2.900   0.255   6.455  0.0363 -0.2311  0.1008
 2340TIP3    H1 6965   2.927   0.307   6.379 -1.3853 -0.9657 -0.9539
 2340TIP3    H2 6966   2.981   0.215   6.487  0.5304 -0.7257 -1.6709
 2341TIP3   OH2 6967   4.426   4.411   4.265  0.1126  1.1189  1.2004
 2341TIP3    H1 6968   4.411   4.341   4.201  3.7514  1.9955 -0.8748
 2341TIP3    H2 6969   4.435   4.366   4.348  3.1718 -1.1451 -0.1742
 2342TIP3   OH2 6970   1.174   0.043   5.016  0.5958 -0.1231  0.3874
 2342TIP3    H1 6971   1.259   0.026   4.975 -1.2963 -2.2095 -3.0889
 2342TIP3    H2 6972   1.142  -0.043   5.042 -1.8380  0.0681 -1.5726
 2343TIP3   OH2 6973   4.272   0.753   5.752  0.0596 -0.0951 -0.3892
 2343TIP3    H1 6974   4.274   0.658   5.739 -0.3652 -0.3106  0.9708
 2343TIP3    H2 6975   4.247   0.764   5.843  1.2414  1.3182 -0.2015
 2344TIP3   OH2 6976   0.061   2.252   4.040 -0.3447 -0.0789  0.5635
 2344TIP3    H1 6977   0.154   2.238   4.026 -0.4701 -0.4417  0.0704
 2344TIP3    H2 6978   0.022   2.247   3.952 -0.8435 -0.0692  0.7792
 2345TIP3   OH2 6979   3.567   6.129   6.177  0.2779 -0.1517 -0.1138
 2345TIP3    H1 6980   3.542   6.184   6.251 -0.8281 -1.1172  0.2732
 2345TIP3    H2 6981   3.646   6.083   6.206 -0.4817 -0.9725  0.7311
 2346TIP3   OH2 6982   7.817   1.200   4.529 -0.4065 -0.2551  0.0459
 2346TIP3    H1 6983   7.887   1.243   4.481 -0.8335 -0.6094 -0.9104
 2346TIP3    H2 6984   7.861   1.134   4.583 -0.0052 -0.5285 -0.6059
 2347TIP3   OH2 6985   7.314   1.267   5.492  0.3899  0.4663 -0.0175
 2347TIP3    H1 6986   7.236   1.322   5.500  0.4591  0.6007 -0.2479
 2347TIP3    H2 6987   7.351   1.264   5.580  0.1357  0.4201  0.0870
 2348TIP3   OH2 6988   2.935   2.402   3.762  0.2209 -0.2432 -0.2981
 2348TIP3    H1 6989   3.001   2.471   3.775  0.6340 -0.4213 -1.3890
 2348TIP3    H2 6990   2.977   2.324   3.797  0.3710 -0.2458 -0.4808
 2349TIP3   OH2 6991   6.957   1.677   2.700  0.0162 -0.2506 -0.1159
 2349TIP3    H1 6992   7.050   1.700   2.702 -0.2003  1.0158 -2.2872
 2349TIP3    H2 6993   6.937   1.662   2.607 -2.4082  1.5307  0.0291
 2350TIP3   OH2 6994   6.017   0.522   0.715 -0.9070  0.3728  0.3227
 2350TIP3    H1 6995   6.001   0.442   0.665 -0.1435  0.5043 -0.1478
 2350TIP3    H2 6996   5.977   0.591   0.662 -1.7058  0.2848  0.8078
 2351TIP3   OH2 6997   3.497   4.541   6.428 -1.0760 -0.2898 -0.5830
 2351TIP3    H1 6998   3.425   4.565   6.486 -0.4508 -0.7327  0.4127
 2351TIP3    H2 6999   3.553   4.486   6.482 -0.5363 -0.8308 -1.6628
 2352TIP3   OH2 7000   2.261   3.016   5.608  0.2556 -0.2290  0.0764
 2352TIP3    H1 7001   2.179   3.042   5.565 -1.4668 -1.4935  2.3680
 2352TIP3    H2 7002   2.329   3.037   5.544 -2.0174 -1.1872 -2.8699
 2353TIP3   OH2 7003   7.242   6.175  -0.033 -0.1787  0.1268 -0.2384
 2353TIP3    H1 7004   7.285   6.100   0.008  0.4058 -0.3882 -1.7138
 2353TIP3    H2 7005   7.222   6.234   0.039 -0.0500 -1.1583  0.8740
 2354TIP3   OH2 7006   1.099   0.126   4.592  0.2848 -0.7425  0.1006
 2354TIP3    H1 7007   1.043   0.069   4.645 -0.2134  0.2004  0.6129
 2354TIP3    H2 7008   1.055   0.211   4.593  0.2090 -0.7091 -1.9170
 2355TIP3   OH2 7009   4.543   2.770   5.726 -0.7343 -0.3226  0.3959
 2355TIP3    H1 7010   4.619   2.828   5.724 -1.7034  1.0121 -1.8590
 2355TIP3    H2 7011   4.468   2.828   5.722 -1.8030 -1.6804 -0.2931
 2356TIP3   OH2 7012   1.597   7.012   4.750  0.4013  0.4401 -0.4276
 2356TIP3    H1 7013   1.658   6.968   4.808 -0.0704 -0.8459 -0.8503
 2356TIP3    H2 7014   1.597   7.103   4.778 -1.0127 -0.3954  2.6500
 2357TIP3   OH2 7015   4.796   2.091   3.034  0.4793 -0.4374 -0.1522
 2357TIP3    H1 7016   4.886   2.097   3.001  1.0666 -1.2873  1.1828
 2357TIP3    H2 7017   4.792   2.153   3.106 -0.0662 -0.2749 -0.3157
 2358TIP3   OH2 7018   0.843   6.399   2.288  0.0385  0.1770  0.1224
 2358TIP3    H1 7019   0.750   6.393   2.268  0.1053  0.5464 -0.3269
 2358TIP3    H2 7020   0.867   6.311   2.318 -0.1743 -0.2873 -1.0168
 2359TIP3   OH2 7021   0.845   4.720   5.757  0.0905  0.1668 -0.7707
 2359TIP3    H1 7022   0.927   4.742   5.801 -0.4922 -0.7610  0.8568
 2359TIP3    H2 7023   0.871   4.699   5.668  1.9927 -2.2599  0.2307
 2360TIP3   OH2 7024   0.693   6.925   1.216  0.1765 -0.1120 -0.1644
 2360TIP3    H1 7025   0.694   6.879   1.300  0.3527 -0.4073 -0.3241
 2360TIP3    H2 7026   0.785   6.922   1.187  0.6764  2.3900  0.9172
 2361TIP3   OH2 7027   3.347   2.221   3.211  0.2002  0.3279  0.5493
 2361TIP3    H1 7028   3.402   2.144   3.220  0.6428  0.4722 -0.7523
 2361TIP3    H2 7029   3.399   2.292   3.248 -0.6205 -0.1167  2.7264
 2362TIP3   OH2 7030   4.724   6.139   1.654  0.0809  0.6678 -0.0415
 2362TIP3    H1 7031   4.710   6.233   1.643  1.0008  1.1137  2.0462
 2362TIP3    H2 7032   4.811   6.132   1.693 -0.1425 -1.0299  0.2234
 2363TIP3   OH2 7033   7.857   3.514   1.222 -0.0969  0.3845 -0.7085
 2363TIP3    H1 7034   7.909   3.564   1.285  1.4195 -1.0301 -0.7544
 2363TIP3    H2 7035   7.821   3.580   1.163  1.4589  1.4648 -0.5073
 2364TIP3   OH2 7036   3.395   5.299   1.118  0.0578  0.8313  0.3223
 2364TIP3    H1 7037   3.447   5.219   1.131 -0.6401  0.3407  0.1674
 2364TIP3    H2 7038   3.376   5.300   1.024 -0.3695  0.9065  0.4081
 2365TIP3   OH2 7039   7.369   0.315   1.044  0.0644  0.2182  0.2492
 2365TIP3    H1 7040   7.277   0.340   1.042  0.1610  0.6780  1.2682
 2365TIP3    H2 7041   7.409   0.369   0.976 -0.6278 -0.9549 -1.1534
 2366TIP3   OH2 7042   1.316   0.838   5.522 -0.1014 -0.1774 -0.2955
 2366TIP3    H1 7043   1.243   0.776   5.518  0.5813 -0.9446 -1.0929
 2366TIP3    H2 7044   1.387   0.789   5.563 -0.6369  1.2267  2.5648
 2367TIP3   OH2 7045   2.068   6.957   6.748  0.8790  0.1261 -0.2309
 2367TIP3    H1 7046   2.110   7.014   6.684  0.1868 -0.4365 -1.2105
 2367TIP3    H2 7047   2.099   6.990   6.833  1.0249  1.5215 -0.7919
 2368TIP3   OH2 7048   0.373   5.484   2.334  0.7661 -0.3202  0.0999
 2368TIP3    H1 7049   0.294   5.509   2.285  0.7632  1.1625  0.8076
 2368TIP3    H2 7050   0.343   5.417   2.395  0.0582  0.1627  0.2967
 2369TIP3   OH2 7051   4.197   1.128   4.928 -0.7873  0.1015  0.4948
 2369TIP3    H1 7052   4.221   1.079   5.007 -0.4829 -1.2387 -0.3950
 2369TIP3    H2 7053   4.203   1.064   4.857  1.4658  1.8360 -1.0366
 2370TIP3   OH2 7054   7.177   5.744   1.105  0.3643 -0.6935  0.3888
 2370TIP3    H1 7055   7.170   5.798   1.026 -1.5836 -1.0043  0.2905
 2370TIP3    H2 7056   7.220   5.663   1.076 -2.4304 -1.8171 -0.9940
 2371TIP3   OH2 7057   2.684   7.767   0.504  0.0521  0.0631  0.8149
 2371TIP3    H1 7058   2.711   7.857   0.486 -1.2697  0.0644 -1.5168
 2371TIP3    H2 7059   2.756   7.713   0.473 -0.2082  0.2518 -0.1433
 2372TIP3   OH2 7060   1.415   6.456   6.737  0.0621 -0.4036 -0.1715
 2372TIP3    H1 7061   1.401   6.479   6.645  0.0910  0.2222 -0.0221
 2372TIP3    H2 7062   1.459   6.371   6.733 -1.5081 -1.2470 -0.7004
 2373TIP3   OH2 7063   6.576   3.523   0.466 -0.0175  0.4301  0.2492
 2373TIP3    H1 7064   6.606   3.471   0.540 -0.5016 -0.5305 -0.2124
 2373TIP3    H2 7065   6.602   3.613   0.487  1.4269 -0.0868  0.7553
 2374TIP3   OH2 7066   8.053   2.202   5.094  0.0570  0.2146 -0.1235
 2374TIP3    H1 7067   8.144   2.232   5.088  0.4228 -0.7835  0.2752
 2374TIP3    H2 7068   8.058   2.107   5.085 -1.0284  0.2146 -0.8590
 2375TIP3   OH2 7069   4.515   1.865   3.629  0.4017 -0.6490  0.1784
 2375TIP3    H1 7070   4.421   1.885   3.634  0.0486 -1.1287 -2.6686
 2375TIP3    H2 7071   4.557   1.949   3.614  0.4586 -0.4145  1.6057
 2376TIP3   OH2 7072   4.474   3.116   3.638 -0.2409 -0.4828 -0.2015
 2376TIP3    H1 7073   4.484   3.137   3.731  1.7384  0.9305 -0.6784
 2376TIP3    H2 7074   4.407   3.178   3.608  0.2438  0.1422 -0.0253
 2377TIP3   OH2 7075   1.585   0.235   2.809 -0.4590  0.3535 -0.1290
 2377TIP3    H1 7076   1.515   0.179   2.774 -0.3984 -0.0713  0.4068
 2377TIP3    H2 7077   1.625   0.182   2.879  0.3962  0.5911 -0.4292
 2378TIP3   OH2 7078   2.077   6.868   4.054  0.0803 -0.1244 -0.3915
 2378TIP3    H1 7079   2.147   6.928   4.030  0.2088  1.5359  3.3959
 2378TIP3    H2 7080   2.005   6.925   4.081 -1.0479 -1.7281  0.1367
 2379TIP3   OH2 7081   3.884   4.023   5.124 -0.5230  0.1558  0.1970
 2379TIP3    H1 7082   3.841   4.085   5.066  1.3533  1.5927  0.2399
 2379TIP3    H2 7083   3.882   3.940   5.076 -0.3431  0.9586 -1.2651
 2380TIP3   OH2 7084   4.257   0.884   4.197  0.3285 -0.0073 -0.3301
 2380TIP3    H1 7085   4.250   0.978   4.216 -1.3407 -0.2720  0.5292
 2380TIP3    H2 7086   4.168   0.858   4.171 -0.0274 -1.9591  2.4786
 2381TIP3   OH2 7087   7.433   4.422   3.192  0.2584  0.2908 -0.3691
 2381TIP3    H1 7088   7.423   4.380   3.277 -1.9774  2.3470  0.5143
 2381TIP3    H2 7089   7.345   4.420   3.153  0.8032  1.1220 -1.7476
 2382TIP3   OH2 7090   5.016   2.574   0.109  0.1616  0.1068  0.2597
 2382TIP3    H1 7091   4.959   2.497   0.104 -0.6581  0.7190 -0.1004
 2382TIP3    H2 7092   5.104   2.538   0.117 -0.0666 -0.9003 -1.3105
 2383TIP3   OH2 7093   6.364   3.416   5.882 -0.3029 -0.0308  0.0913
 2383TIP3    H1 7094   6.345   3.508   5.863  0.9474  0.2597  0.1165
 2383TIP3    H2 7095   6.291   3.386   5.935 -1.5409  0.4830 -1.2539
 2384TIP3   OH2 7096   1.975   4.519   1.103  0.2418 -0.1291 -0.1687
 2384TIP3    H1 7097   1.984   4.611   1.129  0.1364 -0.3608  0.7447
 2384TIP3    H2 7098   1.924   4.521   1.022  0.3440  0.6231 -0.2229
 2385TIP3   OH2 7099   6.621   4.267   6.157  0.0281 -0.2292  0.0110
 2385TIP3    H1 7100   6.597   4.210   6.084 -2.3354 -0.3867  0.8249
 2385TIP3    H2 7101   6.613   4.356   6.121 -0.0997 -0.3215 -0.1882
 2386TIP3   OH2 7102   3.653   4.137   0.807  0.2501 -0.6231 -0.3174
 2386TIP3    H1 7103   3.642   4.196   0.881  3.3788 -0.8365  0.4475
 2386TIP3    H2 7104   3.697   4.189   0.740 -0.0608 -1.1695 -0.9607
 2387TIP3   OH2 7105   4.034   0.669   3.537  0.3062  0.5472 -0.1732
 2387TIP3    H1 7106   4.017   0.639   3.448  0.6753  1.3464 -0.5273
 2387TIP3    H2 7107   3.948   0.693   3.572 -0.1410 -1.8236  0.4878
 2388TIP3   OH2 7108   0.230   7.232   5.888  0.0097 -0.5596  0.3424
 2388TIP3    H1 7109   0.312   7.259   5.848 -1.9565  2.7609 -1.9858
 2388TIP3    H2 7110   0.218   7.292   5.962 -0.3762 -0.8387  0.5106
 2389TIP3   OH2 7111   6.713   3.166   6.178 -0.5335  0.1964 -1.2791
 2389TIP3    H1 7112   6.766   3.229   6.227 -0.3210 -0.2265 -0.9557
 2389TIP3    H2 7113   6.769   3.137   6.107 -0.1942 -0.4896 -0.7536
 2390TIP3   OH2 7114   2.556   0.697   5.350 -0.0122 -0.3392 -0.2979
 2390TIP3    H1 7115   2.586   0.624   5.295 -1.2528  1.4096 -3.5749
 2390TIP3    H2 7116   2.472   0.722   5.313 -0.1413  2.0732  1.4181
 2391TIP3   OH2 7117   7.953   0.318   2.599 -0.4473 -0.5850  0.2041
 2391TIP3    H1 7118   7.942   0.277   2.513  2.9695  2.4342 -1.9602
 2391TIP3    H2 7119   7.899   0.397   2.595  1.1660  0.5527 -0.0259
 2392TIP3   OH2 7120   7.034   3.431   6.086  0.7026  0.0783 -0.3970
 2392TIP3    H1 7121   7.095   3.491   6.042  1.1352 -0.7806 -1.0010
 2392TIP3    H2 7122   6.993   3.383   6.014  0.1123 -0.1248  0.0677
 2393TIP3   OH2 7123   7.289   4.625   4.701  0.3782  0.3913  0.4013
 2393TIP3    H1 7124   7.269   4.532   4.690 -1.2231  0.8108 -0.5238
 2393TIP3    H2 7125   7.365   4.626   4.759 -0.0837 -1.4683  1.1245
 2394TIP3   OH2 7126   4.103   3.331   4.961 -0.0631 -0.6156  0.3050
 2394TIP3    H1 7127   4.141   3.417   4.941  2.9024 -1.1871  2.7045
 2394TIP3    H2 7128   4.014   3.351   4.989 -0.1768  1.4039 -1.2844
 2395TIP3   OH2 7129   6.556   3.285   0.677  0.4997  0.1972  0.3394
 2395TIP3    H1 7130   6.480   3.227   0.679  0.1710  0.5205 -1.0792
 2395TIP3    H2 7131   6.531   3.360   0.730 -0.1646  0.2773 -0.0719
 2396TIP3   OH2 7132   1.569   6.973   2.655 -0.5005 -0.0400  0.0573
 2396TIP3    H1 7133   1.606   6.946   2.739  1.3275 -0.8112 -0.9330
 2396TIP3    H2 7134   1.555   7.067   2.665  1.0674  0.1553  0.7748
 2397TIP3   OH2 7135   4.822   2.670   6.299  0.0372 -0.6216 -0.1020
 2397TIP3    H1 7136   4.786   2.639   6.382 -1.2471  0.6967 -0.1365
 2397TIP3    H2 7137   4.914   2.689   6.320 -0.3109 -0.1234  1.0681
 2398TIP3   OH2 7138   6.895   2.174   4.370  0.1038  0.3084 -0.3456
 2398TIP3    H1 7139   6.843   2.254   4.363 -1.1787 -0.4362  0.2287
 2398TIP3    H2 7140   6.901   2.157   4.464 -0.8127 -0.9720 -0.4858
 2399TIP3   OH2 7141   6.952   2.057   3.892  0.0850 -0.5222  0.0009
 2399TIP3    H1 7142   7.046   2.048   3.876  0.4271 -0.5919  1.8437
 2399TIP3    H2 7143   6.944   2.057   3.987 -1.8301 -0.8726 -0.1310
 2400TIP3   OH2 7144   6.048   5.340   5.122 -0.0335  0.1186  0.9208
 2400TIP3    H1 7145   6.133   5.306   5.093  0.5341  0.5294  2.0404
 2400TIP3    H2 7146   6.067   5.385   5.204 -0.9553  2.1595  0.0957
 2401TIP3   OH2 7147   4.729   1.249   4.425  0.0846 -0.6145 -0.0723
 2401TIP3    H1 7148   4.639   1.250   4.458  0.2337  0.4279  0.3435
 2401TIP3    H2 7149   4.767   1.169   4.461  0.3544  0.6513  2.6901
 2402TIP3   OH2 7150   8.045   0.115   3.122  0.1491  0.6936  0.2636
 2402TIP3    H1 7151   8.031   0.209   3.119 -0.9571  0.5491  0.3603
 2402TIP3    H2 7152   8.007   0.083   3.040 -2.2562  0.0313  1.5467
 2403TIP3   OH2 7153   3.596   7.162   0.682 -0.4258  0.1852  0.2964
 2403TIP3    H1 7154   3.576   7.103   0.609  2.0758 -2.0272  1.2278
 2403TIP3    H2 7155   3.669   7.215   0.652 -0.8411  0.8699  0.4557
 2404TIP3   OH2 7156   7.694   4.127   4.116 -0.5027 -0.0375 -0.1444
 2404TIP3    H1 7157   7.670   4.079   4.037 -0.0048  0.4485 -0.6013
 2404TIP3    H2 7158   7.670   4.218   4.097 -0.9146 -0.0051  0.4892
 2405TIP3   OH2 7159   4.741   1.192   2.354 -0.4856 -0.0512  0.8719
 2405TIP3    H1 7160   4.835   1.207   2.361 -0.6758  1.5932  0.3347
 2405TIP3    H2 7161   4.710   1.261   2.296 -1.9923 -0.7471  0.8038
 2406TIP3   OH2 7162   3.569   2.129   5.573  0.2785 -0.2624  0.5700
 2406TIP3    H1 7163   3.598   2.173   5.653  1.2384 -0.5016  0.3680
 2406TIP3    H2 7164   3.480   2.100   5.592  0.9745 -1.5583  2.0660
 2407TIP3   OH2 7165   5.728   3.071   3.566  0.2356  0.4108  0.1309
 2407TIP3    H1 7166   5.806   3.017   3.577  1.2225  1.7821 -0.0035
 2407TIP3    H2 7167   5.693   3.046   3.481 -0.7230 -1.7273  1.0634
 2408TIP3   OH2 7168   0.844   0.948   0.572  0.1434  0.4882  0.2857
 2408TIP3    H1 7169   0.828   0.875   0.631  0.5368 -0.7495 -1.0964
 2408TIP3    H2 7170   0.784   0.934   0.499  1.1416  0.8056 -0.6204
 2409TIP3   OH2 7171   5.339   0.848   1.803  0.3126 -0.2478  0.5729
 2409TIP3    H1 7172   5.358   0.859   1.710  0.5436 -2.1340  0.3680
 2409TIP3    H2 7173   5.400   0.781   1.832 -0.3808 -0.3347  1.8749
 2410TIP3   OH2 7174   3.454   1.231   6.735  0.0699 -0.1989  0.7216
 2410TIP3    H1 7175   3.466   1.326   6.735  0.2129 -0.2146  1.0186
 2410TIP3    H2 7176   3.456   1.206   6.643  0.9135 -0.0214  0.6819
 2411TIP3   OH2 7177   2.147   0.385   0.486  0.4897 -0.1421 -0.3991
 2411TIP3    H1 7178   2.060   0.382   0.526  0.0479 -0.0407 -1.3306
 2411TIP3    H2 7179   2.198   0.320   0.534 -0.0474 -0.0731  0.2750
 2412TIP3   OH2 7180   2.035   2.760   0.489 -0.5937  0.5248 -0.3241
 2412TIP3    H1 7181   2.109   2.820   0.501  0.8348 -0.7031 -2.2369
 2412TIP3    H2 7182   2.011   2.772   0.397 -0.8275 -1.1840 -0.5056
 2413TIP3   OH2 7183   0.095   5.214   5.924  0.0410  0.2606  0.6970
 2413TIP3    H1 7184   0.160   5.152   5.891  0.6297  1.4329 -0.4411
 2413TIP3    H2 7185   0.095   5.201   6.019 -2.0681 -3.5734  0.3335
 2414TIP3   OH2 7186   0.874   1.873   3.512  0.5255  0.2967  0.2288
 2414TIP3    H1 7187   0.802   1.918   3.555  0.5946  2.0404 -1.3251
 2414TIP3    H2 7188   0.952   1.919   3.542  0.5217  2.0551 -2.1763
 2415TIP3   OH2 7189   7.476   1.484   1.291  0.6545  0.2177  0.1101
 2415TIP3    H1 7190   7.425   1.530   1.359  1.4742  1.4012 -0.0376
 2415TIP3    H2 7191   7.552   1.450   1.338  1.3310  1.2191 -0.2232
 2416TIP3   OH2 7192   4.666   5.080   6.297  0.3747 -0.3246  0.6621
 2416TIP3    H1 7193   4.604   5.049   6.231 -0.3829  0.7666  0.8422
 2416TIP3    H2 7194   4.727   5.135   6.248  0.3645 -0.2688  0.7119
 2417TIP3   OH2 7195   5.182   6.424   1.063  0.1928 -0.3043 -0.1785
 2417TIP3    H1 7196   5.087   6.432   1.071 -0.0711 -0.3099 -2.6676
 2417TIP3    H2 7197   5.199   6.433   0.969  2.5899 -1.0395  0.1298
 2418TIP3   OH2 7198   5.730   4.040   6.370  0.2564 -0.1305 -0.4340
 2418TIP3    H1 7199   5.643   4.057   6.407  0.4266  0.4643 -0.2918
 2418TIP3    H2 7200   5.756   4.124   6.333  2.0610  0.5710  2.1807
 2419TIP3   OH2 7201   7.223   1.005   1.850  0.0516 -0.1499 -0.4664
 2419TIP3    H1 7202   7.304   1.054   1.840 -0.3444  0.2497 -2.0185
 2419TIP3    H2 7203   7.156   1.072   1.863 -0.4374 -0.2381 -2.2087
 2420TIP3   OH2 7204   4.708   0.449   0.225 -0.2905 -0.1870 -0.2221
 2420TIP3    H1 7205   4.686   0.482   0.138 -1.4088  1.8940  0.7726
 2420TIP3    H2 7206   4.628   0.407   0.255 -0.3534  0.3411  0.3456
 2421TIP3   OH2 7207   5.425   2.985   5.215 -0.4043 -0.1330 -0.4928
 2421TIP3    H1 7208   5.345   3.011   5.169 -0.8927 -0.7210  0.0163
 2421TIP3    H2 7209   5.465   2.919   5.159 -1.1328 -1.0398  0.0171
 2422TIP3   OH2 7210   1.402   6.953   1.610 -0.5023 -0.7828  0.0309
 2422TIP3    H1 7211   1.337   6.961   1.540 -0.3094 -0.2356 -0.0873
 2422TIP3    H2 7212   1.350   6.961   1.691 -0.2184  3.8963  0.0145
 2423TIP3   OH2 7213   4.483   1.326   5.471 -0.1185  0.1226 -0.2283
 2423TIP3    H1 7214   4.396   1.290   5.455  0.4055 -1.0515 -0.5137
 2423TIP3    H2 7215   4.539   1.285   5.405  0.7552  0.4615  0.2839
 2424TIP3   OH2 7216   7.970   3.074   5.836 -0.3466 -0.1307  0.2890
 2424TIP3    H1 7217   7.888   3.117   5.813  0.0765 -0.0583 -1.1632
 2424TIP3    H2 7218   8.038   3.137   5.813  0.1932 -0.8124 -0.0152
 2425TIP3   OH2 7219   5.003   0.433   4.880 -0.1410 -0.1688 -0.2540
 2425TIP3    H1 7220   4.923   0.444   4.828 -0.4496  1.4271  0.5227
 2425TIP3    H2 7221   4.976   0.451   4.970  1.2647  1.2694 -0.0903
 2426TIP3   OH2 7222   0.935   0.609   3.597 -0.1154 -0.2639  0.2005
 2426TIP3    H1 7223   0.883   0.645   3.669 -0.9922  0.1799 -0.6355
 2426TIP3    H2 7224   0.870   0.577   3.534  0.6397 -0.6580 -0.3914
 2427TIP3   OH2 7225   4.620   4.616   4.313  0.3473 -0.3585  0.5353
 2427TIP3    H1 7226   4.606   4.626   4.407 -0.2132 -1.1758  0.5541
 2427TIP3    H2 7227   4.560   4.545   4.287  1.5514 -1.1699 -0.1686
 2428TIP3   OH2 7228   7.261   1.237   2.655 -0.3723  0.2052 -0.1973
 2428TIP3    H1 7229   7.356   1.234   2.642 -0.0335  2.5011  1.3065
 2428TIP3    H2 7230   7.232   1.147   2.636  2.1108 -0.6315 -0.4224
 2429TIP3   OH2 7231   4.055   2.542   6.404  0.2828  0.2251  0.3512
 2429TIP3    H1 7232   4.051   2.446   6.403  0.3702  0.1987  1.1855
 2429TIP3    H2 7233   4.003   2.567   6.481 -1.8006  0.9896 -1.2291
 2430TIP3   OH2 7234   2.426   4.073   5.354  0.2303 -0.5709  0.1519
 2430TIP3    H1 7235   2.469   4.038   5.432 -0.1067 -0.1072  0.5532
 2430TIP3    H2 7236   2.369   4.002   5.324  0.6469 -0.8886  0.1014
 2431TIP3   OH2 7237   1.031   2.251   3.853 -0.1557 -0.4273 -0.0963
 2431TIP3    H1 7238   1.066   2.286   3.771 -3.0676  1.0386 -0.8618
 2431TIP3    H2 7239   1.028   2.327   3.912 -1.3410 -0.6393  0.1403
 2432TIP3   OH2 7240   4.994   5.648   4.458  1.0368  0.8447  0.0784
 2432TIP3    H1 7241   4.959   5.626   4.372  0.3605 -1.8004  0.9272
 2432TIP3    H2 7242   4.917   5.645   4.516  1.5452  2.1710  0.8567
 2433TIP3   OH2 7243   0.938   7.040   5.732  0.5339 -0.0727  0.0993
 2433TIP3    H1 7244   0.932   7.042   5.827  0.4973  2.4937  0.1043
 2433TIP3    H2 7245   0.989   6.961   5.713  2.0719  0.2807  2.3463
 2434TIP3   OH2 7246   1.081   1.053   4.707 -0.6994 -0.6828 -0.0089
 2434TIP3    H1 7247   1.063   1.034   4.799 -1.4253  1.8222  0.4464
 2434TIP3    H2 7248   1.153   0.994   4.683  0.0061 -0.8611  2.3519
 2435TIP3   OH2 7249   4.030   6.820   4.361  0.3158 -0.6879 -0.2495
 2435TIP3    H1 7250   4.025   6.914   4.344  0.3126 -0.3218  1.5774
 2435TIP3    H2 7251   4.101   6.811   4.426  0.6684 -2.0092 -0.7809
 2436TIP3   OH2 7252   6.257   3.655   5.788 -0.0220  0.0781 -0.7730
 2436TIP3    H1 7253   6.222   3.737   5.824  1.1496 -0.7117  2.4924
 2436TIP3    H2 7254   6.309   3.683   5.712  0.0928  2.3393  0.0606
 2437TIP3   OH2 7255   1.506   5.289   4.625 -0.0352  0.4418 -0.5572
 2437TIP3    H1 7256   1.445   5.221   4.596 -1.0577  0.4402  1.4434
 2437TIP3    H2 7257   1.572   5.243   4.676 -0.6206  0.8751  0.6360
 2438TIP3   OH2 7258   4.529   4.648   2.951 -0.8684 -0.1410 -0.4622
 2438TIP3    H1 7259   4.569   4.627   3.036  0.2966 -0.9999 -1.1941
 2438TIP3    H2 7260   4.456   4.587   2.944  1.6671 -3.3063 -1.9587
 2439TIP3   OH2 7261   6.102   3.502   3.935  0.2688  0.6202  0.0142
 2439TIP3    H1 7262   6.133   3.452   3.859 -0.3508 -0.9732  0.7594
 2439TIP3    H2 7263   6.009   3.515   3.918 -0.2510 -1.2058  1.2166
 2440TIP3   OH2 7264   2.842   7.152   6.106 -0.3672 -0.3509  0.0985
 2440TIP3    H1 7265   2.785   7.076   6.091 -2.0412  1.0539 -1.0950
 2440TIP3    H2 7266   2.814   7.216   6.041  1.4448  1.0724  0.6312
 2441TIP3   OH2 7267   2.710   1.834   1.952  0.1874  0.6201 -0.2745
 2441TIP3    H1 7268   2.629   1.815   1.905 -0.4545  0.5975  0.8341
 2441TIP3    H2 7269   2.776   1.782   1.906 -0.7745 -0.9199  0.0234
 2442TIP3   OH2 7270   8.239   2.443   4.427 -0.3152 -0.0659 -0.1028
 2442TIP3    H1 7271   8.249   2.464   4.334  1.4721  0.5272  0.1713
 2442TIP3    H2 7272   8.212   2.525   4.468 -3.6794 -0.8947 -0.3589
 2443TIP3   OH2 7273   2.253   2.510   4.798 -0.1447 -0.2071 -0.1361
 2443TIP3    H1 7274   2.215   2.475   4.878 -2.1056  0.6144 -0.6439
 2443TIP3    H2 7275   2.283   2.433   4.750  1.2513 -0.7008  1.4207
 2444TIP3   OH2 7276   7.809   5.676   2.569 -0.2500  0.5735 -0.5341
 2444TIP3    H1 7277   7.860   5.756   2.559 -2.4746  2.1827  0.2447
 2444TIP3    H2 7278   7.765   5.686   2.653 -0.5766 -1.5090 -0.4053
 2445TIP3   OH2 7279   4.247   4.557   4.054 -0.5768 -1.2555  0.0129
 2445TIP3    H1 7280   4.186   4.631   4.052 -0.1391 -0.8969 -1.4486
 2445TIP3    H2 7281   4.287   4.562   4.141  1.6792  2.1418 -1.0037
 2446TIP3   OH2 7282   2.180   3.497   1.920  0.1707 -0.6201  0.0208
 2446TIP3    H1 7283   2.121   3.447   1.977 -1.5860  1.1646 -0.1388
 2446TIP3    H2 7284   2.122   3.537   1.856  1.5177  1.4748  0.0376
 2447TIP3   OH2 7285   7.442   1.417   0.687  0.1865  0.3237 -0.3182
 2447TIP3    H1 7286   7.389   1.484   0.730 -0.4704 -0.8461  0.7655
 2447TIP3    H2 7287   7.380   1.366   0.635  0.8273  1.1106 -1.9113
 2448TIP3   OH2 7288   0.428   7.642   6.468  0.0726 -0.0152  0.2929
 2448TIP3    H1 7289   0.412   7.714   6.528 -0.8811  0.7051 -0.7787
 2448TIP3    H2 7290   0.439   7.565   6.525 -2.2071  0.3708  1.3633
 2449TIP3   OH2 7291   0.139   7.388   6.095  0.7994 -0.1568  0.1877
 2449TIP3    H1 7292   0.058   7.339   6.108 -0.9316  2.0776 -1.4459
 2449TIP3    H2 7293   0.152   7.435   6.178  1.3451 -1.7284  1.0215
 2450TIP3   OH2 7294   6.142   6.828   6.218  0.2742 -0.3788 -0.0813
 2450TIP3    H1 7295   6.139   6.734   6.199 -0.3513 -0.3350 -0.2277
 2450TIP3    H2 7296   6.053   6.858   6.200 -0.0581 -0.1121  1.8642
 2451TIP3   OH2 7297   2.737   0.627   0.600  0.8468  0.8333  0.8158
 2451TIP3    H1 7298   2.653   0.590   0.629  0.7667 -0.5400 -0.9917
 2451TIP3    H2 7299   2.726   0.721   0.610 -1.4559  0.7974 -0.6508
 2452TIP3   OH2 7300   1.085   6.241   3.524  0.5278  0.0802  0.1897
 2452TIP3    H1 7301   1.065   6.233   3.617  0.3846 -0.9979  0.0676
 2452TIP3    H2 7302   1.001   6.257   3.482  0.6394  0.9456  0.2775
 2453TIP3   OH2 7303   2.692   0.280   6.614 -0.1491 -0.2105  0.3238
 2453TIP3    H1 7304   2.750   0.265   6.539  1.5695 -1.1778  1.7754
 2453TIP3    H2 7305   2.692   0.196   6.661 -0.9267  0.4662  1.5793
 2454TIP3   OH2 7306   2.322   1.349   6.192 -0.2953 -0.0804  0.2017
 2454TIP3    H1 7307   2.240   1.396   6.177 -0.7549  0.2515  3.1655
 2454TIP3    H2 7308   2.296   1.260   6.215  0.3635 -0.7304 -1.4539
 2455TIP3   OH2 7309   5.331   0.546   0.949  0.0525  0.0371 -0.1048
 2455TIP3    H1 7310   5.261   0.488   0.980 -0.6190 -0.3481 -2.1799
 2455TIP3    H2 7311   5.289   0.602   0.884  1.5105  0.2791 -0.8903
 2456TIP3   OH2 7312   5.381   4.005   5.388 -0.4989 -0.1882  0.5072
 2456TIP3    H1 7313   5.438   4.076   5.419 -0.2248 -0.4882  0.6902
 2456TIP3    H2 7314   5.321   4.048   5.327 -1.7909  0.6409  2.2733
 2457TIP3   OH2 7315   5.559   3.818   3.031 -0.7438 -0.0797  0.6370
 2457TIP3    H1 7316   5.558   3.723   3.018  0.1614 -0.0676  0.4207
 2457TIP3    H2 7317   5.599   3.829   3.117 -0.5650  0.1215  0.5271
 2458TIP3   OH2 7318   4.246   6.078   3.343  0.6603 -0.1628 -0.2131
 2458TIP3    H1 7319   4.302   6.013   3.301  0.9167  1.2265 -2.1773
 2458TIP3    H2 7320   4.205   6.125   3.270 -1.1034  0.5339  1.1578
 2459TIP3   OH2 7321   7.992   7.456   1.084 -0.0748 -0.1914 -0.6494
 2459TIP3    H1 7322   8.051   7.485   1.014  1.4137 -1.0993  0.1738
 2459TIP3    H2 7323   8.046   7.456   1.162 -1.5102  0.0579  0.3834
 2460TIP3   OH2 7324   7.733   5.520   1.574 -0.4386  0.2457  0.2792
 2460TIP3    H1 7325   7.791   5.446   1.561  0.5797  0.8495  1.2094
 2460TIP3    H2 7326   7.708   5.547   1.486 -0.1066 -0.6435 -0.0932
 2461TIP3   OH2 7327   2.549   3.920   3.994 -0.5122 -0.7010  0.2530
 2461TIP3    H1 7328   2.566   4.013   3.978  1.6931 -0.8613  1.2962
 2461TIP3    H2 7329   2.530   3.884   3.907  0.7156  0.3437 -0.4882
 2462TIP3   OH2 7330   3.230   5.907   3.747  0.0966  0.2869  0.1265
 2462TIP3    H1 7331   3.320   5.895   3.716 -0.1996  0.2131 -0.7401
 2462TIP3    H2 7332   3.183   5.831   3.714  0.0747 -0.6386  2.1361
 2463TIP3   OH2 7333   2.509   3.799   4.467  0.0486  0.2163  0.2384
 2463TIP3    H1 7334   2.585   3.769   4.517 -1.5469 -1.7397  1.7010
 2463TIP3    H2 7335   2.473   3.870   4.520  0.3692  0.5637 -0.0075
 2464TIP3   OH2 7336   6.971   5.829   4.761 -0.0091  0.2221 -0.4146
 2464TIP3    H1 7337   7.003   5.915   4.788  0.2757  0.2279 -0.7718
 2464TIP3    H2 7338   6.876   5.841   4.752  0.1674  0.8449 -1.7036
 2465TIP3   OH2 7339   5.073   6.117   1.421 -0.2187  0.0469  0.1138
 2465TIP3    H1 7340   5.028   6.197   1.448 -0.7058 -0.2933  0.3272
 2465TIP3    H2 7341   5.114   6.085   1.501 -0.7125 -0.3535  0.2110
 2466TIP3   OH2 7342   2.114   7.794   2.974 -0.2403  0.1392  0.3506
 2466TIP3    H1 7343   2.191   7.847   2.952  0.5892 -0.6210  1.3120
 2466TIP3    H2 7344   2.149   7.708   2.995 -1.1364  0.2130  2.4914
 2467TIP3   OH2 7345   0.284   1.341   6.528 -0.4238  0.2398  0.2885
 2467TIP3    H1 7346   0.278   1.296   6.444 -0.0277  1.1352 -0.2383
 2467TIP3    H2 7347   0.214   1.303   6.581 -0.4983 -0.5291 -0.3494
 2468TIP3   OH2 7348   3.676   0.167   1.601  0.4624  0.1155  0.5101
 2468TIP3    H1 7349   3.758   0.127   1.630  0.9806  0.9785  0.2673
 2468TIP3    H2 7350   3.674   0.253   1.643  0.0185  0.3756 -0.0203
 2469TIP3   OH2 7351   5.691   7.598   6.613 -0.0303  0.0092 -0.1037
 2469TIP3    H1 7352   5.778   7.610   6.651 -0.1118  2.3414 -0.5337
 2469TIP3    H2 7353   5.635   7.661   6.659 -1.6849 -1.8038  0.5625
 2470TIP3   OH2 7354   3.500   6.550   0.343 -0.7458 -0.4692  0.5534
 2470TIP3    H1 7355   3.509   6.548   0.438 -0.8130  3.9925  0.8897
 2470TIP3    H2 7356   3.437   6.621   0.326  0.0437 -0.3885 -2.8109
 2471TIP3   OH2 7357   8.234   4.079   0.847  0.2155 -0.0762 -0.5360
 2471TIP3    H1 7358   8.176   4.063   0.922  1.4861 -0.2849  0.4294
 2471TIP3    H2 7359   8.197   4.156   0.804  0.0840  0.7109  0.9412
 2472TIP3   OH2 7360   4.772   1.737   6.280 -0.0235  0.1687  0.3941
 2472TIP3    H1 7361   4.702   1.798   6.301 -0.1308 -0.3888  1.6900
 2472TIP3    H2 7362   4.836   1.748   6.351 -0.4218 -1.7943  1.0976
 2473TIP3   OH2 7363   2.144   0.238   2.800 -0.2487 -0.3649  0.2230
 2473TIP3    H1 7364   2.078   0.249   2.869  1.7566 -0.1524  2.2465
 2473TIP3    H2 7365   2.199   0.166   2.831  0.8792 -0.0965 -1.0465
 2474TIP3   OH2 7366   5.302   0.246   5.195  0.4197  0.1272  0.4731
 2474TIP3    H1 7367   5.356   0.232   5.118 -0.1158  2.6073 -0.4683
 2474TIP3    H2 7368   5.361   0.284   5.260  0.2538  1.0984  0.0868
 2475TIP3   OH2 7369   0.553   4.113   1.950  0.5661  0.1586 -0.0814
 2475TIP3    H1 7370   0.566   4.114   1.855  0.3788 -1.8283 -0.1810
 2475TIP3    H2 7371   0.633   4.152   1.986  0.9198  0.3372 -1.0435
 2476TIP3   OH2 7372   3.989   5.710   3.032 -0.4350 -0.3074  0.5513
 2476TIP3    H1 7373   4.015   5.796   3.064 -0.6707  0.2733 -0.7807
 2476TIP3    H2 7374   4.051   5.690   2.963 -2.8786  0.7401 -2.1410
 2477TIP3   OH2 7375   1.006   5.538   4.841  0.3300 -0.8575 -0.5226
 2477TIP3    H1 7376   1.099   5.521   4.857  0.5385 -0.1274 -0.8944
 2477TIP3    H2 7377   1.005   5.599   4.767 -0.2765  1.4823  1.2903
 2478TIP3   OH2 7378   0.006   0.505   6.350  0.1514 -0.1166  0.0941
 2478TIP3    H1 7379  -0.016   0.437   6.414  0.7532 -0.4758 -0.0746
 2478TIP3    H2 7380   0.087   0.544   6.382  0.9947 -0.9504 -0.9248
 2479TIP3   OH2 7381   4.793   5.237   3.146  0.3059  0.4325  0.4724
 2479TIP3    H1 7382   4.740   5.230   3.225  0.6412  1.5888  0.8234
 2479TIP3    H2 7383   4.841   5.154   3.141 -1.2130 -0.4689  0.3625
 2480TIP3   OH2 7384   0.995   6.164   1.132  0.1936 -0.6408 -0.2241
 2480TIP3    H1 7385   0.942   6.173   1.053 -0.3292 -0.1121  0.1780
 2480TIP3    H2 7386   0.938   6.118   1.194  0.4855 -0.7680 -0.0477
 2481TIP3   OH2 7387   1.351   2.196   5.463 -0.4850 -0.3057  0.1583
 2481TIP3    H1 7388   1.297   2.263   5.506 -0.1109 -0.3566  0.7216
 2481TIP3    H2 7389   1.416   2.246   5.414 -0.4517 -0.2478  0.2594
 2482TIP3   OH2 7390   6.678   0.292   6.736 -0.2931 -0.3644  0.4046
 2482TIP3    H1 7391   6.695   0.215   6.682 -0.1927 -0.0784  0.0268
 2482TIP3    H2 7392   6.736   0.281   6.812 -0.4940 -0.8068  0.4999
 2483TIP3   OH2 7393   6.527   4.729   2.008 -0.4716 -0.5402  0.7730
 2483TIP3    H1 7394   6.609   4.768   2.038 -1.2037  3.7136 -1.8511
 2483TIP3    H2 7395   6.461   4.762   2.069 -0.5778 -1.7198  1.3109
 2484TIP3   OH2 7396   7.197   0.490   5.127 -0.0144 -0.2866 -0.1122
 2484TIP3    H1 7397   7.251   0.472   5.050  0.7842  3.1080 -0.4825
 2484TIP3    H2 7398   7.256   0.477   5.201  0.7706  1.3318 -0.4065
 2485TIP3   OH2 7399   4.853   1.452   0.676  0.7438  0.6510 -0.2587
 2485TIP3    H1 7400   4.945   1.458   0.648  0.7873  0.6227 -0.1231
 2485TIP3    H2 7401   4.807   1.417   0.599  1.0876 -0.7637  0.1422
 2486TIP3   OH2 7402   0.291   3.538   6.489  0.2195  0.3992 -0.1647
 2486TIP3    H1 7403   0.292   3.459   6.544 -1.5764  0.8501  0.5804
 2486TIP3    H2 7404   0.227   3.519   6.420 -0.3851  1.2559  0.1432
 2487TIP3   OH2 7405   6.559   2.690   5.646 -0.0585 -0.3152 -0.2148
 2487TIP3    H1 7406   6.519   2.645   5.572  1.4941 -0.3138 -1.1109
 2487TIP3    H2 7407   6.635   2.637   5.668  0.6752  0.7896  0.0049
 2488TIP3   OH2 7408   7.726   6.303   4.635  0.0313 -0.3579 -1.0158
 2488TIP3    H1 7409   7.691   6.347   4.558  0.7311  0.0376 -1.1189
 2488TIP3    H2 7410   7.676   6.222   4.642 -0.4424 -0.1139 -1.5355
 2489TIP3   OH2 7411   1.929   2.586   6.159  0.0514 -0.1226  0.3167
 2489TIP3    H1 7412   2.013   2.623   6.187  1.0193 -0.9268 -1.3027
 2489TIP3    H2 7413   1.905   2.525   6.228  0.2588  0.8754  1.2919
 2490TIP3   OH2 7414   6.403   0.885   2.949 -0.2584 -0.3089  0.4400
 2490TIP3    H1 7415   6.421   0.814   3.011  0.6864  0.3720  0.9582
 2490TIP3    H2 7416   6.374   0.958   3.003  1.0003  0.4334  0.1437
 2491TIP3   OH2 7417   4.105   2.163   1.412  0.1172  0.4280  0.2634
 2491TIP3    H1 7418   4.090   2.190   1.503  2.2618 -2.5829  1.7037
 2491TIP3    H2 7419   4.196   2.132   1.411 -0.2552 -0.9143 -2.5631
 2492TIP3   OH2 7420   0.320   3.349   1.340 -0.3795 -0.4035 -0.3147
 2492TIP3    H1 7421   0.243   3.387   1.299  0.7189  1.7322 -0.5415
 2492TIP3    H2 7422   0.394   3.387   1.292  0.8640 -2.4823 -0.2097
 2493TIP3   OH2 7423   7.552   0.585   3.403 -0.1875 -0.7304  0.4387
 2493TIP3    H1 7424   7.643   0.560   3.418  0.3289 -0.1982 -1.5676
 2493TIP3    H2 7425   7.550   0.680   3.416 -0.6950 -0.8689  1.4684
 2494TIP3   OH2 7426   6.595   6.380   2.280  0.4410 -0.3847 -0.0377
 2494TIP3    H1 7427   6.661   6.350   2.218 -0.4512 -0.9519 -0.7237
 2494TIP3    H2 7428   6.522   6.408   2.226 -0.8014 -1.9272  0.7563
 2495TIP3   OH2 7429   7.685   6.251   2.617 -0.2422  0.2127  0.4387
 2495TIP3    H1 7430   7.780   6.246   2.620 -0.2551 -0.2239  0.1655
 2495TIP3    H2 7431   7.659   6.179   2.559 -0.7412  0.2577  0.6041
 2496TIP3   OH2 7432   5.534   3.517   3.000  0.6184 -0.2759 -0.0821
 2496TIP3    H1 7433   5.566   3.427   3.000  0.6739 -0.2614  0.5805
 2496TIP3    H2 7434   5.458   3.516   2.942 -0.2909 -1.0711  1.1011
 2497TIP3   OH2 7435   3.916   0.465   2.253 -0.3776 -0.2917  0.3479
 2497TIP3    H1 7436   3.967   0.391   2.219  0.5804  0.5522 -0.1033
 2497TIP3    H2 7437   3.960   0.490   2.334 -0.3138  0.1754  0.1742
 2498TIP3   OH2 7438   1.746   6.835   0.600  0.3333  0.2766  0.1286
 2498TIP3    H1 7439   1.761   6.921   0.639  1.5113  0.4006 -0.5495
 2498TIP3    H2 7440   1.834   6.799   0.587 -0.1070 -0.5494 -0.6641
 2499TIP3   OH2 7441   6.319   7.638   5.263  0.2883  0.3574  0.1194
 2499TIP3    H1 7442   6.380   7.588   5.317 -0.5472 -0.3586  0.4095
 2499TIP3    H2 7443   6.330   7.602   5.175 -0.1072 -0.1424  0.2739
 2500TIP3   OH2 7444   7.070   7.475   2.732  0.1664 -0.0265 -0.3565
 2500TIP3    H1 7445   7.107   7.563   2.745 -0.4436  0.0493  1.0356
 2500TIP3    H2 7446   7.058   7.468   2.638  1.2252  0.9747 -0.5920
 2501TIP3   OH2 7447   2.388   1.165   3.626  0.1067 -0.4156 -0.3626
 2501TIP3    H1 7448   2.424   1.077   3.640 -0.3987 -0.6762 -0.7123
 2501TIP3    H2 7449   2.466   1.219   3.610  0.5548 -0.5066  1.2497
 2502TIP3   OH2 7450   4.306   4.884   5.565 -0.0595 -0.1964  0.5557
 2502TIP3    H1 7451   4.215   4.895   5.594  0.0514 -0.2012  0.9179
 2502TIP3    H2 7452   4.307   4.799   5.521 -0.3001 -0.0486  0.2592
 2503TIP3   OH2 7453   6.813   4.593   2.503  0.2212  0.0897 -0.0145
 2503TIP3    H1 7454   6.727   4.602   2.544 -0.5023  0.1142 -1.4733
 2503TIP3    H2 7455   6.871   4.642   2.560 -0.7883  0.3641  0.8220
 2504TIP3   OH2 7456   2.458   4.871   4.815  0.0770  0.5985 -0.2370
 2504TIP3    H1 7457   2.478   4.778   4.807 -0.2078  0.5094  0.0752
 2504TIP3    H2 7458   2.533   4.907   4.862 -0.0771  0.4253  0.1418
 2505TIP3   OH2 7459   1.496   3.592   4.803 -0.4296 -0.6193 -0.6420
 2505TIP3    H1 7460   1.441   3.624   4.874  1.8430  0.4693  0.7757
 2505TIP3    H2 7461   1.496   3.497   4.812 -0.7937 -0.5280  0.3489
 2506TIP3   OH2 7462   5.476   6.853   1.297 -0.0748 -0.2978 -0.2152
 2506TIP3    H1 7463   5.423   6.773   1.301  0.4704 -0.7168 -1.1014
 2506TIP3    H2 7464   5.419   6.921   1.333 -1.6651 -0.5059 -2.1472
 2507TIP3   OH2 7465   1.473   1.236   2.272 -0.4377  0.1061  0.2324
 2507TIP3    H1 7466   1.412   1.285   2.216  1.0611  1.1039 -0.5974
 2507TIP3    H2 7467   1.487   1.154   2.225 -1.2674 -0.2108  0.5205
 2508TIP3   OH2 7468   1.120   5.962   1.678  0.1940 -0.8719 -0.8755
 2508TIP3    H1 7469   1.048   5.910   1.715  0.3377  0.6023  1.7638
 2508TIP3    H2 7470   1.077   6.035   1.635 -0.0336  0.7394  1.8434
 2509TIP3   OH2 7471   0.453   0.049   1.100  0.8161  0.2364  0.0083
 2509TIP3    H1 7472   0.361   0.026   1.112  0.3093  2.5282  1.0964
 2509TIP3    H2 7473   0.455   0.092   1.014  0.8035  0.4473  0.1125
 2510TIP3   OH2 7474   8.184   5.937   5.031 -0.1998 -0.1523 -0.3140
 2510TIP3    H1 7475   8.197   6.004   5.098  1.3811  0.2733 -1.0005
 2510TIP3    H2 7476   8.158   5.987   4.953 -1.2965 -0.5770 -0.2471
 2511TIP3   OH2 7477   2.448   0.020   5.544  0.1802  0.2299 -0.1796
 2511TIP3    H1 7478   2.427   0.007   5.637 -1.3064  1.8489 -0.2476
 2511TIP3    H2 7479   2.377   0.075   5.511  0.6837 -0.3293 -2.3008
 2512TIP3   OH2 7480   3.510   6.045   2.772 -0.3708 -0.3732 -0.5081
 2512TIP3    H1 7481   3.419   6.046   2.741 -0.0741 -2.5965 -1.6264
 2512TIP3    H2 7482   3.523   5.956   2.803  2.1002 -0.8230 -2.5333
 2513TIP3   OH2 7483   1.872   5.538   2.441  0.2063  0.3551  0.2310
 2513TIP3    H1 7484   1.858   5.560   2.349  1.3329  1.0358  0.2136
 2513TIP3    H2 7485   1.784   5.535   2.478 -0.1595  1.8199 -0.4704
 2514TIP3   OH2 7486   6.418   4.282   1.427 -0.0013  0.1246 -0.4987
 2514TIP3    H1 7487   6.505   4.304   1.392  0.3784 -0.3348  0.1257
 2514TIP3    H2 7488   6.425   4.301   1.521 -0.0860 -1.3346 -0.1754
 2515TIP3   OH2 7489   7.756   5.062   3.503  0.5246  0.3793  0.0567
 2515TIP3    H1 7490   7.705   4.981   3.508  0.7253  0.1277 -1.4671
 2515TIP3    H2 7491   7.702   5.122   3.453  1.0918  0.6180 -0.2830
 2516TIP3   OH2 7492   6.366   4.500   5.373  0.1615 -0.1499 -0.3846
 2516TIP3    H1 7493   6.290   4.499   5.431  0.2004 -2.0349 -0.3026
 2516TIP3    H2 7494   6.338   4.552   5.298 -1.1552 -0.6509 -0.2719
 2517TIP3   OH2 7495   7.913   6.010   2.918  0.3363  0.4483  0.1770
 2517TIP3    H1 7496   7.889   5.943   2.982 -0.9464  0.4701 -0.2535
 2517TIP3    H2 7497   7.931   6.088   2.971 -1.5195  0.7005  0.5101
 2518TIP3   OH2 7498   1.989   6.002   0.647  0.5422 -0.0812 -0.3382
 2518TIP3    H1 7499   1.935   5.970   0.574 -0.0082 -0.0061  0.0295
 2518TIP3    H2 7500   2.061   6.048   0.605  0.3288 -0.1988 -0.8422
 2519TIP3   OH2 7501   5.943   4.674   5.477  0.8339  0.5882 -0.1172
 2519TIP3    H1 7502   5.902   4.690   5.563 -1.2307  0.8679 -1.0914
 2519TIP3    H2 7503   5.988   4.590   5.488 -2.0062 -0.9977  0.4210
 2520TIP3   OH2 7504   5.135   4.642   2.387  0.1586 -0.2236 -0.4340
 2520TIP3    H1 7505   5.202   4.601   2.443 -0.9380  0.0001  1.0908
 2520TIP3    H2 7506   5.097   4.568   2.339  1.3296 -0.3793 -1.1881
 2521TIP3   OH2 7507   7.423   7.183   6.322 -0.2764  0.5341  0.1748
 2521TIP3    H1 7508   7.461   7.254   6.375 -0.7228  0.4086  0.6668
 2521TIP3    H2 7509   7.476   7.183   6.242  1.8696 -0.7291  1.4972
 2522TIP3   OH2 7510   7.107   1.496   4.566  0.5299 -0.6444  0.1416
 2522TIP3    H1 7511   7.151   1.503   4.481  1.3078  0.3493  0.6075
 2522TIP3    H2 7512   7.066   1.582   4.579 -2.1678 -1.7150 -0.5656
 2523TIP3   OH2 7513   7.560   1.838   4.164 -0.1414 -0.0929  0.2453
 2523TIP3    H1 7514   7.586   1.929   4.147 -0.5315  0.1456  0.8899
 2523TIP3    H2 7515   7.526   1.807   4.080 -1.9044  1.0146  0.4940
 2524TIP3   OH2 7516   2.083   0.383   5.263 -0.9524 -0.1108  0.5247
 2524TIP3    H1 7517   2.047   0.309   5.312 -0.3173 -0.5239  0.3793
 2524TIP3    H2 7518   2.056   0.460   5.312 -0.8172 -0.4870  1.2048
 2525TIP3   OH2 7519   4.080   7.687   3.556 -0.1681  0.0403 -0.4136
 2525TIP3    H1 7520   4.007   7.709   3.615 -0.4741 -0.0283 -0.7646
 2525TIP3    H2 7521   4.039   7.641   3.483  0.1544  0.4593 -0.8686
 2526TIP3   OH2 7522   0.274   5.856   0.729 -0.5278 -0.2372  0.5038
 2526TIP3    H1 7523   0.261   5.762   0.714  2.0670 -0.6475  0.2223
 2526TIP3    H2 7524   0.355   5.876   0.682 -0.5770  1.9559  1.2594
 2527TIP3   OH2 7525   7.807   1.323   6.264  0.3906 -0.4632  0.3571
 2527TIP3    H1 7526   7.737   1.297   6.323  0.3215 -0.6441  0.1917
 2527TIP3    H2 7527   7.887   1.292   6.307  0.3646 -0.3282  0.5048
 2528TIP3   OH2 7528   1.527   2.096   4.899  0.4182 -0.1802 -0.0802
 2528TIP3    H1 7529   1.573   2.153   4.961  0.0894  0.5304 -0.4844
 2528TIP3    H2 7530   1.459   2.151   4.861  0.3128 -0.7457 -0.7324
 2529TIP3   OH2 7531   7.944   3.455   5.053  0.4497  0.0439 -0.5033
 2529TIP3    H1 7532   8.036   3.483   5.055  0.6094 -0.4821  0.3746
 2529TIP3    H2 7533   7.900   3.514   5.114  0.7352 -1.3681  1.1383
 2530TIP3   OH2 7534   2.606   6.473   2.770  0.2452  0.1469  0.6682
 2530TIP3    H1 7535   2.655   6.547   2.734  1.2576  0.1794  2.0400
 2530TIP3    H2 7536   2.672   6.405   2.783 -0.6545 -1.0045 -0.4905
 2531TIP3   OH2 7537   2.961   7.138   0.249 -0.9985  0.1943  0.1164
 2531TIP3    H1 7538   2.925   7.115   0.163  0.9382 -0.4460 -0.5734
 2531TIP3    H2 7539   2.894   7.109   0.311 -1.6981 -0.9215 -1.0991
 2532TIP3   OH2 7540   3.695   1.245   5.860  0.3627 -0.6269 -0.2221
 2532TIP3    H1 7541   3.638   1.213   5.790 -0.6324 -0.3455  0.4299
 2532TIP3    H2 7542   3.778   1.263   5.817 -0.0973 -0.8614 -1.2516
 2533TIP3   OH2 7543   3.142   6.516   0.410 -0.0122 -0.8623 -0.2025
 2533TIP3    H1 7544   3.090   6.483   0.336  0.9171  1.9872 -2.3156
 2533TIP3    H2 7545   3.206   6.447   0.427 -1.4473 -2.4080 -0.6864
 2534TIP3   OH2 7546   0.313   5.193   6.110 -0.1433 -0.4863  0.2482
 2534TIP3    H1 7547   0.260   5.148   6.175  0.8328  0.7297  1.9675
 2534TIP3    H2 7548   0.376   5.127   6.081 -1.3964 -1.4108 -0.4688
 2535TIP3   OH2 7549   0.008   4.045   1.605 -0.0628 -0.3318  0.1631
 2535TIP3    H1 7550  -0.057   4.115   1.611  1.3880  1.0762  0.0613
 2535TIP3    H2 7551   0.067   4.073   1.535 -0.1462 -2.2854 -0.7501
 2536TIP3   OH2 7552   8.144   2.623   3.149 -0.6745 -0.1247  0.2201
 2536TIP3    H1 7553   8.114   2.533   3.160  0.4786 -0.4131  1.3102
 2536TIP3    H2 7554   8.122   2.666   3.232  0.0124  0.1986  0.2443
 2537TIP3   OH2 7555   7.220   0.697   5.939 -0.7089  0.0440 -0.4865
 2537TIP3    H1 7556   7.157   0.717   5.870  0.3950 -0.0868 -1.5529
 2537TIP3    H2 7557   7.233   0.780   5.985 -2.5164 -0.1699  0.5210
 2538TIP3   OH2 7558   1.905   2.928   2.985 -0.5144  0.4847 -0.0399
 2538TIP3    H1 7559   1.826   2.888   2.947 -0.1587  0.2173 -0.5129
 2538TIP3    H2 7560   1.880   2.948   3.075 -0.0928 -2.8439  0.9829
 2539TIP3   OH2 7561   1.537   5.246   1.416  0.1093 -0.3447 -0.2907
 2539TIP3    H1 7562   1.508   5.197   1.339 -1.0602 -0.4469  0.1999
 2539TIP3    H2 7563   1.584   5.182   1.469 -0.0683 -0.5560 -0.3861
 2540TIP3   OH2 7564   0.044   2.354   6.599 -0.0860  0.1973 -0.6489
 2540TIP3    H1 7565   0.031   2.273   6.550  0.7078 -0.1458 -0.3051
 2540TIP3    H2 7566   0.139   2.366   6.601 -0.1613  0.7398 -0.0686
 2541TIP3   OH2 7567  -0.037   5.634   0.546 -0.0886 -0.3486 -0.3216
 2541TIP3    H1 7568   0.013   5.634   0.465 -0.8411 -0.2954 -0.7926
 2541TIP3    H2 7569   0.025   5.601   0.612  0.9733  0.9843 -0.6135
 2542TIP3   OH2 7570   1.424   3.334   1.917  0.1227  0.4070  0.3656
 2542TIP3    H1 7571   1.483   3.294   1.980  0.7114 -1.2521 -1.1519
 2542TIP3    H2 7572   1.364   3.263   1.892 -0.6541  1.2682 -0.2944
 2543TIP3   OH2 7573   0.715   6.719   3.905  0.0508  0.4943 -0.1469
 2543TIP3    H1 7574   0.655   6.652   3.875 -0.1337  0.4243  0.3589
 2543TIP3    H2 7575   0.715   6.785   3.836 -2.3270  1.5926  0.7737
 2544TIP3   OH2 7576   0.006   3.479   2.503 -0.4051  0.7580 -0.0700
 2544TIP3    H1 7577   0.082   3.527   2.469  0.0394  0.2652  0.2126
 2544TIP3    H2 7578  -0.067   3.508   2.449 -0.0738  1.4700 -0.1484
 2545TIP3   OH2 7579   3.578   7.519   2.043 -0.6231  0.1204  0.7558
 2545TIP3    H1 7580   3.612   7.603   2.012 -0.3614 -0.0717  0.5238
 2545TIP3    H2 7581   3.513   7.494   1.977 -1.2172  0.4808  1.1903
 2546TIP3   OH2 7582   0.031   3.997   0.550 -0.1268 -0.6313  0.1088
 2546TIP3    H1 7583   0.121   4.030   0.548 -0.2711 -0.1975  0.7342
 2546TIP3    H2 7584   0.003   4.008   0.640 -1.7027  1.6135 -0.5797
 2547TIP3   OH2 7585   6.249   2.658   1.623 -0.1466  0.3211 -0.0059
 2547TIP3    H1 7586   6.337   2.691   1.641  0.6543 -0.8728 -1.5259
 2547TIP3    H2 7587   6.210   2.645   1.709  1.6316 -0.3412  0.7370
 2548TIP3   OH2 7588   5.740   5.159   6.731  0.3955 -0.0390  0.2466
 2548TIP3    H1 7589   5.826   5.186   6.763  2.2441 -1.4028 -3.0913
 2548TIP3    H2 7590   5.715   5.228   6.669 -0.5407 -0.0715  0.5743
 2549TIP3   OH2 7591   1.192   6.619   2.549 -0.4457  0.4928  0.0677
 2549TIP3    H1 7592   1.273   6.669   2.559 -0.0864 -0.3398  1.6684
 2549TIP3    H2 7593   1.183   6.607   2.455  2.2764 -0.9061 -0.1121
 2550TIP3   OH2 7594   1.001   6.151   1.524 -0.4249  0.4912  0.2623
 2550TIP3    H1 7595   0.958   6.221   1.573 -0.6016  0.7972 -0.3124
 2550TIP3    H2 7596   0.933   6.119   1.464 -0.6473 -0.8491  1.1904
 2551TIP3   OH2 7597   3.604   5.509   3.479 -0.2837  0.1051 -0.3471
 2551TIP3    H1 7598   3.545   5.562   3.532  0.1054 -0.5874  0.8262
 2551TIP3    H2 7599   3.548   5.443   3.439 -0.4558  0.0600 -0.0380
 2552TIP3   OH2 7600   6.812   2.975   1.605  0.1927 -0.0984 -0.1187
 2552TIP3    H1 7601   6.729   2.991   1.561 -0.4772  1.2012  1.5389
 2552TIP3    H2 7602   6.790   2.925   1.683  0.7434  1.2642  0.9707
 2553TIP3   OH2 7603   3.641   7.641   5.062 -0.1140  0.3432 -0.2618
 2553TIP3    H1 7604   3.683   7.602   5.139  0.3275 -1.0851 -1.2026
 2553TIP3    H2 7605   3.548   7.624   5.074  0.0024 -0.3021 -0.2822
 2554TIP3   OH2 7606   3.511   1.018   4.390 -0.5303  0.5782 -0.2118
 2554TIP3    H1 7607   3.460   0.947   4.352 -0.4044 -0.2467  1.1212
 2554TIP3    H2 7608   3.597   1.009   4.351 -0.5021 -0.0344 -0.0174
 2555TIP3   OH2 7609   5.830   7.665   6.108  0.1493  0.3090 -0.2890
 2555TIP3    H1 7610   5.853   7.670   6.201  2.0035  0.2846 -0.7234
 2555TIP3    H2 7611   5.743   7.625   6.107  0.3228 -0.1580  1.4051
 2556TIP3   OH2 7612   2.489   3.498   0.560  0.1700 -0.1095  0.3019
 2556TIP3    H1 7613   2.581   3.477   0.580  1.2097  2.8824 -0.7660
 2556TIP3    H2 7614   2.486   3.500   0.464 -1.3307 -1.2407  0.2998
 2557TIP3   OH2 7615   7.653   0.524   2.815  0.0113  0.1377  0.3468
 2557TIP3    H1 7616   7.738   0.544   2.775  0.6231 -1.0107  0.9918
 2557TIP3    H2 7617   7.620   0.608   2.846  1.8505  0.3989  1.8278
 2558TIP3   OH2 7618   5.388   7.402   6.583  0.0940  0.1701  0.2160
 2558TIP3    H1 7619   5.313   7.412   6.524 -0.4450  0.9287  0.9955
 2558TIP3    H2 7620   5.465   7.408   6.526 -0.4299 -0.3236 -0.5606
 2559TIP3   OH2 7621   7.336   0.771   5.517  0.2031  0.5650  0.1981
 2559TIP3    H1 7622   7.279   0.848   5.517  0.7975  1.0962 -2.1488
 2559TIP3    H2 7623   7.421   0.803   5.545 -0.0069  0.3394  1.1059
 2560TIP3   OH2 7624   1.522   3.690   0.343 -0.0194  0.0287  0.1318
 2560TIP3    H1 7625   1.539   3.608   0.296 -2.5107 -1.6501  1.9604
 2560TIP3    H2 7626   1.585   3.689   0.416  0.4412  0.1257 -0.2591
 2561TIP3   OH2 7627   3.980   4.790   3.073 -1.0450  0.3634  0.3423
 2561TIP3    H1 7628   3.921   4.865   3.060 -1.4454  0.2272  1.3068
 2561TIP3    H2 7629   4.020   4.806   3.158 -1.0939 -0.4888  0.5274
 2562TIP3   OH2 7630   4.377   6.758   5.268 -0.3423  0.0196 -0.8536
 2562TIP3    H1 7631   4.284   6.768   5.287 -0.5359 -0.7126 -1.3840
 2562TIP3    H2 7632   4.410   6.698   5.335  0.0400  1.2483  0.1085
 2563TIP3   OH2 7633   2.392   2.870   6.034  0.4779 -0.0649  0.1706
 2563TIP3    H1 7634   2.345   2.941   5.990  1.4887  0.8156  0.4695
 2563TIP3    H2 7635   2.384   2.796   5.975 -0.5954  0.2929 -0.1591
 2564TIP3   OH2 7636   2.668   2.938   5.979  0.5652 -0.1563 -0.2258
 2564TIP3    H1 7637   2.624   2.900   5.904 -0.6070 -0.3441  0.5353
 2564TIP3    H2 7638   2.599   2.982   6.029  1.3403  0.1218  0.6512
 2565TIP3   OH2 7639   3.597   6.608   2.847 -0.0051 -0.4756 -0.6240
 2565TIP3    H1 7640   3.597   6.609   2.751 -2.2395  1.0997 -0.6740
 2565TIP3    H2 7641   3.527   6.547   2.871 -0.6784  0.4968 -0.0493
 2566TIP3   OH2 7642   2.920   0.809   0.864 -0.0720  0.2614 -0.3710
 2566TIP3    H1 7643   2.880   0.887   0.902 -1.9145 -1.4919  1.5913
 2566TIP3    H2 7644   2.909   0.819   0.770 -0.1891  2.3463 -0.1809
 2567TIP3   OH2 7645   7.920   6.974   4.739  1.0641 -0.1476  0.2702
 2567TIP3    H1 7646   7.938   7.067   4.752  2.3684 -0.4301  0.6489
 2567TIP3    H2 7647   7.852   6.972   4.672  1.8847  1.0592 -0.6420
 2568TIP3   OH2 7648   0.024   2.610   5.973  0.0613  0.5410 -0.5739
 2568TIP3    H1 7649   0.107   2.614   5.927 -0.0691  0.5291 -0.8096
 2568TIP3    H2 7650  -0.029   2.547   5.923  0.1447  0.0415 -0.0487
 2569TIP3   OH2 7651   6.366   2.257   0.439 -0.1712  0.2703 -0.2358
 2569TIP3    H1 7652   6.320   2.338   0.460 -1.3888 -0.7805  1.5270
 2569TIP3    H2 7653   6.409   2.273   0.356 -0.8697  2.5057 -0.2120
 2570TIP3   OH2 7654   4.668   1.505   6.392  0.0444  0.0020  0.0480
 2570TIP3    H1 7655   4.729   1.552   6.334  0.5849 -0.8844 -0.1291
 2570TIP3    H2 7656   4.599   1.568   6.410  0.6540  0.8030 -0.3266
 2571TIP3   OH2 7657   1.108   4.540   6.085 -0.0088  0.0571  1.3130
 2571TIP3    H1 7658   1.125   4.546   5.992 -0.3028 -2.1596  1.0666
 2571TIP3    H2 7659   1.052   4.615   6.104  0.7399  1.0148 -0.0917
 2572TIP3   OH2 7660   5.741   4.669   6.072  0.2414  0.2767 -0.1361
 2572TIP3    H1 7661   5.747   4.667   6.167  0.2694 -1.5135 -0.1487
 2572TIP3    H2 7662   5.766   4.581   6.044  0.1764  0.7487 -1.7994
 2573TIP3   OH2 7663   2.744   6.539   1.117  0.3922  0.3488  0.1060
 2573TIP3    H1 7664   2.664   6.522   1.067  0.5911  1.0493 -0.4774
 2573TIP3    H2 7665   2.761   6.458   1.164 -0.6916  0.2097  0.2836
 2574TIP3   OH2 7666   3.666   6.253   0.722 -0.1133 -0.2386  0.2194
 2574TIP3    H1 7667   3.709   6.173   0.754  1.0372  0.0192 -0.6205
 2574TIP3    H2 7668   3.713   6.275   0.642 -0.9182  0.8609  0.0283
 2575TIP3   OH2 7669   7.013   3.208   1.208 -0.2673  0.3615 -0.5442
 2575TIP3    H1 7670   6.984   3.290   1.168  0.1196  0.1842 -1.2004
 2575TIP3    H2 7671   6.937   3.177   1.257 -0.0923  1.6651  0.6301
 2576TIP3   OH2 7672   0.189   2.235   4.604 -0.3849  0.0093 -0.1518
 2576TIP3    H1 7673   0.189   2.139   4.600  0.0395 -0.1639  2.3405
 2576TIP3    H2 7674   0.119   2.257   4.666 -0.1240  1.2824 -0.2716
 2577TIP3   OH2 7675   1.040   1.500   3.284 -0.1613 -0.2015  0.5099
 2577TIP3    H1 7676   1.056   1.489   3.190 -0.4560 -0.7522  0.5239
 2577TIP3    H2 7677   1.118   1.545   3.316 -0.2384  0.3626 -0.0721
 2578TIP3   OH2 7678   6.686   2.826   5.900 -0.0831 -0.4166  0.4892
 2578TIP3    H1 7679   6.725   2.773   5.831  0.7416  0.0197  0.6106
 2578TIP3    H2 7680   6.680   2.914   5.863  1.4726  0.0972  1.3459
 2579TIP3   OH2 7681   2.601   5.917   5.980  0.4930  0.2810  0.2549
 2579TIP3    H1 7682   2.529   5.959   6.027  0.3512  0.5408 -0.1846
 2579TIP3    H2 7683   2.627   5.845   6.036  0.3734  0.6274  0.7619
 2580TIP3   OH2 7684   4.550   6.913   2.864 -0.3234 -0.3434 -0.0930
 2580TIP3    H1 7685   4.465   6.914   2.907  0.7734 -0.8401  2.1987
 2580TIP3    H2 7686   4.534   6.955   2.779 -2.8267 -0.4418  0.2632
 2581TIP3   OH2 7687   3.813   5.479   1.372 -0.6063  0.1422 -0.3861
 2581TIP3    H1 7688   3.804   5.574   1.377  0.1039  0.1282  2.5213
 2581TIP3    H2 7689   3.886   5.466   1.311 -1.1077  1.3805 -1.3214
 2582TIP3   OH2 7690   0.734   5.823   1.629 -0.6660  0.5164 -0.4929
 2582TIP3    H1 7691   0.658   5.772   1.601 -0.4023 -0.9666  1.3608
 2582TIP3    H2 7692   0.751   5.882   1.555 -2.6044 -0.2318 -1.6102
 2583TIP3   OH2 7693   3.924   3.943   1.059 -0.1218  0.7224  0.0148
 2583TIP3    H1 7694   3.963   4.016   1.011  0.5077  0.4570  0.1156
 2583TIP3    H2 7695   3.980   3.933   1.136 -0.8397  0.8363  0.5700
 2584TIP3   OH2 7696   3.658   5.203   4.939  0.1900  0.2652 -0.3683
 2584TIP3    H1 7697   3.697   5.284   4.906  1.1957 -0.2931 -0.6030
 2584TIP3    H2 7698   3.687   5.198   5.030  2.3232 -1.0809 -1.0434
 2585TIP3   OH2 7699   3.572   1.236   3.388  0.8013 -0.6821 -0.1537
 2585TIP3    H1 7700   3.567   1.224   3.293  1.3438  0.8257 -0.4038
 2585TIP3    H2 7701   3.548   1.327   3.402  1.4287 -0.6834  1.0803
 2586TIP3   OH2 7702   3.066   2.993   2.524 -0.0770 -0.1503 -0.3591
 2586TIP3    H1 7703   3.104   2.998   2.612  0.3947  1.1287 -0.6013
 2586TIP3    H2 7704   3.097   2.910   2.489  1.6533  0.3631 -0.1416
 2587TIP3   OH2 7705   4.895   2.709   5.829 -0.5570 -0.4111  0.6123
 2587TIP3    H1 7706   4.948   2.688   5.752 -1.3459 -1.0163  0.2187
 2587TIP3    H2 7707   4.848   2.789   5.806 -0.9281 -0.6910  0.3937
 2588TIP3   OH2 7708   4.681   6.750   1.416  0.1990 -0.3705 -0.6441
 2588TIP3    H1 7709   4.653   6.660   1.435 -0.0636 -0.0104  0.7448
 2588TIP3    H2 7710   4.608   6.804   1.444  1.1953  0.4146  0.5561
 2589TIP3   OH2 7711   5.821   1.830   0.284 -0.2680 -0.3140  0.0236
 2589TIP3    H1 7712   5.815   1.763   0.216  1.3568  0.5526 -1.0413
 2589TIP3    H2 7713   5.739   1.879   0.275 -1.7193 -2.4022  1.1724
 2590TIP3   OH2 7714   0.665   5.191   4.053  0.4163  0.0059  0.1091
 2590TIP3    H1 7715   0.701   5.207   4.140 -1.0595 -0.4085  0.8211
 2590TIP3    H2 7716   0.735   5.219   3.993  0.7996  2.0080  1.3840
 2591TIP3   OH2 7717   3.816   3.865   2.440 -0.1525  0.0245 -0.2444
 2591TIP3    H1 7718   3.725   3.878   2.412 -0.1801  0.6799  0.1391
 2591TIP3    H2 7719   3.827   3.925   2.514  0.5041 -0.2729 -0.0949
 2592TIP3   OH2 7720   5.549   5.434   4.972  0.0987  0.0333 -0.2199
 2592TIP3    H1 7721   5.558   5.460   5.063 -0.8682  1.5125 -0.5124
 2592TIP3    H2 7722   5.639   5.417   4.943  0.3977 -0.6514  1.0385
 2593TIP3   OH2 7723   3.943   4.635   3.382  0.5714  0.1213 -0.2414
 2593TIP3    H1 7724   3.943   4.720   3.427 -0.9970 -0.5210  1.0761
 2593TIP3    H2 7725   4.033   4.625   3.350  1.0902  1.7675  0.5643
 2594TIP3   OH2 7726   2.734   1.161   2.005  0.4014  0.0945 -0.0929
 2594TIP3    H1 7727   2.779   1.122   2.080  3.1638  0.6062 -1.3343
 2594TIP3    H2 7728   2.746   1.097   1.935 -1.9595 -0.2817 -0.2044
 2595TIP3   OH2 7729   5.249   0.609   3.634 -0.4220 -0.3643  0.5967
 2595TIP3    H1 7730   5.331   0.648   3.664 -1.4249  1.3177  1.2795
 2595TIP3    H2 7731   5.259   0.515   3.652  1.9168 -0.4652 -0.7470
 2596TIP3   OH2 7732   6.303   4.225   5.772  0.3437  0.2858 -0.0134
 2596TIP3    H1 7733   6.383   4.276   5.764  1.3115 -1.0886  0.5735
 2596TIP3    H2 7734   6.277   4.234   5.864 -0.2190  0.7743 -0.2140
 2597TIP3   OH2 7735   1.879   1.692   1.934  0.8428 -0.0513  0.1071
 2597TIP3    H1 7736   1.952   1.639   1.902  0.6081 -0.3657  0.0813
 2597TIP3    H2 7737   1.836   1.723   1.855  1.1631  0.4373  0.1228
 2598TIP3   OH2 7738   0.665   3.694   4.277 -0.3463  0.3159  0.2339
 2598TIP3    H1 7739   0.657   3.656   4.364 -0.4177 -0.8034 -0.2408
 2598TIP3    H2 7740   0.747   3.743   4.279 -2.1921  3.6958  2.1239
 2599TIP3   OH2 7741   4.564   0.040   4.979  0.2961  0.7266  0.4585
 2599TIP3    H1 7742   4.642   0.096   4.975  1.4648 -0.8515 -0.1233
 2599TIP3    H2 7743   4.509   0.071   4.907  1.2927  0.6281 -0.3732
 2600TIP3   OH2 7744   7.752   5.676   4.549  0.9592 -0.8713  0.5238
 2600TIP3    H1 7745   7.765   5.613   4.619  0.9590 -0.7113  0.6702
 2600TIP3    H2 7746   7.684   5.735   4.583  1.9409  0.0356  0.9607
 2601TIP3   OH2 7747   4.444   1.296   4.860  0.1768 -0.4536 -0.1107
 2601TIP3    H1 7748   4.383   1.222   4.859  1.2716 -1.5890  3.2241
 2601TIP3    H2 7749   4.396   1.367   4.900  0.4146 -0.7539  0.7298
 2602TIP3   OH2 7750   7.245   2.282   5.021  0.5205 -0.3944 -0.1504
 2602TIP3    H1 7751   7.250   2.376   5.000  0.1827 -0.7197 -1.8303
 2602TIP3    H2 7752   7.334   2.260   5.049  0.7610  0.3061 -0.3194
 2603TIP3   OH2 7753   3.512   7.050   2.733  0.0543  0.5930 -0.4949
 2603TIP3    H1 7754   3.481   7.020   2.818 -1.3642  1.6625 -0.6108
 2603TIP3    H2 7755   3.457   7.004   2.670 -0.5829  1.6596 -0.7390
 2604TIP3   OH2 7756   0.613   7.537   5.103 -0.0831 -0.2396 -0.2141
 2604TIP3    H1 7757   0.522   7.565   5.109  0.2682  1.0667 -0.6578
 2604TIP3    H2 7758   0.626   7.519   5.010  0.3110  0.3189 -0.2716
 2605TIP3   OH2 7759   6.822   7.176   5.854 -0.1199  0.5292  0.6868
 2605TIP3    H1 7760   6.726   7.174   5.849 -0.4480 -0.1463  4.3404
 2605TIP3    H2 7761   6.842   7.136   5.939  3.5185 -0.6201 -0.5526
 2606TIP3   OH2 7762   4.103   3.843   4.430  0.2649 -0.0563 -0.6974
 2606TIP3    H1 7763   4.194   3.830   4.407  1.0475 -0.5150  2.2038
 2606TIP3    H2 7764   4.075   3.758   4.466 -1.1003  0.2735 -0.8974
 2607TIP3   OH2 7765   0.481   3.227   2.661 -0.0777 -0.0388  0.1076
 2607TIP3    H1 7766   0.479   3.322   2.648 -0.0403  0.1866  1.6201
 2607TIP3    H2 7767   0.574   3.206   2.669  0.0985 -0.5827 -2.5425
 2608TIP3   OH2 7768   5.846   2.859   6.070  0.2472  0.3147  0.0918
 2608TIP3    H1 7769   5.890   2.848   6.154 -0.7377 -3.2600  0.2787
 2608TIP3    H2 7770   5.753   2.865   6.092  0.0569  0.4656 -0.7071
 2609TIP3   OH2 7771   6.106   1.262   0.543  0.2442 -0.6226 -0.5533
 2609TIP3    H1 7772   6.159   1.341   0.543 -0.3110 -0.2225  1.0483
 2609TIP3    H2 7773   6.145   1.207   0.475  1.3479  0.5415 -0.8938
 2610TIP3   OH2 7774   4.213   6.108   0.161 -0.3784  0.9158 -0.3886
 2610TIP3    H1 7775   4.183   6.066   0.241  0.9818  0.7340  0.0476
 2610TIP3    H2 7776   4.200   6.201   0.176  0.2592  0.9138  0.2278
 2611TIP3   OH2 7777   0.526   2.653   6.337  0.0065  0.1917  0.2728
 2611TIP3    H1 7778   0.595   2.608   6.288 -0.7429  0.4171 -1.0441
 2611TIP3    H2 7779   0.451   2.593   6.334 -0.6611  1.0349 -0.5705
 2612TIP3   OH2 7780   7.820   6.177   1.510 -0.3266  0.2430  0.2629
 2612TIP3    H1 7781   7.909   6.143   1.510 -0.6824 -0.7363 -0.5380
 2612TIP3    H2 7782   7.793   6.173   1.418 -0.9163  1.3092  0.3684
 2613TIP3   OH2 7783   0.518   5.232   3.729 -0.6140 -0.1189 -0.1014
 2613TIP3    H1 7784   0.439   5.276   3.699  0.5940  1.5358 -1.0282
 2613TIP3    H2 7785   0.573   5.302   3.763  0.4356 -1.2392  0.5767
 2614TIP3   OH2 7786   7.964   0.932   5.865 -0.2531  0.0638  0.3813
 2614TIP3    H1 7787   7.932   0.848   5.898  0.2802  0.4652  2.0564
 2614TIP3    H2 7788   7.898   0.996   5.895  0.3819  0.4745  0.9479
 2615TIP3   OH2 7789   2.142   4.257   5.103 -0.1602 -0.1013  0.0548
 2615TIP3    H1 7790   2.099   4.251   5.188 -0.5834 -1.0410 -0.2173
 2615TIP3    H2 7791   2.091   4.322   5.055 -0.0163  0.3144  0.4599
 2616TIP3   OH2 7792   3.902   6.700   3.645  0.6716  0.3240  0.9733
 2616TIP3    H1 7793   3.840   6.746   3.701  1.6756  2.4438  0.4360
 2616TIP3    H2 7794   3.848   6.660   3.577 -0.2065  1.2216  1.1254
 2617TIP3   OH2 7795   2.215   6.000   0.879 -0.1136 -0.3783 -0.1181
 2617TIP3    H1 7796   2.121   5.995   0.890 -0.2028 -1.2140 -1.0202
 2617TIP3    H2 7797   2.247   5.914   0.906  0.2476 -0.4877 -0.8431
 2618TIP3   OH2 7798   0.779   2.511   0.526  0.0910  0.6328 -0.0749
 2618TIP3    H1 7799   0.833   2.453   0.473  0.4180 -1.1874  2.0610
 2618TIP3    H2 7800   0.691   2.474   0.518 -0.3505  1.8910 -1.3118
 2619TIP3   OH2 7801   8.154   5.687   1.005 -0.1680  0.0966  0.6526
 2619TIP3    H1 7802   8.228   5.638   1.041  0.8715  0.8483 -0.3850
 2619TIP3    H2 7803   8.148   5.765   1.061  0.9746  0.9001 -0.3030
 2620TIP3   OH2 7804   2.939   7.619   4.659  0.4758  0.0403  0.0771
 2620TIP3    H1 7805   2.976   7.593   4.744  0.2989 -1.2894 -0.2380
 2620TIP3    H2 7806   2.860   7.567   4.650  1.6883 -1.6124 -1.9224
 2621TIP3   OH2 7807   6.432   7.032   5.060  0.0793 -0.0739  0.2182
 2621TIP3    H1 7808   6.520   7.046   5.093  0.7806  1.8950 -2.2252
 2621TIP3    H2 7809   6.444   6.986   4.977 -0.9335  2.0769 -1.2256
 2622TIP3   OH2 7810   7.260   3.575   0.370 -0.3245  0.4942  0.6637
 2622TIP3    H1 7811   7.293   3.585   0.459 -0.1895  2.2424  0.4427
 2622TIP3    H2 7812   7.185   3.634   0.365 -1.1427 -0.5456 -0.0185
 2623TIP3   OH2 7813   4.153   7.707   0.280 -0.3274  0.0611  0.0090
 2623TIP3    H1 7814   4.159   7.751   0.364  2.2895  0.4783 -0.3014
 2623TIP3    H2 7815   4.059   7.702   0.262 -0.9702  0.1077  2.8294
 2624TIP3   OH2 7816   6.349   0.805   0.561  0.2666  0.1903  0.9170
 2624TIP3    H1 7817   6.257   0.792   0.581 -0.0046 -1.0943 -0.8657
 2624TIP3    H2 7818   6.377   0.877   0.618 -1.6945  0.2962  1.8177
 2625TIP3   OH2 7819   8.229   5.938   2.066  0.4325 -0.6038  0.1767
 2625TIP3    H1 7820   8.295   5.948   1.997 -0.2447 -3.7780 -1.1189
 2625TIP3    H2 7821   8.280   5.920   2.145  1.1721 -0.3532 -0.2348
 2626TIP3   OH2 7822   0.762   5.484   5.358  0.4068 -0.0149 -0.1281
 2626TIP3    H1 7823   0.853   5.494   5.331 -0.3802  1.9836 -2.3961
 2626TIP3    H2 7824   0.751   5.390   5.370  2.3402 -0.4801 -1.4291
 2627TIP3   OH2 7825   2.739   5.628   2.741 -0.1486  0.1067 -0.0571
 2627TIP3    H1 7826   2.742   5.712   2.787 -0.1601  0.2243 -0.2690
 2627TIP3    H2 7827   2.648   5.600   2.746 -0.0562 -0.1111  0.4034
 2628TIP3   OH2 7828   5.340   4.601   3.009 -0.1176  0.0292  0.0659
 2628TIP3    H1 7829   5.284   4.628   2.937 -0.2537 -0.3224  0.0391
 2628TIP3    H2 7830   5.342   4.677   3.068  2.0479  1.3245 -1.5195
 2629TIP3   OH2 7831   3.109   0.975   6.072  0.5659  0.1297 -0.1565
 2629TIP3    H1 7832   3.041   0.990   6.007 -1.3213 -0.4443  1.5674
 2629TIP3    H2 7833   3.186   0.950   6.021 -1.1103 -1.3816 -2.1262
 2630TIP3   OH2 7834   1.330   6.463   3.027  0.0433 -0.0454  0.2066
 2630TIP3    H1 7835   1.268   6.510   2.972 -0.4029 -0.7008  0.1345
 2630TIP3    H2 7836   1.307   6.489   3.116 -0.4271 -0.3825  0.1889
 2631TIP3   OH2 7837   7.223   4.677   3.005  0.2178 -0.1823 -0.2565
 2631TIP3    H1 7838   7.134   4.708   3.018  0.5486 -0.1919  2.5414
 2631TIP3    H2 7839   7.213   4.596   2.955 -1.3465 -0.1819  0.0148
 2632TIP3   OH2 7840   6.948   2.865   5.104 -0.2447 -0.2947  0.4844
 2632TIP3    H1 7841   6.925   2.902   5.189 -0.6725  1.3722 -0.3022
 2632TIP3    H2 7842   6.987   2.939   5.056  1.9266 -1.7063 -0.0709
 2633TIP3   OH2 7843   6.782   6.658   5.707  0.1196 -0.0836  0.1113
 2633TIP3    H1 7844   6.698   6.690   5.675  1.3185  2.0091 -1.1977
 2633TIP3    H2 7845   6.785   6.566   5.681 -0.8229  0.4101 -1.9272
 2634TIP3   OH2 7846   3.944   1.708   0.806 -0.6533 -0.7343 -0.2815
 2634TIP3    H1 7847   4.006   1.780   0.819 -0.5732 -0.6201 -1.2047
 2634TIP3    H2 7848   3.989   1.648   0.747  0.6125 -3.2362  2.9823
 2635TIP3   OH2 7849   2.144   7.306   0.989 -0.0340 -0.0762 -0.3543
 2635TIP3    H1 7850   2.158   7.318   0.895  0.0105  0.0231 -0.3350
 2635TIP3    H2 7851   2.177   7.218   1.007  2.9976  1.0377  0.1651
 2636TIP3   OH2 7852   7.963   2.029   4.505  1.0800  0.3716  0.5095
 2636TIP3    H1 7853   7.976   2.121   4.528  1.2532  0.0587  1.6978
 2636TIP3    H2 7854   7.879   2.029   4.458  1.5363  1.2567 -0.3544
 2637TIP3   OH2 7855   1.170   1.542   2.769  0.0641 -0.2065 -0.3912
 2637TIP3    H1 7856   1.134   1.547   2.681  0.5248 -0.7128 -0.6114
 2637TIP3    H2 7857   1.235   1.472   2.765 -0.0059 -0.3271  0.3830
 2638TIP3   OH2 7858   3.242   1.133   4.628 -0.0267  0.5034  0.0818
 2638TIP3    H1 7859   3.222   1.148   4.535 -1.2953  0.9887  0.4121
 2638TIP3    H2 7860   3.270   1.042   4.632 -1.7363 -0.0856 -0.5369
 2639TIP3   OH2 7861   6.073   1.525   1.155  0.5262 -0.1602 -0.2778
 2639TIP3    H1 7862   6.085   1.463   1.227  0.7040 -0.1744 -0.3187
 2639TIP3    H2 7863   5.994   1.574   1.178  0.5563 -0.1969 -0.0970
 2640TIP3   OH2 7864   0.755   6.134   6.431  0.3504 -0.1258 -0.3935
 2640TIP3    H1 7865   0.770   6.105   6.341 -0.2826  0.0506 -0.5635
 2640TIP3    H2 7866   0.839   6.172   6.458  1.2532 -2.2059 -0.1098
 2641TIP3   OH2 7867   7.469   7.578   0.465  1.1993 -0.4867  0.3730
 2641TIP3    H1 7868   7.477   7.553   0.557 -4.4212 -1.0089  1.0909
 2641TIP3    H2 7869   7.406   7.649   0.465  2.1143  0.5048 -3.0748
 2642TIP3   OH2 7870   5.207   3.380   0.728  0.2383  0.4399  0.6100
 2642TIP3    H1 7871   5.291   3.422   0.710  0.4254  1.3409  3.2323
 2642TIP3    H2 7872   5.154   3.449   0.768 -0.6461 -0.9309  1.8816
 2643TIP3   OH2 7873   0.652   6.159   2.120  0.2330 -1.2343 -0.4702
 2643TIP3    H1 7874   0.632   6.081   2.069 -0.1596 -1.4745  0.0328
 2643TIP3    H2 7875   0.739   6.141   2.157  0.1335 -1.4509 -0.3336
 2644TIP3   OH2 7876   2.073   6.578   4.038  0.4668 -0.3835  0.3179
 2644TIP3    H1 7877   2.045   6.670   4.036 -1.0098 -0.7175 -3.1811
 2644TIP3    H2 7878   2.168   6.582   4.029  0.3278  0.8666 -1.0595
 2645TIP3   OH2 7879   7.431   1.827   5.067 -0.3067 -0.1916  0.1822
 2645TIP3    H1 7880   7.399   1.780   4.990  1.0112 -0.4019 -0.2729
 2645TIP3    H2 7881   7.504   1.880   5.035 -0.1576  0.2223  1.1570
 2646TIP3   OH2 7882   4.331   4.113   1.063  0.1506  0.3587  0.0606
 2646TIP3    H1 7883   4.420   4.103   1.096  0.2344  2.3726  0.6165
 2646TIP3    H2 7884   4.289   4.172   1.126 -1.7090 -0.8239  0.0089
 2647TIP3   OH2 7885   7.258   6.639   3.210  0.5725 -0.0046  0.6104
 2647TIP3    H1 7886   7.303   6.559   3.235 -0.1370 -0.8358 -0.6642
 2647TIP3    H2 7887   7.179   6.609   3.166  1.5082  1.3266 -2.1714
 2648TIP3   OH2 7888   6.464   3.261   0.028 -0.2387  0.3920  0.4296
 2648TIP3    H1 7889   6.464   3.355   0.014  0.4348  0.0664 -2.3725
 2648TIP3    H2 7890   6.557   3.237   0.036 -0.2495 -0.2574 -1.0920
 2649TIP3   OH2 7891   6.363   2.533   0.380  0.2949 -0.0418 -0.5689
 2649TIP3    H1 7892   6.366   2.489   0.295 -1.6888 -0.2720 -0.5554
 2649TIP3    H2 7893   6.271   2.555   0.393  0.6518  0.5484  1.2524
 2650TIP3   OH2 7894   6.766   1.767   0.104 -0.4160 -0.0036 -0.2836
 2650TIP3    H1 7895   6.831   1.835   0.090 -1.2032  0.9944  0.7541
 2650TIP3    H2 7896   6.736   1.780   0.194 -0.9244 -1.4285 -0.2169
 2651TIP3   OH2 7897   2.428   2.946   2.849 -0.0466 -0.7628  0.2490
 2651TIP3    H1 7898   2.523   2.936   2.848 -0.0131 -0.5586  0.9171
 2651TIP3    H2 7899   2.413   3.031   2.806  0.3608  1.0721  3.4173
 2652TIP3   OH2 7900   1.609   7.170   5.455  0.3629 -0.7946 -0.6301
 2652TIP3    H1 7901   1.587   7.092   5.507  2.1389 -0.3199  0.9244
 2652TIP3    H2 7902   1.525   7.210   5.436 -0.4079 -1.2831  1.4523
 2653TIP3   OH2 7903   0.305   4.143   6.417 -0.0201  0.0119  0.0159
 2653TIP3    H1 7904   0.287   4.230   6.453 -0.2414 -0.8937  2.2408
 2653TIP3    H2 7905   0.220   4.111   6.387 -0.4662 -0.5151  1.7748
 2654TIP3   OH2 7906   4.365   4.865   4.217 -0.3884  0.1050  0.6082
 2654TIP3    H1 7907   4.440   4.907   4.260 -0.4621 -0.3230  1.1647
 2654TIP3    H2 7908   4.347   4.787   4.271  0.9293 -1.7134 -1.4214
 2655TIP3   OH2 7909   2.414   7.480   5.049  0.2624 -0.7297  0.2956
 2655TIP3    H1 7910   2.478   7.491   5.119  1.2738 -0.0861 -0.7010
 2655TIP3    H2 7911   2.460   7.504   4.970 -1.1685 -0.4296 -0.4869
 2656TIP3   OH2 7912   1.707   6.588   3.569  0.2102  0.0404 -0.3470
 2656TIP3    H1 7913   1.692   6.579   3.475  0.0953 -1.7814 -0.1974
 2656TIP3    H2 7914   1.620   6.577   3.608  0.5959 -1.8500  0.0772
 2657TIP3   OH2 7915   7.351   3.832   6.789 -0.4340 -0.0942  0.3361
 2657TIP3    H1 7916   7.338   3.754   6.736 -2.2498  0.4705 -0.1308
 2657TIP3    H2 7917   7.436   3.866   6.762 -0.5742 -0.7468 -0.9987
 2658TIP3   OH2 7918   1.013   4.877   5.308  0.1779  0.2685  0.4131
 2658TIP3    H1 7919   1.106   4.867   5.325 -0.0269  0.0841  1.5329
 2658TIP3    H2 7920   0.995   4.820   5.233  1.3420  1.9124 -1.1900
 2659TIP3   OH2 7921   6.691   6.217   1.620 -1.2455 -0.2386  0.0967
 2659TIP3    H1 7922   6.671   6.310   1.609 -0.1745 -0.0582 -0.4177
 2659TIP3    H2 7923   6.680   6.180   1.532  1.4142  0.0388 -0.4380
 2660TIP3   OH2 7924   2.125   5.815   2.140  0.3844 -0.5074 -0.1620
 2660TIP3    H1 7925   2.198   5.787   2.196 -0.3994 -0.5220  0.8985
 2660TIP3    H2 7926   2.166   5.865   2.070  1.7122 -3.0897 -1.3451
 2661TIP3   OH2 7927   5.060   4.656   3.247 -0.0087  0.5171 -0.6631
 2661TIP3    H1 7928   5.139   4.709   3.251  0.4959 -0.2527 -0.1101
 2661TIP3    H2 7929   5.014   4.687   3.169  0.3495  1.6454 -0.4398
 2662TIP3   OH2 7930   0.373   7.411   0.473 -0.2008  0.1757  0.0307
 2662TIP3    H1 7931   0.333   7.491   0.440 -1.6106 -0.0812  1.0174
 2662TIP3    H2 7932   0.311   7.342   0.449  0.1483 -0.3810  0.6894
 2663TIP3   OH2 7933   2.054   3.792   1.018 -0.4152 -0.2698 -0.1217
 2663TIP3    H1 7934   2.146   3.789   1.042 -0.1724  2.4981 -0.4442
 2663TIP3    H2 7935   2.017   3.711   1.054  1.6189 -0.2582  2.2247
 2664TIP3   OH2 7936   7.455   5.612   5.195  0.1569 -0.8548 -0.3111
 2664TIP3    H1 7937   7.441   5.591   5.287  0.4957  2.0256  0.5091
 2664TIP3    H2 7938   7.368   5.607   5.156 -0.0129 -1.9547  0.1674
 2665TIP3   OH2 7939   4.671   0.893   4.424  0.3105  0.3074  0.1132
 2665TIP3    H1 7940   4.679   0.876   4.330 -0.0534  0.9706 -0.0395
 2665TIP3    H2 7941   4.747   0.946   4.446  0.4441  0.0767  0.2163
 2666TIP3   OH2 7942   6.295   1.366   2.018 -0.6021 -0.2784 -0.1507
 2666TIP3    H1 7943   6.308   1.285   2.069 -0.7984 -1.4327 -1.8542
 2666TIP3    H2 7944   6.205   1.358   1.986 -0.8214  0.9254  0.1210
 2667TIP3   OH2 7945   6.108   4.499   0.042  0.1183 -0.2993  0.0296
 2667TIP3    H1 7946   6.161   4.463  -0.029  1.5293  2.0767 -0.2183
 2667TIP3    H2 7947   6.026   4.527   0.000  0.5996  0.3135 -0.5104
 2668TIP3   OH2 7948   4.181   1.709   4.620  0.2161  0.3439 -0.2146
 2668TIP3    H1 7949   4.190   1.776   4.687  0.2299  0.7286 -0.5966
 2668TIP3    H2 7950   4.270   1.677   4.604  0.3496  0.9865 -0.7900
 2669TIP3   OH2 7951   6.266   3.892   3.391 -0.0040 -0.0716  0.4455
 2669TIP3    H1 7952   6.356   3.920   3.375  0.2105 -0.4307  0.9613
 2669TIP3    H2 7953   6.240   3.940   3.470 -0.3939  0.3039  0.0891
 2670TIP3   OH2 7954   5.625   0.800   2.518  0.6836  0.4369  0.4961
 2670TIP3    H1 7955   5.584   0.847   2.445  1.2831 -1.1492 -0.9201
 2670TIP3    H2 7956   5.712   0.838   2.524  0.4041  1.0377  0.8518
 2671TIP3   OH2 7957   6.400   7.353   1.548 -0.3308 -0.3484 -0.5177
 2671TIP3    H1 7958   6.492   7.327   1.555 -0.3821 -1.3060 -2.6432
 2671TIP3    H2 7959   6.393   7.395   1.463 -1.6110  0.9872  0.2060
 2672TIP3   OH2 7960   0.057   0.162   4.779 -0.2087  0.1132  0.4510
 2672TIP3    H1 7961   0.051   0.073   4.744 -1.1388  0.5807 -0.6394
 2672TIP3    H2 7962   0.127   0.203   4.729 -1.4286  0.7326 -0.7873
 2673TIP3   OH2 7963   0.805   6.503   0.591 -0.7440  0.1185  0.3219
 2673TIP3    H1 7964   0.764   6.572   0.539 -1.0230 -1.0559 -1.0576
 2673TIP3    H2 7965   0.879   6.547   0.635 -2.4897  1.9291  1.6758
 2674TIP3   OH2 7966   7.026   4.119   2.418  0.2391 -0.4874 -0.5030
 2674TIP3    H1 7967   6.996   4.076   2.499 -1.9339 -0.3475 -1.1659
 2674TIP3    H2 7968   7.081   4.191   2.448 -1.6280  0.4234  0.9947
 2675TIP3   OH2 7969   3.549   0.437   5.905  0.0840 -0.4051  0.4028
 2675TIP3    H1 7970   3.544   0.502   5.835  0.1163 -0.0634  0.7140
 2675TIP3    H2 7971   3.502   0.361   5.870  0.6984 -0.4955 -0.2612
 2676TIP3   OH2 7972   5.858   0.843   1.440  0.6527  0.0558 -0.0494
 2676TIP3    H1 7973   5.819   0.803   1.362  0.7574 -0.3205  0.0885
 2676TIP3    H2 7974   5.806   0.808   1.513 -0.1434  1.2347 -0.0162
 2677TIP3   OH2 7975   2.752   7.374   3.517 -0.4452 -0.1299 -0.5046
 2677TIP3    H1 7976   2.804   7.325   3.453 -0.5246 -1.0487  0.1305
 2677TIP3    H2 7977   2.771   7.466   3.497  1.1583 -0.4390 -0.4995
 2678TIP3   OH2 7978   4.147   3.496   1.265 -0.4605  0.2800  0.1563
 2678TIP3    H1 7979   4.108   3.548   1.194 -0.9896  0.4463  0.5642
 2678TIP3    H2 7980   4.205   3.557   1.310  1.2790 -0.2791 -1.2005
 2679TIP3   OH2 7981   1.521   1.299   0.040 -0.2895  0.4057 -0.2217
 2679TIP3    H1 7982   1.535   1.328   0.130  0.0233 -3.6975  1.2522
 2679TIP3    H2 7983   1.429   1.270   0.039 -0.7293  1.7316 -1.7163
 2680TIP3   OH2 7984   5.868   6.968   3.898 -0.6087  0.3369  0.2733
 2680TIP3    H1 7985   5.959   6.981   3.926 -0.3796 -0.1506 -0.2196
 2680TIP3    H2 7986   5.824   7.051   3.918 -0.1525  0.4293  0.8940
 2681TIP3   OH2 7987   1.665   1.198   5.852 -0.1742 -0.0037 -0.5801
 2681TIP3    H1 7988   1.594   1.227   5.795 -0.3774  0.0786 -0.2858
 2681TIP3    H2 7989   1.736   1.176   5.792  0.1112  1.4332 -0.7990
 2682TIP3   OH2 7990   2.379   7.160   1.372  0.0699  0.4949 -0.3526
 2682TIP3    H1 7991   2.419   7.231   1.422 -0.1782  0.4112 -0.0245
 2682TIP3    H2 7992   2.287   7.159   1.402 -0.8526  2.2431 -2.8137
 2683TIP3   OH2 7993   1.606   6.638   0.512 -0.1985  0.0402 -0.3913
 2683TIP3    H1 7994   1.518   6.633   0.551 -1.6780 -1.8992 -3.5767
 2683TIP3    H2 7995   1.635   6.727   0.532 -2.6512  0.6182  1.1953
 2684TIP3   OH2 7996   6.356   3.599   6.754  0.5890  0.2441  0.2570
 2684TIP3    H1 7997   6.397   3.684   6.768 -1.3231  1.5264 -1.3677
 2684TIP3    H2 7998   6.363   3.584   6.660  0.3163 -1.1092  0.4221
 2685TIP3   OH2 7999   6.022   5.932   2.782  0.3667 -0.5724 -0.4813
 2685TIP3    H1 8000   5.935   5.929   2.821  0.3814 -0.3451 -0.4298
 2685TIP3    H2 8001   6.011   5.890   2.696 -0.0071  0.3196 -0.8792
 2686TIP3   OH2 8002   2.860   5.105   0.644 -0.0171 -0.2383 -0.1807
 2686TIP3    H1 8003   2.858   5.191   0.685  1.9366  0.2567 -1.0221
 2686TIP3    H2 8004   2.915   5.053   0.702  0.9411 -0.1639 -1.0077
 2687TIP3   OH2 8005   3.117   3.752   4.163 -0.3360  0.0220  0.0636
 2687TIP3    H1 8006   3.161   3.815   4.105 -0.7944  0.6150  0.3515
 2687TIP3    H2 8007   3.026   3.782   4.166  0.0118  1.0994  2.5014
 2688TIP3   OH2 8008   5.899   0.055   2.475 -0.1172  0.2879 -0.2303
 2688TIP3    H1 8009   5.904   0.127   2.537 -0.6580  0.7207 -0.6819
 2688TIP3    H2 8010   5.820   0.073   2.423 -0.0289 -0.4052 -0.6178
 2689TIP3   OH2 8011   1.858   6.028   4.105 -0.3692 -0.6978  0.0813
 2689TIP3    H1 8012   1.870   6.109   4.056 -0.6740 -1.4525 -1.3248
 2689TIP3    H2 8013   1.893   6.046   4.192 -0.6915  1.0159 -0.1069
 2690TIP3   OH2 8014   6.037   0.123   1.082  0.3793  0.0723 -0.1345
 2690TIP3    H1 8015   5.947   0.156   1.079 -0.5222 -2.2156 -0.1564
 2690TIP3    H2 8016   6.090   0.194   1.047 -1.5437  1.1124 -1.0777
 2691TIP3   OH2 8017   5.371   1.260   4.013  0.0245 -0.3646 -1.1811
 2691TIP3    H1 8018   5.298   1.227   4.065  0.2488  0.3779 -0.3651
 2691TIP3    H2 8019   5.375   1.353   4.034  0.4516 -0.1559 -2.1417
 2692TIP3   OH2 8020   2.102   5.838   4.246  0.3011  0.3542 -0.6610
 2692TIP3    H1 8021   2.155   5.791   4.310 -0.5365  2.2631  1.5667
 2692TIP3    H2 8022   2.164   5.890   4.196  0.7687  0.6413  0.2132
 2693TIP3   OH2 8023   7.245   5.622   5.991  0.2310 -0.8459 -0.6305
 2693TIP3    H1 8024   7.179   5.565   6.031 -0.6855  0.3845 -0.3124
 2693TIP3    H2 8025   7.250   5.697   6.049  0.4074  0.0285 -1.7410
 2694TIP3   OH2 8026   3.434   3.444   6.426  0.0827 -0.1653  0.6643
 2694TIP3    H1 8027   3.486   3.519   6.454  0.2837  0.0405 -0.2144
 2694TIP3    H2 8028   3.365   3.482   6.372  0.3799 -0.6323 -0.0617
 2695TIP3   OH2 8029   2.991   7.047   5.005 -0.2529 -0.6198  0.3787
 2695TIP3    H1 8030   3.019   7.076   5.093  0.4598 -0.2644  0.0432
 2695TIP3    H2 8031   3.025   6.958   4.997 -0.2493 -0.6234  0.4272
 2696TIP3   OH2 8032   5.728   2.340   5.791 -0.2524  0.3472 -0.0033
 2696TIP3    H1 8033   5.791   2.316   5.723 -0.3246 -0.4672  0.2045
 2696TIP3    H2 8034   5.781   2.380   5.860  0.4228 -2.2885  1.1502
 2697TIP3   OH2 8035   3.592   1.658   6.058  0.0534 -0.2303 -0.3612
 2697TIP3    H1 8036   3.514   1.609   6.083  1.2235 -2.1447 -0.2813
 2697TIP3    H2 8037   3.567   1.703   5.977 -1.7732  0.9447  0.7778
 2698TIP3   OH2 8038   8.169   2.516   0.041  0.0796 -0.6491 -0.6121
 2698TIP3    H1 8039   8.159   2.600  -0.004  0.7594 -1.4154 -2.2948
 2698TIP3    H2 8040   8.200   2.539   0.129  0.0093  0.8640 -0.9574
 2699TIP3   OH2 8041   1.485   5.943   6.273  0.2294 -0.3987  0.6158
 2699TIP3    H1 8042   1.503   6.014   6.211  1.5796  0.1883  1.6318
 2699TIP3    H2 8043   1.454   5.871   6.218 -1.5751  1.0720 -0.4092
 2700TIP3   OH2 8044   0.198   3.060   1.481 -0.0219 -0.4043  0.5062
 2700TIP3    H1 8045   0.121   3.047   1.425  0.9324  1.3052 -1.3628
 2700TIP3    H2 8046   0.163   3.097   1.562 -1.2580 -0.4763  0.0252
 2701TIP3   OH2 8047   2.188   2.626   6.463  0.4028 -0.2408  0.0245
 2701TIP3    H1 8048   2.162   2.644   6.372  2.0192  0.1046 -0.3983
 2701TIP3    H2 8049   2.139   2.691   6.514 -2.0521 -1.6796 -0.3200
 2702TIP3   OH2 8050   4.097   5.442   5.159  0.1145  0.5011 -0.0212
 2702TIP3    H1 8051   4.184   5.415   5.188 -0.3935  1.0137  2.2110
 2702TIP3    H2 8052   4.042   5.366   5.177 -0.0082  0.3644 -0.9384
 2703TIP3   OH2 8053   3.835   3.599   2.429 -0.4878  0.3169 -0.5162
 2703TIP3    H1 8054   3.835   3.695   2.427 -1.1993  0.3496  0.4633
 2703TIP3    H2 8055   3.861   3.577   2.518  2.1056 -0.4610 -1.3759
 2704TIP3   OH2 8056   2.634   1.685   3.269 -0.0255  0.5193 -0.1951
 2704TIP3    H1 8057   2.692   1.756   3.296 -1.2781  1.5980 -0.2112
 2704TIP3    H2 8058   2.548   1.709   3.304 -1.3278  1.0235 -3.3815
 2705TIP3   OH2 8059   0.391   7.439   1.040  0.5678  0.0180 -0.3937
 2705TIP3    H1 8060   0.366   7.406   1.126 -0.4413 -2.8425 -1.6598
 2705TIP3    H2 8061   0.485   7.419   1.033  0.5099 -0.3269 -0.1888
 2706TIP3   OH2 8062   0.867   3.896   5.717  0.2149 -0.1847  1.0814
 2706TIP3    H1 8063   0.950   3.865   5.753  0.0687  0.8117  2.3396
 2706TIP3    H2 8064   0.832   3.955   5.784  0.4999  2.7648 -1.1591
 2707TIP3   OH2 8065   2.039   5.673   0.897  0.2447  0.2718  0.1682
 2707TIP3    H1 8066   2.122   5.694   0.854 -0.5623  0.0268 -1.5782
 2707TIP3    H2 8067   2.008   5.595   0.853 -0.8224  0.2337  0.9516
 2708TIP3   OH2 8068   6.195   4.126   3.925 -0.6063  0.2906 -0.3552
 2708TIP3    H1 8069   6.127   4.191   3.942  0.5646  1.7489 -1.1117
 2708TIP3    H2 8070   6.276   4.165   3.957  0.3422 -0.2236 -1.9937
 2709TIP3   OH2 8071   6.731   6.073   5.589  0.1868 -0.4175  0.3913
 2709TIP3    H1 8072   6.714   5.989   5.545 -2.7440  1.2080 -1.9772
 2709TIP3    H2 8073   6.779   6.124   5.524 -0.1299  0.5271  0.8894
 2710TIP3   OH2 8074   2.194   3.051   4.667 -1.0767 -0.3002 -0.4274
 2710TIP3    H1 8075   2.192   3.131   4.720 -0.6069 -1.5808  1.6475
 2710TIP3    H2 8076   2.102   3.034   4.647 -1.2971  0.0979  0.1896
 2711TIP3   OH2 8077   2.207   1.507   1.897 -0.9774  0.2830  0.4533
 2711TIP3    H1 8078   2.227   1.579   1.957 -0.6183  0.0662  0.5944
 2711TIP3    H2 8079   2.276   1.511   1.831 -0.5420 -0.3649  0.8517
 2712TIP3   OH2 8080   4.747   2.642   3.666  0.0544  0.0914 -0.6879
 2712TIP3    H1 8081   4.790   2.690   3.738 -1.4984 -1.2837  1.2775
 2712TIP3    H2 8082   4.654   2.663   3.677 -0.4924 -2.1633 -0.6883
 2713TIP3   OH2 8083   4.757   3.372   5.099 -0.3616 -0.1682 -0.0512
 2713TIP3    H1 8084   4.689   3.346   5.161  0.7571 -2.0507  0.4513
 2713TIP3    H2 8085   4.807   3.440   5.145 -0.1272 -0.8601  0.7280
 2714TIP3   OH2 8086   1.122   2.998   5.851 -0.2890 -0.1648 -0.0328
 2714TIP3    H1 8087   1.032   2.976   5.825 -0.1810  0.0722 -0.6027
 2714TIP3    H2 8088   1.174   2.923   5.822 -0.6963 -1.8086  3.0096
 2715TIP3   OH2 8089   3.315   4.489   5.902 -0.7203  0.1344 -0.2764
 2715TIP3    H1 8090   3.307   4.479   5.997 -0.0246 -0.5237 -0.2772
 2715TIP3    H2 8091   3.225   4.481   5.870 -0.7002 -2.2150  0.1103
 2716TIP3   OH2 8092   1.683   3.160   0.732 -0.2374  0.2230 -0.0863
 2716TIP3    H1 8093   1.701   3.144   0.640  0.5114  1.9627 -0.2790
 2716TIP3    H2 8094   1.605   3.215   0.732 -1.4660 -1.4201  0.4541
 2717TIP3   OH2 8095   4.718   6.978   2.627  0.3808 -0.7697  0.1169
 2717TIP3    H1 8096   4.717   6.948   2.536 -0.1507 -0.9849  0.1914
 2717TIP3    H2 8097   4.687   7.068   2.623  2.1334 -0.1234 -0.1269
 2718TIP3   OH2 8098   7.289   1.372   0.316 -0.2637  0.0409  0.1407
 2718TIP3    H1 8099   7.367   1.336   0.272  0.3388 -1.1980  2.1182
 2718TIP3    H2 8100   7.318   1.458   0.347 -0.1686  0.2115 -0.3996
 2719TIP3   OH2 8101   2.829   3.735   4.110 -0.4075  0.1191  0.2812
 2719TIP3    H1 8102   2.851   3.660   4.166 -2.1896  0.0465  0.9791
 2719TIP3    H2 8103   2.772   3.789   4.165  0.5517  1.8198 -0.3411
 2720TIP3   OH2 8104   7.850   4.532   3.198 -0.2897 -0.2298  0.6008
 2720TIP3    H1 8105   7.782   4.517   3.264 -0.0845  0.8136  1.0606
 2720TIP3    H2 8106   7.866   4.445   3.161 -0.6429 -0.7805  1.6946
 2721TIP3   OH2 8107   8.249   2.193   6.230  0.7921  0.1043 -0.0396
 2721TIP3    H1 8108   8.157   2.215   6.212  1.0213  0.3343 -1.0065
 2721TIP3    H2 8109   8.294   2.278   6.232  1.0314 -0.0265  0.1485
 2722TIP3   OH2 8110   8.039   4.999   0.151  0.2106  0.3178  0.3840
 2722TIP3    H1 8111   8.121   5.025   0.193  1.2359 -1.1587 -0.5748
 2722TIP3    H2 8112   8.033   5.056   0.074  0.6213  0.0938  0.1805
 2723TIP3   OH2 8113   2.150   7.134   4.952  0.3121 -0.4292  0.5285
 2723TIP3    H1 8114   2.241   7.112   4.971  0.3648  0.1537  0.9655
 2723TIP3    H2 8115   2.099   7.082   5.014  0.3595 -0.5456  0.4705
 2724TIP3   OH2 8116   3.566   4.872   1.787 -0.5683 -0.3947  0.1037
 2724TIP3    H1 8117   3.626   4.945   1.773 -0.4940 -0.5762 -0.5942
 2724TIP3    H2 8118   3.547   4.874   1.880  0.8347 -0.5686  0.4173
 2725TIP3   OH2 8119   4.619   2.095   3.477  0.1171 -0.0664  0.5857
 2725TIP3    H1 8120   4.705   2.085   3.518  0.1407 -1.0457  0.3040
 2725TIP3    H2 8121   4.583   2.174   3.518  0.7672 -0.1583  1.3649
 2726TIP3   OH2 8122   5.028   6.719   1.987 -0.1018 -0.2074 -0.5457
 2726TIP3    H1 8123   5.122   6.732   1.971 -0.1146  0.2716 -0.2669
 2726TIP3    H2 8124   4.990   6.710   1.899  0.3203 -1.2793 -0.6210
 2727TIP3   OH2 8125   5.018   5.554   5.767  0.5294  0.0508 -0.1515
 2727TIP3    H1 8126   4.938   5.605   5.757 -0.3416 -1.2338  0.0242
 2727TIP3    H2 8127   4.995   5.484   5.829  1.9439 -0.0261  0.3463
 2728TIP3   OH2 8128   1.877   4.329   1.914  0.2444  0.2512 -0.7341
 2728TIP3    H1 8129   1.872   4.335   1.818  0.5517  0.1778 -0.7570
 2728TIP3    H2 8130   1.838   4.244   1.934  0.4937  0.1163 -0.8219
 2729TIP3   OH2 8131   5.188   2.501   5.264 -0.4786  0.2517 -0.1221
 2729TIP3    H1 8132   5.246   2.538   5.330 -1.0199 -1.7969  1.6371
 2729TIP3    H2 8133   5.244   2.442   5.213 -0.3618  0.7437 -0.5713
 2730TIP3   OH2 8134   0.881   6.937   3.747 -0.5839 -0.0376 -0.1650
 2730TIP3    H1 8135   0.842   7.024   3.741 -1.1280 -0.3131 -0.8669
 2730TIP3    H2 8136   0.972   6.949   3.722 -0.5443  0.4042  0.1938
 2731TIP3   OH2 8137   8.248   0.271   6.502  0.0523 -0.4776  0.6266
 2731TIP3    H1 8138   8.227   0.178   6.493  1.9283 -1.1491  2.5056
 2731TIP3    H2 8139   8.343   0.274   6.510  0.0862  1.6890  0.0429
 2732TIP3   OH2 8140   3.054   4.848   3.977 -0.2426 -0.5739  0.4284
 2732TIP3    H1 8141   3.021   4.847   4.066  2.3713  0.5477  1.5246
 2732TIP3    H2 8142   3.070   4.940   3.958 -1.4502 -0.7169 -1.5263
 2733TIP3   OH2 8143   3.948   3.077   1.974 -0.2739 -0.0881  0.4241
 2733TIP3    H1 8144   3.885   3.149   1.969 -1.2072 -0.9363 -0.6864
 2733TIP3    H2 8145   4.008   3.102   2.044 -2.4578  0.2877  2.2939
 2734TIP3   OH2 8146   6.839   0.995   0.894 -0.0116  0.2686 -0.1720
 2734TIP3    H1 8147   6.804   0.914   0.857 -0.2114 -0.5579  1.7221
 2734TIP3    H2 8148   6.799   1.065   0.842 -2.7709 -0.7143  0.4874
 2735TIP3   OH2 8149   5.867   0.388   3.107 -0.1291 -0.5539 -0.1985
 2735TIP3    H1 8150   5.891   0.403   3.199  0.3269  1.7067 -0.6103
 2735TIP3    H2 8151   5.950   0.366   3.064  0.1599  0.9798 -0.4908
 2736TIP3   OH2 8152   4.497   6.539   4.468 -0.3286 -0.5103  0.1123
 2736TIP3    H1 8153   4.495   6.446   4.486  0.5661 -0.4020  0.8329
 2736TIP3    H2 8154   4.454   6.579   4.543  0.6530 -0.2536  0.5531
 2737TIP3   OH2 8155   6.197   4.537   5.906 -0.5093  0.1039 -0.3847
 2737TIP3    H1 8156   6.139   4.587   5.964 -1.0472  0.8044 -1.5061
 2737TIP3    H2 8157   6.260   4.601   5.874 -0.5382 -0.1720 -0.9902
 2738TIP3   OH2 8158   2.017   1.938   2.111  0.0647 -0.7167 -0.2573
 2738TIP3    H1 8159   1.984   2.019   2.152 -0.6065  0.4376 -2.8264
 2738TIP3    H2 8160   2.112   1.943   2.122 -0.0576 -0.2311  0.7222
 2739TIP3   OH2 8161   7.817   1.030   4.925 -0.2128  0.3137 -0.1983
 2739TIP3    H1 8162   7.806   1.016   5.019 -0.5114 -0.0554 -0.2861
 2739TIP3    H2 8163   7.790   1.121   4.911 -0.3931  0.2992  0.0372
 2740TIP3   OH2 8164   4.891   0.777   3.824 -0.2034 -0.3485 -0.6476
 2740TIP3    H1 8165   4.911   0.867   3.800  0.1966  0.5076  2.5086
 2740TIP3    H2 8166   4.796   0.770   3.814 -0.3933  0.8040  0.2183
 2741TIP3   OH2 8167   1.275   7.806   6.098  0.1780  0.5297 -0.2888
 2741TIP3    H1 8168   1.218   7.735   6.069  2.7711 -0.9216 -2.3555
 2741TIP3    H2 8169   1.313   7.774   6.180 -0.5450  0.6611  0.0991
 2742TIP3   OH2 8170   6.289   3.418   2.300 -0.2697  0.3655 -0.6090
 2742TIP3    H1 8171   6.247   3.365   2.231  1.2572  0.9710 -2.0680
 2742TIP3    H2 8172   6.304   3.356   2.371 -0.8379 -0.5728 -1.2779
 2743TIP3   OH2 8173   3.851   7.231   1.307  0.5377  0.2723  0.2904
 2743TIP3    H1 8174   3.915   7.171   1.269 -2.1653 -0.6056 -3.5049
 2743TIP3    H2 8175   3.809   7.180   1.376  1.0309 -0.7621 -0.1461
 2744TIP3   OH2 8176   2.163   2.210   4.141  0.0434  0.6121 -0.3437
 2744TIP3    H1 8177   2.110   2.182   4.216 -0.0555  0.1370 -0.5830
 2744TIP3    H2 8178   2.253   2.209   4.174 -0.0248  0.6699 -0.1527
 2745TIP3   OH2 8179   7.665   7.247   3.241 -0.0380  0.0892  0.3624
 2745TIP3    H1 8180   7.704   7.328   3.275 -0.6575  1.0690 -1.1305
 2745TIP3    H2 8181   7.637   7.270   3.152 -2.0127 -1.2122  0.5845
 2746TIP3   OH2 8182   6.712   5.707   5.180  0.0695 -0.3505 -0.3607
 2746TIP3    H1 8183   6.714   5.634   5.118 -0.2137  0.7461 -1.7061
 2746TIP3    H2 8184   6.714   5.785   5.125  2.4930  0.7128  1.0758
 2747TIP3   OH2 8185   7.339   2.159   0.608 -0.4615  0.5694  0.3793
 2747TIP3    H1 8186   7.322   2.069   0.637  0.8599  1.0734  3.0977
 2747TIP3    H2 8187   7.339   2.154   0.513  0.3466 -2.4890  0.4345
 2748TIP3   OH2 8188   1.602   3.023   1.019 -0.0185  0.1971  0.1263
 2748TIP3    H1 8189   1.634   2.966   0.948  1.0131  1.6380 -0.6193
 2748TIP3    H2 8190   1.533   3.075   0.979  0.1429  0.5816  0.3421
 2749TIP3   OH2 8191   2.934   3.320   0.103  0.4734  0.0234 -0.0840
 2749TIP3    H1 8192   3.011   3.316   0.046  0.3731 -0.8579 -0.1636
 2749TIP3    H2 8193   2.957   3.269   0.180  0.6310  1.2723  0.7176
 2750TIP3   OH2 8194   5.194   7.004   1.985 -0.0660  0.0770  0.3087
 2750TIP3    H1 8195   5.226   7.011   2.075  0.4225 -0.1874  0.1586
 2750TIP3    H2 8196   5.243   6.930   1.948 -0.5077 -0.0299 -0.0709
 2751TIP3   OH2 8197   0.556   1.430   1.816  0.7646 -0.3918  0.2186
 2751TIP3    H1 8198   0.608   1.399   1.741 -0.5222  2.3057 -1.9639
 2751TIP3    H2 8199   0.485   1.366   1.824  1.9642 -1.7543  0.4336
 2752TIP3   OH2 8200   4.860   0.706   1.374 -0.0296 -0.6154  0.3123
 2752TIP3    H1 8201   4.862   0.797   1.345 -1.2051 -0.6413  0.0914
 2752TIP3    H2 8202   4.952   0.681   1.381  0.3557  1.0446  1.8915
 2753TIP3   OH2 8203   7.596   2.957   1.691 -0.3317  0.6307  0.2964
 2753TIP3    H1 8204   7.532   2.927   1.626 -0.5612  0.6906  0.4910
 2753TIP3    H2 8205   7.648   3.023   1.645 -0.5310  0.7155  0.1903
 2754TIP3   OH2 8206   6.879   7.763   5.975  0.1153  0.2450  0.5890
 2754TIP3    H1 8207   6.814   7.709   6.020 -0.2404 -0.1582 -0.3789
 2754TIP3    H2 8208   6.840   7.783   5.890  1.1704  0.1354  0.0486
 2755TIP3   OH2 8209   2.144   6.430   4.534  0.0598 -0.3273  0.1996
 2755TIP3    H1 8210   2.215   6.429   4.599 -0.5268  0.9812  0.8932
 2755TIP3    H2 8211   2.093   6.508   4.555 -1.9264 -1.5218  0.0805
 2756TIP3   OH2 8212   5.239   6.399   0.064  0.3508 -0.3994 -0.3413
 2756TIP3    H1 8213   5.265   6.396  -0.028  1.1388 -1.4243 -0.1026
 2756TIP3    H2 8214   5.297   6.337   0.108 -1.9094 -2.1137  0.3904
 2757TIP3   OH2 8215   4.080   1.113   1.564  0.4160 -0.5446 -0.7498
 2757TIP3    H1 8216   4.169   1.145   1.554 -0.6291  2.7890 -0.5671
 2757TIP3    H2 8217   4.063   1.064   1.483  1.9228  0.0487 -1.4614
 2758TIP3   OH2 8218   7.624   6.400   1.659  0.0717 -0.2522  0.2691
 2758TIP3    H1 8219   7.690   6.468   1.670 -1.4664  1.4121 -0.2735
 2758TIP3    H2 8220   7.630   6.375   1.567 -0.0929 -0.0311  0.1961
 2759TIP3   OH2 8221   6.150   6.689   2.292  0.2037 -0.5478  0.0278
 2759TIP3    H1 8222   6.237   6.716   2.324  0.0744 -0.3888  0.2503
 2759TIP3    H2 8223   6.127   6.613   2.345 -0.5099  0.3978  1.1304
 2760TIP3   OH2 8224   5.551   3.520   1.703  0.1200 -0.2678  0.1114
 2760TIP3    H1 8225   5.604   3.592   1.671  1.0042 -1.0529 -0.2405
 2760TIP3    H2 8226   5.477   3.516   1.642  1.2494 -1.0846 -1.2851
 2761TIP3   OH2 8227   5.803   1.688   1.781  0.1646 -0.1539  0.2452
 2761TIP3    H1 8228   5.729   1.725   1.829  0.0040  0.2531 -0.2982
 2761TIP3    H2 8229   5.878   1.739   1.809 -0.1212  0.8928 -0.8041
 2762TIP3   OH2 8230   2.603   4.539   5.549 -0.0309 -0.1989 -0.3109
 2762TIP3    H1 8231   2.586   4.452   5.513 -0.1361  0.4064 -1.8223
 2762TIP3    H2 8232   2.609   4.596   5.472  1.4690  0.8941  0.5502
 2763TIP3   OH2 8233   2.544   4.275   1.533  0.1494 -0.1209 -0.4979
 2763TIP3    H1 8234   2.595   4.205   1.574  1.6195  0.1720 -1.7474
 2763TIP3    H2 8235   2.490   4.231   1.468 -0.8675 -0.3667  0.4727
 2764TIP3   OH2 8236   1.695   3.149   1.759  0.0217 -0.2341  0.4062
 2764TIP3    H1 8237   1.604   3.162   1.732 -0.7313  0.3427  2.9591
 2764TIP3    H2 8238   1.689   3.125   1.851  2.4824 -0.2592  0.6178
 2765TIP3   OH2 8239   4.931   2.319   6.451  0.1375 -0.7972 -0.0932
 2765TIP3    H1 8240   4.920   2.349   6.360  0.3728 -1.8865 -0.4929
 2765TIP3    H2 8241   4.988   2.384   6.491 -1.4223  0.7134 -0.1875
 2766TIP3   OH2 8242   3.762   3.520   1.191  0.2063 -0.2225 -0.3331
 2766TIP3    H1 8243   3.705   3.583   1.148  0.3785 -0.8209 -1.4839
 2766TIP3    H2 8244   3.803   3.569   1.262  0.3856  0.9832 -1.2277
 2767TIP3   OH2 8245   5.083   1.983   5.481  0.1313  0.5985  0.3592
 2767TIP3    H1 8246   5.134   2.057   5.447 -0.9361  1.8942  1.4732
 2767TIP3    H2 8247   5.111   1.974   5.572 -0.2891  0.0956  0.4406
 2768TIP3   OH2 8248   8.055   7.348   4.184 -0.1641 -0.1014 -0.4123
 2768TIP3    H1 8249   7.996   7.373   4.255  0.1286 -1.0791  0.1872
 2768TIP3    H2 8250   8.139   7.334   4.227  0.3407  0.5829 -1.1550
 2769TIP3   OH2 8251   2.762   2.617   5.875 -0.0629  0.7930 -0.3730
 2769TIP3    H1 8252   2.710   2.607   5.795  0.5463  1.1401 -0.8218
 2769TIP3    H2 8253   2.764   2.530   5.914 -0.9687  0.7680 -0.3512
 2770TIP3   OH2 8254   2.619   4.911   2.339 -0.0845  0.5772  0.3168
 2770TIP3    H1 8255   2.672   4.909   2.260 -0.7057 -1.9872 -0.1032
 2770TIP3    H2 8256   2.544   4.966   2.317  0.4325  1.0088 -0.3880
 2771TIP3   OH2 8257   0.363   3.047   3.046 -0.3671 -0.0512  0.4852
 2771TIP3    H1 8258   0.386   3.043   3.139  1.7345  0.0537  0.0180
 2771TIP3    H2 8259   0.362   3.141   3.026  1.8652 -0.0967 -0.1411
 2772TIP3   OH2 8260   1.580   6.587   2.336 -0.1590  0.4181 -0.3692
 2772TIP3    H1 8261   1.511   6.562   2.274 -0.0598  0.1857 -0.3889
 2772TIP3    H2 8262   1.609   6.673   2.306  1.6540 -0.7449 -2.2183
 2773TIP3   OH2 8263   5.650   3.273   6.415  0.0211 -0.6562 -0.6215
 2773TIP3    H1 8264   5.679   3.221   6.340  0.8936  0.3380 -1.0023
 2773TIP3    H2 8265   5.639   3.361   6.379 -0.2130 -0.3119  0.2819
 2774TIP3   OH2 8266   2.474   4.984   3.595  0.2087 -0.0021 -0.2007
 2774TIP3    H1 8267   2.437   4.909   3.643  1.2704 -0.1556  0.4158
 2774TIP3    H2 8268   2.426   4.985   3.512 -0.6021 -0.6788  0.2428
 2775TIP3   OH2 8269   5.942   4.246   1.272 -0.3279 -0.5629 -0.2566
 2775TIP3    H1 8270   6.021   4.219   1.318  0.5775  0.5441 -1.1052
 2775TIP3    H2 8271   5.915   4.168   1.224  0.1720 -0.9884  0.1372
 2776TIP3   OH2 8272   0.072   6.947   5.257 -0.2982 -0.1720  0.2298
 2776TIP3    H1 8273   0.155   6.901   5.248 -0.8224 -0.9678 -0.6454
 2776TIP3    H2 8274   0.095   7.040   5.251  0.4900 -0.3980 -0.3402
 2777TIP3   OH2 8275   6.224   5.845   4.138 -0.4230  0.1607 -0.2897
 2777TIP3    H1 8276   6.184   5.821   4.221 -0.6404  0.5301 -0.2819
 2777TIP3    H2 8277   6.190   5.781   4.075 -0.4496  0.0289 -0.1411
 2778TIP3   OH2 8278   0.541   5.100   2.721  0.2492  0.2930  0.3747
 2778TIP3    H1 8279   0.464   5.091   2.777  0.7098  0.9501  1.1317
 2778TIP3    H2 8280   0.560   5.011   2.691  0.4214 -0.1959  1.8599
 2779TIP3   OH2 8281   8.299   5.131   2.996 -0.1118 -0.1033  0.4925
 2779TIP3    H1 8282   8.324   5.221   2.975  1.4083  0.0008  2.4825
 2779TIP3    H2 8283   8.205   5.135   3.013  0.0411  1.2383  1.1332
 2780TIP3   OH2 8284   6.751   0.603   0.595  0.1452 -0.7558  0.0042
 2780TIP3    H1 8285   6.839   0.566   0.595 -0.0211 -1.1687  0.3177
 2780TIP3    H2 8286   6.726   0.608   0.503  1.4348  1.6750 -0.2874
 2781TIP3   OH2 8287   4.504   4.852   6.675 -0.6977  1.0279  0.4395
 2781TIP3    H1 8288   4.572   4.815   6.619 -0.8743  0.3939  0.6299
 2781TIP3    H2 8289   4.439   4.888   6.614 -1.8735 -1.4068  0.1307
 2782TIP3   OH2 8290   2.853   7.629   5.974  0.0809  0.4070  0.0073
 2782TIP3    H1 8291   2.809   7.585   6.046 -0.9464 -0.0935 -0.8913
 2782TIP3    H2 8292   2.933   7.579   5.960  1.0947  1.4500  1.8010
 2783TIP3   OH2 8293   2.588   6.075   1.557 -0.4780  0.7201 -0.7341
 2783TIP3    H1 8294   2.563   5.985   1.577  1.2389 -0.3259 -2.9076
 2783TIP3    H2 8295   2.543   6.095   1.475  1.1808  0.8778 -1.6392
 2784TIP3   OH2 8296   0.375   7.608   2.588 -0.5820 -0.0749 -0.3571
 2784TIP3    H1 8297   0.456   7.651   2.615 -1.0534  0.1562  0.7347
 2784TIP3    H2 8298   0.370   7.622   2.494 -0.0605  1.1233 -0.2172
 2785TIP3   OH2 8299   1.148   6.994   2.733  0.7044  0.0067 -0.1011
 2785TIP3    H1 8300   1.132   7.080   2.772 -1.6803 -0.2158 -0.4447
 2785TIP3    H2 8301   1.183   6.941   2.805 -0.5635  0.4838  0.9030
 2786TIP3   OH2 8302   0.955   7.476   4.582  0.5097 -0.8442  0.5275
 2786TIP3    H1 8303   0.885   7.417   4.612 -0.2213 -0.1146  0.2883
 2786TIP3    H2 8304   0.987   7.517   4.661 -0.6978  0.2889  0.4663
 2787TIP3   OH2 8305   5.313   4.472   1.174  0.0164 -0.1391  0.3946
 2787TIP3    H1 8306   5.255   4.398   1.158 -0.5717  0.0835  1.4784
 2787TIP3    H2 8307   5.256   4.543   1.201  0.7480  0.2087  1.0684
 2788TIP3   OH2 8308   4.826   3.262   6.301 -0.2974  0.0439  0.1614
 2788TIP3    H1 8309   4.814   3.270   6.396  0.6771 -0.1875  0.3164
 2788TIP3    H2 8310   4.822   3.167   6.285  2.1147 -0.1517  0.3701
 2789TIP3   OH2 8311   4.613   5.240   6.024  0.1179  0.6392  0.1799
 2789TIP3    H1 8312   4.569   5.264   5.943 -0.1854 -0.3415  0.0349
 2789TIP3    H2 8313   4.701   5.215   5.998 -0.7774 -2.3986 -0.3128
 2790TIP3   OH2 8314   3.161   0.534   3.664  0.7709  0.3630  0.2624
 2790TIP3    H1 8315   3.216   0.555   3.588  0.7877  0.2816  0.2515
 2790TIP3    H2 8316   3.208   0.463   3.708  0.3099 -0.2040 -0.1521
 2791TIP3   OH2 8317   4.767   2.671   5.062  0.0456  0.2172 -0.4236
 2791TIP3    H1 8318   4.857   2.658   5.033 -0.2091  0.9283 -1.6120
 2791TIP3    H2 8319   4.713   2.632   4.993 -0.5728  1.6028 -0.7705
 2792TIP3   OH2 8320   3.212   1.316   1.781 -0.3139  0.2894  0.0964
 2792TIP3    H1 8321   3.199   1.263   1.859  0.6494  2.1173  1.5581
 2792TIP3    H2 8322   3.124   1.341   1.754 -0.6775 -0.6596  0.3470
 2793TIP3   OH2 8323   5.080   5.167   5.383  0.1464  0.0852 -0.4871
 2793TIP3    H1 8324   5.092   5.181   5.477  3.2293  0.4474 -0.8053
 2793TIP3    H2 8325   5.034   5.245   5.353 -3.7979 -1.4065  1.0345
 2794TIP3   OH2 8326   6.974   0.775   5.809 -0.3313  0.0206  0.0764
 2794TIP3    H1 8327   6.890   0.757   5.767 -0.5968 -0.5782  0.8250
 2794TIP3    H2 8328   6.961   0.858   5.854  0.5240  1.6149 -2.4352
 2795TIP3   OH2 8329   4.280   5.938   4.219 -0.8441 -0.0356  0.1591
 2795TIP3    H1 8330   4.257   5.933   4.126  1.4531 -0.7788 -0.4420
 2795TIP3    H2 8331   4.260   5.851   4.254  2.3761 -1.3248 -0.8034
 2796TIP3   OH2 8332   0.704   1.594   6.263 -0.1775  0.4744  0.1307
 2796TIP3    H1 8333   0.663   1.666   6.216 -0.6188 -0.0673 -0.3219
 2796TIP3    H2 8334   0.643   1.575   6.334 -1.3032 -1.0647 -1.1899
 2797TIP3   OH2 8335   0.177   4.968   5.251  0.0510  0.0428 -0.0215
 2797TIP3    H1 8336   0.192   4.909   5.325 -4.4251 -3.5673 -1.5306
 2797TIP3    H2 8337   0.225   4.928   5.178  0.1052  0.5201 -0.2540
 2798TIP3   OH2 8338   4.751   1.987   0.311 -0.2602  0.1064  0.4120
 2798TIP3    H1 8339   4.658   1.966   0.312  0.2553 -2.4226  0.3912
 2798TIP3    H2 8340   4.772   1.997   0.219  0.0982 -2.7184  0.0962
 2799TIP3   OH2 8341   0.217   3.728   2.054 -0.6654  0.5939 -0.3097
 2799TIP3    H1 8342   0.181   3.773   2.130 -4.7849 -0.0845 -1.6166
 2799TIP3    H2 8343   0.243   3.641   2.087  2.8344  2.0285  1.2302
 2800TIP3   OH2 8344   6.812   2.017   3.306 -0.0498  0.1043  0.3560
 2800TIP3    H1 8345   6.811   1.926   3.276  0.9655 -0.3597  1.6670
 2800TIP3    H2 8346   6.884   2.021   3.368 -0.7547  1.5515  1.1210
 2801TIP3   OH2 8347   3.769   0.942   1.305 -0.6482  0.4598  0.1221
 2801TIP3    H1 8348   3.709   0.912   1.236 -0.5924  1.5945 -0.4316
 2801TIP3    H2 8349   3.763   0.874   1.372 -2.0371  0.2027 -0.2276
 2802TIP3   OH2 8350   2.175   2.005   3.504  0.5894 -0.1392 -0.0043
 2802TIP3    H1 8351   2.180   2.066   3.430 -0.5359 -1.2492 -1.0260
 2802TIP3    H2 8352   2.161   1.920   3.464 -3.8878 -0.3320  1.5242
 2803TIP3   OH2 8353   2.672   3.899   4.257 -0.3153 -0.0687  0.1144
 2803TIP3    H1 8354   2.608   3.897   4.186 -0.5933  2.7804  0.1935
 2803TIP3    H2 8355   2.624   3.935   4.332  0.7739 -0.1255  0.8704
 2804TIP3   OH2 8356   0.724   3.028   5.210  0.2525 -0.3069  0.0017
 2804TIP3    H1 8357   0.641   3.011   5.166  1.0528  1.1722 -2.2474
 2804TIP3    H2 8358   0.701   3.087   5.282 -0.6557  0.0208 -0.5403
 2805TIP3   OH2 8359   1.359   0.410   0.180 -0.4418  0.2814 -0.1136
 2805TIP3    H1 8360   1.375   0.408   0.086 -1.1643 -1.1800 -0.2285
 2805TIP3    H2 8361   1.289   0.474   0.192 -0.1975  0.6304 -0.5351
 2806TIP3   OH2 8362   6.399   1.616   5.572  0.2432  0.2165 -0.1533
 2806TIP3    H1 8363   6.472   1.589   5.517 -1.1120  1.0185 -2.4974
 2806TIP3    H2 8364   6.322   1.610   5.515 -1.6304 -0.9093  2.2859
 2807TIP3   OH2 8365   3.451   4.757   5.031  0.3961 -0.4945  0.0893
 2807TIP3    H1 8366   3.501   4.825   4.985 -1.6922  0.7717 -0.4381
 2807TIP3    H2 8367   3.411   4.706   4.960 -3.0528  1.6165  0.2812
 2808TIP3   OH2 8368   2.937   5.709   0.143  0.0643  0.5482 -0.1023
 2808TIP3    H1 8369   3.004   5.691   0.078 -0.1265  1.4086 -0.5505
 2808TIP3    H2 8370   2.984   5.708   0.227  1.2052  3.5175 -0.5632
 2809TIP3   OH2 8371   7.234   4.161   5.023 -0.5827  0.3539 -0.9479
 2809TIP3    H1 8372   7.165   4.227   5.027 -0.2875  0.6073  0.0098
 2809TIP3    H2 8373   7.192   4.086   4.980 -1.1025  0.9289 -1.4633
 2810TIP3   OH2 8374   6.328   1.729   6.064  0.6281  0.0374 -0.3563
 2810TIP3    H1 8375   6.398   1.788   6.039  1.3652 -1.0794 -1.0130
 2810TIP3    H2 8376   6.333   1.657   6.001 -1.3618  0.1082 -0.6807
 2811TIP3   OH2 8377   2.436   2.243   4.244  0.5786  0.0947  0.0107
 2811TIP3    H1 8378   2.518   2.246   4.193 -0.1898  0.1051 -1.2860
 2811TIP3    H2 8379   2.464   2.230   4.334  2.0508  0.9330 -0.2905
 2812TIP3   OH2 8380   6.452   3.997   2.340  0.0050 -0.5492  0.5775
 2812TIP3    H1 8381   6.411   3.934   2.399  1.5853 -0.8351  1.4313
 2812TIP3    H2 8382   6.501   3.943   2.278 -1.9618 -0.2657 -1.3132
 2813TIP3   OH2 8383   2.338   5.670   1.706 -0.0023  0.2952 -0.1614
 2813TIP3    H1 8384   2.315   5.703   1.619 -0.4248 -0.5053 -0.3610
 2813TIP3    H2 8385   2.258   5.628   1.737  0.1454  0.5825  0.6188
 2814TIP3   OH2 8386   0.461   7.855   6.248  0.2116 -0.3831  0.5031
 2814TIP3    H1 8387   0.438   7.810   6.167 -0.4356 -0.4544  0.7229
 2814TIP3    H2 8388   0.484   7.784   6.309  0.6302 -0.3335  0.4052
 2815TIP3   OH2 8389   7.244   0.548   6.529  0.5618  0.2541 -0.1115
 2815TIP3    H1 8390   7.216   0.480   6.468  0.6846 -0.1572  0.2844
 2815TIP3    H2 8391   7.329   0.518   6.561  1.0270  1.0199 -0.5824
 2816TIP3   OH2 8392   0.155   4.850   4.910 -0.5873 -0.2097 -0.2352
 2816TIP3    H1 8393   0.126   4.941   4.896 -0.5335  0.1684  1.8110
 2816TIP3    H2 8394   0.246   4.858   4.939 -0.9913 -0.7881  1.2776
 2817TIP3   OH2 8395   3.245   5.144   2.658 -0.2831  0.2210  0.1029
 2817TIP3    H1 8396   3.220   5.171   2.570 -2.8051 -0.6541  0.4544
 2817TIP3    H2 8397   3.245   5.225   2.709  3.8410  1.2010 -1.0843
 2818TIP3   OH2 8398   7.532   0.615   0.626 -0.1347 -0.1663 -0.0694
 2818TIP3    H1 8399   7.606   0.586   0.572  1.2939  2.8315  0.0724
 2818TIP3    H2 8400   7.478   0.667   0.567  0.4639  1.6233  0.9089
 2819TIP3   OH2 8401   1.148   4.494   1.941 -0.3329  0.2981 -0.3912
 2819TIP3    H1 8402   1.133   4.400   1.931  1.3067 -0.0883  0.3678
 2819TIP3    H2 8403   1.071   4.526   1.987 -0.7348 -0.7598 -0.3110
 2820TIP3   OH2 8404   4.133   5.117   1.043  0.5547 -0.5955  0.0116
 2820TIP3    H1 8405   4.128   5.034   1.090 -0.2801 -0.5528  0.0010
 2820TIP3    H2 8406   4.224   5.121   1.013  0.6733 -1.3835  0.2311
 2821TIP3   OH2 8407   6.299   4.300   2.578  0.6076  0.4159 -0.6235
 2821TIP3    H1 8408   6.289   4.372   2.516  0.5055 -2.3636 -4.1840
 2821TIP3    H2 8409   6.393   4.282   2.579  0.3489 -1.4061 -2.4878
 2822TIP3   OH2 8410   7.300   0.553   0.845  0.1292 -0.3110 -0.3529
 2822TIP3    H1 8411   7.396   0.550   0.847  0.1670  0.8231  0.2711
 2822TIP3    H2 8412   7.276   0.599   0.925 -0.9591 -0.8902 -0.3331
 2823TIP3   OH2 8413   5.507   1.495   4.873 -0.8314  0.1013  0.0061
 2823TIP3    H1 8414   5.411   1.497   4.866 -0.8969  1.1050  0.8929
 2823TIP3    H2 8415   5.528   1.403   4.888 -1.5143 -0.3787 -1.7552
 2824TIP3   OH2 8416   5.884   3.278   0.423 -0.1005  0.2253 -0.1097
 2824TIP3    H1 8417   5.974   3.292   0.394  0.1311  0.5827  0.7459
 2824TIP3    H2 8418   5.871   3.183   0.418  0.8891 -0.0195  1.3319
 2825TIP3   OH2 8419   7.537   7.826   5.949 -0.1625 -0.0561 -0.0075
 2825TIP3    H1 8420   7.524   7.742   5.905 -1.1115  0.1168 -0.0673
 2825TIP3    H2 8421   7.600   7.873   5.894  1.0321 -1.0334  0.4587
 2826TIP3   OH2 8422   0.947   3.120   5.068 -0.3606  0.3709  0.4386
 2826TIP3    H1 8423   0.871   3.069   5.095 -0.2133  0.9936  2.1129
 2826TIP3    H2 8424   1.017   3.095   5.129  0.0484  1.6851  0.5488
 2827TIP3   OH2 8425   7.606   4.003   3.863 -0.4775 -0.0472 -0.6779
 2827TIP3    H1 8426   7.575   4.061   3.793  1.2013  0.7654 -0.7820
 2827TIP3    H2 8427   7.594   3.914   3.828 -0.7192  0.3081 -1.5189
 2828TIP3   OH2 8428   0.298   1.835   3.925 -0.5786  0.4231  0.3461
 2828TIP3    H1 8429   0.386   1.805   3.946 -1.1509 -0.8307  1.0496
 2828TIP3    H2 8430   0.271   1.780   3.851 -0.8407  0.6826  0.2454
 2829TIP3   OH2 8431   3.986   4.483   3.738 -0.0401  0.1592  0.1455
 2829TIP3    H1 8432   3.976   4.412   3.675 -0.9529  1.4428 -1.2157
 2829TIP3    H2 8433   4.065   4.530   3.709 -0.4736  0.7691 -0.0590
 2830TIP3   OH2 8434   2.781   3.036   2.465 -0.0378  0.5772 -0.1711
 2830TIP3    H1 8435   2.749   3.103   2.525 -0.4114  0.2380  0.0181
 2830TIP3    H2 8436   2.874   3.027   2.487 -0.0313  0.8964 -0.0678
 2831TIP3   OH2 8437   1.385   5.869   5.690  0.1647 -0.0819  1.5250
 2831TIP3    H1 8438   1.450   5.837   5.753  1.7097  0.1613  0.1243
 2831TIP3    H2 8439   1.437   5.904   5.618 -1.4559 -2.7133 -1.1356
 2832TIP3   OH2 8440   2.982   4.329   4.685  0.0369  0.0046  0.0246
 2832TIP3    H1 8441   3.064   4.280   4.686 -0.0168 -0.1350 -1.1549
 2832TIP3    H2 8442   3.000   4.404   4.628 -1.2540 -1.1744 -2.0822
 2833TIP3   OH2 8443   2.239   3.348   3.737 -0.3991 -0.0020  0.3471
 2833TIP3    H1 8444   2.231   3.443   3.730 -0.1341  0.1258  1.5631
 2833TIP3    H2 8445   2.163   3.313   3.691  0.3952  0.7255 -1.6673
 2834TIP3   OH2 8446   4.961   4.230   1.934 -0.2881 -0.4603 -0.3079
 2834TIP3    H1 8447   5.008   4.270   1.861 -0.5767  0.8933  0.2251
 2834TIP3    H2 8448   4.896   4.295   1.959 -1.0867 -1.4678  0.2949
 2835TIP3   OH2 8449   5.544   0.574   2.878  0.2476  0.5961  0.3997
 2835TIP3    H1 8450   5.620   0.609   2.924 -0.0260 -0.0323  1.3535
 2835TIP3    H2 8451   5.514   0.646   2.823  3.1245  0.0660 -2.0910
 2836TIP3   OH2 8452   2.732   1.336   4.699  0.4684  0.3392 -0.3739
 2836TIP3    H1 8453   2.799   1.290   4.748  0.4934 -0.0617 -0.7742
 2836TIP3    H2 8454   2.780   1.392   4.638  0.5451 -2.0476 -2.6849
 2837TIP3   OH2 8455   2.478   1.883   6.331  0.1191 -0.7193 -0.3574
 2837TIP3    H1 8456   2.383   1.871   6.341  0.1731 -0.3778  0.6972
 2837TIP3    H2 8457   2.504   1.929   6.411  1.2540 -1.2721 -0.4005
 2838TIP3   OH2 8458   6.644   6.123   1.024  0.2301 -0.9164  0.0333
 2838TIP3    H1 8459   6.583   6.068   1.074  0.0403  1.0663  2.1354
 2838TIP3    H2 8460   6.729   6.105   1.062  0.1823  0.1422  0.6539
 2839TIP3   OH2 8461   0.915   2.151   0.992  0.4557  0.7779  0.0144
 2839TIP3    H1 8462   0.908   2.100   0.911 -1.3242  0.2887  0.4345
 2839TIP3    H2 8463   0.923   2.086   1.061  2.6237  1.2099  0.2163
 2840TIP3   OH2 8464   5.425   6.633   3.428 -0.1608 -0.7006  0.3295
 2840TIP3    H1 8465   5.509   6.678   3.436 -1.5443  2.3062 -0.5078
 2840TIP3    H2 8466   5.402   6.644   3.335 -1.8480 -0.6551  0.7362
 2841TIP3   OH2 8467   4.537   0.423   6.230 -0.2186 -0.8282 -0.2811
 2841TIP3    H1 8468   4.504   0.440   6.142 -0.5463  0.0840  0.0141
 2841TIP3    H2 8469   4.632   0.411   6.218 -0.2200 -0.4265 -0.7152
 2842TIP3   OH2 8470   7.706   3.870   5.016  0.2197  0.1270 -0.4329
 2842TIP3    H1 8471   7.626   3.924   5.019  0.3234  0.2861 -0.4788
 2842TIP3    H2 8472   7.705   3.833   4.928  0.1176  0.0058 -0.3813
 2843TIP3   OH2 8473   6.715   6.367   0.308 -0.3519  0.0526  0.8008
 2843TIP3    H1 8474   6.629   6.397   0.339 -0.1005  1.0588  0.5570
 2843TIP3    H2 8475   6.748   6.439   0.255  0.2013 -0.7505  0.0290
 2844TIP3   OH2 8476   0.698   5.670   0.086  0.0473  0.6497 -0.4472
 2844TIP3    H1 8477   0.766   5.675   0.019 -0.6564 -0.2789 -1.2672
 2844TIP3    H2 8478   0.668   5.760   0.097  1.4210  1.0857 -0.0301
 2845TIP3   OH2 8479   2.690   5.615   0.195 -0.0642 -0.3497 -0.1398
 2845TIP3    H1 8480   2.774   5.651   0.166  0.0699 -0.6457 -0.1247
 2845TIP3    H2 8481   2.708   5.522   0.208  0.2006 -0.0239  2.0909
 2846TIP3   OH2 8482   4.574   5.660   4.149 -0.2375 -0.0043  0.0233
 2846TIP3    H1 8483   4.515   5.684   4.220  0.5749  0.8048  0.4462
 2846TIP3    H2 8484   4.559   5.727   4.082 -1.9554 -1.4823 -1.1921
 2847TIP3   OH2 8485   7.426   4.400   5.701  0.3193 -0.5393 -0.2779
 2847TIP3    H1 8486   7.457   4.366   5.617 -0.3774 -0.2009 -0.6732
 2847TIP3    H2 8487   7.359   4.464   5.678  1.1611  0.6689  0.4656
 2848TIP3   OH2 8488   3.134   2.094   1.645 -0.4447 -0.4856 -0.2727
 2848TIP3    H1 8489   3.124   2.078   1.739 -0.5850  0.4181 -0.1287
 2848TIP3    H2 8490   3.149   2.188   1.638 -1.8000 -0.3011 -1.2516
 2849TIP3   OH2 8491   1.687   3.702   4.661  0.4250 -0.3876  0.1954
 2849TIP3    H1 8492   1.762   3.643   4.653  1.0749  0.2541  1.2408
 2849TIP3    H2 8493   1.626   3.656   4.719  1.0478  0.0659  1.2234
 2850TIP3   OH2 8494   8.213   5.394   1.655 -0.2278 -0.0321 -0.1937
 2850TIP3    H1 8495   8.290   5.440   1.689 -0.8589  0.4726  0.5850
 2850TIP3    H2 8496   8.142   5.457   1.662 -0.3863  0.1460 -2.6157
 2851TIP3   OH2 8497   4.424   5.451   1.333 -0.1351  0.1023  0.2668
 2851TIP3    H1 8498   4.406   5.357   1.338  0.5402 -0.1092 -0.9466
 2851TIP3    H2 8499   4.421   5.471   1.240 -2.4063  1.7431  0.6233
 2852TIP3   OH2 8500   7.252   1.879   4.091 -0.0124 -0.3135  0.2600
 2852TIP3    H1 8501   7.157   1.873   4.097  0.0516 -1.1003  0.6920
 2852TIP3    H2 8502   7.282   1.788   4.100  0.7403 -0.1669 -0.6587
 2853TIP3   OH2 8503   2.475   2.016   4.450 -0.4930  0.4478 -0.1741
 2853TIP3    H1 8504   2.552   2.070   4.434  0.1343 -0.6852 -1.0910
 2853TIP3    H2 8505   2.478   1.999   4.544 -1.0139  2.3999  0.2584
 2854TIP3   OH2 8506   6.633   2.339   5.468  0.3791 -1.0325  0.0067
 2854TIP3    H1 8507   6.636   2.267   5.405 -0.0002 -1.7925  0.8350
 2854TIP3    H2 8508   6.724   2.349   5.498  0.4566 -1.0654 -0.2149
 2855TIP3   OH2 8509   3.191   1.119   1.398 -0.6295  0.5009 -0.6282
 2855TIP3    H1 8510   3.141   1.040   1.378 -1.3160  0.0494  2.3232
 2855TIP3    H2 8511   3.125   1.184   1.421  0.0167  0.7827  0.4991
 2856TIP3   OH2 8512   1.881   0.110   3.535 -0.0820 -0.2069 -0.0098
 2856TIP3    H1 8513   1.793   0.081   3.558 -0.3064  1.3548  1.3068
 2856TIP3    H2 8514   1.939   0.040   3.564 -0.7463 -0.3314  1.0421
 2857TIP3   OH2 8515   3.900   6.614   2.585 -0.3331 -0.2822  0.3150
 2857TIP3    H1 8516   3.927   6.556   2.657  0.0996  1.1693  1.3602
 2857TIP3    H2 8517   3.805   6.619   2.592 -0.3057 -0.2622  0.7017
 2858TIP3   OH2 8518   1.659   7.597   5.400  0.2250 -0.3775 -0.0797
 2858TIP3    H1 8519   1.660   7.597   5.305 -1.6339 -1.5023 -0.1513
 2858TIP3    H2 8520   1.567   7.585   5.423  0.5942  0.1537  1.8655
 2859TIP3   OH2 8521   7.811   0.130   0.324  0.2455 -0.5687 -0.0455
 2859TIP3    H1 8522   7.754   0.071   0.374 -0.7867  1.3675  1.1904
 2859TIP3    H2 8523   7.878   0.157   0.386  1.1753 -0.9866 -0.8310
 2860TIP3   OH2 8524   0.238   2.550   5.451  0.8487  0.2234 -0.0403
 2860TIP3    H1 8525   0.274   2.480   5.506 -2.8004 -2.4477 -0.5903
 2860TIP3    H2 8526   0.180   2.599   5.509  0.7246  0.5414 -0.4269
 2861TIP3   OH2 8527   2.342   3.188   3.030  0.0320  0.2779  0.1512
 2861TIP3    H1 8528   2.416   3.146   3.073 -0.2229 -0.1930  0.1301
 2861TIP3    H2 8529   2.303   3.120   2.975 -0.8202  0.3287  0.6677
 2862TIP3   OH2 8530   3.696   5.197   3.997  0.1287  0.5869  0.1134
 2862TIP3    H1 8531   3.719   5.112   4.035 -1.0686  0.5181  0.7527
 2862TIP3    H2 8532   3.610   5.182   3.957  0.4333  1.2118 -0.7979
 2863TIP3   OH2 8533   1.296   6.727   5.528  0.2654 -0.2724 -0.5640
 2863TIP3    H1 8534   1.314   6.808   5.481  3.2208 -1.5690 -1.9087
 2863TIP3    H2 8535   1.266   6.666   5.460  0.1134 -0.8913  0.0459
 2864TIP3   OH2 8536   5.339   5.729   4.292 -0.1283  0.2554 -0.1631
 2864TIP3    H1 8537   5.353   5.642   4.329 -0.6497 -0.1220 -0.8351
 2864TIP3    H2 8538   5.317   5.713   4.201  2.3544  1.2160 -1.0175
 2865TIP3   OH2 8539   0.696   3.846   0.483 -0.5235  0.0576 -0.5240
 2865TIP3    H1 8540   0.622   3.785   0.475 -0.1826 -0.5087  0.4788
 2865TIP3    H2 8541   0.771   3.790   0.501 -0.1332  0.7506  0.0244
 2866TIP3   OH2 8542   3.932   5.546   0.217 -0.5928 -0.5442  0.4917
 2866TIP3    H1 8543   3.980   5.622   0.182 -1.4084  0.0114  0.5540
 2866TIP3    H2 8544   3.998   5.477   0.223  0.1579  0.1501  0.3999
 2867TIP3   OH2 8545   6.287   5.080   4.005  0.0666  0.7339  0.3086
 2867TIP3    H1 8546   6.366   5.026   4.005 -0.9673 -0.9049  2.5653
 2867TIP3    H2 8547   6.220   5.025   3.965 -0.9627  0.3230  2.4768
 2868TIP3   OH2 8548   1.979   0.018   3.937 -0.3981  0.3437 -0.6120
 2868TIP3    H1 8549   2.069   0.021   3.967 -1.3252 -2.5662  3.1324
 2868TIP3    H2 8550   1.957   0.109   3.918  1.9568  1.9281  3.1295
 2869TIP3   OH2 8551   3.803   4.944   2.427 -0.0627 -0.4909 -0.5734
 2869TIP3    H1 8552   3.817   5.034   2.457 -0.9259  0.3553 -2.5686
 2869TIP3    H2 8553   3.888   4.901   2.440  0.3238  0.5404  0.5258
 2870TIP3   OH2 8554   3.841   3.397   1.637  0.3174 -0.2817  0.2745
 2870TIP3    H1 8555   3.749   3.386   1.613  1.1489 -1.4488 -2.8655
 2870TIP3    H2 8556   3.870   3.309   1.662  0.7788 -0.0703  0.4942
 2871TIP3   OH2 8557   1.301   4.665   1.188 -0.0009 -0.2975  0.4758
 2871TIP3    H1 8558   1.263   4.748   1.217  0.9133  0.8082 -1.3214
 2871TIP3    H2 8559   1.229   4.602   1.197 -1.0595  0.9109  0.8306
 2872TIP3   OH2 8560   6.967   1.216   1.874 -0.0273 -0.7907 -0.7783
 2872TIP3    H1 8561   6.999   1.254   1.792 -1.5486  1.5327 -0.4057
 2872TIP3    H2 8562   7.021   1.257   1.942 -0.3471 -0.8610 -0.4787
 2873TIP3   OH2 8563   4.102   4.275   6.659 -0.7561  0.4379 -0.1841
 2873TIP3    H1 8564   4.123   4.185   6.633 -0.1934  0.8031 -1.0532
 2873TIP3    H2 8565   4.006   4.276   6.663 -0.9653  0.4948 -2.9743
 2874TIP3   OH2 8566   2.293   7.214   2.450  0.0880 -0.4586  0.1647
 2874TIP3    H1 8567   2.355   7.238   2.519 -0.7115  1.7168  0.1995
 2874TIP3    H2 8568   2.337   7.240   2.369  0.9800 -2.9068 -0.2147
 2875TIP3   OH2 8569   6.158   6.421   1.963 -0.2261 -0.1349 -0.0208
 2875TIP3    H1 8570   6.128   6.411   1.873 -2.3427 -1.0464  0.7361
 2875TIP3    H2 8571   6.081   6.404   2.017  0.6281  1.7897  1.9636
 2876TIP3   OH2 8572   6.888   7.618   3.468 -0.1541 -0.0515  0.4802
 2876TIP3    H1 8573   6.853   7.693   3.420  1.2624  1.6448  1.9785
 2876TIP3    H2 8574   6.979   7.641   3.488  0.7055 -2.6568  0.0558
 2877TIP3   OH2 8575   6.562   3.747   6.453 -0.0261  0.0410  0.4896
 2877TIP3    H1 8576   6.509   3.826   6.444  0.5739  0.4077  0.1118
 2877TIP3    H2 8577   6.553   3.723   6.545 -1.0336 -0.0474  0.3855
 2878TIP3   OH2 8578   7.115   6.789   6.361 -0.1585  0.1277  0.3253
 2878TIP3    H1 8579   7.197   6.791   6.311  0.6412  1.9064  1.5944
 2878TIP3    H2 8580   7.081   6.878   6.354 -3.5146 -1.1385 -2.4237
 2879TIP3   OH2 8581   4.848   2.752   2.090  0.0147  0.2892  0.8038
 2879TIP3    H1 8582   4.942   2.735   2.082  0.1028  1.1252 -0.1096
 2879TIP3    H2 8583   4.808   2.665   2.088  0.7520 -0.0644  1.0196
 2880TIP3   OH2 8584   0.708   0.533   1.337 -0.0356  0.4033  0.4185
 2880TIP3    H1 8585   0.709   0.502   1.428 -1.2753 -0.4875  0.1544
 2880TIP3    H2 8586   0.622   0.507   1.304 -0.7421  3.1903 -0.1956
 2881TIP3   OH2 8587   4.814   4.864   2.295  0.0534 -0.1476 -0.1252
 2881TIP3    H1 8588   4.833   4.794   2.357 -0.7397 -0.4125 -0.1798
 2881TIP3    H2 8589   4.886   4.860   2.232  1.3322  0.6363  1.1899
 2882TIP3   OH2 8590   7.349   5.394   3.832  0.5345 -0.5402  0.0549
 2882TIP3    H1 8591   7.305   5.464   3.784 -0.4171 -0.7963  0.5371
 2882TIP3    H2 8592   7.308   5.394   3.918  1.2894 -0.9748  0.4269
 2883TIP3   OH2 8593   5.921   7.377   4.699 -0.1199 -0.1033 -0.2680
 2883TIP3    H1 8594   5.970   7.346   4.622  2.8100  0.6310  1.1523
 2883TIP3    H2 8595   5.970   7.344   4.774 -1.7427  0.8908  1.3178
 2884TIP3   OH2 8596   5.600   5.203   1.535  0.0796 -0.1092 -0.0135
 2884TIP3    H1 8597   5.585   5.123   1.484 -1.6325 -1.3202  2.1811
 2884TIP3    H2 8598   5.527   5.260   1.512  0.4837  0.2190 -0.4848
 2885TIP3   OH2 8599   2.920   4.513   3.164 -0.1608  0.0777  0.1060
 2885TIP3    H1 8600   2.944   4.423   3.143  0.0535 -0.0289  0.7888
 2885TIP3    H2 8601   2.851   4.506   3.230 -0.1027  0.4134  0.2070
 2886TIP3   OH2 8602   4.137   3.462   2.952 -0.0424  0.3221 -0.1509
 2886TIP3    H1 8603   4.163   3.554   2.950  0.7060  0.1104 -0.5848
 2886TIP3    H2 8604   4.083   3.454   3.031 -1.3161  1.4346 -0.8752
 2887TIP3   OH2 8605   6.676   5.997   6.184 -0.1116 -0.3916  0.0842
 2887TIP3    H1 8606   6.635   6.080   6.159 -0.6670 -1.0887 -1.4941
 2887TIP3    H2 8607   6.770   6.012   6.172 -0.0740  0.4133  1.1802
 2888TIP3   OH2 8608   2.371   1.067   1.866 -0.5641  0.6015 -0.1577
 2888TIP3    H1 8609   2.331   1.152   1.886 -0.2424  0.7528 -0.1349
 2888TIP3    H2 8610   2.322   1.004   1.918 -0.4622  0.8447  0.2441
 2889TIP3   OH2 8611   4.930   4.925   6.259  0.4528  0.7114  0.1919
 2889TIP3    H1 8612   4.907   4.909   6.168  0.5186 -0.2938  0.3453
 2889TIP3    H2 8613   5.006   4.869   6.275 -1.0340 -1.0437  1.5426
 2890TIP3   OH2 8614   4.293   1.440   5.075 -0.4118  0.0311  0.4324
 2890TIP3    H1 8615   4.221   1.427   5.136 -0.6382 -0.1255  0.1317
 2890TIP3    H2 8616   4.330   1.525   5.100 -0.1472 -0.2860  1.1491
 2891TIP3   OH2 8617   7.687   7.601   0.061  0.6162  0.0536 -0.0904
 2891TIP3    H1 8618   7.701   7.651  -0.020 -1.1032  0.1369 -0.3889
 2891TIP3    H2 8619   7.597   7.623   0.087  0.0936 -2.2033  0.2413
 2892TIP3   OH2 8620   2.573   1.149   2.214 -0.3227  0.0529  0.4712
 2892TIP3    H1 8621   2.584   1.231   2.262  2.7769 -0.0444  0.1599
 2892TIP3    H2 8622   2.608   1.167   2.127  0.6710 -1.6360  0.4752
 2893TIP3   OH2 8623   2.717   3.270   4.254 -0.3469  0.5533 -0.0076
 2893TIP3    H1 8624   2.755   3.231   4.333  0.2345 -2.3927 -1.5877
 2893TIP3    H2 8625   2.637   3.221   4.239  1.7909 -2.3823 -3.6156
 2894TIP3   OH2 8626   5.851   4.077   1.081  0.4320  0.0513 -0.1584
 2894TIP3    H1 8627   5.836   3.984   1.093  2.1922 -0.2868 -0.3612
 2894TIP3    H2 8628   5.776   4.107   1.029 -0.7906 -0.9758  0.9640
 2895TIP3   OH2 8629   2.848   2.558   6.606 -0.1207  0.3113  0.1247
 2895TIP3    H1 8630   2.899   2.581   6.528 -1.0993 -0.0659 -0.6449
 2895TIP3    H2 8631   2.854   2.463   6.611  0.2918  0.3647  0.7688
 2896TIP3   OH2 8632   0.670   5.089   5.165 -0.0606  0.0458 -0.1054
 2896TIP3    H1 8633   0.745   5.146   5.181  0.4220 -0.1106 -1.6704
 2896TIP3    H2 8634   0.613   5.103   5.241  1.8927 -0.4526  1.5570
 2897TIP3   OH2 8635   8.083   7.150   5.706  0.2446  0.2648  0.2774
 2897TIP3    H1 8636   8.034   7.133   5.625  2.3326 -1.5716 -0.7268
 2897TIP3    H2 8637   8.061   7.076   5.763  3.4338 -1.9744 -1.1022
 2898TIP3   OH2 8638   6.662   0.334   1.115 -0.0042 -0.1689 -0.0647
 2898TIP3    H1 8639   6.734   0.397   1.112 -0.2583  0.2546  1.7603
 2898TIP3    H2 8640   6.587   0.386   1.145 -0.6497 -0.9693 -0.2745
 2899TIP3   OH2 8641   2.600   0.216   2.876  0.3707 -0.1542  0.4009
 2899TIP3    H1 8642   2.616   0.235   2.969  1.9366 -1.7789  0.5254
 2899TIP3    H2 8643   2.621   0.123   2.867  0.6588  0.0676 -1.6589
 2900TIP3   OH2 8644   1.672   6.253   5.894  0.3738 -0.8269  0.4516
 2900TIP3    H1 8645   1.625   6.292   5.821 -0.1773  2.1724  2.2530
 2900TIP3    H2 8646   1.693   6.164   5.864 -1.6790 -0.4752 -2.4593
 2901TIP3   OH2 8647   5.143   0.889   0.440 -0.3355 -0.2735 -0.3788
 2901TIP3    H1 8648   5.212   0.854   0.496 -1.1101 -0.4456  0.4967
 2901TIP3    H2 8649   5.161   0.853   0.353  1.0619  0.2535 -0.3237
 2902TIP3   OH2 8650   6.720   2.184   4.876  0.2585  0.3424 -0.2020
 2902TIP3    H1 8651   6.799   2.222   4.914  1.7188 -0.4121 -2.2315
 2902TIP3    H2 8652   6.650   2.246   4.897  1.3850  1.0880  1.5846
 2903TIP3   OH2 8653   5.945   5.647   5.873 -0.2568  0.2803 -0.4568
 2903TIP3    H1 8654   6.037   5.628   5.891  0.5658  0.2636 -3.8713
 2903TIP3    H2 8655   5.906   5.561   5.856 -0.3103  0.4498 -1.2241
 2904TIP3   OH2 8656   1.585   6.143   1.906  0.4146  0.4878  0.1651
 2904TIP3    H1 8657   1.529   6.141   1.829 -2.3072 -3.7331  1.8350
 2904TIP3    H2 8658   1.613   6.052   1.917  3.5911  1.5532  2.2748
 2905TIP3   OH2 8659   7.710   2.346   3.838  0.3255 -0.1195  0.0249
 2905TIP3    H1 8660   7.660   2.382   3.911  0.0614 -0.8910  0.2318
 2905TIP3    H2 8661   7.795   2.391   3.843 -0.4306  1.4249 -0.5201
 2906TIP3   OH2 8662   5.489   5.971   2.296  0.3855  0.3928  0.2856
 2906TIP3    H1 8663   5.463   5.907   2.362  1.5099 -0.3229  0.0632
 2906TIP3    H2 8664   5.574   6.003   2.326  1.0734 -0.1879 -0.9530
 2907TIP3   OH2 8665   1.004   3.115   0.654 -0.0614  0.2646 -0.5139
 2907TIP3    H1 8666   1.008   3.195   0.602  0.4735  0.0004 -0.8885
 2907TIP3    H2 8667   0.915   3.113   0.689 -0.4470  0.3978 -1.4803
 2908TIP3   OH2 8668   2.044   3.272   2.097 -0.5938 -0.4745 -0.1555
 2908TIP3    H1 8669   2.013   3.191   2.138  0.1767 -1.3327 -1.2138
 2908TIP3    H2 8670   1.986   3.284   2.022 -2.9407  1.8706  1.8227
 2909TIP3   OH2 8671   2.986   1.248   4.773 -0.3403 -0.4156 -0.0354
 2909TIP3    H1 8672   3.057   1.217   4.716  2.5469  3.9857  0.6782
 2909TIP3    H2 8673   3.008   1.214   4.860  0.3656  0.1661  0.0153
 2910TIP3   OH2 8674   5.453   5.924   3.609  0.4043  0.2208 -0.0945
 2910TIP3    H1 8675   5.370   5.943   3.566  1.5285  1.9694 -1.6837
 2910TIP3    H2 8676   5.519   5.931   3.539  2.0856  0.8809  1.4540
 2911TIP3   OH2 8677   4.126   3.930   6.313  0.1352  0.1239 -0.0064
 2911TIP3    H1 8678   4.049   3.906   6.364 -0.3834 -0.9722 -1.2485
 2911TIP3    H2 8679   4.199   3.922   6.374 -0.6339  0.4465  0.9861
 2912TIP3   OH2 8680   7.589   5.274   5.037 -0.1777 -0.1319  0.5176
 2912TIP3    H1 8681   7.589   5.370   5.044  2.1025 -0.1516  2.0972
 2912TIP3    H2 8682   7.519   5.246   5.094 -0.3232  0.5865  0.7046
 2913TIP3   OH2 8683   2.770   0.717   2.467  0.0444  0.4209  0.2991
 2913TIP3    H1 8684   2.714   0.769   2.409  0.2091 -0.1468 -0.3909
 2913TIP3    H2 8685   2.710   0.653   2.505  0.0304  0.4688  0.3570
 2914TIP3   OH2 8686   6.523   2.677   2.562  0.1227  0.4778  0.4575
 2914TIP3    H1 8687   6.432   2.707   2.554 -0.1105  0.3934  2.3587
 2914TIP3    H2 8688   6.575   2.757   2.568 -0.1842  0.5750  2.4598
 2915TIP3   OH2 8689   0.865   5.949   0.944 -0.2602  0.7638 -0.1353
 2915TIP3    H1 8690   0.848   6.039   0.919 -0.5521  0.6902 -0.2073
 2915TIP3    H2 8691   0.957   5.935   0.924 -0.1250  1.1502  0.1929
 2916TIP3   OH2 8692   8.089   5.023   1.985  0.3679  0.2126  0.8343
 2916TIP3    H1 8693   8.096   4.928   1.994 -0.3591  0.1543  0.8170
 2916TIP3    H2 8694   8.147   5.045   1.912 -2.3518 -0.6955 -1.7676
 2917TIP3   OH2 8695   2.800   4.494   5.149 -0.0210 -0.1703 -0.3116
 2917TIP3    H1 8696   2.811   4.527   5.238  1.2489 -0.1201 -0.4595
 2917TIP3    H2 8697   2.716   4.448   5.151  0.6192 -1.4296  1.3347
 2918TIP3   OH2 8698   4.138   6.494   3.494  0.4415 -0.2092  0.3377
 2918TIP3    H1 8699   4.062   6.445   3.528  1.0417 -0.7190  0.9714
 2918TIP3    H2 8700   4.209   6.430   3.493  0.9684  0.3773  0.1408
 2919TIP3   OH2 8701   0.066   7.789   6.496  0.4257  0.4336  0.1410
 2919TIP3    H1 8702   0.051   7.819   6.406 -0.0683  0.6577  0.2899
 2919TIP3    H2 8703   0.158   7.809   6.513  0.0452  2.1856  0.3330
 2920TIP3   OH2 8704   7.572   5.180   0.888  0.2921  0.5648 -0.3696
 2920TIP3    H1 8705   7.480   5.174   0.914  0.5593 -0.6871  0.3980
 2920TIP3    H2 8706   7.584   5.108   0.826  1.1454 -0.4117  0.8716
 2921TIP3   OH2 8707   5.504   2.878   4.648  0.5047 -0.5229 -0.1637
 2921TIP3    H1 8708   5.588   2.865   4.604 -0.0441 -1.3403 -1.0106
 2921TIP3    H2 8709   5.471   2.961   4.613  0.9170 -0.2408  0.1119
 2922TIP3   OH2 8710   0.652   2.564   5.716  0.0921  0.3571  0.1852
 2922TIP3    H1 8711   0.744   2.550   5.695 -0.3803 -0.4487 -1.5533
 2922TIP3    H2 8712   0.644   2.659   5.726  0.7193  0.7062 -1.9952
 2923TIP3   OH2 8713   2.230   6.593   6.074  0.0652 -0.0708 -0.4495
 2923TIP3    H1 8714   2.286   6.656   6.027  0.2047  0.9532  1.0344
 2923TIP3    H2 8715   2.159   6.646   6.109 -0.4262 -0.9462 -0.0978
 2924TIP3   OH2 8716   0.966   3.259   6.488 -0.5223  0.3192  0.3467
 2924TIP3    H1 8717   0.936   3.246   6.398  0.3953 -1.8051  0.2755
 2924TIP3    H2 8718   1.025   3.334   6.483  1.1316 -0.9829 -1.3010
 2925TIP3   OH2 8719   1.102   5.349   6.485 -0.5299  0.9451 -0.9005
 2925TIP3    H1 8720   1.171   5.377   6.424  0.4027  0.5167 -0.0766
 2925TIP3    H2 8721   1.100   5.253   6.477  0.2569  0.7935  0.3845
 2926TIP3   OH2 8722   2.162   0.992   4.168 -0.2915 -0.4429 -0.4897
 2926TIP3    H1 8723   2.076   1.032   4.153 -1.0692 -1.7345  0.2760
 2926TIP3    H2 8724   2.162   0.970   4.261  1.1696  0.1620 -0.3182
 2927TIP3   OH2 8725   5.915   0.990   1.937 -0.3873  0.4053  0.0976
 2927TIP3    H1 8726   5.889   1.073   1.897 -0.6093  0.4535  0.3376
 2927TIP3    H2 8727   5.844   0.929   1.914  0.3311 -0.0211 -1.0467
 2928TIP3   OH2 8728   3.033   5.854   4.595  0.2549 -0.1263  0.2118
 2928TIP3    H1 8729   3.081   5.789   4.647  0.9169 -0.2676 -0.5752
 2928TIP3    H2 8730   3.007   5.920   4.659  3.3689  1.1015  0.3783
 2929TIP3   OH2 8731   8.244   2.987   2.115  0.3466 -0.2918 -0.5621
 2929TIP3    H1 8732   8.175   3.053   2.104 -0.3174 -0.9436 -0.4275
 2929TIP3    H2 8733   8.268   2.992   2.207  2.1086  1.4844 -1.0483
 2930TIP3   OH2 8734   2.941   1.693   0.772  0.4614 -0.3236  0.7269
 2930TIP3    H1 8735   2.901   1.608   0.790 -0.0462  0.1891  2.1620
 2930TIP3    H2 8736   3.035   1.674   0.764  0.4684 -0.9143  1.9649
 2931TIP3   OH2 8737   5.273   7.752   5.145  0.8006 -0.3539 -0.0876
 2931TIP3    H1 8738   5.293   7.665   5.179  1.5861  0.6643  2.2320
 2931TIP3    H2 8739   5.354   7.781   5.102  1.2227 -0.0118  0.9060
 2932TIP3   OH2 8740   7.559   2.313   0.615  0.1664 -0.7084 -0.0207
 2932TIP3    H1 8741   7.481   2.262   0.641  0.5240  0.1363  3.2051
 2932TIP3    H2 8742   7.525   2.381   0.558 -0.7753 -2.7031 -1.9877
 2933TIP3   OH2 8743   6.759   4.802   0.253  0.1014  0.4547 -0.0011
 2933TIP3    H1 8744   6.684   4.779   0.309  0.6973 -0.0977  0.5759
 2933TIP3    H2 8745   6.739   4.761   0.169 -0.0762  0.0092  0.2539
 2934TIP3   OH2 8746   0.337   4.025   2.824  0.0667 -0.4438  0.7231
 2934TIP3    H1 8747   0.242   4.033   2.811  0.4409  2.7084 -0.9611
 2934TIP3    H2 8748   0.361   3.945   2.778 -1.7457 -1.3956  1.3223
 2935TIP3   OH2 8749   1.331   6.441   4.073 -0.3693 -0.1516 -0.2102
 2935TIP3    H1 8750   1.329   6.510   4.007  2.9243 -1.0419 -1.4170
 2935TIP3    H2 8751   1.308   6.485   4.155 -1.7208  1.5848 -1.4711
 2936TIP3   OH2 8752   3.692   6.660   6.503 -0.0500 -0.4869  0.8736
 2936TIP3    H1 8753   3.762   6.701   6.452  0.6669  0.8524  2.8383
 2936TIP3    H2 8754   3.642   6.610   6.438  0.9684  0.8928 -1.0860
 2937TIP3   OH2 8755   8.267   2.356   1.280  0.5989  0.5406 -0.0709
 2937TIP3    H1 8756   8.221   2.291   1.333 -0.1003  0.7889 -0.3544
 2937TIP3    H2 8757   8.327   2.306   1.226  0.4364  0.1778  0.0834
 2938TIP3   OH2 8758   1.894   0.258   3.868 -0.0221 -1.0025  0.3635
 2938TIP3    H1 8759   1.964   0.306   3.824 -0.0018 -0.4654  0.9532
 2938TIP3    H2 8760   1.818   0.316   3.863 -0.0072 -0.9050  1.0496
 2939TIP3   OH2 8761   7.407   5.201   5.213 -0.4397  0.3528 -0.3819
 2939TIP3    H1 8762   7.418   5.107   5.225 -1.1877  0.2046 -0.8252
 2939TIP3    H2 8763   7.404   5.236   5.302  0.2892  0.0234 -0.2154
 2940TIP3   OH2 8764   7.496   7.649   5.106 -0.2784  0.0073  0.1527
 2940TIP3    H1 8765   7.566   7.680   5.164 -0.8738  0.1020  0.8414
 2940TIP3    H2 8766   7.542   7.603   5.036  0.4153 -1.5710  1.5606
 2941TIP3   OH2 8767   3.897   6.316   2.378 -0.6495  0.2425 -0.1440
 2941TIP3    H1 8768   3.862   6.380   2.316  2.6140  2.4293  0.0257
 2941TIP3    H2 8769   3.850   6.332   2.459 -0.3053  2.0799 -0.2757
 2942TIP3   OH2 8770   1.608   3.913   1.057 -0.2402  0.4060 -0.1493
 2942TIP3    H1 8771   1.621   3.821   1.032  1.4045  0.4584  0.3634
 2942TIP3    H2 8772   1.662   3.923   1.136 -0.3931  1.8289 -0.2117
 2943TIP3   OH2 8773   6.035   5.816   1.988  0.3211 -0.3177  0.0154
 2943TIP3    H1 8774   5.961   5.802   2.047  0.8843 -1.3422  0.5165
 2943TIP3    H2 8775   6.070   5.901   2.013 -0.2159 -0.1718  0.2891
 2944TIP3   OH2 8776   2.903   5.943   2.041 -0.0827  0.0676  0.0904
 2944TIP3    H1 8777   2.857   5.863   2.015 -1.5135  0.9936 -0.3350
 2944TIP3    H2 8778   2.942   5.922   2.126 -1.8247 -0.5910  0.7628
 2945TIP3   OH2 8779   5.282   1.616   3.175 -0.5676 -0.1193 -0.3434
 2945TIP3    H1 8780   5.233   1.537   3.152 -1.5939  0.1429  0.8091
 2945TIP3    H2 8781   5.364   1.609   3.126 -0.5606 -1.9671 -0.1432
 2946TIP3   OH2 8782   2.473   3.287   4.442 -0.4442 -0.2441 -0.5573
 2946TIP3    H1 8783   2.495   3.378   4.462 -2.8366  0.1261  0.7273
 2946TIP3    H2 8784   2.534   3.236   4.495  0.5191  0.5921 -0.8149
 2947TIP3   OH2 8785   2.615   4.226   3.451  0.3128  0.1436 -0.1533
 2947TIP3    H1 8786   2.642   4.245   3.361  0.4054  0.6792 -0.0123
 2947TIP3    H2 8787   2.532   4.179   3.441 -0.1179  0.9631 -0.4859
 2948TIP3   OH2 8788   3.355   1.128   1.628  0.0453  0.1805 -0.1472
 2948TIP3    H1 8789   3.305   1.126   1.546 -0.8352 -0.4484  0.3834
 2948TIP3    H2 8790   3.306   1.189   1.684  0.9325  1.0063 -0.2542
 2949TIP3   OH2 8791   5.946   6.144   4.329  0.0894  0.3549 -0.1995
 2949TIP3    H1 8792   5.994   6.174   4.252  0.7202  0.8906  0.3786
 2949TIP3    H2 8793   5.864   6.108   4.295  0.7569 -0.2565 -1.1801
 2950TIP3   OH2 8794   3.499   5.879   4.601  0.1287 -0.0203 -0.4595
 2950TIP3    H1 8795   3.582   5.842   4.571  1.5115  1.7855  0.9730
 2950TIP3    H2 8796   3.436   5.808   4.589  2.3617 -2.3972  0.8855
 2951TIP3   OH2 8797   7.205   4.730   0.500  0.3372  0.0607  0.2456
 2951TIP3    H1 8798   7.278   4.773   0.457  0.7077 -2.4396 -1.8533
 2951TIP3    H2 8799   7.127   4.776   0.467  0.8112  0.8614  0.2167
 2952TIP3   OH2 8800   3.120   7.404   5.115 -0.1252 -0.2926  0.4988
 2952TIP3    H1 8801   3.200   7.358   5.091  0.7700  0.7459  1.4051
 2952TIP3    H2 8802   3.087   7.355   5.191 -1.4399 -1.8771 -1.0043
 2953TIP3   OH2 8803   0.296   2.885   6.595  0.3364 -0.5396 -0.0743
 2953TIP3    H1 8804   0.230   2.951   6.617 -1.4655 -1.5903 -1.9076
 2953TIP3    H2 8805   0.333   2.915   6.512  0.0443 -1.4022 -0.5342
 2954TIP3   OH2 8806   3.167   1.784   2.295 -0.2024  0.3931  0.0092
 2954TIP3    H1 8807   3.247   1.731   2.289  0.6505  1.6033  0.3706
 2954TIP3    H2 8808   3.102   1.733   2.247  0.6478 -0.8571  0.1153
 2955TIP3   OH2 8809   2.812   1.081   3.032 -0.1307  0.9276 -0.3453
 2955TIP3    H1 8810   2.885   1.062   2.974 -0.6460 -0.6796 -0.5263
 2955TIP3    H2 8811   2.734   1.056   2.982 -0.7249  1.5067  0.2702
 2956TIP3   OH2 8812   6.053   1.810   1.942 -0.2525  0.2318  0.0463
 2956TIP3    H1 8813   6.039   1.721   1.974 -0.4184 -1.5126 -4.2039
 2956TIP3    H2 8814   6.144   1.830   1.967 -0.2445 -1.0642  1.1787
 2957TIP3   OH2 8815   8.145   4.152   0.149 -0.0148 -0.2796  0.1162
 2957TIP3    H1 8816   8.183   4.159   0.062  0.7342 -0.9393  0.3744
 2957TIP3    H2 8817   8.217   4.176   0.208 -0.8105  1.1993  0.5223
 2958TIP3   OH2 8818   7.410   2.893   1.493 -0.0726  0.1886 -0.7826
 2958TIP3    H1 8819   7.467   2.885   1.416  0.4876  0.3821 -0.4000
 2958TIP3    H2 8820   7.337   2.834   1.476  0.0524  0.2185 -1.4556
 2959TIP3   OH2 8821   3.892   2.019   3.426  0.6199  0.0999 -0.0503
 2959TIP3    H1 8822   3.962   1.957   3.447 -0.6740 -2.3208 -2.2622
 2959TIP3    H2 8823   3.871   2.060   3.510  1.4276 -2.6133  1.6273
 2960TIP3   OH2 8824   3.221   3.746   0.836 -0.8109  0.0796 -0.3702
 2960TIP3    H1 8825   3.248   3.775   0.749  0.9311 -0.0781  0.0741
 2960TIP3    H2 8826   3.141   3.695   0.821 -1.4993  1.4719 -1.6543
 2961TIP3   OH2 8827   2.305   4.682   2.613 -0.0008  0.1240  0.4835
 2961TIP3    H1 8828   2.330   4.632   2.690  1.0601  0.4234  0.3450
 2961TIP3    H2 8829   2.333   4.628   2.539  1.1678  0.9162  0.3325
 2962TIP3   OH2 8830   6.939   1.778   3.928 -0.1262  0.7341 -0.1359
 2962TIP3    H1 8831   6.987   1.832   3.865  0.8719  1.0159  0.8332
 2962TIP3    H2 8832   6.917   1.839   3.999 -0.5558  0.2522  0.1439
 2963TIP3   OH2 8833   4.293   7.441   3.358 -0.0962  0.0005  0.0849
 2963TIP3    H1 8834   4.250   7.362   3.324 -0.0979  0.4479 -0.9802
 2963TIP3    H2 8835   4.383   7.413   3.376 -0.3056 -0.4406  0.4875
 2964TIP3   OH2 8836   7.886   6.940   5.132  0.2116 -0.2199 -0.4003
 2964TIP3    H1 8837   7.973   6.979   5.133  0.4364 -0.5323 -2.5858
 2964TIP3    H2 8838   7.902   6.846   5.144 -0.1595  0.0050  2.6303
 2965TIP3   OH2 8839   5.541   5.022   0.761  0.4415  0.0223  0.3360
 2965TIP3    H1 8840   5.589   5.103   0.741  0.3862 -0.0505 -0.0963
 2965TIP3    H2 8841   5.576   4.958   0.699  0.2307 -0.1944  0.4410
 2966TIP3   OH2 8842   7.740   0.266   4.612  0.0746  0.1503  0.8483
 2966TIP3    H1 8843   7.725   0.303   4.699  0.5658  0.4500  0.8116
 2966TIP3    H2 8844   7.658   0.222   4.590 -0.3546  0.8059  1.1054
 2967TIP3   OH2 8845   7.714   5.907   4.188 -0.1846  0.8553 -0.3791
 2967TIP3    H1 8846   7.699   5.832   4.131  0.9178 -0.0403  0.4544
 2967TIP3    H2 8847   7.748   5.975   4.130  1.5379 -0.2450 -0.7366
 2968TIP3   OH2 8848   1.683   4.895   1.003  0.6414 -0.1930  0.3616
 2968TIP3    H1 8849   1.591   4.871   0.998 -0.0707  2.1110  1.2086
 2968TIP3    H2 8850   1.717   4.875   0.915 -0.7214 -0.8292 -0.0499
 2969TIP3   OH2 8851   6.860   0.945   6.015 -0.1691  0.2477 -1.0627
 2969TIP3    H1 8852   6.811   1.010   5.963  0.5445  1.3264 -0.4217
 2969TIP3    H2 8853   6.805   0.928   6.091  0.1875  1.0526 -0.6134
 2970TIP3   OH2 8854   2.785   7.401   4.608 -0.2310 -0.2157 -0.3134
 2970TIP3    H1 8855   2.732   7.406   4.528 -0.7002 -1.3056 -0.0867
 2970TIP3    H2 8856   2.804   7.307   4.618  0.5493  0.0040  0.3904
 2971TIP3   OH2 8857   4.176   1.464   0.269  0.1742  0.0846 -0.1902
 2971TIP3    H1 8858   4.122   1.502   0.200 -2.3292 -0.8651  1.0997
 2971TIP3    H2 8859   4.241   1.531   0.289 -1.7735  2.1658 -0.4667
 2972TIP3   OH2 8860   7.215   2.540   2.182 -0.4933  0.3226 -0.2893
 2972TIP3    H1 8861   7.257   2.623   2.206 -2.5889  0.5389  3.3307
 2972TIP3    H2 8862   7.124   2.564   2.164 -1.5649 -1.2495  2.4651
 2973TIP3   OH2 8863   2.703   4.205   6.493 -0.4616 -0.0540 -0.2534
 2973TIP3    H1 8864   2.668   4.171   6.575  1.8184  0.3813  0.9809
 2973TIP3    H2 8865   2.767   4.271   6.519  1.7538 -1.2380 -2.2445
 2974TIP3   OH2 8866   0.610   3.539   4.040 -0.1598  0.2886  0.0251
 2974TIP3    H1 8867   0.686   3.552   3.983  0.0449  0.5594  0.3636
 2974TIP3    H2 8868   0.634   3.580   4.123  0.0227 -1.1243  0.7106
 2975TIP3   OH2 8869   3.704   0.329   2.345  0.6080  0.1054 -0.3293
 2975TIP3    H1 8870   3.681   0.284   2.264 -1.2237  2.4929 -1.2460
 2975TIP3    H2 8871   3.775   0.388   2.319  0.7547  0.1078  0.0764
 2976TIP3   OH2 8872   4.572   5.164   5.708  0.7883 -0.4579  0.2210
 2976TIP3    H1 8873   4.647   5.188   5.653 -0.1876  0.2735 -0.8390
 2976TIP3    H2 8874   4.570   5.068   5.704  1.0906 -0.4436 -0.5460
 2977TIP3   OH2 8875   5.926   5.595   3.657 -0.2633  0.4507 -0.3036
 2977TIP3    H1 8876   5.994   5.531   3.680 -0.7445 -0.7797 -2.0750
 2977TIP3    H2 8877   5.934   5.664   3.723  0.7836 -1.0693  1.2383
 2978TIP3   OH2 8878   7.267   0.174   2.154 -0.2748 -0.1507 -0.6609
 2978TIP3    H1 8879   7.347   0.225   2.165 -1.8554  2.1044  1.7803
 2978TIP3    H2 8880   7.213   0.226   2.094 -0.5088 -0.8565 -1.0705
 2979TIP3   OH2 8881   6.154   5.841   3.788 -0.5014 -0.0380  0.0444
 2979TIP3    H1 8882   6.220   5.907   3.808 -1.3688  1.2413 -1.0873
 2979TIP3    H2 8883   6.200   5.777   3.734  0.0009  0.4547 -0.1300
 2980TIP3   OH2 8884   6.330   1.400   3.795  0.4218  0.6410 -0.0324
 2980TIP3    H1 8885   6.256   1.411   3.854  0.8217  0.2894  0.5480
 2980TIP3    H2 8886   6.343   1.486   3.756 -2.1522  0.0602 -2.4361
 2981TIP3   OH2 8887   5.954   7.771   5.435 -0.4476 -0.1626  0.0394
 2981TIP3    H1 8888   5.971   7.740   5.346  2.0822  0.1973  0.3353
 2981TIP3    H2 8889   6.030   7.743   5.486 -0.3008  2.3669  1.3793
 2982TIP3   OH2 8890   5.399   3.972   3.742 -0.4293 -0.1662  0.0460
 2982TIP3    H1 8891   5.350   4.010   3.669 -0.3867 -0.9692 -0.4125
 2982TIP3    H2 8892   5.490   3.973   3.713 -0.0708  1.7349  1.0755
 2983TIP3   OH2 8893   6.474   2.856   2.936 -0.1907  0.3434  0.4826
 2983TIP3    H1 8894   6.558   2.872   2.978  0.9826 -0.9234 -1.2342
 2983TIP3    H2 8895   6.455   2.763   2.953 -0.1717  0.0669 -0.8972
 2984TIP3   OH2 8896   7.260   4.859   3.742  0.4336 -0.0658  0.3407
 2984TIP3    H1 8897   7.258   4.783   3.684 -0.4757 -1.9525  2.6688
 2984TIP3    H2 8898   7.338   4.845   3.796  1.6697  2.0201 -0.8079
 2985TIP3   OH2 8899   1.260   2.502   4.991  0.4451 -0.0616 -0.0854
 2985TIP3    H1 8900   1.167   2.480   4.997  0.9310 -2.3220  0.1123
 2985TIP3    H2 8901   1.304   2.417   4.984  2.4133  1.0026 -1.4787
 2986TIP3   OH2 8902   0.150   5.303   4.213  0.5605  0.5265 -0.2044
 2986TIP3    H1 8903   0.190   5.267   4.291 -1.2965 -0.7144  0.2379
 2986TIP3    H2 8904   0.135   5.396   4.234  2.7597  0.9487 -0.2706
 2987TIP3   OH2 8905   1.841   2.205   6.219 -0.1839  0.0851  1.2754
 2987TIP3    H1 8906   1.759   2.208   6.171  0.1882 -0.6673  0.5671
 2987TIP3    H2 8907   1.834   2.276   6.283 -0.4976  1.4748 -0.2158
 2988TIP3   OH2 8908   3.731   0.925   6.767 -0.5929  0.1201 -0.2131
 2988TIP3    H1 8909   3.812   0.875   6.780 -1.5584 -1.7736 -0.9485
 2988TIP3    H2 8910   3.744   0.971   6.684 -0.8330 -1.5589 -1.2504
 2989TIP3   OH2 8911   5.219   6.064   2.458  0.0536  0.3220  0.1404
 2989TIP3    H1 8912   5.215   6.033   2.367 -1.5300  2.6792 -0.7106
 2989TIP3    H2 8913   5.228   5.985   2.510  1.3995 -1.1049 -2.0671
 2990TIP3   OH2 8914   5.828   3.388   2.426  0.3625  0.4023  0.2059
 2990TIP3    H1 8915   5.744   3.359   2.391 -0.7589  1.9690  1.4137
 2990TIP3    H2 8916   5.887   3.390   2.351 -1.1837  0.9954 -1.0428
 2991TIP3   OH2 8917   1.490   0.221   3.199 -0.1910  0.5116  0.5105
 2991TIP3    H1 8918   1.428   0.164   3.244 -0.0045 -0.3305 -0.2641
 2991TIP3    H2 8919   1.484   0.305   3.244 -1.3578  0.2240  0.9035
 2992TIP3   OH2 8920   2.715   3.811   1.661 -0.3106 -0.2169  0.0768
 2992TIP3    H1 8921   2.631   3.849   1.634 -0.2265 -1.6105 -2.3920
 2992TIP3    H2 8922   2.780   3.877   1.636 -0.5555  0.6786  1.6136
 2993TIP3   OH2 8923   4.981   2.199   0.269 -0.5602  1.0105  0.0592
 2993TIP3    H1 8924   4.892   2.205   0.234 -0.0175 -1.5567 -2.0777
 2993TIP3    H2 8925   4.971   2.150   0.350 -1.0554  0.1759 -0.4950
 2994TIP3   OH2 8926   2.506   1.645   0.671 -0.1834  0.2615 -0.0976
 2994TIP3    H1 8927   2.473   1.648   0.761 -1.0923  1.5104 -0.4435
 2994TIP3    H2 8928   2.540   1.733   0.655  1.9455 -0.5338 -0.2973
 2995TIP3   OH2 8929   3.733   7.759   2.095  0.9563 -0.1478  0.0256
 2995TIP3    H1 8930   3.661   7.799   2.144  0.2902  0.2737 -1.2460
 2995TIP3    H2 8931   3.798   7.736   2.161  0.0699  0.3567  1.0961
 2996TIP3   OH2 8932   2.383   2.863   0.008 -0.0002 -0.0801  0.1683
 2996TIP3    H1 8933   2.476   2.883  -0.001  0.0484 -0.7370 -1.1300
 2996TIP3    H2 8934   2.368   2.860   0.102  1.7297 -1.7928  0.4699
 2997TIP3   OH2 8935   1.035   7.126   6.091 -0.0852 -0.2587 -0.4441
 2997TIP3    H1 8936   1.025   7.036   6.058 -0.5556 -0.9552  1.4451
 2997TIP3    H2 8937   1.129   7.143   6.087 -0.0139 -0.7449 -1.0166
 2998TIP3   OH2 8938   2.178   0.728   1.783 -0.1133 -0.2242 -0.0415
 2998TIP3    H1 8939   2.190   0.763   1.871 -0.4825  1.3265 -0.5710
 2998TIP3    H2 8940   2.085   0.741   1.765  0.0959  0.0866 -0.9143
 2999TIP3   OH2 8941   0.479   6.145   3.723 -0.0138 -0.5138  0.3010
 2999TIP3    H1 8942   0.569   6.138   3.755 -0.4661 -1.4104  1.4701
 2999TIP3    H2 8943   0.469   6.072   3.662 -0.3653 -1.3437  1.3142
 3000TIP3   OH2 8944   7.720   6.698   5.736  0.1535 -0.0291  0.3342
 3000TIP3    H1 8945   7.685   6.732   5.818 -1.1809  0.5711 -0.4556
 3000TIP3    H2 8946   7.753   6.774   5.689  1.9501 -0.5001  0.7559
 3001TIP3   OH2 8947   2.026   2.471   5.292  0.0571 -0.0311 -0.0308
 3001TIP3    H1 8948   2.095   2.469   5.226  0.0363 -0.1485 -0.0500
 3001TIP3    H2 8949   1.954   2.518   5.250  1.6678  4.3692  1.5134
 3002TIP3   OH2 8950   2.348   5.030   0.490  0.0723 -0.4030  0.4268
 3002TIP3    H1 8951   2.333   5.084   0.567  2.0522  1.7440 -0.5372
 3002TIP3    H2 8952   2.420   4.972   0.515  0.0387 -0.4039  0.5202
 3003TIP3   OH2 8953   0.930   6.096   2.644 -0.7470 -0.0555 -0.8114
 3003TIP3    H1 8954   0.952   6.179   2.687 -0.9973 -0.4174  0.0340
 3003TIP3    H2 8955   0.876   6.049   2.708  2.4441 -2.4976  0.3633
 3004TIP3   OH2 8956   4.956   4.617   5.661  0.4363 -0.4898  0.5453
 3004TIP3    H1 8957   4.913   4.569   5.732  0.8398 -2.3033 -0.3691
 3004TIP3    H2 8958   5.001   4.549   5.611  0.9258  0.8600 -0.9105
 3005TIP3   OH2 8959   4.485   6.650   6.134 -0.3767 -0.2854 -0.6262
 3005TIP3    H1 8960   4.486   6.624   6.041 -2.2320 -1.7474 -0.3004
 3005TIP3    H2 8961   4.455   6.572   6.180  0.8526  0.3096  1.2819
 3006TIP3   OH2 8962   6.153   7.538   2.684 -0.2670 -0.4025 -0.1858
 3006TIP3    H1 8963   6.247   7.545   2.701 -0.5243  1.2351  0.7569
 3006TIP3    H2 8964   6.132   7.619   2.637 -1.4234 -0.0886  0.8264
 3007TIP3   OH2 8965   6.770   1.944   1.960 -0.3823  0.5514  0.1829
 3007TIP3    H1 8966   6.773   1.858   2.002  0.0566  0.2671 -0.4092
 3007TIP3    H2 8967   6.831   1.997   2.011 -0.9152  0.6115  0.7611
 3008TIP3   OH2 8968   1.377   5.201   2.425 -0.1067 -0.0154  0.3659
 3008TIP3    H1 8969   1.292   5.157   2.417  0.3014 -0.6959 -0.4949
 3008TIP3    H2 8970   1.366   5.282   2.376  0.0068 -0.5378 -0.5521
 3009TIP3   OH2 8971   0.220   2.434   0.969  0.8128 -0.1797 -0.2632
 3009TIP3    H1 8972   0.172   2.513   0.946  0.2847 -1.1046 -2.6444
 3009TIP3    H2 8973   0.300   2.466   1.012 -0.0716  1.5333  0.2025
 3010TIP3   OH2 8974   0.337   3.141   6.220  0.1065  0.1985  0.3582
 3010TIP3    H1 8975   0.376   3.128   6.306  0.5882 -0.7475  0.0037
 3010TIP3    H2 8976   0.246   3.111   6.230 -0.1570  1.1289  0.8203
 3011TIP3   OH2 8977   0.036   1.245   3.933  0.0003  0.6232 -0.1931
 3011TIP3    H1 8978   0.020   1.220   3.842  1.8049 -0.5339 -0.2462
 3011TIP3    H2 8979   0.081   1.169   3.971 -1.5371  0.7064  1.9388
 3012TIP3   OH2 8980   0.760   2.689   0.049 -0.2410 -0.1405 -0.5706
 3012TIP3    H1 8981   0.784   2.764   0.104 -1.3988 -0.1460 -0.0436
 3012TIP3    H2 8982   0.843   2.660   0.012  0.2423  1.3568 -0.7308
 3013TIP3   OH2 8983   7.276   5.372   2.295 -0.4937  0.0127  0.3662
 3013TIP3    H1 8984   7.254   5.417   2.213  0.3315 -0.3218 -0.0518
 3013TIP3    H2 8985   7.234   5.286   2.287  1.4496 -0.8936 -0.7410
 3014TIP3   OH2 8986   8.285   0.491   3.553 -0.3137 -0.5777  0.4075
 3014TIP3    H1 8987   8.329   0.487   3.639 -0.4031 -2.1012  0.4025
 3014TIP3    H2 8988   8.214   0.427   3.559  0.1923 -1.3242 -1.0735
 3015TIP3   OH2 8989   4.732   0.785   3.448 -0.1777 -0.1050 -0.0621
 3015TIP3    H1 8990   4.663   0.815   3.508  0.9691  0.1389  1.1797
 3015TIP3    H2 8991   4.696   0.801   3.361 -2.2465 -1.2720  0.5122
 3016TIP3   OH2 8992   5.332   1.952   5.093 -0.3530  0.0962  0.0679
 3016TIP3    H1 8993   5.333   1.907   5.178 -0.5759 -1.6312 -0.7941
 3016TIP3    H2 8994   5.424   1.952   5.065 -0.5309 -1.2413 -0.6049
 3017TIP3   OH2 8995   1.729   4.900   3.623 -0.4203 -0.6208 -0.0348
 3017TIP3    H1 8996   1.661   4.955   3.662  0.5243  0.5149  0.0539
 3017TIP3    H2 8997   1.689   4.812   3.620 -1.4157 -0.2509  1.1824
 3018TIP3   OH2 8998   4.554   4.862   2.168 -0.2589 -0.0110 -0.9046
 3018TIP3    H1 8999   4.641   4.832   2.194 -1.2561 -1.1098  1.3779
 3018TIP3    H2 9000   4.571   4.933   2.106  2.3876  1.9882  1.8355
 3019TIP3   OH2 9001   2.638   1.012   5.828 -0.2656  0.2259  0.5926
 3019TIP3    H1 9002   2.677   0.984   5.745  1.4203 -1.9831  2.0269
 3019TIP3    H2 9003   2.621   1.105   5.815  3.9729  1.0391 -0.8151
 3020TIP3   OH2 9004   7.833   6.455   6.290  0.7886 -0.3556  0.0395
 3020TIP3    H1 9005   7.809   6.390   6.357  1.0818 -0.1848  0.3123
 3020TIP3    H2 9006   7.914   6.422   6.252  2.3197  1.0541  1.8726
 3021TIP3   OH2 9007   5.523   6.816   5.422  0.0323 -0.0679  0.3072
 3021TIP3    H1 9008   5.603   6.776   5.387  0.9458  1.9556 -0.0785
 3021TIP3    H2 9009   5.549   6.846   5.510 -0.2417  0.7576  0.1122
 3022TIP3   OH2 9010   6.386   7.084   3.041 -0.1665  0.1072 -0.0675
 3022TIP3    H1 9011   6.463   7.118   3.086  0.6727 -2.3874  0.5425
 3022TIP3    H2 9012   6.410   7.085   2.948  0.4675 -0.3539  0.0917
 3023TIP3   OH2 9013   4.464   1.716   6.649 -0.2263  0.5181 -0.0743
 3023TIP3    H1 9014   4.443   1.809   6.639 -1.9126  0.3776  1.5448
 3023TIP3    H2 9015   4.406   1.686   6.719  1.2327 -1.4534  0.3849
 3024TIP3   OH2 9016   7.418   1.600   3.439  0.0151  0.4994  0.0776
 3024TIP3    H1 9017   7.394   1.689   3.410 -0.8141 -0.4965 -2.6385
 3024TIP3    H2 9018   7.493   1.577   3.384 -0.2478 -0.7256  0.2154
 3025TIP3   OH2 9019   1.840   5.420   3.326 -0.0152 -0.1357 -0.2736
 3025TIP3    H1 9020   1.819   5.494   3.383 -0.6828 -0.8526  0.4367
 3025TIP3    H2 9021   1.934   5.408   3.337  0.3250  1.3169 -1.2873
 3026TIP3   OH2 9022   7.093   5.786   0.849 -0.5316  0.0027  0.6764
 3026TIP3    H1 9023   7.169   5.751   0.801 -0.3895  0.3472  0.6506
 3026TIP3    H2 9024   7.053   5.848   0.789 -1.9152 -1.4912 -0.0417
 3027TIP3   OH2 9025   2.124   7.237   6.655 -0.3683  0.2621 -0.1770
 3027TIP3    H1 9026   2.090   7.326   6.648 -1.2207  0.1754  1.9982
 3027TIP3    H2 9027   2.219   7.246   6.650 -0.0930  1.9225  3.8616
 3028TIP3   OH2 9028   0.277   1.199   0.831  0.2659  0.2135  0.0080
 3028TIP3    H1 9029   0.348   1.148   0.871 -1.8376 -2.1173  1.1112
 3028TIP3    H2 9030   0.263   1.157   0.746 -1.1008 -0.8020  0.6832
 3029TIP3   OH2 9031   1.128   4.789   0.874  0.6040  0.0408 -0.2029
 3029TIP3    H1 9032   1.166   4.703   0.892  1.0917  0.2174 -0.3663
 3029TIP3    H2 9033   1.191   4.831   0.815 -1.1577 -0.7325 -2.8382
 3030TIP3   OH2 9034   7.243   4.151   1.324  0.7008  0.3796 -0.0958
 3030TIP3    H1 9035   7.282   4.084   1.380  0.8355  0.4717 -0.0805
 3030TIP3    H2 9036   7.268   4.125   1.235 -0.6323 -0.5300 -0.2412
 3031TIP3   OH2 9037   4.366   4.643   2.159  0.1118  0.3280 -0.1464
 3031TIP3    H1 9038   4.433   4.709   2.179 -1.4062  1.4481  1.7191
 3031TIP3    H2 9039   4.318   4.680   2.085 -0.1916  0.9461  0.3416
 3032TIP3   OH2 9040   7.277   3.825   4.561 -0.2822  0.8287  0.2951
 3032TIP3    H1 9041   7.365   3.834   4.523  0.5768  1.4686  2.3074
 3032TIP3    H2 9042   7.280   3.744   4.610 -1.7809 -0.6377 -1.8362
 3033TIP3   OH2 9043   0.238   3.257   5.385  0.2113  0.6231  0.6545
 3033TIP3    H1 9044   0.288   3.271   5.466 -1.1922  0.0358  1.6485
 3033TIP3    H2 9045   0.168   3.321   5.389  0.5852  1.1230 -0.5087
 3034TIP3   OH2 9046   3.462   5.634   6.427 -0.0603 -0.2010  0.3775
 3034TIP3    H1 9047   3.546   5.603   6.395 -0.2746 -1.1015  0.6566
 3034TIP3    H2 9048   3.446   5.715   6.378 -0.3670 -1.5070 -1.8169
 3035TIP3   OH2 9049   4.027   3.364   5.618 -0.0639  0.0273  0.0830
 3035TIP3    H1 9050   3.965   3.309   5.571  0.1426 -0.0668 -0.0823
 3035TIP3    H2 9051   4.070   3.304   5.679  1.0258 -0.2709 -0.9341
 3036TIP3   OH2 9052   0.446   1.733   3.498 -0.0254 -0.0521  0.3468
 3036TIP3    H1 9053   0.513   1.729   3.431 -0.4564 -1.7857 -0.0349
 3036TIP3    H2 9054   0.461   1.656   3.552 -0.7561  0.3761  1.1954
 3037TIP3   OH2 9055   1.855   0.303   0.441 -0.1925  0.2567  0.0020
 3037TIP3    H1 9056   1.928   0.264   0.393  0.8001  1.5207  0.4248
 3037TIP3    H2 9057   1.789   0.322   0.373 -0.3324 -1.2591 -0.3259
 3038TIP3   OH2 9058   4.463   2.152   0.109  0.2053 -0.1684 -0.4383
 3038TIP3    H1 9059   4.507   2.170   0.025 -0.5029  0.5647 -0.6675
 3038TIP3    H2 9060   4.370   2.146   0.086 -0.0133  0.2316  0.3287
 3039TIP3   OH2 9061   6.201   7.658   1.685  0.7819  0.0395 -0.0012
 3039TIP3    H1 9062   6.129   7.695   1.736  0.7241 -0.6939  0.4590
 3039TIP3    H2 9063   6.278   7.668   1.741  0.4942 -1.9618  0.8285
 3040TIP3   OH2 9064   5.478   6.420   5.747 -0.0230  0.4653  0.3631
 3040TIP3    H1 9065   5.402   6.465   5.711 -0.9925  0.8299  2.6581
 3040TIP3    H2 9066   5.550   6.482   5.739 -0.6841  1.3166  0.8744
 3041TIP3   OH2 9067   6.913   7.327   5.638  0.1011  0.2380 -0.1580
 3041TIP3    H1 9068   6.994   7.278   5.627  0.6030  1.0463 -0.1161
 3041TIP3    H2 9069   6.884   7.304   5.727  1.2660  1.3459  0.5474
 3042TIP3   OH2 9070   4.749   6.809   5.057  0.0133  0.4227 -0.4267
 3042TIP3    H1 9071   4.684   6.836   4.992 -0.5685 -1.6356 -0.7578
 3042TIP3    H2 9072   4.829   6.795   5.007 -0.3789 -0.9508 -0.7264
 3043TIP3   OH2 9073   0.884   6.159   0.307  0.2352  0.0890 -0.3557
 3043TIP3    H1 9074   0.842   6.241   0.333  1.2545  0.3628  0.5147
 3043TIP3    H2 9075   0.944   6.184   0.237 -0.2773 -0.1237 -0.8810
 3044TIP3   OH2 9076   2.286   4.900   3.344  0.0720  0.0644  0.3651
 3044TIP3    H1 9077   2.241   4.939   3.270 -0.3890  2.0158  1.5863
 3044TIP3    H2 9078   2.349   4.839   3.305 -0.3145  0.8478 -1.5939
 3045TIP3   OH2 9079   0.271   5.813   0.247 -0.1714 -0.2728 -0.3197
 3045TIP3    H1 9080   0.311   5.741   0.297  1.2435  0.5213 -0.2618
 3045TIP3    H2 9081   0.325   5.820   0.168 -1.4503 -0.4932 -1.2316
 3046TIP3   OH2 9082   1.664   2.749   1.477  0.1382 -0.7544 -0.5435
 3046TIP3    H1 9083   1.757   2.769   1.479 -0.0819  0.2564  1.6221
 3046TIP3    H2 9084   1.628   2.809   1.412  0.5447  1.1750  0.9342
 3047TIP3   OH2 9085   5.497   2.326   5.490  0.0214 -0.0461 -1.0951
 3047TIP3    H1 9086   5.550   2.405   5.505 -1.8994  1.2441 -0.6762
 3047TIP3    H2 9087   5.512   2.272   5.567  0.5896  0.3710 -0.9032
 3048TIP3   OH2 9088   1.924   3.780   1.486 -0.2620 -0.0592  0.9420
 3048TIP3    H1 9089   1.850   3.722   1.502 -1.5880  0.8470 -1.3849
 3048TIP3    H2 9090   1.919   3.800   1.392  0.9796  2.6408  1.3497
 3049TIP3   OH2 9091   2.783   0.811   4.354  0.2119 -0.4790  0.3013
 3049TIP3    H1 9092   2.875   0.836   4.343  0.3952 -0.9412  0.7461
 3049TIP3    H2 9093   2.734   0.891   4.333  0.6008 -0.7737 -2.0244
 3050TIP3   OH2 9094   6.681   0.497   0.072  0.4786 -0.3915 -0.0803
 3050TIP3    H1 9095   6.627   0.561   0.026  0.4537 -1.8487 -2.2452
 3050TIP3    H2 9096   6.770   0.511   0.039  0.7757 -0.3805  0.6991
 3051TIP3   OH2 9097   3.536   4.158   4.019 -0.1190 -0.2808 -0.0054
 3051TIP3    H1 9098   3.505   4.098   3.952 -1.0698  0.0800  0.0944
 3051TIP3    H2 9099   3.577   4.102   4.085 -1.5692 -0.9061  0.4064
 3052TIP3   OH2 9100   2.276   4.183   3.707 -0.0027  0.3670  1.0621
 3052TIP3    H1 9101   2.195   4.156   3.750  0.0418  2.2267  2.4443
 3052TIP3    H2 9102   2.335   4.205   3.779  0.7752  1.6262  0.0763
 3053TIP3   OH2 9103   6.807   1.455   3.921 -0.2889  0.4271 -0.0588
 3053TIP3    H1 9104   6.806   1.413   4.007 -0.2942 -2.3629 -1.3051
 3053TIP3    H2 9105   6.899   1.478   3.907 -0.2883  0.8977  0.6805
 3054TIP3   OH2 9106   7.114   6.142   3.866 -0.4047 -0.2700  0.1347
 3054TIP3    H1 9107   7.072   6.211   3.917  0.6069  0.9048 -0.5854
 3054TIP3    H2 9108   7.206   6.147   3.889 -0.2600 -1.1414 -0.2220
 3055TIP3   OH2 9109   4.745   5.438   3.454 -0.6070 -0.0376 -0.2302
 3055TIP3    H1 9110   4.788   5.514   3.492  0.2490 -0.7412  0.2453
 3055TIP3    H2 9111   4.654   5.444   3.485 -0.2935  0.2249  0.6796
 3056TIP3   OH2 9112   6.770   5.215   5.144 -0.4087  0.5154 -0.0780
 3056TIP3    H1 9113   6.799   5.128   5.117 -1.0100 -0.0152  0.9418
 3056TIP3    H2 9114   6.851   5.260   5.171  0.3166  1.2356 -2.9898
 3057TIP3   OH2 9115   6.467   3.319   3.123 -0.4209  0.1072  0.3097
 3057TIP3    H1 9116   6.494   3.406   3.095 -2.1669  0.9202  1.0624
 3057TIP3    H2 9117   6.476   3.320   3.218 -0.2783 -0.6051  0.3145
 3058TIP3   OH2 9118   0.370   6.681   1.611 -0.5510  0.3606  0.2926
 3058TIP3    H1 9119   0.438   6.626   1.571  0.8275  3.2970 -1.7629
 3058TIP3    H2 9120   0.374   6.660   1.705  1.9317 -0.8798 -0.0185
 3059TIP3   OH2 9121   4.988   5.398   5.297  0.0078  0.3863  0.1414
 3059TIP3    H1 9122   4.999   5.487   5.332  2.3607  0.0242  0.4502
 3059TIP3    H2 9123   5.045   5.395   5.220 -0.2695 -0.7793 -0.0334
 3060TIP3   OH2 9124   3.698   4.646   3.528  0.1755  0.9004 -0.3305
 3060TIP3    H1 9125   3.763   4.593   3.483 -0.7612  0.6533 -1.4338
 3060TIP3    H2 9126   3.749   4.718   3.567  1.3398 -0.3118  0.4696
 3061TIP3   OH2 9127   1.794   6.226   0.710  0.2981  0.1308 -0.8770
 3061TIP3    H1 9128   1.825   6.138   0.731  2.1966  0.9763  0.0735
 3061TIP3    H2 9129   1.857   6.258   0.645  1.2420  1.7052  0.7217
 3062TIP3   OH2 9130   6.947   0.287   4.419  0.2085  0.3936 -0.3222
 3062TIP3    H1 9131   6.885   0.327   4.481 -1.9689  0.1751 -2.2213
 3062TIP3    H2 9132   7.020   0.348   4.416 -0.6543  1.5398  0.7837
 3063TIP3   OH2 9133   0.991   3.776   4.519 -0.3238 -0.1564  0.3339
 3063TIP3    H1 9134   0.907   3.749   4.557  0.8238 -1.9899  1.7059
 3063TIP3    H2 9135   1.034   3.827   4.588  1.9042 -3.7602  1.8445
 3064TIP3   OH2 9136   0.701   0.136   3.065 -0.2471 -0.4883  0.6529
 3064TIP3    H1 9137   0.728   0.058   3.016  0.4780 -0.6525  1.2981
 3064TIP3    H2 9138   0.628   0.172   3.014 -0.6218 -1.6101  0.3815
 3065TIP3   OH2 9139   3.000   1.851   6.082 -0.8956 -0.4008 -0.4335
 3065TIP3    H1 9140   3.074   1.902   6.050  0.3938 -0.8550  1.6801
 3065TIP3    H2 9141   3.011   1.765   6.041  0.1758 -0.6780  0.4062
 3066TIP3   OH2 9142   8.076   3.942   4.688 -0.5856 -0.5587  0.1843
 3066TIP3    H1 9143   7.999   3.983   4.648  0.2638  0.7235 -0.1885
 3066TIP3    H2 9144   8.040   3.889   4.759 -1.6979  1.5238  1.2835
 3067TIP3   OH2 9145   2.863   2.329   0.156 -0.5360  0.5293 -0.1519
 3067TIP3    H1 9146   2.857   2.338   0.061 -1.2725 -1.4001 -0.3472
 3067TIP3    H2 9147   2.954   2.301   0.172 -0.9635 -1.2511 -0.5653
 3068TIP3   OH2 9148   3.886   5.956   5.276 -0.6030 -0.0185 -0.1787
 3068TIP3    H1 9149   3.831   5.960   5.354 -0.4855 -1.7341  0.0324
 3068TIP3    H2 9150   3.920   5.867   5.275  2.7316  1.1066  0.0414
 3069TIP3   OH2 9151   5.558   1.007   0.557  0.5457 -0.2568 -0.3936
 3069TIP3    H1 9152   5.507   1.075   0.602  0.5857  0.0645 -0.8222
 3069TIP3    H2 9153   5.619   1.056   0.502 -0.4921 -0.6159 -1.9383
 3070TIP3   OH2 9154   4.749   0.249   4.377 -0.0291 -0.3431  0.4317
 3070TIP3    H1 9155   4.713   0.219   4.294 -1.8567  0.6528  0.8196
 3070TIP3    H2 9156   4.704   0.197   4.443  0.4218 -0.1872  0.8696
 3071TIP3   OH2 9157   0.862   0.722   2.762  0.1134  0.0657  0.1008
 3071TIP3    H1 9158   0.803   0.688   2.695  0.1758  0.1602 -0.0018
 3071TIP3    H2 9159   0.918   0.648   2.785  1.4834  0.5655 -1.4450
 3072TIP3   OH2 9160   2.374   4.478   1.652  0.1825  0.3329 -0.5789
 3072TIP3    H1 9161   2.345   4.489   1.561 -0.9186 -1.1274 -0.4249
 3072TIP3    H2 9162   2.413   4.390   1.654  0.1105  0.3203  0.3891
 3073TIP3   OH2 9163   0.867   5.139   6.076 -0.0482 -0.9644  0.6441
 3073TIP3    H1 9164   0.772   5.148   6.079 -0.0522  0.2451 -1.6208
 3073TIP3    H2 9165   0.888   5.127   5.984  2.1590  1.1217  0.7593
 3074TIP3   OH2 9166   6.645   3.019   6.398 -0.5164  0.6548 -0.0160
 3074TIP3    H1 9167   6.646   3.046   6.306  0.6402 -0.6528 -0.4054
 3074TIP3    H2 9168   6.562   3.055   6.432 -1.5678  0.1168 -1.8745
 3075TIP3   OH2 9169   5.674   4.259   5.698 -0.3899 -0.3572  0.0753
 3075TIP3    H1 9170   5.606   4.197   5.726 -0.8514  0.5989  1.1783
 3075TIP3    H2 9171   5.630   4.316   5.636 -0.6239  0.2832  0.8151
 3076TIP3   OH2 9172   3.719   0.136   0.563  0.2849  0.2529 -0.7441
 3076TIP3    H1 9173   3.712   0.169   0.652 -1.0425  1.3977 -1.2374
 3076TIP3    H2 9174   3.650   0.070   0.556  2.5615 -2.4237  0.0648
 3077TIP3   OH2 9175   6.790   2.759   1.791 -0.1452  0.5007 -0.2368
 3077TIP3    H1 9176   6.814   2.668   1.771 -1.5294 -0.2494  1.3056
 3077TIP3    H2 9177   6.866   2.794   1.838  0.8648  0.5468 -1.8217
 3078TIP3   OH2 9178   2.684   2.180   4.413  0.4641  0.4924 -0.0188
 3078TIP3    H1 9179   2.720   2.156   4.498  1.3958 -0.3970 -0.6539
 3078TIP3    H2 9180   2.684   2.276   4.414 -0.3201  0.5158  1.2866
 3079TIP3   OH2 9181   2.227   0.033   4.024 -0.1345  0.7269 -0.4417
 3079TIP3    H1 9182   2.316   0.066   4.036  1.2008 -1.1407 -3.8407
 3079TIP3    H2 9183   2.239  -0.053   3.984 -3.5045 -0.5600  0.9687
 3080TIP3   OH2 9184   2.953   0.882   6.298  0.3003  0.1324  0.0761
 3080TIP3    H1 9185   2.904   0.804   6.271 -0.6964  0.8682 -0.3053
 3080TIP3    H2 9186   3.023   0.889   6.233  0.3673 -0.4158  0.0848
 3081TIP3   OH2 9187   5.928   3.333   5.337 -0.7153 -0.2883  0.0248
 3081TIP3    H1 9188   6.002   3.320   5.397 -0.4284  0.6501 -0.0966
 3081TIP3    H2 9189   5.860   3.274   5.369 -0.6275  0.3100  1.3823
 3082TIP3   OH2 9190   2.721   0.142   3.412  0.0342 -0.6161  0.4468
 3082TIP3    H1 9191   2.768   0.117   3.333  2.1373  1.5846  0.8731
 3082TIP3    H2 9192   2.720   0.063   3.466 -0.3207 -1.7974 -1.2261
 3083TIP3   OH2 9193   6.095   1.585   2.645 -0.4608 -0.7795  0.0792
 3083TIP3    H1 9194   6.183   1.616   2.627 -1.3654  1.1273 -1.5469
 3083TIP3    H2 9195   6.097   1.492   2.625  0.9079 -0.5346 -1.0851
 3084TIP3   OH2 9196   0.426   6.599   1.149  0.4481  0.3604 -0.0456
 3084TIP3    H1 9197   0.372   6.672   1.179  0.5838 -0.2266  1.7446
 3084TIP3    H2 9198   0.363   6.535   1.116  0.1042  0.1575  0.9649
 3085TIP3   OH2 9199   3.096   1.628   3.541 -0.2570 -0.1372 -0.3148
 3085TIP3    H1 9200   3.081   1.657   3.631 -1.8493 -0.1921 -0.5301
 3085TIP3    H2 9201   3.008   1.611   3.506  0.3840 -1.1805 -1.5331
 3086TIP3   OH2 9202   1.633   1.556   6.263  0.4073 -0.0343  0.4596
 3086TIP3    H1 9203   1.554   1.503   6.277 -0.5567  1.3548  0.5632
 3086TIP3    H2 9204   1.600   1.646   6.257  2.0339  0.6278  0.8882
 3087TIP3   OH2 9205   2.294   1.354   4.042 -0.6467  0.4646  0.6373
 3087TIP3    H1 9206   2.344   1.287   3.995  1.4222  2.6711 -0.5259
 3087TIP3    H2 9207   2.338   1.363   4.126  0.8956  2.2072 -0.2778
 3088TIP3   OH2 9208   7.752   4.766   1.420  0.5836 -0.1955 -0.0012
 3088TIP3    H1 9209   7.721   4.720   1.498  1.9784  0.0737  0.7469
 3088TIP3    H2 9210   7.703   4.726   1.348  1.6079 -2.7818  0.6188
 3089TIP3   OH2 9211   1.273   4.082   2.560  0.0037 -0.6504  0.0181
 3089TIP3    H1 9212   1.341   4.104   2.623 -0.1322 -0.5896  0.1458
 3089TIP3    H2 9213   1.215   4.159   2.560  1.2653  0.3762 -1.9253
 3090TIP3   OH2 9214   4.248   7.052   0.376 -0.9259 -0.4515  0.3352
 3090TIP3    H1 9215   4.285   7.133   0.340 -2.5402  0.3279  0.3596
 3090TIP3    H2 9216   4.241   6.994   0.300 -0.6226 -0.2459  0.1445
 3091TIP3   OH2 9217   2.509   5.483   6.245 -0.3589  0.3952 -0.3497
 3091TIP3    H1 9218   2.536   5.431   6.169  0.2993  1.3308 -0.7749
 3091TIP3    H2 9219   2.415   5.496   6.233 -0.5265 -0.6329 -0.2626
 3092TIP3   OH2 9220   4.460   2.677   1.842  0.4334 -0.4914  0.0937
 3092TIP3    H1 9221   4.477   2.595   1.889 -0.2507 -1.3539 -1.1077
 3092TIP3    H2 9222   4.411   2.651   1.765  1.3360  0.9010 -1.0135
 3093TIP3   OH2 9223   3.135   2.052   2.237 -0.0114 -0.2455  0.2385
 3093TIP3    H1 9224   3.221   2.068   2.200  0.2588 -0.1154  0.9050
 3093TIP3    H2 9225   3.129   1.956   2.244 -0.1718 -0.2818 -0.3822
 3094TIP3   OH2 9226   5.104   1.348   4.501  0.1174 -0.9255  0.2318
 3094TIP3    H1 9227   5.083   1.320   4.411  0.7566  2.7293 -1.2387
 3094TIP3    H2 9228   5.032   1.407   4.524  0.4816 -1.0618  1.7608
 3095TIP3   OH2 9229   3.429   3.068   1.438 -0.4909 -0.5752  0.1665
 3095TIP3    H1 9230   3.518   3.101   1.453 -0.4844 -0.9592  1.0655
 3095TIP3    H2 9231   3.377   3.146   1.417  0.5177 -0.6025 -2.9397
 3096TIP3   OH2 9232   1.550   0.523   2.615  0.1688 -0.2934 -0.0325
 3096TIP3    H1 9233   1.610   0.516   2.690 -0.0381  0.7759  0.2548
 3096TIP3    H2 9234   1.467   0.549   2.654  0.3560  1.4864 -0.7136
 3097TIP3   OH2 9235   6.947   3.152   5.229 -0.2041 -0.0451 -0.6534
 3097TIP3    H1 9236   6.993   3.210   5.290  1.0509 -0.4030 -1.2287
 3097TIP3    H2 9237   6.939   3.069   5.276 -0.7026  0.1591 -0.3728
 3098TIP3   OH2 9238   2.092   7.591   0.970 -0.0697  0.0873  0.2461
 3098TIP3    H1 9239   2.055   7.504   0.981  1.2620 -0.6147 -0.4796
 3098TIP3    H2 9240   2.170   7.577   0.915  0.3805  1.6783  0.4194
 3099TIP3   OH2 9241   1.807   4.059   0.861 -0.1850 -0.1824  0.5201
 3099TIP3    H1 9242   1.804   4.068   0.957 -0.6385  1.2039  0.4128
 3099TIP3    H2 9243   1.899   4.049   0.840 -0.2057 -2.1107  1.2004
 3100TIP3   OH2 9244   1.657   0.909   3.222 -0.2766 -0.2078 -0.3089
 3100TIP3    H1 9245   1.649   0.930   3.129 -0.6752  1.2223  0.0244
 3100TIP3    H2 9246   1.713   0.977   3.258  0.4645 -1.1506  0.3832
 3101TIP3   OH2 9247   7.751   5.670   6.336  0.3984  1.0634 -0.3006
 3101TIP3    H1 9248   7.683   5.614   6.373  2.7766 -1.7588  0.2340
 3101TIP3    H2 9249   7.711   5.709   6.259 -1.7688 -0.5701 -0.1031
 3102TIP3   OH2 9250   7.699   0.057   2.537  0.2903  0.6219  0.1808
 3102TIP3    H1 9251   7.690   0.089   2.627  2.0201 -1.3224  1.1322
 3102TIP3    H2 9252   7.789   0.081   2.512  0.0982  0.4356 -0.7213
 3103TIP3   OH2 9253   2.872   5.378   0.302  0.4165  0.4371  0.5638
 3103TIP3    H1 9254   2.804   5.321   0.338  0.5850 -0.9546 -1.1576
 3103TIP3    H2 9255   2.902   5.430   0.376 -0.7845 -0.6787  1.8955
 3104TIP3   OH2 9256   5.651   2.762   4.334  0.0909 -0.6867 -0.5898
 3104TIP3    H1 9257   5.685   2.809   4.257 -0.6726 -0.5028 -0.8239
 3104TIP3    H2 9258   5.719   2.697   4.354  1.9324  1.4743  0.7022
 3105TIP3   OH2 9259   5.599   1.978   0.310  0.0558  1.0060 -0.1438
 3105TIP3    H1 9260   5.615   2.027   0.390  0.7976  1.7247 -0.7178
 3105TIP3    H2 9261   5.522   1.924   0.330  0.8892  0.3305  1.4130
 3106TIP3   OH2 9262   7.047   2.724   0.929 -0.1919 -0.0949  0.3241
 3106TIP3    H1 9263   7.126   2.743   0.878 -0.4661  0.9381  0.2455
 3106TIP3    H2 9264   6.999   2.660   0.877  0.6398 -0.8115  0.4262
 3107TIP3   OH2 9265   5.631   1.785   1.123  0.1988  0.5856  0.1714
 3107TIP3    H1 9266   5.620   1.759   1.032 -0.0699  1.4756 -0.0608
 3107TIP3    H2 9267   5.547   1.766   1.164  0.6761 -0.9133  0.5395
 3108TIP3   OH2 9268   7.882   0.378   0.876 -0.2997  0.0951  0.0682
 3108TIP3    H1 9269   7.859   0.412   0.962  0.6582  0.7192  0.0996
 3108TIP3    H2 9270   7.967   0.335   0.889 -0.0619  0.3454 -0.5943
 3109TIP3   OH2 9271   5.454   4.085   6.425  0.1706 -1.0595 -0.2245
 3109TIP3    H1 9272   5.447   4.170   6.468  0.8596 -0.8777 -0.4655
 3109TIP3    H2 9273   5.366   4.047   6.434  0.1998 -0.8858  1.0310
 3110TIP3   OH2 9274   4.304   4.827   1.909 -0.5132 -0.8528  0.2842
 3110TIP3    H1 9275   4.311   4.901   1.971 -0.6409  1.3684 -2.1795
 3110TIP3    H2 9276   4.395   4.805   1.889 -0.4559 -0.2486 -0.1653
 3111TIP3   OH2 9277   2.113   1.796   3.711  0.5072 -0.5756  0.6219
 3111TIP3    H1 9278   2.176   1.740   3.757  0.5176 -0.4179  0.8010
 3111TIP3    H2 9279   2.128   1.778   3.618  0.3387 -1.0568  0.6849
 3112TIP3   OH2 9280   6.796   3.387   2.212 -0.4903 -0.2331  0.0123
 3112TIP3    H1 9281   6.752   3.420   2.290 -0.3651 -0.2478  0.0882
 3112TIP3    H2 9282   6.815   3.295   2.232  1.1886  0.2240  0.6910
 3113TIP3   OH2 9283   6.732   0.404   4.930  0.8031  0.1719  0.4908
 3113TIP3    H1 9284   6.778   0.321   4.943  0.8013  0.2998  1.4411
 3113TIP3    H2 9285   6.642   0.386   4.957  1.0557  0.7535  1.8127
 3114TIP3   OH2 9286   3.732   1.815   4.945  0.9224 -0.0412  0.2133
 3114TIP3    H1 9287   3.654   1.762   4.926  0.2633  0.8771  0.2791
 3114TIP3    H2 9288   3.806   1.759   4.921  0.2446 -0.9423  0.1752
 3115TIP3   OH2 9289   0.483   0.123   1.351  0.2295 -0.1110 -0.4413
 3115TIP3    H1 9290   0.540   0.071   1.408  0.3514 -1.4094 -1.6853
 3115TIP3    H2 9291   0.498   0.087   1.263 -1.1178  0.7745 -1.0632
 3116TIP3   OH2 9292   8.231   4.261   6.112  0.2959  0.0106  0.6597
 3116TIP3    H1 9293   8.211   4.312   6.033 -0.6422 -0.3347  0.6621
 3116TIP3    H2 9294   8.202   4.316   6.184  0.5455  0.0495  0.7288
 3117TIP3   OH2 9295   0.280   2.559   6.399 -0.3485 -0.1271  0.2570
 3117TIP3    H1 9296   0.315   2.477   6.433 -1.1464 -0.4811  0.2433
 3117TIP3    H2 9297   0.212   2.533   6.337 -1.6934  0.5155  1.3865
 3118TIP3   OH2 9298   6.764   4.566   6.276 -0.2812  0.0392 -0.5576
 3118TIP3    H1 9299   6.831   4.622   6.314 -0.1256 -1.2865  1.2426
 3118TIP3    H2 9300   6.813   4.496   6.233 -0.4816  1.0224 -2.5216
 3119TIP3   OH2 9301   8.262   5.714   4.451  0.0876 -0.0609  0.9981
 3119TIP3    H1 9302   8.167   5.730   4.444  0.3325  0.9654 -0.7401
 3119TIP3    H2 9303   8.299   5.801   4.463  0.9947 -0.0398 -1.4696
 3120TIP3   OH2 9304   5.919   3.293   1.989  0.1890  0.3266  0.2290
 3120TIP3    H1 9305   5.860   3.227   2.026  0.0964  0.4343  0.2745
 3120TIP3    H2 9306   5.957   3.251   1.912 -0.1410  0.3477  0.0541
 3121TIP3   OH2 9307   6.823   4.933   1.722  0.3003 -0.0382  0.6586
 3121TIP3    H1 9308   6.729   4.936   1.738  0.1798  0.9140 -0.1345
 3121TIP3    H2 9309   6.861   4.918   1.808 -0.5361  0.2682  1.0927
 3122TIP3   OH2 9310   7.011   6.016   1.327 -0.0124 -0.4172 -0.4253
 3122TIP3    H1 9311   7.012   5.953   1.398 -0.5183 -1.6009 -1.4366
 3122TIP3    H2 9312   6.968   5.971   1.254  0.9089  0.5802 -1.6423
 3123TIP3   OH2 9313   2.006   1.066   1.589 -0.1037  0.6294 -0.4080
 3123TIP3    H1 9314   2.097   1.079   1.613  0.7875 -1.1929 -2.4344
 3123TIP3    H2 9315   1.996   1.112   1.506 -1.8367  3.0309  1.0036
 3124TIP3   OH2 9316   1.662   0.937   4.473 -0.2024 -0.3020  0.7227
 3124TIP3    H1 9317   1.596   0.981   4.420  1.1131 -0.4917 -1.1800
 3124TIP3    H2 9318   1.686   1.002   4.540 -0.6588  0.6131  0.0264
 3125TIP3   OH2 9319   2.960   4.254   3.144 -0.1375  0.5175  0.7677
 3125TIP3    H1 9320   3.018   4.219   3.212 -0.0969 -0.1834  0.3777
 3125TIP3    H2 9321   2.991   4.213   3.063 -2.2997 -1.3165  0.7801
 3126TIP3   OH2 9322   5.506   2.065   5.621  0.3499 -0.3573  0.2899
 3126TIP3    H1 9323   5.492   2.132   5.688  1.3187 -0.6413  0.7902
 3126TIP3    H2 9324   5.456   1.989   5.652 -1.2344  0.2744 -0.5666
 3127TIP3   OH2 9325   6.644   0.066   3.343  0.0614  0.4236 -0.2677
 3127TIP3    H1 9326   6.592   0.111   3.410  0.8041 -0.9844  1.3244
 3127TIP3    H2 9327   6.725   0.042   3.388  0.0531 -1.6988 -1.3047
 3128TIP3   OH2 9328   7.873   2.452   4.093  0.1884  0.6003  0.4643
 3128TIP3    H1 9329   7.880   2.372   4.146  0.5938 -1.6593 -2.7261
 3128TIP3    H2 9330   7.957   2.496   4.105  1.9311 -1.9734 -1.2723
 3129TIP3   OH2 9331   0.454   6.671   4.871  0.0063  0.2392  0.2550
 3129TIP3    H1 9332   0.370   6.660   4.824 -0.0078  0.0806  0.3172
 3129TIP3    H2 9333   0.499   6.588   4.857 -0.5796 -0.3470  1.6892
 3130TIP3   OH2 9334   7.080   2.603   5.256  0.0494 -0.0190 -0.3433
 3130TIP3    H1 9335   7.109   2.605   5.347  0.8837  2.6735 -0.5537
 3130TIP3    H2 9336   6.985   2.614   5.261  0.2243  1.5137  0.2399
 3131TIP3   OH2 9337   0.595   2.546   4.721  0.1747  0.3561  0.0813
 3131TIP3    H1 9338   0.562   2.544   4.631 -0.1096 -0.7606  0.2016
 3131TIP3    H2 9339   0.572   2.461   4.758  3.0302 -0.4630  0.2377
 3132TIP3   OH2 9340   0.233   5.541   0.343 -0.4159  0.1837 -0.1716
 3132TIP3    H1 9341   0.299   5.586   0.396 -0.5352  0.8813 -0.5982
 3132TIP3    H2 9342   0.197   5.475   0.402 -0.4415  0.8403  0.5729
 3133TIP3   OH2 9343   0.108   5.214   2.215 -0.2908 -0.0158 -0.1477
 3133TIP3    H1 9344   0.144   5.128   2.236 -0.8180 -0.6336 -1.5878
 3133TIP3    H2 9345   0.081   5.251   2.299  1.9506 -0.3023  0.7515
 3134TIP3   OH2 9346   3.202   5.933   2.992 -0.7258  0.5790 -0.2667
 3134TIP3    H1 9347   3.267   5.869   2.963 -0.1074  1.5825 -1.1576
 3134TIP3    H2 9348   3.254   6.006   3.025 -1.4021  0.1133  2.0767
 3135TIP3   OH2 9349   6.923   5.225   1.215 -0.4228  0.2846  0.0066
 3135TIP3    H1 9350   6.834   5.193   1.200 -0.9012  1.9585 -0.8631
 3135TIP3    H2 9351   6.955   5.248   1.128  0.8165 -0.1398  0.3338
 3136TIP3   OH2 9352   2.966   6.661   2.908  0.3138 -0.6573 -0.1908
 3136TIP3    H1 9353   3.034   6.609   2.865  2.1427  1.8130 -0.5005
 3136TIP3    H2 9354   2.898   6.671   2.841  0.7314 -1.1803 -0.7053
 3137TIP3   OH2 9355   2.664   2.013   5.381  0.5970  0.0453  0.2008
 3137TIP3    H1 9356   2.643   1.981   5.294 -0.2103 -0.2590  0.4936
 3137TIP3    H2 9357   2.676   2.107   5.370 -0.6310  0.1883 -0.0559
 3138TIP3   OH2 9358   3.791   0.139   0.278 -0.1390 -0.1704  0.4437
 3138TIP3    H1 9359   3.865   0.080   0.290 -2.0392 -2.9216 -0.3668
 3138TIP3    H2 9360   3.746   0.138   0.362  0.7806  1.7086  1.0191
 3139TIP3   OH2 9361   5.920   1.559   2.259 -0.1578  0.0436  0.3887
 3139TIP3    H1 9362   5.847   1.615   2.233 -0.7128 -0.7654  0.1684
 3139TIP3    H2 9363   5.986   1.620   2.293 -1.1494  0.7308  1.1219
 3140TIP3   OH2 9364   5.983   3.138   6.146  0.2054 -0.3538  0.4381
 3140TIP3    H1 9365   6.013   3.218   6.103 -1.0442 -0.3030 -0.3767
 3140TIP3    H2 9366   6.029   3.068   6.101 -1.3204 -0.3249 -1.2561
 3141TIP3   OH2 9367   1.190   0.559   3.695  0.5577  0.0791  0.1084
 3141TIP3    H1 9368   1.129   0.557   3.769 -1.6982 -1.2880 -1.6405
 3141TIP3    H2 9369   1.182   0.647   3.659 -0.2312 -0.0005  0.0624
 3142TIP3   OH2 9370   3.609   7.170   3.149 -0.1375  0.6135 -0.0008
 3142TIP3    H1 9371   3.675   7.189   3.083  2.2957  0.2101  2.1359
 3142TIP3    H2 9372   3.606   7.248   3.204 -0.1934 -0.0007  0.8942
 3143TIP3   OH2 9373   6.456   0.786   0.314  0.0604  0.1254 -0.1580
 3143TIP3    H1 9374   6.402   0.791   0.393  0.1916  0.7369 -0.1074
 3143TIP3    H2 9375   6.439   0.868   0.268  1.2248  0.4904  0.0360
 3144TIP3   OH2 9376   2.275   6.951   2.597 -0.6115  0.3629  0.1564
 3144TIP3    H1 9377   2.268   7.036   2.640 -2.2222  0.7008 -0.7171
 3144TIP3    H2 9378   2.261   6.970   2.504 -1.8287 -0.9604  0.0475
 3145TIP3   OH2 9379   5.967   6.248   3.497  0.2005  0.0805 -0.3777
 3145TIP3    H1 9380   5.996   6.306   3.567  0.5943  1.3702 -1.5556
 3145TIP3    H2 9381   5.880   6.279   3.473  0.7638  0.7837 -1.6020
 3146TIP3   OH2 9382   1.141   5.360   6.802 -0.3330 -0.4782  0.1511
 3146TIP3    H1 9383   1.067   5.335   6.747 -0.3940 -0.4613  0.2255
 3146TIP3    H2 9384   1.218   5.341   6.748 -0.4330  2.0890 -1.0420
 3147TIP3   OH2 9385   4.332   6.398   2.750  0.2411 -0.5158 -0.0097
 3147TIP3    H1 9386   4.315   6.492   2.754  1.2500 -0.3510  0.8376
 3147TIP3    H2 9387   4.349   6.373   2.840  1.9719 -1.1103 -0.4684
 3148TIP3   OH2 9388   7.216   7.100   4.802  0.4454  0.3055 -0.1785
 3148TIP3    H1 9389   7.189   7.166   4.866  0.3829  0.1904 -0.0847
 3148TIP3    H2 9390   7.156   7.027   4.816 -0.9568  1.1049 -1.8463
 3149TIP3   OH2 9391   1.192   5.292   4.676 -0.4462 -0.7173 -0.2120
 3149TIP3    H1 9392   1.211   5.292   4.582 -1.4146 -2.5626 -0.4575
 3149TIP3    H2 9393   1.254   5.355   4.713 -0.3038  0.3562 -2.1150
 3150TIP3   OH2 9394   5.442   5.125   5.656  0.5079 -0.1928 -0.5175
 3150TIP3    H1 9395   5.515   5.093   5.602  0.7355  1.8789 -1.5510
 3150TIP3    H2 9396   5.406   5.198   5.606 -1.2874 -0.1524  0.7333
 3151TIP3   OH2 9397   7.882   0.410   1.186  0.0811 -0.1898 -0.0682
 3151TIP3    H1 9398   7.955   0.384   1.242 -0.7088  0.8982  1.5700
 3151TIP3    H2 9399   7.805   0.371   1.228 -0.5639  0.9198 -0.1659
 3152TIP3   OH2 9400   2.440   4.702   5.717 -0.0389 -0.4543 -0.1561
 3152TIP3    H1 9401   2.361   4.649   5.705 -0.1761 -0.2058 -0.3821
 3152TIP3    H2 9402   2.490   4.688   5.636  0.4490 -1.1047  0.2523
 3153TIP3   OH2 9403   6.275   7.237   5.408 -0.0263  0.2189  0.2084
 3153TIP3    H1 9404   6.322   7.316   5.433 -1.0355 -0.0837  3.7120
 3153TIP3    H2 9405   6.294   7.174   5.478  0.5004 -2.6256 -2.2710
 3154TIP3   OH2 9406   3.644   3.649   6.455  0.3936  0.1707  0.0071
 3154TIP3    H1 9407   3.710   3.708   6.494  1.3515 -1.1653  0.4840
 3154TIP3    H2 9408   3.694   3.597   6.391 -0.7460  0.8958 -1.5285
 3155TIP3   OH2 9409   7.621   3.924   0.059  0.1599 -0.1854 -0.1385
 3155TIP3    H1 9410   7.642   3.942   0.150  0.6762  0.6866 -0.4171
 3155TIP3    H2 9411   7.581   3.837   0.060  1.5206 -0.8315  0.7344
 3156TIP3   OH2 9412   3.992   2.801   0.638 -0.1504 -0.3391  0.8692
 3156TIP3    H1 9413   3.980   2.867   0.706  0.5642  1.6239 -0.8075
 3156TIP3    H2 9414   3.939   2.726   0.668  0.2184  0.3622  3.5851
 3157TIP3   OH2 9415   6.656   5.375   3.377  0.3291  0.1086 -0.2765
 3157TIP3    H1 9416   6.563   5.364   3.361  0.0085  0.0793  1.4094
 3157TIP3    H2 9417   6.697   5.367   3.290 -1.1574 -0.5374 -0.9474
 3158TIP3   OH2 9418   1.345   2.231   2.945 -0.5418 -0.1202  0.3948
 3158TIP3    H1 9419   1.343   2.154   2.888 -2.5099  1.7070 -2.2885
 3158TIP3    H2 9420   1.253   2.256   2.954  0.0675  2.1895  0.7308
 3159TIP3   OH2 9421   2.615   6.284   1.727 -0.1809  0.5403 -0.0517
 3159TIP3    H1 9422   2.683   6.268   1.792 -0.4134 -0.5504 -0.0609
 3159TIP3    H2 9423   2.630   6.217   1.660  0.0221  1.6111 -1.1038
 3160TIP3   OH2 9424   2.628   6.277   2.077  0.3352  0.2173  0.2033
 3160TIP3    H1 9425   2.717   6.281   2.043  1.1603  0.1536  2.1835
 3160TIP3    H2 9426   2.571   6.286   2.000  2.0352  1.6630 -0.9396
 3161TIP3   OH2 9427   7.912   4.617   0.976 -1.0557  0.1526 -0.0978
 3161TIP3    H1 9428   7.832   4.564   0.972 -0.4893 -0.7372  0.1852
 3161TIP3    H2 9429   7.958   4.584   1.053 -0.0127  0.0835 -0.7426
 3162TIP3   OH2 9430   6.730   4.421   3.401 -0.5249  0.0384 -0.3013
 3162TIP3    H1 9431   6.806   4.380   3.360 -0.7896  0.7969 -1.5961
 3162TIP3    H2 9432   6.679   4.348   3.436  1.7539 -0.4087  2.4324
 3163TIP3   OH2 9433   0.847   0.174   1.187  0.6163  0.3736 -0.0606
 3163TIP3    H1 9434   0.822   0.263   1.160  0.1289  0.2719  0.0361
 3163TIP3    H2 9435   0.837   0.175   1.282 -0.0122  0.0349 -0.1170
 3164TIP3   OH2 9436   6.674   7.358   2.625  0.1299  0.4565  0.4087
 3164TIP3    H1 9437   6.702   7.278   2.669  1.0807  0.4762 -0.1286
 3164TIP3    H2 9438   6.702   7.428   2.684 -0.3234  0.4177  0.6767
 3165TIP3   OH2 9439   1.688   3.304   5.703  0.0101  0.4547 -0.4393
 3165TIP3    H1 9440   1.665   3.246   5.775 -1.4947  0.9694 -0.4681
 3165TIP3    H2 9441   1.652   3.262   5.625  0.4280  0.5725 -0.7012
 3166TIP3   OH2 9442   6.956   5.196   3.170 -0.2490  0.4270 -0.4470
 3166TIP3    H1 9443   6.995   5.283   3.179  2.3558 -0.6214 -0.7880
 3166TIP3    H2 9444   6.933   5.170   3.259  1.2970  0.4906 -0.0056
 3167TIP3   OH2 9445   7.378   4.522   0.457  0.5779 -0.0203 -0.5693
 3167TIP3    H1 9446   7.359   4.486   0.371  2.6288  0.6900 -1.3861
 3167TIP3    H2 9447   7.308   4.586   0.472  0.1284 -0.2339 -1.6656
 3168TIP3   OH2 9448   7.782   6.309   1.963 -0.5912  0.1666 -0.6891
 3168TIP3    H1 9449   7.717   6.348   2.022  0.6632 -0.4130  1.1692
 3168TIP3    H2 9450   7.836   6.255   2.020  1.2367  0.2633 -2.2395
 3169TIP3   OH2 9451   2.645   3.063   0.855  0.0853  0.3933 -0.3510
 3169TIP3    H1 9452   2.682   3.133   0.909  1.4220 -0.3546 -0.2515
 3169TIP3    H2 9453   2.672   2.982   0.899 -0.5933 -0.1998 -1.0005
 3170TIP3   OH2 9454   6.654   0.853   1.691 -0.2333 -0.4764 -0.0696
 3170TIP3    H1 9455   6.656   0.764   1.726 -3.3685 -0.3685  0.6665
 3170TIP3    H2 9456   6.618   0.844   1.603  2.0753 -0.1209 -1.1417
 3171TIP3   OH2 9457   8.165   4.050   3.132  0.5765 -0.0560 -0.7074
 3171TIP3    H1 9458   8.246   4.011   3.099  0.1722 -0.1769 -1.5627
 3171TIP3    H2 9459   8.158   4.133   3.085  0.2430 -0.0041 -0.5668
 3172TIP3   OH2 9460   2.222   6.565   0.869 -0.2885  0.3706 -0.2241
 3172TIP3    H1 9461   2.214   6.500   0.799  0.8355 -0.6707  0.5771
 3172TIP3    H2 9462   2.194   6.647   0.829  0.1923 -0.2271 -1.8476
 3173TIP3   OH2 9463   6.625   0.637   1.859 -0.2033 -0.0342  0.1312
 3173TIP3    H1 9464   6.535   0.627   1.890 -0.5953  0.6950 -0.7545
 3173TIP3    H2 9465   6.675   0.658   1.938 -0.8896  0.0545  0.5500
 3174TIP3   OH2 9466   4.115   6.369   6.273 -0.3219 -0.3029  0.3194
 3174TIP3    H1 9467   4.146   6.295   6.326 -0.4543 -0.8823 -0.3990
 3174TIP3    H2 9468   4.020   6.358   6.269 -0.6185  1.1205  1.9873
 3175TIP3   OH2 9469   2.217   7.754   2.549  0.1989 -0.1239  0.3615
 3175TIP3    H1 9470   2.293   7.714   2.592 -0.7694 -1.0432  1.2891
 3175TIP3    H2 9471   2.164   7.679   2.520 -0.6572  0.4921  0.3094
 3176TIP3   OH2 9472   1.905   0.694   1.815  0.0288  0.0734  0.3689
 3176TIP3    H1 9473   1.876   0.640   1.889 -0.4660 -0.5797 -0.2872
 3176TIP3    H2 9474   1.835   0.758   1.803 -0.6975 -0.8642 -0.5690
 3177TIP3   OH2 9475   3.698   2.871   5.905  0.3706 -0.0989 -0.2447
 3177TIP3    H1 9476   3.768   2.827   5.855 -0.7973 -2.6695  0.2258
 3177TIP3    H2 9477   3.618   2.826   5.878 -0.7365  0.8225  1.3773
 3178TIP3   OH2 9478   2.960   7.140   1.585  0.0111  0.1691 -0.0585
 3178TIP3    H1 9479   3.036   7.083   1.582  0.6894  1.1029 -1.6686
 3178TIP3    H2 9480   2.992   7.222   1.622 -0.2494  0.5196 -0.6017
 3179TIP3   OH2 9481   4.109   6.696   3.306  0.2727  0.0110 -0.1235
 3179TIP3    H1 9482   4.072   6.633   3.368 -1.2508  0.3684 -0.6219
 3179TIP3    H2 9483   4.182   6.736   3.353  0.5214 -1.2663  0.6290
 3180TIP3   OH2 9484   6.404   3.845   3.911 -0.0447 -0.0182 -0.0850
 3180TIP3    H1 9485   6.457   3.902   3.967  1.5393 -1.0826 -0.4567
 3180TIP3    H2 9486   6.319   3.841   3.955  0.8689 -0.0816  1.7392
 3181TIP3   OH2 9487   3.341   7.178   1.778 -0.3036 -0.3807  0.3206
 3181TIP3    H1 9488   3.343   7.096   1.828 -0.8131  0.4024  1.6849
 3181TIP3    H2 9489   3.248   7.199   1.769 -0.2005 -0.3132 -0.6461
 3182TIP3   OH2 9490   8.252   4.917   6.627 -0.2242 -0.0972 -0.1088
 3182TIP3    H1 9491   8.196   4.967   6.687 -0.8083 -0.0280 -0.7051
 3182TIP3    H2 9492   8.221   4.827   6.637 -0.8751  0.0281 -0.8978
 3183TIP3   OH2 9493   5.745   6.616   2.481  0.1963  0.2986  0.1378
 3183TIP3    H1 9494   5.777   6.688   2.535 -0.8819  0.4790  0.5830
 3183TIP3    H2 9495   5.823   6.578   2.441  0.8565  1.1886  0.5563
 3184TIP3   OH2 9496   0.474   2.835   2.069 -0.5307 -0.0350 -0.4380
 3184TIP3    H1 9497   0.492   2.772   2.139 -0.7620  0.0215 -0.3271
 3184TIP3    H2 9498   0.468   2.781   1.990 -2.3695 -0.3846 -0.1102
 3185TIP3   OH2 9499   5.604   2.860   3.124  0.2452  0.3101  0.2588
 3185TIP3    H1 9500   5.516   2.822   3.118 -0.3602  1.6305  0.5914
 3185TIP3    H2 9501   5.636   2.860   3.034 -0.0367 -0.3001  0.1543
 3186TIP3   OH2 9502   7.417   1.273   6.075  0.1673 -0.1613  0.3666
 3186TIP3    H1 9503   7.427   1.214   6.150 -0.1827 -1.3799 -0.5132
 3186TIP3    H2 9504   7.506   1.303   6.057  0.3497 -0.3816  0.8506
 3187TIP3   OH2 9505   7.479   5.474   1.001  0.2334  0.4035  0.4858
 3187TIP3    H1 9506   7.408   5.437   1.053  1.2517 -0.3820  1.3451
 3187TIP3    H2 9507   7.486   5.565   1.030  0.1007  0.2631  0.9587
 3188TIP3   OH2 9508   7.017   0.266   1.296 -0.2720  1.3185  0.0265
 3188TIP3    H1 9509   7.008   0.294   1.387 -2.3748 -0.0911  0.3068
 3188TIP3    H2 9510   7.106   0.231   1.291 -0.5467  0.2201  1.9027
 3189TIP3   OH2 9511   5.368   2.483   2.097  0.0902  0.1676 -0.9131
 3189TIP3    H1 9512   5.283   2.471   2.056 -0.1190  0.2323 -0.5015
 3189TIP3    H2 9513   5.391   2.574   2.078  0.0025  0.1912 -0.9081
 3190TIP3   OH2 9514   2.345   0.827   3.947  0.1264  0.0084 -0.2218
 3190TIP3    H1 9515   2.327   0.797   3.857 -1.7512  0.9191 -0.1995
 3190TIP3    H2 9516   2.329   0.749   4.001 -3.5133  0.5232 -0.2800
 3191TIP3   OH2 9517   4.216   4.305   5.161  0.1835  0.1433  0.2109
 3191TIP3    H1 9518   4.175   4.250   5.228  1.6763 -0.2763  0.8171
 3191TIP3    H2 9519   4.157   4.299   5.086  1.3901 -4.3994 -0.7142
 3192TIP3   OH2 9520   0.360   1.069   0.370  0.2814  0.2895 -0.0377
 3192TIP3    H1 9521   0.400   1.112   0.294 -1.3694 -1.3782 -1.9593
 3192TIP3    H2 9522   0.401   1.112   0.445  1.2758  2.7332 -1.8193
 3193TIP3   OH2 9523   7.187   7.476   6.196  0.5163 -0.1535  0.5842
 3193TIP3    H1 9524   7.280   7.490   6.177 -0.1752  0.9059 -2.6056
 3193TIP3    H2 9525   7.149   7.450   6.113 -2.4943  1.8867  1.1519
 3194TIP3   OH2 9526   6.504   1.398   4.459 -0.3114  0.6265 -0.1736
 3194TIP3    H1 9527   6.469   1.309   4.446  1.7889 -0.4064  0.9023
 3194TIP3    H2 9528   6.514   1.432   4.370 -2.0893  0.2091 -0.5736
 3195TIP3   OH2 9529   2.568   5.161   6.341  0.3831 -0.5714 -0.0267
 3195TIP3    H1 9530   2.559   5.225   6.270 -0.4298 -1.2328 -0.5321
 3195TIP3    H2 9531   2.584   5.078   6.296  1.5506 -0.7279  0.6270
 3196TIP3   OH2 9532   6.946   6.524   0.683 -0.1992  0.0614  0.0912
 3196TIP3    H1 9533   6.969   6.617   0.673  0.4150 -0.1713 -0.8583
 3196TIP3    H2 9534   7.030   6.479   0.676 -0.5410 -0.5926  0.2000
 3197TIP3   OH2 9535   6.501   2.279   0.702 -0.8584  0.1303  0.0108
 3197TIP3    H1 9536   6.437   2.272   0.773 -0.8871  0.4733  0.0236
 3197TIP3    H2 9537   6.460   2.234   0.628 -0.1244 -1.6994  0.6795
 3198TIP3   OH2 9538   6.735   7.307   0.826  0.6817  0.1636 -0.1083
 3198TIP3    H1 9539   6.813   7.335   0.874  0.8441  0.3491 -0.4753
 3198TIP3    H2 9540   6.683   7.386   0.817 -0.2250 -0.2312  1.3631
 3199TIP3   OH2 9541   3.106   3.558   0.176  0.1611 -0.6001 -0.0304
 3199TIP3    H1 9542   3.201   3.564   0.187 -0.0618 -1.3037  3.4161
 3199TIP3    H2 9543   3.092   3.472   0.138  0.9131  0.3120 -2.5790
 3200TIP3   OH2 9544   3.803   7.586   0.529 -0.3228 -0.2861  0.3600
 3200TIP3    H1 9545   3.718   7.620   0.558  0.0761  0.7910  0.3260
 3200TIP3    H2 9546   3.864   7.616   0.596  0.0205 -1.1265  0.4277
 3201TIP3   OH2 9547   4.133   5.080   2.241  0.0934 -0.1161 -0.3406
 3201TIP3    H1 9548   4.211   5.073   2.186  0.6398 -0.1313  0.4108
 3201TIP3    H2 9549   4.060   5.065   2.182  0.6694 -0.2172 -1.0389
 3202TIP3   OH2 9550   0.928   3.467   4.209 -0.2534 -0.1688 -0.7837
 3202TIP3    H1 9551   0.984   3.541   4.232 -0.6966  0.0036 -0.2381
 3202TIP3    H2 9552   0.931   3.410   4.286  0.7374 -1.1411 -1.4964
 3203TIP3   OH2 9553   7.142   3.360   3.442  0.4728 -0.0331  0.1473
 3203TIP3    H1 9554   7.186   3.400   3.517  2.3421  1.8801 -1.8243
 3203TIP3    H2 9555   7.202   3.293   3.411 -0.3204 -0.8624  0.3474
 3204TIP3   OH2 9556   0.974   2.462   5.076  0.3933 -0.3049 -0.1232
 3204TIP3    H1 9557   0.923   2.400   5.129 -0.5046  0.2426 -0.3373
 3204TIP3    H2 9558   0.956   2.437   4.986 -2.0333  1.7798 -0.3368
 3205TIP3   OH2 9559   7.061   0.313   5.902  0.3517 -0.2086  0.1630
 3205TIP3    H1 9560   7.138   0.294   5.955 -0.9557 -0.1761  2.1963
 3205TIP3    H2 9561   6.990   0.264   5.945 -0.6248 -1.0390 -2.1985
 3206TIP3   OH2 9562   3.289   6.898   0.942 -0.0073 -0.4275  0.1186
 3206TIP3    H1 9563   3.194   6.911   0.944 -0.0653 -0.6573  2.7515
 3206TIP3    H2 9564   3.303   6.821   0.996  1.5010 -2.4724 -2.9240
 3207TIP3   OH2 9565   4.632   0.415   2.126 -0.2747  0.5970 -0.3128
 3207TIP3    H1 9566   4.715   0.409   2.174 -0.0714 -0.6044 -0.7796
 3207TIP3    H2 9567   4.658   0.414   2.034 -0.8860 -2.0046 -0.5174
 3208TIP3   OH2 9568   2.049   2.320   1.827 -0.6941 -0.2972 -0.1302
 3208TIP3    H1 9569   2.093   2.339   1.910  0.6945  2.7390 -1.4173
 3208TIP3    H2 9570   1.956   2.313   1.851 -0.3607  0.6787  1.6687
 3209TIP3   OH2 9571   2.163   3.617   5.614  0.6450 -0.5401  0.1560
 3209TIP3    H1 9572   2.130   3.707   5.609  0.5401 -0.6503 -2.8220
 3209TIP3    H2 9573   2.084   3.564   5.623  0.4716 -0.4459 -0.6952
 3210TIP3   OH2 9574   2.506   7.697   3.671 -0.5777  0.3377 -0.3593
 3210TIP3    H1 9575   2.599   7.684   3.690 -0.3781 -0.1997 -1.5916
 3210TIP3    H2 9576   2.495   7.792   3.668  0.4644  0.4725 -2.4293
 3211TIP3   OH2 9577   4.526   1.342   1.435 -0.5409  0.2248 -0.4629
 3211TIP3    H1 9578   4.555   1.433   1.426 -0.1661  0.3219  1.3477
 3211TIP3    H2 9579   4.529   1.307   1.345 -0.8472  2.0169 -1.2169
 3212TIP3   OH2 9580   3.255   7.408   2.423  0.3134 -0.3448 -0.5856
 3212TIP3    H1 9581   3.210   7.325   2.439 -1.2449  0.4092 -0.9449
 3212TIP3    H2 9582   3.291   7.432   2.509 -0.2159 -0.8269 -0.2172
 3213TIP3   OH2 9583   1.943   3.949   0.366  0.2607  0.2931 -0.1086
 3213TIP3    H1 9584   1.997   3.926   0.441 -1.3298 -0.8825  0.7282
 3213TIP3    H2 9585   1.874   4.004   0.403 -0.7317 -0.5774 -0.6406
 3214TIP3   OH2 9586   0.893   5.118   1.185  0.1084 -0.3247  0.5314
 3214TIP3    H1 9587   0.945   5.041   1.160  1.3797  1.0873 -1.4740
 3214TIP3    H2 9588   0.808   5.082   1.211  0.2728 -2.3789 -1.4229
 3215TIP3   OH2 9589   8.289   6.820   2.803  0.1176  0.8283  0.0058
 3215TIP3    H1 9590   8.362   6.771   2.766 -0.5251 -2.4433  2.6655
 3215TIP3    H2 9591   8.222   6.819   2.734  0.4180 -1.4389 -0.3005
 3216TIP3   OH2 9592   4.166   5.970   0.693  0.0164 -0.4077  0.3158
 3216TIP3    H1 9593   4.126   5.994   0.777  1.1776 -0.0829  0.7992
 3216TIP3    H2 9594   4.225   5.898   0.714  0.4285 -0.2255 -0.2003
 3217TIP3   OH2 9595   5.198   2.584   5.967 -0.8866 -0.0217  0.1723
 3217TIP3    H1 9596   5.176   2.643   6.039  0.6690 -0.6990  1.2386
 3217TIP3    H2 9597   5.258   2.520   6.005 -0.9341 -1.0980 -1.4516
 3218TIP3   OH2 9598   6.402   4.269   0.777  0.3761  0.0762  0.0307
 3218TIP3    H1 9599   6.419   4.185   0.820 -1.9157 -0.7980 -0.6224
 3218TIP3    H2 9600   6.487   4.296   0.743  1.1457 -2.0867  0.0739
 3219TIP3   OH2 9601   3.670   0.732   3.264 -0.3243 -0.0370  0.3791
 3219TIP3    H1 9602   3.576   0.715   3.252 -0.0272 -1.0901 -0.6549
 3219TIP3    H2 9603   3.711   0.646   3.253  0.8718  0.6158 -0.4892
 3220TIP3   OH2 9604   5.685   1.870   3.476 -0.4209  0.2585  0.6766
 3220TIP3    H1 9605   5.602   1.848   3.434 -0.2272  0.7033  0.0372
 3220TIP3    H2 9606   5.700   1.961   3.453  2.0511 -0.7498 -2.4852
 3221TIP3   OH2 9607   6.146   4.215   2.768  0.2438 -0.3325  0.1113
 3221TIP3    H1 9608   6.063   4.257   2.745  0.7616  0.0039 -1.2225
 3221TIP3    H2 9609   6.209   4.249   2.705  1.4356 -0.5049  1.1749
 3222TIP3   OH2 9610   7.018   6.261   4.600 -0.6287 -0.2367 -0.0029
 3222TIP3    H1 9611   6.990   6.194   4.538 -0.2653  0.0120 -0.4409
 3222TIP3    H2 9612   7.113   6.264   4.590 -0.4731 -0.7812  1.1590
 3223TIP3   OH2 9613   7.946   0.520   4.207 -0.0085 -0.1697  0.0617
 3223TIP3    H1 9614   7.887   0.512   4.283  0.2819 -1.0829  0.1947
 3223TIP3    H2 9615   8.029   0.485   4.237  0.5165  0.7807 -0.2471
 3224TIP3   OH2 9616   5.796   3.596   0.625  0.3819 -0.0446  0.0083
 3224TIP3    H1 9617   5.773   3.544   0.549 -0.2724 -0.3367  0.3935
 3224TIP3    H2 9618   5.871   3.648   0.597 -0.0054  0.0382 -0.9075
 3225TIP3   OH2 9619   3.830   3.549   4.335 -0.1024  0.0339  0.1285
 3225TIP3    H1 9620   3.795   3.545   4.246  1.4046  2.2368 -0.6348
 3225TIP3    H2 9621   3.792   3.629   4.372  0.7039  0.1071  0.8346
 3226TIP3   OH2 9622   4.210   6.808   3.987  0.0887  0.1510  0.2892
 3226TIP3    H1 9623   4.278   6.772   3.929  0.7720 -0.9762  1.7273
 3226TIP3    H2 9624   4.151   6.856   3.928  0.3546 -1.5130 -1.4207
 3227TIP3   OH2 9625   5.121   2.935   4.555  0.0218 -0.2924  0.9532
 3227TIP3    H1 9626   5.095   2.964   4.642 -0.3855 -0.2223  0.8079
 3227TIP3    H2 9627   5.174   2.857   4.571  0.1119 -0.1667  1.2738
 3228TIP3   OH2 9628   8.158   3.931   2.375  0.1900 -0.1565 -0.1244
 3228TIP3    H1 9629   8.086   3.868   2.384 -0.3783  0.5775  0.5596
 3228TIP3    H2 9630   8.117   4.012   2.345  0.5231  0.6378  1.4550
 3229TIP3   OH2 9631   3.018   6.519   0.136 -0.8858 -0.6310 -0.4710
 3229TIP3    H1 9632   3.111   6.536   0.151 -1.1437  1.4613 -0.8957
 3229TIP3    H2 9633   3.010   6.509   0.041 -0.9543 -1.9151 -0.3430
 3230TIP3   OH2 9634   3.554   1.822   3.480  0.5240  0.5992 -0.0807
 3230TIP3    H1 9635   3.473   1.839   3.530 -0.0400  0.3592 -0.8929
 3230TIP3    H2 9636   3.615   1.788   3.546  0.3776  1.9272  0.7881
 3231TIP3   OH2 9637   2.288   6.349   5.356  0.5941 -0.1430 -0.3447
 3231TIP3    H1 9638   2.267   6.345   5.262  0.0938 -0.2844 -0.2261
 3231TIP3    H2 9639   2.210   6.317   5.400  0.2867  1.2423  0.1858
 3232TIP3   OH2 9640   3.851   5.924   4.704 -0.6392 -0.2460 -0.3256
 3232TIP3    H1 9641   3.798   5.974   4.642  0.5935 -0.4130 -1.5705
 3232TIP3    H2 9642   3.814   5.945   4.790 -0.1578  2.8950 -0.7549
 3233TIP3   OH2 9643   0.033   7.047   4.130 -0.1613  0.3293 -0.0282
 3233TIP3    H1 9644   0.047   6.954   4.147 -0.4971  0.0431 -1.2089
 3233TIP3    H2 9645   0.022   7.052   4.035 -1.5285  1.4035  0.1700
 3234TIP3   OH2 9646   7.951   7.256   6.280 -0.0339 -0.1727  0.2201
 3234TIP3    H1 9647   7.966   7.307   6.359  0.5551  0.5433 -0.3378
 3234TIP3    H2 9648   7.929   7.169   6.312  2.5625 -0.5822  1.1987
 3235TIP3   OH2 9649   1.777   3.950   4.590  0.4320 -0.0445 -0.1864
 3235TIP3    H1 9650   1.729   3.965   4.508 -0.5695  0.1037  0.4066
 3235TIP3    H2 9651   1.740   3.869   4.625 -1.8953  1.7684  1.9619
 3236TIP3   OH2 9652   1.154   3.298   4.370  0.1898  0.1612  0.1699
 3236TIP3    H1 9653   1.083   3.281   4.432  1.0478 -1.9902  0.6461
 3236TIP3    H2 9654   1.200   3.373   4.407 -0.8847  0.5831  0.7041
 3237TIP3   OH2 9655   5.968   4.353   6.166 -0.0346 -0.4779  0.4334
 3237TIP3    H1 9656   5.930   4.266   6.156 -0.1862 -0.1938 -2.1349
 3237TIP3    H2 9657   5.944   4.399   6.086  0.8595  1.6264  1.2989
 3238TIP3   OH2 9658   5.579   4.080   6.738 -0.2025  0.1908  0.5816
 3238TIP3    H1 9659   5.609   4.121   6.657  1.1421  0.9180  1.4153
 3238TIP3    H2 9660   5.560   4.153   6.796  0.3859 -0.3289  1.4525
 3239TIP3   OH2 9661   6.227   1.862   1.309 -0.1560 -0.1773  0.7170
 3239TIP3    H1 9662   6.312   1.844   1.348  0.4078 -0.0435 -0.3945
 3239TIP3    H2 9663   6.176   1.782   1.323  0.2435 -0.3525  1.1646
 3240TIP3   OH2 9664   3.374   5.182   5.376 -0.0143  0.3069 -0.3302
 3240TIP3    H1 9665   3.433   5.151   5.445 -0.4931  1.2792  0.5476
 3240TIP3    H2 9666   3.327   5.104   5.348 -0.2007 -0.0121  0.8400
 3241TIP3   OH2 9667   3.283   4.740   2.977 -0.0409 -0.4293  0.1048
 3241TIP3    H1 9668   3.275   4.822   3.025 -0.3560 -0.4442  0.0770
 3241TIP3    H2 9669   3.193   4.715   2.956 -0.0075 -1.2104  0.8265
 3242TIP3   OH2 9670   2.588   2.001   2.129 -0.1105  0.8430  0.0252
 3242TIP3    H1 9671   2.542   2.040   2.054  0.4401 -2.0184 -1.9674
 3242TIP3    H2 9672   2.640   1.931   2.091 -1.0100 -1.8440  3.2793
 3243TIP3   OH2 9673   1.455   4.790   5.733 -0.5868 -0.3889  0.0721
 3243TIP3    H1 9674   1.373   4.827   5.766 -0.9892 -2.9704  2.2526
 3243TIP3    H2 9675   1.472   4.715   5.789  2.5816 -0.7725 -1.2114
 3244TIP3   OH2 9676   7.944   1.072   4.043  0.8879 -0.1751 -0.0834
 3244TIP3    H1 9677   7.913   1.143   4.100  1.0990  1.6921 -2.1287
 3244TIP3    H2 9678   7.866   1.046   3.994  0.5916 -2.1228  1.3231
 3245TIP3   OH2 9679   5.487   0.327   4.420 -0.3926 -0.2845  0.4150
 3245TIP3    H1 9680   5.515   0.248   4.373  1.4189  0.1007  0.7767
 3245TIP3    H2 9681   5.534   0.398   4.378 -2.9753  0.8396 -0.7440
 3246TIP3   OH2 9682   1.329   2.417   4.179 -0.1715  0.4214 -0.1597
 3246TIP3    H1 9683   1.348   2.324   4.186  3.1702  1.1365  3.2058
 3246TIP3    H2 9684   1.244   2.427   4.223 -1.4467 -1.1013 -2.0842
 3247TIP3   OH2 9685   6.989   4.043   2.890  0.1413  0.3583  0.4653
 3247TIP3    H1 9686   7.083   4.047   2.905  0.0843  0.5095  0.7774
 3247TIP3    H2 9687   6.958   3.977   2.951  0.4456 -1.8455 -1.5996
 3248TIP3   OH2 9688   2.007   5.765   2.717  0.2349 -0.4316 -0.3380
 3248TIP3    H1 9689   2.027   5.774   2.624  0.6815 -3.6155 -0.6629
 3248TIP3    H2 9690   1.913   5.782   2.724  0.4981  1.5431 -1.0132
 3249TIP3   OH2 9691   4.987   6.791   4.913 -0.0270  0.4565 -0.6950
 3249TIP3    H1 9692   5.033   6.741   4.845  0.2507  0.4093 -0.4749
 3249TIP3    H2 9693   5.043   6.866   4.930  0.2175  0.1450 -0.0792
 3250TIP3   OH2 9694   0.273   2.042   2.117  0.3417 -0.0747 -0.2103
 3250TIP3    H1 9695   0.273   2.001   2.031  1.3100 -3.7446  1.3459
 3250TIP3    H2 9696   0.187   2.023   2.153  0.1677  0.8953 -0.0723
 3251TIP3   OH2 9697   0.032   6.252   4.023  0.2758 -0.2499  0.1495
 3251TIP3    H1 9698   0.062   6.247   4.114 -0.3129 -0.4137  0.3411
 3251TIP3    H2 9699   0.103   6.215   3.972  0.7908  0.2282  0.5066
 3252TIP3   OH2 9700   5.777   6.715   6.287  0.4278  0.2076  0.9980
 3252TIP3    H1 9701   5.855   6.725   6.233  0.0570  1.1997  0.6102
 3252TIP3    H2 9702   5.809   6.691   6.374  1.2910  2.3402  1.3127
 3253TIP3   OH2 9703   5.231   3.090   1.260 -0.2644 -0.1099 -0.1271
 3253TIP3    H1 9704   5.223   3.003   1.299 -0.5548 -0.7930 -1.6637
 3253TIP3    H2 9705   5.325   3.106   1.256 -0.0859 -1.3365 -1.8699
 3254TIP3   OH2 9706   4.625   2.356   0.444 -0.0960 -0.1236  0.3953
 3254TIP3    H1 9707   4.646   2.443   0.411  1.6939 -0.8967 -0.6238
 3254TIP3    H2 9708   4.529   2.352   0.442 -0.2146  0.2583 -3.9183
 3255TIP3   OH2 9709   5.879   5.660   5.107 -0.5285 -0.3146 -0.1368
 3255TIP3    H1 9710   5.799   5.713   5.103 -0.6913 -0.3262  1.9162
 3255TIP3    H2 9711   5.867   5.605   5.184  1.4731 -0.2786  0.2455
 3256TIP3   OH2 9712   8.019   0.678   0.628  0.6071 -0.7402 -0.3048
 3256TIP3    H1 9713   7.953   0.610   0.610 -0.9033  1.0598 -2.0498
 3256TIP3    H2 9714   8.051   0.703   0.541  0.0817  1.7298  0.1513
 3257TIP3   OH2 9715   6.789   4.690   3.425  0.0382  0.2694  0.0890
 3257TIP3    H1 9716   6.755   4.604   3.401 -0.0933  0.3573 -0.0432
 3257TIP3    H2 9717   6.719   4.729   3.478  0.1056  0.2878  0.1643
 3258TIP3   OH2 9718   5.073   3.659   6.143 -0.2193  0.0797  0.5751
 3258TIP3    H1 9719   5.154   3.659   6.194 -1.4132 -2.0803  2.7057
 3258TIP3    H2 9720   5.057   3.566   6.125 -1.2238  0.6187 -1.5138
 3259TIP3   OH2 9721   1.218   6.742   4.268  0.2052 -0.7142  0.9225
 3259TIP3    H1 9722   1.184   6.668   4.217  0.9773 -1.3959  1.3796
 3259TIP3    H2 9723   1.166   6.742   4.348 -0.6949  0.0729  0.3587
 3260TIP3   OH2 9724   0.921   5.801   2.708  0.2088  1.0525  0.4863
 3260TIP3    H1 9725   0.971   5.835   2.782  2.3638  0.4394 -0.5988
 3260TIP3    H2 9726   0.980   5.739   2.666 -1.4246  0.4434 -1.0197
 3261TIP3   OH2 9727   7.101   3.775   1.092 -0.4420 -0.7010  0.3695
 3261TIP3    H1 9728   7.177   3.779   1.151  0.1805 -1.6037 -0.3392
 3261TIP3    H2 9729   7.047   3.849   1.118  0.2519 -0.5549  1.4838
 3262TIP3   OH2 9730   4.123   3.227   6.660 -0.1400  0.0622  0.0822
 3262TIP3    H1 9731   4.137   3.229   6.566 -1.5348 -1.2411 -0.2040
 3262TIP3    H2 9732   4.030   3.245   6.671 -0.0718 -0.1464  1.1752
 3263TIP3   OH2 9733   0.727   3.185   2.765  0.2666  0.5211 -0.0179
 3263TIP3    H1 9734   0.709   3.210   2.856 -0.5900 -0.0999 -0.0088
 3263TIP3    H2 9735   0.788   3.112   2.772 -0.1343  0.1923  0.0775
 3264TIP3   OH2 9736   3.323   5.717   5.281 -0.1377  0.1797  0.4398
 3264TIP3    H1 9737   3.344   5.626   5.304  0.9107  0.4495  0.6188
 3264TIP3    H2 9738   3.370   5.732   5.199  0.7812  0.9463  1.0866
 3265TIP3   OH2 9739   4.620   6.052   4.604  0.2926 -0.2122  0.2557
 3265TIP3    H1 9740   4.541   5.999   4.597  1.0500 -1.5779  1.5560
 3265TIP3    H2 9741   4.684   5.995   4.646  1.4312  1.4428  0.8830
 3266TIP3   OH2 9742   6.763   5.657   5.846 -0.0866 -0.4125 -0.7091
 3266TIP3    H1 9743   6.832   5.665   5.781  0.9946 -0.0306  0.4411
 3266TIP3    H2 9744   6.723   5.744   5.850  1.4555  0.2972  0.8052
 3267TIP3   OH2 9745   4.191   2.833   6.051  0.2607 -0.4348 -0.3408
 3267TIP3    H1 9746   4.143   2.788   6.120  2.2736 -0.5348  1.0956
 3267TIP3    H2 9747   4.281   2.838   6.084  1.1965 -0.0227 -2.7596
 3268TIP3   OH2 9748   5.563   2.244   4.701 -0.1736 -0.0023 -0.0536
 3268TIP3    H1 9749   5.635   2.221   4.643 -1.8801 -0.9253 -1.9141
 3268TIP3    H2 9750   5.528   2.161   4.731 -0.8074  0.4142  0.3950
 3269TIP3   OH2 9751   6.829   6.685   3.145  0.1998 -0.4471 -0.2787
 3269TIP3    H1 9752   6.847   6.683   3.239 -1.8546  1.2483  0.2362
 3269TIP3    H2 9753   6.823   6.593   3.120 -2.3404 -1.0256  1.9853
 3270TIP3   OH2 9754   2.052   3.894   5.574 -0.4585 -0.2067  0.4960
 3270TIP3    H1 9755   2.041   3.967   5.513 -0.2163 -0.3780  0.2486
 3270TIP3    H2 9756   2.080   3.936   5.656  1.2603 -0.1398 -0.0887
 3271TIP3   OH2 9757   0.144   6.226   4.296 -1.1059  0.1056 -0.1501
 3271TIP3    H1 9758   0.228   6.199   4.332 -0.4348  3.1751  0.8873
 3271TIP3    H2 9759   0.087   6.236   4.372 -1.8808 -0.2568 -0.6709
 3272TIP3   OH2 9760   0.105   2.454   6.200 -0.2443  0.0194  0.9171
 3272TIP3    H1 9761   0.182   2.478   6.148  0.7229 -3.7654  0.2930
 3272TIP3    H2 9762   0.033   2.452   6.137  0.0023 -0.2608  0.6391
 3273TIP3   OH2 9763   6.333   3.381   5.249  0.3677 -0.8568 -0.0842
 3273TIP3    H1 9764   6.285   3.304   5.281  0.8352 -0.8566  0.6280
 3273TIP3    H2 9765   6.407   3.344   5.200 -0.8687 -0.8704 -2.0506
 3274TIP3   OH2 9766   5.474   2.289   6.502  0.4431  0.5358 -0.7450
 3274TIP3    H1 9767   5.542   2.259   6.442 -0.4744 -0.0046 -1.5444
 3274TIP3    H2 9768   5.481   2.384   6.501  1.3941  0.4707 -0.5646
 3275TIP3   OH2 9769   8.116   5.120   1.662  0.0812 -0.1352 -0.5384
 3275TIP3    H1 9770   8.170   5.062   1.608 -1.6078 -0.6940 -1.7209
 3275TIP3    H2 9771   8.175   5.190   1.689  1.0382  0.0939 -3.0133
 3276TIP3   OH2 9772   3.733   2.545   5.452  0.2161  0.1031 -0.2136
 3276TIP3    H1 9773   3.821   2.535   5.416  0.1334  0.7457 -0.6189
 3276TIP3    H2 9774   3.715   2.639   5.446 -0.7384 -0.0969 -0.7108
 3277TIP3   OH2 9775   3.686   1.474   4.037 -0.2100  0.8531 -0.1954
 3277TIP3    H1 9776   3.779   1.492   4.021  0.0190  1.3112  1.4488
 3277TIP3    H2 9777   3.674   1.492   4.130 -1.6036 -0.7640 -0.0223
 3278TIP3   OH2 9778   5.510   0.056   1.393  0.5981  0.1632 -0.4175
 3278TIP3    H1 9779   5.547   0.120   1.333  1.3614  1.1304  1.0330
 3278TIP3    H2 9780   5.491   0.105   1.473  0.9949 -1.3546  0.6615
 3279TIP3   OH2 9781   5.861   3.929   3.440  0.4946 -0.4361 -0.9192
 3279TIP3    H1 9782   5.909   3.997   3.394  0.2351  0.4226  0.0342
 3279TIP3    H2 9783   5.926   3.891   3.500 -0.2601  1.7207  1.4428
 3280TIP3   OH2 9784   7.351   0.479   0.429 -0.6222  0.4312  0.3623
 3280TIP3    H1 9785   7.395   0.482   0.344  0.8801  0.8708  1.1053
 3280TIP3    H2 9786   7.306   0.563   0.436 -0.7760  0.3789 -0.0236
 3281TIP3   OH2 9787   4.277   2.882   5.324 -0.1249 -0.0029 -0.2530
 3281TIP3    H1 9788   4.357   2.833   5.346 -1.2349 -2.0660 -0.5288
 3281TIP3    H2 9789   4.232   2.826   5.260 -0.8688  2.0384 -1.5987
 3282TIP3   OH2 9790   4.313   1.346   6.265  0.0725 -0.2606  0.1084
 3282TIP3    H1 9791   4.327   1.307   6.351  0.0067 -0.4185  0.0497
 3282TIP3    H2 9792   4.343   1.436   6.273  0.5873 -0.4330  0.1393
 3283TIP3   OH2 9793   3.889   4.592   2.513 -0.3279  0.1984  0.3038
 3283TIP3    H1 9794   3.851   4.674   2.546 -0.7120  0.9130 -1.7959
 3283TIP3    H2 9795   3.983   4.600   2.533 -0.4605  0.8364  0.7197
 3284TIP3   OH2 9796   0.396   1.557   3.239  0.2109  0.2931  0.1341
 3284TIP3    H1 9797   0.489   1.553   3.216 -0.2742  0.0966 -2.0183
 3284TIP3    H2 9798   0.374   1.650   3.230  0.2668  0.4153  1.0979
 3285TIP3   OH2 9799   6.735   3.370   1.246  0.4948 -0.3386 -0.4365
 3285TIP3    H1 9800   6.670   3.305   1.220 -1.5646  1.8617 -1.1128
 3285TIP3    H2 9801   6.750   3.354   1.339 -0.4695 -1.3253 -0.4334
 3286TIP3   OH2 9802   3.634   4.903   4.891  0.6857  0.2216  0.9843
 3286TIP3    H1 9803   3.681   4.983   4.865 -0.6746  0.8938  0.5291
 3286TIP3    H2 9804   3.692   4.832   4.863  1.1976  1.0179 -0.0672
 3287TIP3   OH2 9805   3.132   5.932   0.406  0.1588 -0.2476 -0.1201
 3287TIP3    H1 9806   3.108   5.929   0.498  1.6598  2.4266  0.4680
 3287TIP3    H2 9807   3.193   6.005   0.399 -0.3185  0.0174 -3.3395
 3288TIP3   OH2 9808   3.544   7.120   6.297 -0.3633  0.1348 -0.2261
 3288TIP3    H1 9809   3.563   7.135   6.204 -1.3606 -0.5934 -0.5580
 3288TIP3    H2 9810   3.628   7.137   6.341  1.2692 -3.2749 -1.6327
 3289TIP3   OH2 9811   0.466   0.604   4.599 -0.2087 -0.9014 -0.0200
 3289TIP3    H1 9812   0.397   0.667   4.577  1.4738  1.0871  0.1250
 3289TIP3    H2 9813   0.445   0.577   4.689 -0.1381  0.6517  0.4946
 3290TIP3   OH2 9814   0.799   5.196   1.806  0.0861 -0.4364  0.1691
 3290TIP3    H1 9815   0.751   5.116   1.825 -0.3175 -0.0675  0.7517
 3290TIP3    H2 9816   0.888   5.179   1.835 -0.1168 -0.5015  0.7670
 3291TIP3   OH2 9817   1.997   2.189   4.367  0.6226 -0.0563 -0.0255
 3291TIP3    H1 9818   1.978   2.112   4.420 -0.4362  0.2438  0.0513
 3291TIP3    H2 9819   1.914   2.237   4.363  1.7645  2.3188  1.9152
 3292TIP3   OH2 9820   6.102   4.697   2.317  0.5108 -0.1245 -0.6210
 3292TIP3    H1 9821   6.119   4.790   2.330  0.2288 -0.1455 -0.1052
 3292TIP3    H2 9822   6.010   4.693   2.289  0.3621 -0.2930 -0.1088
 3293TIP3   OH2 9823   5.701   4.463   3.634  0.3098  0.1925 -0.3470
 3293TIP3    H1 9824   5.717   4.383   3.684  1.4760  0.3581 -0.4236
 3293TIP3    H2 9825   5.669   4.526   3.699  1.3677  0.2667  0.1192
 3294TIP3   OH2 9826   0.872   4.214   5.641  0.2448  0.0950 -0.4090
 3294TIP3    H1 9827   0.845   4.155   5.711 -0.4985  1.9038  0.8971
 3294TIP3    H2 9828   0.911   4.289   5.686  1.8857  0.3037 -2.0481
 3295TIP3   OH2 9829   6.579   6.541   1.850  0.0281 -0.0876 -0.1603
 3295TIP3    H1 9830   6.606   6.511   1.764 -1.1842  0.9350 -0.9491
 3295TIP3    H2 9831   6.653   6.523   1.907  0.8705 -0.7497 -1.4261
 3296TIP3   OH2 9832   2.312   6.447   4.288 -0.0147  0.8823  0.4513
 3296TIP3    H1 9833   2.285   6.443   4.379 -2.4257  0.4825 -0.2136
 3296TIP3    H2 9834   2.292   6.537   4.261 -0.3862  0.6744  0.0214
 3297TIP3   OH2 9835   7.084   6.304   0.907 -0.0687  0.1849 -0.4947
 3297TIP3    H1 9836   7.120   6.327   0.821  1.2333  1.1389  0.2734
 3297TIP3    H2 9837   7.006   6.251   0.887 -0.3252  1.1539 -2.2752
 3298TIP3   OH2 9838   2.137   6.718   6.680 -0.5314 -0.5048  0.6798
 3298TIP3    H1 9839   2.197   6.729   6.606 -1.2619  1.1581  0.2940
 3298TIP3    H2 9840   2.133   6.805   6.721 -2.0807 -0.7720  1.1649
 3299TIP3   OH2 9841   3.677   4.499   1.599  0.0356  0.1557  0.4304
 3299TIP3    H1 9842   3.636   4.413   1.608  0.6580 -0.1942  0.0292
 3299TIP3    H2 9843   3.604   4.561   1.601 -0.5253 -0.4488 -0.3437
 3300TIP3   OH2 9844   2.487   7.396   3.085 -0.0518 -0.0247  0.0772
 3300TIP3    H1 9845   2.533   7.351   3.014 -0.8165 -0.0376 -0.4215
 3300TIP3    H2 9846   2.557   7.432   3.139  0.5503 -0.3467 -0.4681
 3301TIP3   OH2 9847   3.945   2.649   4.124 -0.1438  0.0297 -0.3008
 3301TIP3    H1 9848   3.931   2.718   4.188 -0.5522 -0.6881  0.4051
 3301TIP3    H2 9849   3.877   2.584   4.143  0.6406 -0.8793 -0.4904
 3302TIP3   OH2 9850   8.243   1.065   0.188 -1.0682  0.0030 -0.0410
 3302TIP3    H1 9851   8.299   1.073   0.266 -0.3928 -0.7799 -0.4275
 3302TIP3    H2 9852   8.178   1.134   0.198 -0.6248  0.3009  0.9204
 3303TIP3   OH2 9853   8.234   3.427   0.457 -0.3030 -0.0298 -0.2248
 3303TIP3    H1 9854   8.307   3.448   0.516  0.0144  1.7607 -1.1773
 3303TIP3    H2 9855   8.157   3.466   0.498 -0.1098  1.0748 -0.8642
 3304TIP3   OH2 9856   3.379   7.103   2.092  0.4060 -0.0253  0.1711
 3304TIP3    H1 9857   3.290   7.116   2.058 -0.5311 -1.8620  1.7013
 3304TIP3    H2 9858   3.410   7.023   2.051  0.4498 -0.5921  1.2544
 3305TIP3   OH2 9859   6.482   5.429   0.693 -0.3744 -0.0809  0.4382
 3305TIP3    H1 9860   6.535   5.360   0.734  0.2156  0.7204  1.0495
 3305TIP3    H2 9861   6.495   5.417   0.599 -0.2332 -0.7657  0.5373
 3306TIP3   OH2 9862   3.901   1.847   2.023 -0.1186 -0.1240 -0.4089
 3306TIP3    H1 9863   3.920   1.931   2.065 -1.2741  0.6791 -1.3967
 3306TIP3    H2 9864   3.836   1.806   2.080 -0.2447  0.0815 -0.4028
 3307TIP3   OH2 9865   5.271   5.648   2.777 -0.8850 -0.3640  0.4942
 3307TIP3    H1 9866   5.189   5.637   2.728  0.1671 -0.0435 -1.4826
 3307TIP3    H2 9867   5.279   5.743   2.788  0.7135 -0.0580 -2.2698
 3308TIP3   OH2 9868   6.162   6.198   3.145 -0.1077  0.0641  0.3794
 3308TIP3    H1 9869   6.209   6.194   3.062 -0.3564  2.1462  0.0842
 3308TIP3    H2 9870   6.230   6.207   3.212  0.0324  0.6408  0.1683
 3309TIP3   OH2 9871   7.388   2.688   3.415  0.7701  0.2838  0.2138
 3309TIP3    H1 9872   7.360   2.659   3.328  0.7760 -0.7910  0.5552
 3309TIP3    H2 9873   7.306   2.710   3.460  0.5994 -0.9063  0.5290
 3310TIP3   OH2 9874   3.830   4.957   3.820 -0.5669 -0.8612 -0.5073
 3310TIP3    H1 9875   3.753   4.984   3.870  0.3431  0.7492  0.1012
 3310TIP3    H2 9876   3.867   4.886   3.871 -0.3957 -0.1211  0.4412
 3311TIP3   OH2 9877   6.162   5.970   0.632  0.0482  0.6236  0.0684
 3311TIP3    H1 9878   6.134   6.043   0.687 -1.5781 -0.9238  1.4489
 3311TIP3    H2 9879   6.120   5.985   0.548  0.0087  1.4435  0.2317
 3312TIP3   OH2 9880   2.007   4.879   4.407 -0.6406  0.1299  0.0262
 3312TIP3    H1 9881   2.083   4.921   4.448 -1.2586  0.7999  0.5212
 3312TIP3    H2 9882   2.041   4.797   4.371  0.0305 -0.2324  1.4335
 3313TIP3   OH2 9883   7.021   5.075   0.272  0.5619  0.4380 -0.1550
 3313TIP3    H1 9884   6.941   5.024   0.284  0.8707 -0.3321 -1.2009
 3313TIP3    H2 9885   7.003   5.158   0.314 -0.9212  0.3976 -0.6580
 3314TIP3   OH2 9886   4.286   4.493   6.641  0.5158 -0.2305 -0.2372
 3314TIP3    H1 9887   4.236   4.412   6.639 -1.2821  0.8119  0.4392
 3314TIP3    H2 9888   4.343   4.484   6.718 -1.8136  0.2994  1.6678
 3315TIP3   OH2 9889   6.936   7.421   1.021  0.5685 -0.3810  0.3663
 3315TIP3    H1 9890   6.860   7.473   1.046  1.6580  1.0915  0.7606
 3315TIP3    H2 9891   6.970   7.386   1.103  2.1105  1.5712  0.6169
 3316TIP3   OH2 9892   2.056   3.138   3.843 -0.1056  0.5379  0.5225
 3316TIP3    H1 9893   2.055   3.051   3.803 -0.8657 -0.5774  2.8128
 3316TIP3    H2 9894   1.964   3.165   3.844 -0.3673 -0.1883  2.8457
 3317TIP3   OH2 9895   6.271   3.845   1.499  0.3666  0.0532  0.7243
 3317TIP3    H1 9896   6.328   3.916   1.526 -0.1961  0.7687  0.0710
 3317TIP3    H2 9897   6.185   3.868   1.536  0.4769 -1.0086  1.7053
 3318TIP3   OH2 9898   0.520   1.111   5.323  0.1480  0.0610  0.4305
 3318TIP3    H1 9899   0.581   1.038   5.310 -1.2477 -0.7823 -2.2878
 3318TIP3    H2 9900   0.546   1.175   5.256 -0.4392  0.7640  0.8614
 3319TIP3   OH2 9901   4.214   2.192   3.644  0.5541  0.1941  0.1507
 3319TIP3    H1 9902   4.167   2.254   3.701  1.9984  0.4152  1.1591
 3319TIP3    H2 9903   4.200   2.107   3.685  0.7626  0.2158  0.2670
 3320TIP3   OH2 9904   1.552   0.798   6.239  0.0271 -0.4553 -0.0972
 3320TIP3    H1 9905   1.501   0.793   6.159 -1.2385  1.2185  0.5488
 3320TIP3    H2 9906   1.532   0.717   6.286 -1.4147 -0.1805 -0.2204
 3321TIP3   OH2 9907   6.905   6.936   4.720 -0.1507  0.0130  0.3020
 3321TIP3    H1 9908   6.834   6.872   4.722  0.8087 -1.1225 -0.5953
 3321TIP3    H2 9909   6.863   7.019   4.696 -1.5615 -0.0208  2.4268
 3322TIP3   OH2 9910   6.420   1.439   3.198  0.8841  0.7875  0.8076
 3322TIP3    H1 9911   6.423   1.481   3.284 -2.6364 -0.7159  1.8524
 3322TIP3    H2 9912   6.460   1.353   3.212  1.3934  0.9953  0.6274
 3323TIP3   OH2 9913   5.554   3.359   4.398  0.1947  0.3021  0.0901
 3323TIP3    H1 9914   5.591   3.447   4.393  0.8383 -0.0219 -1.1044
 3323TIP3    H2 9915   5.476   3.362   4.342 -0.8988  0.6128  1.5537
 3324TIP3   OH2 9916   2.231   3.852   1.811  0.3446 -0.4432 -0.1815
 3324TIP3    H1 9917   2.140   3.853   1.841  0.6923 -0.4006  0.9258
 3324TIP3    H2 9918   2.225   3.852   1.716 -0.8198 -0.9410 -0.1238
 3325TIP3   OH2 9919   6.232   7.272   6.771  0.2361  0.3620  0.1462
 3325TIP3    H1 9920   6.199   7.360   6.789  0.4151  0.2680  1.0133
 3325TIP3    H2 9921   6.320   7.285   6.736  0.0932  0.5410 -0.1492
 3326TIP3   OH2 9922   4.917   4.071   2.434  0.2445 -0.5652 -0.9722
 3326TIP3    H1 9923   4.912   3.980   2.404 -0.8947 -0.5554 -0.8490
 3326TIP3    H2 9924   4.936   4.121   2.355 -1.1536 -0.7092 -1.4281
 3327TIP3   OH2 9925   8.193   6.628   2.044 -0.3985  0.5626  0.4370
 3327TIP3    H1 9926   8.142   6.598   1.968  0.2396  1.3697 -0.3307
 3327TIP3    H2 9927   8.273   6.576   2.041 -0.5083  0.3740  0.7466
 3328TIP3   OH2 9928   0.326   1.599   0.900  0.3685  0.4353 -0.1154
 3328TIP3    H1 9929   0.262   1.630   0.836 -0.4308 -0.3510  0.2814
 3328TIP3    H2 9930   0.277   1.536   0.954  1.1989  0.6011  0.8520
 3329TIP3   OH2 9931   4.549   0.582   5.104  0.8112 -0.9734  0.1452
 3329TIP3    H1 9932   4.605   0.655   5.129  1.8290 -2.1573  1.5472
 3329TIP3    H2 9933   4.468   0.623   5.074  2.5694  0.8441 -2.6091
 3330TIP3   OH2 9934   7.827   4.226   2.964  0.4757  0.4714 -0.9332
 3330TIP3    H1 9935   7.738   4.261   2.962 -0.1425 -1.0495 -3.2968
 3330TIP3    H2 9936   7.851   4.229   3.057 -1.8613  1.2944 -0.2763
 3331TIP3   OH2 9937   1.269   4.493   2.378  0.2246  0.2626 -0.0006
 3331TIP3    H1 9938   1.330   4.438   2.428  1.4174  1.2500 -0.3237
 3331TIP3    H2 9939   1.279   4.580   2.415 -1.0326  0.4449 -0.0530
 3332TIP3   OH2 9940   2.069   1.508   6.103  0.1523 -0.7796 -0.0855
 3332TIP3    H1 9941   1.976   1.485   6.102  0.7075 -3.3125  0.3088
 3332TIP3    H2 9942   2.082   1.560   6.024 -0.8883 -3.7222 -2.3663
 3333TIP3   OH2 9943   0.567   6.129   0.137  0.2533 -0.2204 -0.3305
 3333TIP3    H1 9944   0.638   6.089   0.188  0.4197  1.2989  0.6615
 3333TIP3    H2 9945   0.503   6.158   0.202 -0.7108 -0.4457 -1.1466
 3334TIP3   OH2 9946   4.503   3.849   2.901  0.2903  0.2532  0.2691
 3334TIP3    H1 9947   4.571   3.815   2.843  1.8855  1.7678  1.1472
 3334TIP3    H2 9948   4.529   3.939   2.918 -1.8943  0.8319  0.7737
 3335TIP3   OH2 9949  -0.006   5.831   0.298  0.0443 -0.1040  0.2039
 3335TIP3    H1 9950  -0.029   5.918   0.266  1.8428  0.1397 -0.5193
 3335TIP3    H2 9951   0.090   5.828   0.294  0.0030 -3.0071 -2.2755
 3336TIP3   OH2 9952   3.107   6.683   0.633  0.1524  0.3372 -0.2569
 3336TIP3    H1 9953   3.069   6.626   0.700 -1.5900  1.9465  0.2316
 3336TIP3    H2 9954   3.112   6.628   0.555 -2.5216 -0.2571 -0.1073
 3337TIP3   OH2 9955   4.832   0.122   4.909 -0.6637  0.2653 -0.1455
 3337TIP3    H1 9956   4.800   0.211   4.897 -0.3430  0.4620  0.4412
 3337TIP3    H2 9957   4.927   0.131   4.922 -0.2477 -0.3468 -2.3551
 3338TIP3   OH2 9958   5.039   2.296   3.125 -0.9966  0.2565 -0.7227
 3338TIP3    H1 9959   5.042   2.252   3.040 -3.0384 -0.6338 -0.3963
 3338TIP3    H2 9960   4.962   2.352   3.121 -1.1185  0.2148  0.5172
 3339TIP3   OH2 9961   5.028   1.139   5.327  0.0215  0.1071  0.3242
 3339TIP3    H1 9962   5.122   1.127   5.340  0.1501 -1.3090 -1.4895
 3339TIP3    H2 9963   5.012   1.109   5.237 -1.9465  1.6212  0.0803
 3340TIP3   OH2 9964   2.961   6.439   3.441 -0.2349 -0.1479  0.3234
 3340TIP3    H1 9965   2.993   6.356   3.405 -0.9795  0.7568 -2.6775
 3340TIP3    H2 9966   3.027   6.464   3.506  0.6226 -2.4501  0.4584
 3341TIP3   OH2 9967   3.547   2.487   6.022 -0.3957 -0.0521  0.3783
 3341TIP3    H1 9968   3.536   2.537   6.103 -0.1024 -0.3258  0.5905
 3341TIP3    H2 9969   3.462   2.445   6.007 -1.1086  1.6263 -0.5716
 3342TIP3   OH2 9970   1.601   4.353   2.098  0.0786 -0.5594  0.1028
 3342TIP3    H1 9971   1.515   4.396   2.097 -1.3537 -3.0625  2.4710
 3342TIP3    H2 9972   1.594   4.282   2.036  0.1985 -1.1526  0.7529
 3343TIP3   OH2 9973   2.569   1.919   0.379  0.3598 -0.5268 -0.0134
 3343TIP3    H1 9974   2.639   1.963   0.330  0.1687  0.1611  0.3296
 3343TIP3    H2 9975   2.529   1.859   0.315  1.7811 -1.5407 -0.0025
 3344TIP3   OH2 9976   3.145   7.096   2.503  0.1298 -0.2282 -0.6551
 3344TIP3    H1 9977   3.133   7.078   2.596  1.1053  1.7229 -0.0871
 3344TIP3    H2 9978   3.217   7.039   2.477  0.9080  0.3371  0.2052
 3345TIP3   OH2 9979   7.220   2.821   0.475 -0.8742 -0.0868 -0.2607
 3345TIP3    H1 9980   7.217   2.732   0.440  1.0352 -0.7028  0.9744
 3345TIP3    H2 9981   7.279   2.868   0.416 -0.9063  0.0083 -0.2175
 3346TIP3   OH2 9982   4.510   6.975   5.170  0.3312  0.0488  0.4978
 3346TIP3    H1 9983   4.460   6.900   5.204 -1.1568  0.8039  0.0430
 3346TIP3    H2 9984   4.598   6.941   5.157 -0.2598 -1.5696  0.5216
 3347TIP3   OH2 9985   3.227   7.067   1.289  0.3332 -0.1796 -0.7765
 3347TIP3    H1 9986   3.154   7.126   1.267  0.0785  0.0248  0.5217
 3347TIP3    H2 9987   3.301   7.102   1.240 -0.2101  0.2137 -1.3416
 3348TIP3   OH2 9988   4.050   3.180   4.273 -0.2248  0.6058 -0.4701
 3348TIP3    H1 9989   4.071   3.244   4.206  0.2028  0.9982  0.0336
 3348TIP3    H2 9990   4.130   3.170   4.324 -1.1934  2.1071  1.4584
 3349TIP3   OH2 9991   2.456   5.320   1.516 -0.4987  0.4550 -0.3942
 3349TIP3    H1 9992   2.368   5.354   1.501 -1.0176 -0.1342  1.0839
 3349TIP3    H2 9993   2.464   5.316   1.612  1.6848  1.8780 -0.4322
 3350TIP3   OH2 9994   6.984   6.243   3.520 -0.3195 -0.4663  0.3325
 3350TIP3    H1 9995   6.945   6.286   3.444  0.4775 -0.0586  0.1496
 3350TIP3    H2 9996   7.010   6.157   3.488  0.5444 -0.0803 -0.0137
 3351TIP3   OH2 9997   2.216   0.316   5.887  0.3952 -0.2789  0.8628
 3351TIP3    H1 9998   2.204   0.237   5.833 -0.3575  0.2626  0.2112
 3351TIP3    H2 9999   2.152   0.378   5.853 -1.3921 -0.4937  3.5499
 3352TIP3   OH210000   5.819   2.349   4.030 -0.3384  0.1484 -0.1067
 3352TIP3    H110001   5.882   2.419   4.012  0.7393 -0.1853  2.0733
 3352TIP3    H210002   5.735   2.385   4.004  0.5757  0.9953 -2.1415
 3353TIP3   OH210003   5.010   4.112   4.553  0.1088  0.3959  0.1383
 3353TIP3    H110004   5.043   4.056   4.483  2.7821  1.1117  0.7186
 3353TIP3    H210005   4.997   4.054   4.628  0.5303  0.1728  0.0361
 3354TIP3   OH210006   7.047   6.772   0.658  0.5502  0.2961 -0.0068
 3354TIP3    H110007   7.114   6.794   0.593  0.0070  2.6818  0.1809
 3354TIP3    H210008   7.067   6.827   0.733  0.8601 -2.0461  1.7479
 3355TIP3   OH210009   0.905   0.774   0.179 -0.2962  0.2623 -0.1248
 3355TIP3    H110010   0.911   0.681   0.154  0.6743  0.4853 -0.7918
 3355TIP3    H210011   0.817   0.800   0.153 -0.5749 -0.4677  0.0470
 3356TIP3   OH210012   3.750   5.931   0.370  0.2899  0.1506 -0.8974
 3356TIP3    H110013   3.747   5.907   0.277 -1.4306  1.2081 -1.1604
 3356TIP3    H210014   3.766   5.849   0.416  1.3407 -0.3605 -2.1284
 3357TIP3   OH210015   5.851   1.259   1.925  0.3660  0.0022  0.1464
 3357TIP3    H110016   5.761   1.270   1.956 -0.1194  0.3208 -1.2710
 3357TIP3    H210017   5.905   1.257   2.004 -0.8177  0.5155  0.9796
 3358TIP3   OH210018   7.121   6.075   1.685 -0.0763  0.2851 -0.0177
 3358TIP3    H110019   7.118   6.169   1.671 -0.7945  0.0864 -1.3577
 3358TIP3    H210020   7.029   6.048   1.687  0.1125 -0.6544 -1.8156
 3359TIP3   OH210021   2.737   6.345   5.404 -0.1699  0.2421  0.0363
 3359TIP3    H110022   2.810   6.349   5.341  0.2550 -0.0702  0.5008
 3359TIP3    H210023   2.728   6.436   5.434 -0.3827  0.3961 -0.4781
 3360TIP3   OH210024   5.931   5.573   4.324  0.2987 -0.2357  0.0862
 3360TIP3    H110025   5.843   5.541   4.305 -1.5062  3.0080  2.0596
 3360TIP3    H210026   5.970   5.504   4.379 -1.1940 -1.4828 -0.3398
 3361TIP3   OH210027   2.616   1.217   1.733 -0.0539  0.1220 -0.6130
 3361TIP3    H110028   2.625   1.213   1.828  2.5432  3.1724 -0.5663
 3361TIP3    H210029   2.642   1.130   1.703 -1.0831 -0.9657  1.4001
 3362TIP3   OH210030   7.402   3.178   3.474  0.0684  0.7717 -0.0116
 3362TIP3    H110031   7.412   3.271   3.453  0.7769  0.6951 -0.0303
 3362TIP3    H210032   7.484   3.138   3.446 -0.7963 -0.1272 -1.3969
 3363TIP3   OH210033   4.417   3.316   2.699 -0.2424  0.0147 -0.4054
 3363TIP3    H110034   4.500   3.303   2.745 -0.8767 -1.4185  0.4189
 3363TIP3    H210035   4.426   3.401   2.657  1.6848 -0.1465 -0.4365
 3364TIP3   OH210036   7.295   5.014   4.974  0.0091 -0.0934 -0.2526
 3364TIP3    H110037   7.254   4.984   4.893  0.3484  0.1952 -0.5356
 3364TIP3    H210038   7.363   4.949   4.992 -0.6576 -0.6548  0.2987
 3365TIP3   OH210039   2.312   0.267   6.157  0.3914 -0.2399  0.2296
 3365TIP3    H110040   2.258   0.323   6.101  2.0449  0.4723 -0.7215
 3365TIP3    H210041   2.273   0.180   6.150 -2.1680  0.6930  1.6423
 3366TIP3   OH210042   7.752   0.529   6.639 -0.3467  0.0799  0.2422
 3366TIP3    H110043   7.679   0.472   6.660 -0.5596  0.3901  0.3503
 3366TIP3    H210044   7.822   0.502   6.699 -0.6808  0.4063  0.7850
 3367TIP3   OH210045   2.104   5.115   2.678  0.5660 -0.4771 -0.2544
 3367TIP3    H110046   2.188   5.076   2.702  1.1390  0.0580 -1.3228
 3367TIP3    H210047   2.089   5.183   2.743  0.9846 -0.5455 -0.0870
 3368TIP3   OH210048   5.668   0.717   3.128 -0.1965  0.1690  0.0823
 3368TIP3    H110049   5.623   0.801   3.127  0.0626  0.3220  0.9472
 3368TIP3    H210050   5.742   0.728   3.068 -0.5611  0.3289 -0.3414
 3369TIP3   OH210051   7.223   4.576   4.250  0.0720  0.2302 -0.4516
 3369TIP3    H110052   7.127   4.583   4.252  0.0249  1.2604 -2.8204
 3369TIP3    H210053   7.254   4.661   4.282  0.2541 -0.2979  0.8517
 3370TIP3   OH210054   1.529   6.961   4.203  0.2292 -0.0310 -0.3668
 3370TIP3    H110055   1.539   6.875   4.244 -0.2656  0.1710  0.1853
 3370TIP3    H210056   1.618   6.996   4.198  0.2605  0.1020  0.8778
 3371TIP3   OH210057   3.624   5.429   2.474 -0.0385  0.6065  0.7933
 3371TIP3    H110058   3.649   5.337   2.465 -0.8162  0.3887  0.8289
 3371TIP3    H210059   3.680   5.475   2.412 -1.9861 -0.2905 -1.8241
 3372TIP3   OH210060   3.780   6.756   4.694  0.1299 -0.0842 -0.6158
 3372TIP3    H110061   3.875   6.745   4.695  0.1186 -0.3553  1.0781
 3372TIP3    H210062   3.759   6.785   4.783 -1.6957 -3.2048  0.1185
 3373TIP3   OH210063   5.972   2.416   0.889  0.7843  0.1505 -0.3094
 3373TIP3    H110064   6.034   2.450   0.824  1.3261 -0.6316 -0.2136
 3373TIP3    H210065   6.024   2.406   0.969  0.4458 -0.1653 -0.1248
 3374TIP3   OH210066   8.168   5.999   5.517  0.4003  0.5996 -0.0156
 3374TIP3    H110067   8.087   5.956   5.542  0.1287  1.6539  1.0071
 3374TIP3    H210068   8.223   5.929   5.483 -1.0152 -0.0945 -0.9779
 3375TIP3   OH210069   7.317   3.272   4.813 -0.0455  0.1052  0.0227
 3375TIP3    H110070   7.284   3.238   4.896  3.3657 -1.3385  0.9527
 3375TIP3    H210071   7.364   3.352   4.837  0.0928  0.2367 -0.6644
 3376TIP3   OH210072   6.298   1.686   2.994  0.0895 -0.2291 -0.5506
 3376TIP3    H110073   6.376   1.683   2.939 -0.3645 -1.5107 -1.1515
 3376TIP3    H210074   6.303   1.606   3.047  0.3725  0.8246  1.1104
 3377TIP3   OH210075   1.598   0.935   4.194  0.0988 -0.1613 -0.2632
 3377TIP3    H110076   1.689   0.945   4.166 -0.2091 -2.6470 -2.5741
 3377TIP3    H210077   1.572   0.849   4.160 -2.6817 -0.1761  1.6058
 3378TIP3   OH210078   6.442   7.724   1.772  0.0347 -0.7757 -0.0569
 3378TIP3    H110079   6.495   7.652   1.737  0.7255  1.1410 -3.4872
 3378TIP3    H210080   6.501   7.800   1.768 -0.9997  0.2538  2.3748
 3379TIP3   OH210081   6.729   7.435   5.441  0.2141 -0.1257 -0.0656
 3379TIP3    H110082   6.789   7.401   5.507 -0.3586 -0.0740  0.4922
 3379TIP3    H210083   6.706   7.523   5.472  0.7488  0.3127 -0.8752
 3380TIP3   OH210084   3.983   4.583   2.205 -0.6777  0.5849  0.3687
 3380TIP3    H110085   4.032   4.558   2.127 -2.8864 -0.1859 -0.8746
 3380TIP3    H210086   4.043   4.567   2.278  1.1313  0.4486 -1.0838
 3381TIP3   OH210087   2.398   6.115   2.220 -0.4932  0.2129  0.1629
 3381TIP3    H110088   2.462   6.142   2.287  0.5335 -0.9257 -0.3184
 3381TIP3    H210089   2.440   6.041   2.176 -1.8570 -0.0929 -0.6626
 3382TIP3   OH210090   3.721   2.245   2.630 -0.2527  0.0879 -0.0795
 3382TIP3    H110091   3.661   2.221   2.700  0.2694  0.0125  0.3549
 3382TIP3    H210092   3.757   2.329   2.657  2.0388 -1.1931  1.1737
 3383TIP3   OH210093   0.231   3.475   1.043  0.0050 -0.0452  0.1117
 3383TIP3    H110094   0.159   3.519   0.997  0.1367 -1.6438 -1.7370
 3383TIP3    H210095   0.204   3.383   1.048  1.3274 -0.4257  0.5952
 3384TIP3   OH210096   4.484   2.314   3.584  0.4585 -0.1086 -0.4213
 3384TIP3    H110097   4.453   2.404   3.576  1.4969  0.2918 -0.1834
 3384TIP3    H210098   4.411   2.266   3.623 -0.4266  0.4258 -1.3719
 3385TIP3   OH210099   2.434   7.660   3.024  0.3836 -0.4391 -0.0428
 3385TIP3    H110100   2.400   7.718   3.092  3.0942 -0.0940  1.1248
 3385TIP3    H210101   2.427   7.572   3.062 -1.7526 -0.7481 -0.9799
 3386TIP3   OH210102   4.758   2.973   0.439  0.0329  0.4857  0.4598
 3386TIP3    H110103   4.682   2.929   0.478  0.0459  1.7330  1.9896
 3386TIP3    H210104   4.786   3.036   0.505  1.8907  0.6650 -0.4208
 3387TIP3   OH210105   5.367   3.376   6.524 -0.7443 -0.7379 -0.1938
 3387TIP3    H110106   5.432   3.442   6.549 -1.5551  0.3137 -0.7733
 3387TIP3    H210107   5.363   3.317   6.599 -0.6745  0.4087  0.7422
 3388TIP3   OH210108   0.369   4.367   4.735  0.1689 -0.2947 -0.1374
 3388TIP3    H110109   0.461   4.353   4.757  0.2856  1.0776  0.3300
 3388TIP3    H210110   0.370   4.438   4.671 -0.5564 -0.3942 -0.2695
 3389TIP3   OH210111   2.353   5.864   4.126  0.7045  0.0674 -0.3010
 3389TIP3    H110112   2.434   5.905   4.154 -0.0851  0.4066  1.7003
 3389TIP3    H210113   2.346   5.785   4.180 -0.2861  0.0518 -0.4192
 3390TIP3   OH210114   2.543   7.337   0.161 -0.2066  0.1485 -0.4927
 3390TIP3    H110115   2.577   7.255   0.197 -1.9820 -0.8781 -1.0492
 3390TIP3    H210116   2.519   7.389   0.237  1.7814  0.5895 -0.1057
 3391TIP3   OH210117   6.408   1.143   0.205  0.0084 -0.2431 -0.4521
 3391TIP3    H110118   6.425   1.219   0.260 -1.5330 -0.1151 -0.1076
 3391TIP3    H210119   6.494   1.104   0.191  0.5490  0.2144  1.3360
 3392TIP3   OH210120   0.711   1.755   5.063 -0.3636  0.1403 -0.0713
 3392TIP3    H110121   0.711   1.684   4.998  1.2806 -0.9810  1.0664
 3392TIP3    H210122   0.630   1.804   5.046 -0.4846 -0.7096 -2.2847
 3393TIP3   OH210123   1.774   2.441   6.362  0.5342 -0.4329  0.0403
 3393TIP3    H110124   1.683   2.423   6.386  0.6390 -1.0571  0.0018
 3393TIP3    H210125   1.821   2.447   6.445 -0.1141  3.4892  0.3052
 3394TIP3   OH210126   0.770   4.839   2.520  0.0689 -0.1847 -0.4625
 3394TIP3    H110127   0.694   4.846   2.578  0.2937  0.5037 -0.2436
 3394TIP3    H210128   0.827   4.776   2.564  1.1376  1.7656  1.1432
 3395TIP3   OH210129   2.765   4.931   2.769  0.4797  0.5536 -0.3957
 3395TIP3    H110130   2.784   4.983   2.691 -0.1231 -2.1465 -2.4915
 3395TIP3    H210131   2.845   4.881   2.785 -0.2169 -0.7886 -0.9222
 3396TIP3   OH210132   1.101   1.988   3.696 -0.1066  0.4030  0.1986
 3396TIP3    H110133   1.192   2.002   3.719 -0.1264  0.9044 -0.0117
 3396TIP3    H210134   1.052   2.014   3.774 -0.0187 -1.0298  0.7540
 3397TIP3   OH210135   8.250   6.355   1.179 -0.4602 -0.1583 -0.0380
 3397TIP3    H110136   8.324   6.412   1.159 -1.6052  0.4380 -2.9818
 3397TIP3    H210137   8.286   6.288   1.238  2.0610  0.8490 -0.3430
 3398TIP3   OH210138   5.078   2.975   3.554 -0.1609  0.5739  0.2892
 3398TIP3    H110139   5.012   2.988   3.622 -0.6057  2.2627 -0.4228
 3398TIP3    H210140   5.148   3.036   3.575  0.8452 -0.6161  0.5584
 3399TIP3   OH210141   1.426   6.192   1.347  0.0612 -0.3346 -0.3101
 3399TIP3    H110142   1.495   6.125   1.356 -1.6837 -2.0288  1.5869
 3399TIP3    H210143   1.359   6.150   1.293 -0.5218  0.3546 -0.1325
 3400TIP3   OH210144   5.998   4.639   3.173 -0.3024  0.2485  0.4901
 3400TIP3    H110145   6.032   4.686   3.097 -2.4739 -0.8615 -1.2647
 3400TIP3    H210146   6.077   4.607   3.219  1.0813 -0.3148 -2.1111
 3401TIP3   OH210147   4.365   1.636   1.658  0.0690 -0.5435 -0.1460
 3401TIP3    H110148   4.298   1.704   1.665 -0.3455 -1.0810  1.5168
 3401TIP3    H210149   4.437   1.679   1.610 -0.3574  0.9302  0.4618
 3402TIP3   OH210150   3.656   0.741   4.761 -0.0403 -0.2399  0.6855
 3402TIP3    H110151   3.733   0.743   4.818  0.0421  1.0441  0.5444
 3402TIP3    H210152   3.689   0.704   4.679  1.6517  4.2809 -0.9955
 3403TIP3   OH210153   3.756   1.094   6.534  0.6101  0.3958 -0.1496
 3403TIP3    H110154   3.786   1.064   6.449 -0.4150  0.9728 -0.7397
 3403TIP3    H210155   3.668   1.128   6.518  0.0964 -0.1714  1.2810
 3404TIP3   OH210156   8.085   2.644   4.142 -0.3416  0.2966  0.1335
 3404TIP3    H110157   8.168   2.601   4.121 -2.2656 -2.8373 -1.8631
 3404TIP3    H210158   8.076   2.635   4.237  0.5888 -1.4224  0.1014
 3405TIP3   OH210159   0.369   4.464   3.053 -0.2714 -0.8728  0.2128
 3405TIP3    H110160   0.333   4.552   3.068 -0.1808 -0.9411  0.8635
 3405TIP3    H210161   0.308   4.406   3.098  0.7538 -0.9755  1.5199
 3406TIP3   OH210162   2.482   2.526   1.780  0.0139 -0.5138  0.4953
 3406TIP3    H110163   2.461   2.507   1.689 -0.1699 -2.2992  0.8735
 3406TIP3    H210164   2.427   2.601   1.803 -1.0854 -1.0274 -0.4118
 3407TIP3   OH210165   0.157   1.381   1.500  0.6253 -0.2872 -0.1430
 3407TIP3    H110166   0.232   1.335   1.463  1.2225  0.5303  0.0358
 3407TIP3    H210167   0.191   1.421   1.580 -0.3858 -1.1828  0.7622
 3408TIP3   OH210168   2.072   4.628   0.415 -0.2458  0.0734 -0.1744
 3408TIP3    H110169   2.084   4.567   0.342  0.1940  0.6915 -0.6277
 3408TIP3    H210170   2.105   4.711   0.383 -2.9962  1.1710 -0.4161
 3409TIP3   OH210171   5.559   1.166   5.557 -0.2727  0.0367  0.1262
 3409TIP3    H110172   5.482   1.203   5.514 -0.3823 -1.3946 -0.9954
 3409TIP3    H210173   5.533   1.156   5.648 -1.7437 -1.2008 -0.3958
 3410TIP3   OH210174   2.818   0.829   5.388 -0.1084  0.0459 -0.0464
 3410TIP3    H110175   2.737   0.783   5.368 -0.3576 -0.9082  2.7282
 3410TIP3    H210176   2.880   0.760   5.412  0.8735  0.8973 -0.0376
 3411TIP3   OH210177   6.970   6.569   2.819 -0.7546  0.6065  0.3762
 3411TIP3    H110178   6.909   6.642   2.831 -0.5914  0.9413 -0.7243
 3411TIP3    H210179   6.921   6.505   2.768 -0.5693  0.3534  0.5128
 3412TIP3   OH210180   6.213   2.907   0.489 -0.0378 -0.1236  0.0490
 3412TIP3    H110181   6.166   2.948   0.416 -0.0479  0.6975  0.5140
 3412TIP3    H210182   6.299   2.886   0.453  0.0928  0.6305 -0.0893
 3413TIP3   OH210183   3.922   6.664   5.628  0.2480  1.2551  0.0765
 3413TIP3    H110184   3.976   6.714   5.689  2.4415 -0.7640 -0.0665
 3413TIP3    H210185   3.900   6.585   5.676  0.4559  0.4644 -1.0929
 3414TIP3   OH210186   5.893   5.452   0.912 -0.6103 -0.2195 -0.4679
 3414TIP3    H110187   5.958   5.500   0.860  1.4082 -1.6308  0.6308
 3414TIP3    H210188   5.925   5.458   1.002 -1.1008 -2.3293 -0.1080
 3415TIP3   OH210189   7.960   4.402   1.155 -0.4529  0.7908 -0.1564
 3415TIP3    H110190   7.958   4.389   1.250 -0.0262  2.3321  0.0877
 3415TIP3    H210191   8.047   4.373   1.129 -0.4889  0.5817 -0.0459
 3416TIP3   OH210192   8.153   2.128   4.176 -0.0650 -0.2889 -0.3864
 3416TIP3    H110193   8.205   2.178   4.114  0.5278 -0.9905 -0.4610
 3416TIP3    H210194   8.212   2.060   4.209  0.3572  1.3461  2.6050
 3417TIP3   OH210195   3.305   5.461   4.520 -0.0226 -0.5457  0.2221
 3417TIP3    H110196   3.256   5.402   4.463  1.0256 -1.8492  0.5958
 3417TIP3    H210197   3.376   5.495   4.465  0.6944 -1.4145  0.5822
 3418TIP3   OH210198   7.942   3.017   3.441 -0.0197  0.6888  0.6355
 3418TIP3    H110199   7.989   2.934   3.432 -2.4926 -1.0338  2.2941
 3418TIP3    H210200   7.895   3.009   3.523 -2.5966  2.5652 -0.5256
 3419TIP3   OH210201   7.514  -0.014   5.896 -0.6265  0.1320 -0.2059
 3419TIP3    H110202   7.568   0.025   5.827  0.7607 -0.3336  0.5987
 3419TIP3    H210203   7.434   0.040   5.896  0.8754  2.5142  0.3238
 3420TIP3   OH210204   7.734   0.781   0.182 -0.5093  0.7341  0.6511
 3420TIP3    H110205   7.781   0.847   0.131  0.5471 -0.2986  0.2403
 3420TIP3    H210206   7.700   0.720   0.116  2.3456 -1.5992  1.1181
 3421TIP3   OH210207   0.449   0.419   1.314 -0.1071 -0.3451  0.4746
 3421TIP3    H110208   0.393   0.426   1.236  2.0671 -0.9860 -1.2247
 3421TIP3    H210209   0.444   0.326   1.338  0.3191 -0.4229  0.2565
 3422TIP3   OH210210   5.448   0.121   4.068 -0.3623 -0.3256 -0.1133
 3422TIP3    H110211   5.404   0.204   4.082  0.3984 -0.1113  1.1175
 3422TIP3    H210212   5.518   0.141   4.005 -0.2677 -0.0649  0.0747
 3423TIP3   OH210213   4.763   6.494   1.081 -0.5967  0.6948  0.2829
 3423TIP3    H110214   4.817   6.572   1.092 -2.0225  1.6616  0.8062
 3423TIP3    H210215   4.744   6.491   0.987  1.6776 -0.6302 -0.2097
 3424TIP3   OH210216   2.425   5.977   0.519 -0.0124 -0.1857  0.4029
 3424TIP3    H110217   2.507   6.018   0.490  0.8709 -1.5771  0.8277
 3424TIP3    H210218   2.400   5.920   0.446 -0.3112 -0.1739  0.4963
 3425TIP3   OH210219   1.843   4.361   1.582 -0.2882 -0.4860 -0.8675
 3425TIP3    H110220   1.898   4.282   1.583  1.7296  0.8530  0.6677
 3425TIP3    H210221   1.871   4.408   1.504  0.1181 -0.2408 -0.5781
 3426TIP3   OH210222   6.450   2.890   0.806  0.1878 -0.0073 -0.0376
 3426TIP3    H110223   6.463   2.917   0.897  0.2946 -2.2616  0.6764
 3426TIP3    H210224   6.464   2.970   0.755 -0.2760  1.4011  1.9315
 3427TIP3   OH210225   5.592   1.052   2.048  0.2141  0.4779 -0.3120
 3427TIP3    H110226   5.595   1.064   1.953 -1.6003  0.4989 -0.4109
 3427TIP3    H210227   5.656   1.114   2.083  0.4167  0.9423 -1.4816
 3428TIP3   OH210228   6.241   1.119   2.178  0.1979  0.2742  0.5118
 3428TIP3    H110229   6.331   1.086   2.169  0.4570  1.3691 -1.7658
 3428TIP3    H210230   6.208   1.078   2.258  1.9276 -1.9684  0.1817
 3429TIP3   OH210231   0.288   6.710   5.423 -0.5347  0.2248  0.7534
 3429TIP3    H110232   0.212   6.654   5.430  0.1718 -0.6188  2.0164
 3429TIP3    H210233   0.362   6.654   5.447  0.5561  0.9002 -0.8395
 3430TIP3   OH210234   2.559   2.724   5.300  0.0879  0.1775 -0.0924
 3430TIP3    H110235   2.464   2.715   5.307  0.1404 -2.0438 -1.2929
 3430TIP3    H210236   2.579   2.690   5.213  1.8905  1.7314 -0.3340
 3431TIP3   OH210237   3.639   6.188   1.352  0.3171 -0.1513 -0.4397
 3431TIP3    H110238   3.605   6.271   1.386 -2.3536 -0.7038 -1.4693
 3431TIP3    H210239   3.610   6.187   1.260  0.0403 -2.3171 -0.3733
 3432TIP3   OH210240   0.628   3.656   5.516 -0.1213 -0.0141 -0.1078
 3432TIP3    H110241   0.596   3.572   5.483  0.2053 -0.4879  0.7518
 3432TIP3    H210242   0.680   3.633   5.592  0.1007  0.9655  0.0433
 3433TIP3   OH210243   7.834   2.663   0.079  0.3143 -0.2084 -0.6645
 3433TIP3    H110244   7.762   2.698   0.027 -0.5113  0.6334  0.9734
 3433TIP3    H210245   7.912   2.681   0.025 -0.6755 -1.5549 -2.6760
 3434TIP3   OH210246   8.011   5.229   4.976  0.1380  0.2338 -0.0510
 3434TIP3    H110247   8.001   5.147   5.024 -0.7009  0.0127 -0.5697
 3434TIP3    H210248   7.981   5.296   5.037 -1.0502 -0.0586 -0.2829
 3435TIP3   OH210249   4.171   2.796   3.901  0.6684  0.1384 -0.1126
 3435TIP3    H110250   4.153   2.794   3.807  0.7889  0.6100 -0.1497
 3435TIP3    H210251   4.101   2.743   3.939  0.5090  0.0966 -0.4521
 3436TIP3   OH210252   3.765   2.295   0.472 -0.3022 -0.8311 -0.2541
 3436TIP3    H110253   3.841   2.309   0.416  0.9385  3.5266  2.0434
 3436TIP3    H210254   3.795   2.237   0.541  1.0329  0.8376  0.6201
 3437TIP3   OH210255   6.142   5.041   5.558  0.4854  0.0809  0.5079
 3437TIP3    H110256   6.155   5.036   5.463  2.8002  0.1932  0.7597
 3437TIP3    H210257   6.228   5.065   5.592 -0.8525  2.6118  2.4429
 3438TIP3   OH210258   5.677   7.620   5.854 -0.3739  0.5988  0.3998
 3438TIP3    H110259   5.767   7.630   5.885 -0.2404 -0.4888  0.4016
 3438TIP3    H210260   5.648   7.536   5.890 -0.8481  0.1965 -0.8577
 3439TIP3   OH210261   5.072   6.606   5.852 -0.0172 -0.3403 -0.4607
 3439TIP3    H110262   5.010   6.639   5.788  0.4072 -0.8597 -1.1492
 3439TIP3    H210263   5.023   6.606   5.935 -0.4305  0.7456 -0.6880
 3440TIP3   OH210264   0.010   5.432   5.796  0.0341  0.5081  0.8101
 3440TIP3    H110265   0.057   5.359   5.837  1.1708  0.5355 -0.3704
 3440TIP3    H210266  -0.031   5.478   5.869  2.7624  1.1275  2.0868
 3441TIP3   OH210267   7.381   5.230   0.039 -0.1499 -0.3527  0.0117
 3441TIP3    H110268   7.319   5.178  -0.011 -0.3258 -1.0908  0.9793
 3441TIP3    H210269   7.411   5.172   0.109  0.2541  0.5849  0.6364
 3442TIP3   OH210270   4.198   0.209   1.263  0.2218 -0.5734 -0.5548
 3442TIP3    H110271   4.147   0.207   1.344 -0.8192 -1.6207 -1.1933
 3442TIP3    H210272   4.136   0.179   1.195  0.3042  2.4993 -2.1991
 3443TIP3   OH210273   3.129   0.708   1.000 -0.3939 -0.4183  0.6387
 3443TIP3    H110274   3.085   0.635   1.043 -1.1948  0.1632  0.8382
 3443TIP3    H210275   3.061   0.745   0.943  0.2096 -0.2540  0.0150
 3444TIP3   OH210276   6.052   7.174   1.145 -0.0232  0.0136  0.8214
 3444TIP3    H110277   6.089   7.087   1.131  0.2534  0.5436 -2.5545
 3444TIP3    H210278   5.984   7.160   1.211  1.3580 -2.3197  1.9001
 3445TIP3   OH210279   2.465   4.580   5.239 -0.1732 -0.0219  0.1206
 3445TIP3    H110280   2.503   4.499   5.274  1.2513  0.3352 -0.5402
 3445TIP3    H210281   2.497   4.649   5.298 -0.4943  0.1979  0.0433
 3446TIP3   OH210282   6.654   4.524   1.840  0.0723  0.5590  0.2903
 3446TIP3    H110283   6.612   4.575   1.909  0.6524 -0.2239  1.2501
 3446TIP3    H210284   6.653   4.434   1.873  0.6165  0.2174 -0.5956
 3447TIP3   OH210285   7.287   6.149   3.527  0.0889  0.1421 -0.5485
 3447TIP3    H110286   7.255   6.144   3.437  0.3318 -0.7399 -0.5957
 3447TIP3    H210287   7.314   6.059   3.548 -1.5549 -0.0621  0.9962
 3448TIP3   OH210288   6.047   3.053   4.994  0.0422  0.1532  0.1695
 3448TIP3    H110289   5.993   3.107   5.052  0.0436  0.1626  0.1623
 3448TIP3    H210290   6.034   2.964   5.026  0.4395  0.2115  0.5041
 3449TIP3   OH210291   3.657   7.183   1.701  0.4165  0.4788  0.2477
 3449TIP3    H110292   3.727   7.231   1.745  0.8194 -0.1940  0.3543
 3449TIP3    H210293   3.576   7.213   1.743  0.8171 -0.3600  1.6427
 3450TIP3   OH210294   6.661   4.079   0.377  0.3972 -0.1308 -0.0292
 3450TIP3    H110295   6.666   4.168   0.412 -0.5584  0.8025 -2.1024
 3450TIP3    H210296   6.609   4.030   0.441  0.0801  1.0528  0.6385
 3451TIP3   OH210297   2.679   1.464   2.564  0.0240  0.2621  0.0887
 3451TIP3    H110298   2.694   1.553   2.596 -2.0008 -0.0452  2.1360
 3451TIP3    H210299   2.584   1.454   2.563  0.1679 -1.5697 -1.0827
 3452TIP3   OH210300   4.543   2.939   2.682  1.0538 -0.4494 -0.0267
 3452TIP3    H110301   4.524   2.951   2.775  0.2889 -2.5806  0.1519
 3452TIP3    H210302   4.630   2.978   2.670  1.2449 -0.2913  1.6221
 3453TIP3   OH210303   2.689   2.994   0.201  0.6265 -0.0869 -0.1760
 3453TIP3    H110304   2.747   2.941   0.147 -1.9282 -2.1145 -1.1701
 3453TIP3    H210305   2.705   2.964   0.291  0.3023 -1.4924 -0.5701
 3454TIP3   OH210306   6.454   7.790   4.810  0.5491  0.2207 -0.4827
 3454TIP3    H110307   6.405   7.752   4.737  0.9763  2.0349 -1.7636
 3454TIP3    H210308   6.432   7.734   4.885 -2.3030  0.0719 -1.3090
 3455TIP3   OH210309   7.716   6.039   0.773  0.1939 -0.4291  0.3288
 3455TIP3    H110310   7.792   5.985   0.796 -0.6411 -0.9942  1.9318
 3455TIP3    H210311   7.753   6.124   0.748  1.5818 -1.7387 -2.5758
 3456TIP3   OH210312   1.984   4.438   4.951  0.0401 -0.0252 -0.4155
 3456TIP3    H110313   1.977   4.529   4.978 -1.3020 -0.3567  0.4833
 3456TIP3    H210314   1.964   4.438   4.858 -0.1640  0.5766 -0.3699
 3457TIP3   OH210315   0.431   5.758   5.655 -0.1501 -0.5551 -0.0316
 3457TIP3    H110316   0.424   5.801   5.570 -0.1317  0.9709  0.7046
 3457TIP3    H210317   0.440   5.830   5.718 -0.3992 -1.6351  1.2893
 3458TIP3   OH210318   4.521   3.757   1.108  0.3703 -0.2890  0.2895
 3458TIP3    H110319   4.479   3.684   1.154 -0.3095 -0.6846 -0.9059
 3458TIP3    H210320   4.452   3.794   1.053  0.8118  1.0222  0.5688
 3459TIP3   OH210321   7.365   6.851   0.889 -0.7421 -0.1828 -0.3356
 3459TIP3    H110322   7.421   6.922   0.858 -1.2297  0.3408 -0.0420
 3459TIP3    H210323   7.276   6.888   0.885 -0.8420 -0.1508  1.4655
 3460TIP3   OH210324   3.362   7.295   5.189 -0.0090  0.1615  0.0973
 3460TIP3    H110325   3.373   7.289   5.094  0.1445 -0.1158  0.1301
 3460TIP3    H210326   3.340   7.206   5.216 -2.6292  0.7143  0.0192
 3461TIP3   OH210327   7.489   5.027   1.148 -0.2351 -0.4258 -0.0086
 3461TIP3    H110328   7.443   5.089   1.091  0.1295 -0.6435 -0.5503
 3461TIP3    H210329   7.431   4.950   1.152  0.3781 -0.9923 -1.2820
 3462TIP3   OH210330   5.959   7.349   5.043 -0.0153 -0.1011  0.5552
 3462TIP3    H110331   5.989   7.360   5.133  0.9573 -1.2802  0.4111
 3462TIP3    H210332   5.890   7.284   5.048  2.3567 -2.8845  0.1630
 3463TIP3   OH210333   2.124   4.986   0.847 -0.1964  0.2780  0.0745
 3463TIP3    H110334   2.029   4.980   0.836 -0.1578 -0.8185  0.1820
 3463TIP3    H210335   2.142   4.939   0.928  0.3607  1.2592  0.5387
 3464TIP3   OH210336   3.403   2.322   3.827 -0.5390  0.2866  0.1040
 3464TIP3    H110337   3.391   2.227   3.830  0.0108  0.1482 -1.3932
 3464TIP3    H210338   3.400   2.343   3.734 -0.1669  1.6835  0.3959
 3465TIP3   OH210339   3.075   1.282   2.718  0.1915  0.3249 -0.7685
 3465TIP3    H110340   3.086   1.372   2.748  0.3908 -0.3088  1.1683
 3465TIP3    H210341   2.982   1.264   2.733  0.5143 -0.3379  0.4852
 3466TIP3   OH210342   1.695   5.474   1.773 -0.2394  0.6338 -0.1185
 3466TIP3    H110343   1.729   5.502   1.688  1.6067  1.2294  0.7745
 3466TIP3    H210344   1.771   5.472   1.830 -1.5674  1.1123  1.7602
 3467TIP3   OH210345   7.448   3.288   1.975  0.4821  0.0985  0.1529
 3467TIP3    H110346   7.440   3.347   2.051 -0.1133 -0.4369  0.5189
 3467TIP3    H210347   7.357   3.274   1.947  0.5593 -1.2860  0.5668
 3468TIP3   OH210348   1.307   5.799   5.303 -0.0809  0.2579 -0.0394
 3468TIP3    H110349   1.219   5.831   5.322 -0.5776 -1.0472 -0.0540
 3468TIP3    H210350   1.294   5.715   5.258  1.1661 -0.3446  0.6531
 3469TIP3   OH210351   0.443   1.788   2.847  0.0805 -0.3993 -0.0334
 3469TIP3    H110352   0.380   1.716   2.860 -1.2325  0.8178  0.6541
 3469TIP3    H210353   0.522   1.759   2.891 -0.0745 -1.8552 -0.6560
 3470TIP3   OH210354   6.746   6.377   4.685 -0.3128  0.3963  0.1756
 3470TIP3    H110355   6.791   6.408   4.763  0.7885  0.5556 -0.5077
 3470TIP3    H210356   6.693   6.452   4.657 -0.0945  0.6085  0.3229
 3471TIP3   OH210357   5.302   6.492   4.199  0.0643  0.7323 -0.4557
 3471TIP3    H110358   5.386   6.539   4.192  0.8567 -0.4541  0.6696
 3471TIP3    H210359   5.300   6.435   4.123  0.4390  0.5259 -0.3123
 3472TIP3   OH210360   6.777   1.179   0.693 -0.2594 -0.3520  0.1177
 3472TIP3    H110361   6.851   1.162   0.636 -0.8495 -0.4129 -0.6385
 3472TIP3    H210362   6.713   1.224   0.638 -0.1824  1.1137  1.1497
 3473TIP3   OH210363   7.553   5.767   6.165 -1.0702  0.0327  0.1361
 3473TIP3    H110364   7.588   5.766   6.076 -1.9071  2.1001 -0.2865
 3473TIP3    H210365   7.468   5.809   6.156 -0.4004  2.0262  2.1142
 3474TIP3   OH210366   3.532   6.563   3.544  1.1335 -0.1319 -0.3835
 3474TIP3    H110367   3.451   6.609   3.525  0.8437 -0.3070  0.3871
 3474TIP3    H210368   3.587   6.577   3.467  0.1105 -0.6207 -1.2222
 3475TIP3   OH210369   2.573   7.797   2.129 -0.1502 -0.5709 -0.2664
 3475TIP3    H110370   2.633   7.751   2.070  1.9855  1.4918  0.1393
 3475TIP3    H210371   2.586   7.755   2.214  0.0170 -0.7437 -0.3761
 3476TIP3   OH210372  -0.018   3.126   4.782 -0.6091 -0.5243  0.1058
 3476TIP3    H110373  -0.008   3.031   4.778 -0.7236 -0.5420  0.2433
 3476TIP3    H210374   0.030   3.152   4.860 -1.6699 -0.6192  0.8211
 3477TIP3   OH210375   2.313   0.272   1.527  0.2012 -0.0558  0.3675
 3477TIP3    H110376   2.337   0.298   1.616  1.3990 -0.1544  0.0909
 3477TIP3    H210377   2.221   0.246   1.533  0.2276  0.0847  1.5378
 3478TIP3   OH210378   8.056   1.729   1.653  0.0934  1.1050  0.1318
 3478TIP3    H110379   8.005   1.691   1.582 -0.5661 -1.3900  1.8113
 3478TIP3    H210380   7.992   1.774   1.708  0.1507  0.6304  0.5989
 3479TIP3   OH210381   2.579   5.353   1.233 -0.3806 -0.0498 -0.5022
 3479TIP3    H110382   2.549   5.330   1.321  0.7931  1.9428  0.5065
 3479TIP3    H210383   2.600   5.270   1.192  4.1830 -1.0199  3.0221
 3480TIP3   OH210384   1.547   2.785   3.422 -0.9117 -0.0098 -0.0965
 3480TIP3    H110385   1.528   2.699   3.385  1.1225 -0.1243 -1.0075
 3480TIP3    H210386   1.520   2.847   3.354 -1.2685  0.0028  0.0586
 3481TIP3   OH210387   0.962   2.345   2.321  0.0547 -0.0507 -0.1776
 3481TIP3    H110388   1.027   2.380   2.259 -0.2342  1.1871  0.1813
 3481TIP3    H210389   0.889   2.407   2.316 -0.1793 -0.2089  1.0359
 3482TIP3   OH210390   3.873   7.666   4.507 -0.0042 -0.2376  0.3180
 3482TIP3    H110391   3.893   7.682   4.415 -3.3420  0.9543 -0.3338
 3482TIP3    H210392   3.914   7.739   4.554  1.1641 -0.5040 -0.2557
 3483TIP3   OH210393   0.259   4.154   1.191 -0.1250  0.1606 -0.1150
 3483TIP3    H110394   0.225   4.242   1.205 -0.9691  0.0459 -1.2999
 3483TIP3    H210395   0.283   4.123   1.279 -0.6938  1.2085  0.4238
 3484TIP3   OH210396   3.224   6.400   2.339 -0.5203 -0.0378 -0.1419
 3484TIP3    H110397   3.254   6.468   2.279  0.0547 -0.3221 -0.1840
 3484TIP3    H210398   3.286   6.328   2.327 -1.1725 -0.6084 -0.1673
 3485TIP3   OH210399   3.130   7.437   5.565  0.3539 -0.0373 -0.0775
 3485TIP3    H110400   3.120   7.519   5.612 -0.3977 -1.4499  2.3871
 3485TIP3    H210401   3.080   7.373   5.615  0.3902 -1.9182 -2.2378
 3486TIP3   OH210402   6.397   5.258   5.423  0.6000 -0.1420  0.0318
 3486TIP3    H110403   6.337   5.332   5.435 -0.6024 -0.6967 -2.0223
 3486TIP3    H210404   6.472   5.296   5.377  0.4857  0.0132 -0.0303
 3487TIP3   OH210405   2.749   2.169   3.699 -0.7512 -0.7685  0.6087
 3487TIP3    H110406   2.805   2.243   3.723 -1.1576 -0.5274  0.8488
 3487TIP3    H210407   2.807   2.094   3.698 -0.0713 -0.2500 -0.9060
 3488TIP3   OH210408   1.786   7.032   6.235  0.0043 -0.3510 -0.7931
 3488TIP3    H110409   1.744   7.002   6.316  1.9098 -0.4286  0.2387
 3488TIP3    H210410   1.868   6.983   6.232  1.0882  1.4280 -1.4665
 3489TIP3   OH210411   1.239   7.597   5.766 -0.2185 -0.3104  0.2888
 3489TIP3    H110412   1.199   7.631   5.847  2.4982 -0.5116  1.8415
 3489TIP3    H210413   1.283   7.673   5.728 -0.4480 -0.4940 -0.3489
 3490TIP3   OH210414   7.749   5.566   0.366  0.3399  0.2786  0.3633
 3490TIP3    H110415   7.749   5.660   0.352 -1.2738 -0.0700 -2.9368
 3490TIP3    H210416   7.806   5.531   0.297  0.4263 -1.1833  1.1346
 3491TIP3   OH210417   5.919   4.946   3.094 -0.4764  0.0359  0.3071
 3491TIP3    H110418   5.995   4.933   3.152 -0.2762 -1.3618 -0.2338
 3491TIP3    H210419   5.843   4.931   3.150 -0.2881 -0.9523  0.3237
 3492TIP3   OH210420   0.889   6.370   3.979  0.5812 -0.5497  0.7607
 3492TIP3    H110421   0.869   6.401   3.891  1.0464 -0.7708  0.5767
 3492TIP3    H210422   0.815   6.401   4.032  0.3509 -0.3261  0.3182
 3493TIP3   OH210423   1.631   4.396   1.737 -0.0381  0.4270 -0.3808
 3493TIP3    H110424   1.704   4.375   1.679 -1.3057 -0.0679 -1.8652
 3493TIP3    H210425   1.596   4.310   1.763 -0.9524  0.6472 -0.8402
 3494TIP3   OH210426   1.099   6.939   3.238 -0.0956  0.3452 -0.8330
 3494TIP3    H110427   1.179   6.888   3.222 -0.4885 -0.2001 -1.0511
 3494TIP3    H210428   1.095   7.000   3.165  1.6262  2.3236  0.5812
 3495TIP3   OH210429   7.433   5.850   3.494  0.0206 -0.6494  0.3357
 3495TIP3    H110430   7.441   5.838   3.589 -1.2721 -0.8048  0.4336
 3495TIP3    H210431   7.421   5.761   3.460 -0.0922 -0.5365  0.0813
 3496TIP3   OH210432   8.136   1.238   2.711  0.0037  0.1451 -0.0971
 3496TIP3    H110433   8.230   1.220   2.718 -0.0098 -0.0824 -0.4603
 3496TIP3    H210434   8.114   1.216   2.621 -0.6935 -1.2288  0.3833
 3497TIP3   OH210435   5.930   0.249   1.728  0.0137 -0.6128 -0.1097
 3497TIP3    H110436   5.891   0.172   1.768 -0.7293 -0.0069  0.3719
 3497TIP3    H210437   5.987   0.215   1.659 -0.2353 -1.5840  0.1574
 3498TIP3   OH210438   5.226   5.593   1.520  0.0906  0.0469  0.0287
 3498TIP3    H110439   5.147   5.555   1.480 -0.1343  0.4472  0.0766
 3498TIP3    H210440   5.198   5.681   1.547  1.0987  0.9985 -1.8185
 3499TIP3   OH210441   3.111   2.215   0.255 -0.1980 -0.1818 -0.0850
 3499TIP3    H110442   3.179   2.154   0.285  0.6866 -0.3769 -2.3232
 3499TIP3    H210443   3.063   2.238   0.335  1.2269 -1.5974  1.2541
 3500TIP3   OH210444   0.615   6.477   1.767 -0.0382  0.2048  0.3361
 3500TIP3    H110445   0.625   6.563   1.806 -2.9666 -0.1730  2.3028
 3500TIP3    H210446   0.598   6.419   1.842 -1.2210 -1.4604 -1.1390
 3501TIP3   OH210447   6.371   3.033   2.505  0.3824 -0.2009 -0.5860
 3501TIP3    H110448   6.332   2.995   2.584 -2.7598  1.0764 -1.3620
 3501TIP3    H210449   6.382   2.959   2.446  0.8517 -0.8717  0.3182
 3502TIP3   OH210450   7.382   2.511   0.870  0.2612 -0.3195 -0.8856
 3502TIP3    H110451   7.384   2.564   0.950 -0.7039  0.5974 -1.4387
 3502TIP3    H210452   7.427   2.430   0.894 -2.0189 -1.0817  1.3577
 3503TIP3   OH210453   3.115   7.139   2.017 -0.0544  0.1991  0.1979
 3503TIP3    H110454   3.052   7.075   1.985  0.3762  0.2702 -0.8293
 3503TIP3    H210455   3.077   7.172   2.098 -0.1559 -1.5497  0.9062
 3504TIP3   OH210456   4.280   7.142   0.665  0.0573  0.2965  0.4064
 3504TIP3    H110457   4.359   7.092   0.686 -0.3289 -0.4087  0.2231
 3504TIP3    H210458   4.270   7.134   0.570 -0.4955 -0.0313  0.4857
 3505TIP3   OH210459   5.175   7.110   2.703 -0.4127 -0.1067 -0.0347
 3505TIP3    H110460   5.089   7.146   2.683 -0.3142  0.0449 -0.1911
 3505TIP3    H210461   5.161   7.056   2.781 -0.7723 -0.5986 -0.4296
 3506TIP3   OH210462   7.776   2.134   1.791 -0.4385  0.4821 -0.5311
 3506TIP3    H110463   7.749   2.215   1.748  2.2575  2.0975  0.5535
 3506TIP3    H210464   7.871   2.137   1.790 -0.2642 -1.8947  1.0274
 3507TIP3   OH210465   6.883   6.666   4.089 -0.1518 -0.2315 -0.7100
 3507TIP3    H110466   6.885   6.576   4.123 -3.6004 -0.6734 -1.2474
 3507TIP3    H210467   6.897   6.720   4.167  1.7211 -1.1726 -0.3284
 3508TIP3   OH210468   2.441   6.420   1.218 -0.2127  0.2428 -0.2363
 3508TIP3    H110469   2.446   6.332   1.254 -2.0233  0.0273 -0.4579
 3508TIP3    H210470   2.460   6.477   1.293 -1.2972 -0.2752  0.4483
 3509TIP3   OH210471   0.780   6.084   3.750  0.0515  0.2394 -0.5528
 3509TIP3    H110472   0.790   6.136   3.671 -0.6877  1.4616  0.1247
 3509TIP3    H210473   0.851   6.113   3.808  0.7546 -0.8399 -0.8410
 3510TIP3   OH210474   2.861   4.974   3.653  0.4590  0.1479 -0.0360
 3510TIP3    H110475   2.934   4.920   3.683  1.3687  0.6130 -1.3396
 3510TIP3    H210476   2.901   5.039   3.596 -0.7189  1.6894  0.8030
 3511TIP3   OH210477   7.572   6.852   0.014  0.0142 -0.1592  0.3283
 3511TIP3    H110478   7.651   6.836  -0.037  1.6458  0.2141  2.6056
 3511TIP3    H210479   7.543   6.764   0.041  0.1457 -0.2323  0.2319
 3512TIP3   OH210480   8.225   4.841   4.380  0.3080 -0.0898  0.4224
 3512TIP3    H110481   8.135   4.833   4.413  0.0610 -0.3836 -0.3085
 3512TIP3    H210482   8.241   4.935   4.377  0.4479 -0.0493  1.6408
 3513TIP3   OH210483   7.645   6.038   3.564  0.6743  0.1851 -0.2699
 3513TIP3    H110484   7.618   6.078   3.481 -1.6680  1.8751  1.2004
 3513TIP3    H210485   7.573   5.979   3.587  1.3457 -0.3460  0.5415
 3514TIP3   OH210486   7.909   3.639   4.131 -0.8655  0.4997  0.3008
 3514TIP3    H110487   7.993   3.647   4.086 -0.4875 -0.4571  0.8012
 3514TIP3    H210488   7.891   3.727   4.164  0.8769  0.3717  1.7898
 3515TIP3   OH210489   6.369   2.216   5.188  0.4233 -0.1764 -0.0568
 3515TIP3    H110490   6.390   2.305   5.159  0.6663 -0.3931 -0.5558
 3515TIP3    H210491   6.452   2.181   5.219  0.8632 -1.0200 -1.9912
 3516TIP3   OH210492   0.574   1.690   6.689  0.3784 -0.4866  0.1784
 3516TIP3    H110493   0.520   1.666   6.614 -0.0260 -0.2259  0.3774
 3516TIP3    H210494   0.561   1.785   6.699 -0.1541 -0.6316  1.0100
 3517TIP3   OH210495   5.084   4.612   0.756 -0.1481  0.4097 -0.6402
 3517TIP3    H110496   5.013   4.557   0.725 -2.0621  2.0754  0.5268
 3517TIP3    H210497   5.063   4.700   0.724  1.1893  1.0192  0.0387
 3518TIP3   OH210498   5.818   0.768   5.295  0.3302  0.1037 -0.0775
 3518TIP3    H110499   5.748   0.812   5.344  0.7641  2.6865 -1.5898
 3518TIP3    H210500   5.899   0.809   5.328  0.8914 -0.6024 -0.5516
 3519TIP3   OH210501   6.705   7.692   5.735 -0.2441  0.0082 -0.0820
 3519TIP3    H110502   6.789   7.648   5.749 -0.5067 -0.5865 -0.3681
 3519TIP3    H210503   6.716   7.737   5.651 -0.1238  0.1504  0.0083
 3520TIP3   OH210504   5.614   0.519   3.611 -0.3588 -0.3100  0.1806
 3520TIP3    H110505   5.554   0.592   3.599  0.6556  0.3849 -1.0001
 3520TIP3    H210506   5.687   0.539   3.552  1.1863 -0.9329  1.7970
 3521TIP3   OH210507   4.134   7.310   2.704  0.2448  0.0410  0.2813
 3521TIP3    H110508   4.122   7.215   2.709  3.7673 -0.5825 -0.3858
 3521TIP3    H210509   4.211   7.321   2.648  0.0186  3.3072  0.4702
 3522TIP3   OH210510   1.138   1.036   4.093 -0.1885  0.5010 -0.0450
 3522TIP3    H110511   1.047   1.066   4.104 -0.4897 -0.3555 -0.1377
 3522TIP3    H210512   1.156   0.985   4.172  0.5735  1.5133  0.4634
 3523TIP3   OH210513   3.321   6.550   5.505 -0.0399 -0.2078  0.0184
 3523TIP3    H110514   3.406   6.552   5.462 -0.4823 -1.3763 -0.9665
 3523TIP3    H210515   3.266   6.496   5.448 -1.1569 -0.3252  1.1540
 3524TIP3   OH210516   2.486   4.527   6.095  0.0567 -0.2513  0.0948
 3524TIP3    H110517   2.497   4.434   6.077 -0.0890 -0.2360 -0.0740
 3524TIP3    H210518   2.575   4.560   6.109  0.1930 -0.2322 -0.7491
 3525TIP3   OH210519   3.972   5.940   6.630 -0.2699  0.3043 -0.1061
 3525TIP3    H110520   3.962   6.035   6.630  0.1673  0.3971  2.0149
 3525TIP3    H210521   4.062   5.926   6.661 -0.3913 -0.7986 -0.2238
 3526TIP3   OH210522   3.585   0.312   3.036  0.3488 -0.1095  0.1571
 3526TIP3    H110523   3.553   0.268   2.957 -0.9358  0.6918  0.2018
 3526TIP3    H210524   3.648   0.251   3.073  0.1504 -0.9914 -0.8872
 3527TIP3   OH210525   5.446   0.809   2.756  0.2651  0.7133 -0.3045
 3527TIP3    H110526   5.470   0.802   2.664  0.5599  1.4245 -0.2836
 3527TIP3    H210527   5.352   0.789   2.757  0.6204 -1.2295 -0.4900
 3528TIP3   OH210528   1.610   2.895   2.926  0.3978 -0.3676  0.5591
 3528TIP3    H110529   1.529   2.853   2.897  1.3350 -0.5097 -2.1707
 3528TIP3    H210530   1.596   2.988   2.908  1.5496 -0.6206 -2.1227
 3529TIP3   OH210531   1.952   0.170   5.334 -0.4588 -0.1210 -0.5450
 3529TIP3    H110532   1.939   0.119   5.254 -0.2664 -0.0288 -0.6355
 3529TIP3    H210533   1.917   0.115   5.404 -0.1481 -0.4268 -0.6277
 3530TIP3   OH210534   3.552   4.648   4.362  0.4114 -0.0676 -0.4922
 3530TIP3    H110535   3.607   4.716   4.401  0.4362 -1.3666  1.9388
 3530TIP3    H210536   3.613   4.588   4.321  0.6079 -0.0730 -0.1962
 3531TIP3   OH210537   3.033   7.487   1.491 -0.1049 -0.1477  0.0678
 3531TIP3    H110538   2.970   7.419   1.515 -0.8686  0.0229 -1.3417
 3531TIP3    H210539   2.984   7.548   1.436  1.2621 -0.0004 -1.0689
 3532TIP3   OH210540   6.443   5.840   1.984 -0.0306 -0.3805  0.4556
 3532TIP3    H110541   6.441   5.746   2.001  0.2811 -0.6589 -0.9404
 3532TIP3    H210542   6.400   5.850   1.900  1.7253  0.4859 -0.3894
 3533TIP3   OH210543   5.451   6.681   3.167 -0.0607  0.3965 -0.2815
 3533TIP3    H110544   5.452   6.706   3.075  1.8166  3.5285  0.4320
 3533TIP3    H210545   5.534   6.635   3.179 -0.6036 -0.5980 -0.2479
 3534TIP3   OH210546   0.767   3.254   0.218  0.3924  0.1811  0.3583
 3534TIP3    H110547   0.761   3.223   0.127  0.4157 -0.8479  0.7006
 3534TIP3    H210548   0.716   3.191   0.268 -1.3169  1.8296  0.8265
 3535TIP3   OH210549   2.157   1.851   0.965 -0.2317  0.2325  0.3722
 3535TIP3    H110550   2.180   1.944   0.974 -0.0368  0.1270  1.0287
 3535TIP3    H210551   2.223   1.805   1.016 -0.3196 -0.2742  0.0375
 3536TIP3   OH210552   2.912   2.800   0.157 -0.2502 -0.2310 -0.8516
 3536TIP3    H110553   2.892   2.810   0.250 -2.6762  0.5882 -1.3791
 3536TIP3    H210554   2.998   2.758   0.155  1.1701  2.1864  1.7326
 3537TIP3   OH210555   7.980   3.289   3.384 -0.0458  0.4235 -0.2418
 3537TIP3    H110556   8.047   3.305   3.449  1.3979 -1.4172 -1.1750
 3537TIP3    H210557   7.964   3.194   3.388  0.0647  0.2508 -2.4920
 3538TIP3   OH210558   6.393   6.730   3.761  0.0922  0.2483  0.5620
 3538TIP3    H110559   6.482   6.726   3.796 -0.0537  1.3665  1.1326
 3538TIP3    H210560   6.398   6.795   3.691 -0.7366  2.2204  2.2245
 3539TIP3   OH210561   5.586   6.081   1.971 -0.5515 -0.0495 -0.2330
 3539TIP3    H110562   5.572   5.990   1.946  2.8384 -0.5420 -0.7535
 3539TIP3    H210563   5.671   6.081   2.015 -0.6529  2.7996  0.1246
 3540TIP3   OH210564   2.629   5.506   1.008 -0.3701  0.2786 -0.1929
 3540TIP3    H110565   2.632   5.458   1.090 -2.4710  0.3442 -0.0182
 3540TIP3    H210566   2.561   5.462   0.956  0.3716  0.7042 -1.5934
 3541TIP3   OH210567   5.780   0.303   4.348  0.3860  0.1131  0.0263
 3541TIP3    H110568   5.871   0.275   4.333  0.4888  0.2261  0.4385
 3541TIP3    H210569   5.782   0.398   4.337  0.5196  0.2325  1.0215
 3542TIP3   OH210570   7.696   2.206   2.332  0.7269 -0.1896  0.6917
 3542TIP3    H110571   7.673   2.129   2.385 -1.1871  0.5062  0.9531
 3542TIP3    H210572   7.675   2.180   2.242  0.7687 -0.2332  0.6949
 3543TIP3   OH210573   3.550   0.654   1.983 -0.2271  0.0390  0.6488
 3543TIP3    H110574   3.566   0.700   2.065 -1.8253 -1.1572  1.7035
 3543TIP3    H210575   3.471   0.602   2.000  0.8082 -2.1749 -0.8328
 3544TIP3   OH210576   5.675   4.591   4.140  0.3744  0.0733 -0.5052
 3544TIP3    H110577   5.667   4.513   4.086  1.4381 -0.5593  0.2081
 3544TIP3    H210578   5.605   4.649   4.110 -1.3222 -1.6854 -0.1440
 3545TIP3   OH210579   0.687   3.887   6.623 -0.1034 -0.1227  0.0731
 3545TIP3    H110580   0.629   3.832   6.569 -0.3644 -0.3774  0.6101
 3545TIP3    H210581   0.762   3.832   6.641  0.6722  0.4564 -1.2462
 3546TIP3   OH210582   3.135   5.053   1.007 -0.0024  0.2468 -0.0525
 3546TIP3    H110583   3.069   5.118   1.032 -0.8183  0.8227 -3.1758
 3546TIP3    H210584   3.205   5.063   1.071 -1.4165  2.1252  1.3099
 3547TIP3   OH210585   6.432   5.602   3.790 -0.7329  0.1465 -0.3478
 3547TIP3    H110586   6.436   5.614   3.885 -0.2581  2.5741 -0.6124
 3547TIP3    H210587   6.518   5.629   3.758 -0.3068 -2.2117 -1.3781
 3548TIP3   OH210588   0.293   2.099   3.972 -0.8173  0.5854 -0.3590
 3548TIP3    H110589   0.291   2.003   3.974  0.1082  0.5240 -1.5608
 3548TIP3    H210590   0.383   2.122   3.994 -0.5619  1.0870 -1.7894
 3549TIP3   OH210591   6.448   7.219   2.528  0.4676  0.0138  0.0815
 3549TIP3    H110592   6.508   7.278   2.574 -1.0657  1.6347  0.1100
 3549TIP3    H210593   6.390   7.277   2.478 -0.0952 -1.5616 -1.1802
 3550TIP3   OH210594   1.021   0.490   1.129  0.0913 -0.3152  0.2495
 3550TIP3    H110595   1.116   0.479   1.133  0.2225  0.8516  1.6497
 3550TIP3    H210596   1.009   0.584   1.113 -0.8483 -0.6370 -1.0707
 3551TIP3   OH210597   6.522   0.426   5.846 -0.4318  0.5268  0.0803
 3551TIP3    H110598   6.451   0.398   5.904  0.4918  0.5452  1.2786
 3551TIP3    H210599   6.516   0.522   5.846 -1.7682  0.4958 -1.6510
 3552TIP3   OH210600   4.230   0.379   2.066 -0.4512 -0.5875 -0.4569
 3552TIP3    H110601   4.176   0.300   2.061 -1.8054  0.2773  0.0357
 3552TIP3    H210602   4.300   0.357   2.127 -0.7466 -1.4393 -0.4192
 3553TIP3   OH210603   7.400   6.397   0.359  0.3776 -0.2691 -0.4875
 3553TIP3    H110604   7.403   6.313   0.403  0.3633 -0.2110 -0.3763
 3553TIP3    H210605   7.377   6.460   0.427 -0.0273 -0.2319 -0.6577
 3554TIP3   OH210606   4.996   5.962   3.631  0.0780  0.0507  0.4362
 3554TIP3    H110607   5.054   5.892   3.662 -0.3981 -1.0625 -1.0672
 3554TIP3    H210608   4.926   5.916   3.585  1.2598  1.5047 -3.1949
 3555TIP3   OH210609   1.567   0.235   0.270 -1.0731  0.6090 -0.1943
 3555TIP3    H110610   1.528   0.170   0.328 -2.2231  1.1222 -0.3716
 3555TIP3    H210611   1.500   0.302   0.260 -0.6518  0.8412 -1.6237
 3556TIP3   OH210612   7.482   2.191   3.091 -0.6352  0.1320 -0.3267
 3556TIP3    H110613   7.526   2.108   3.071 -0.9024 -0.0103 -0.3293
 3556TIP3    H210614   7.396   2.165   3.123 -0.7696  0.4144 -0.4575
 3557TIP3   OH210615   3.206   5.073   0.506  0.5282  0.0438  0.0350
 3557TIP3    H110616   3.259   5.003   0.468 -0.0070 -0.2646 -0.1591
 3557TIP3    H210617   3.195   5.136   0.434  0.2912 -0.0923 -0.0504
 3558TIP3   OH210618   1.706   7.262   6.062  0.2959 -0.5729  0.4361
 3558TIP3    H110619   1.781   7.258   6.004 -1.3996 -2.6524 -1.8553
 3558TIP3    H210620   1.712   7.182   6.115  0.1290 -0.3348  0.8199
 3559TIP3   OH210621   6.262   6.091   6.391 -0.3606 -0.2915  0.3377
 3559TIP3    H110622   6.171   6.118   6.403 -1.0270 -2.5708  0.9191
 3559TIP3    H210623   6.263   6.050   6.305 -0.2762 -1.6043  0.9400
 3560TIP3   OH210624   6.654   7.327   5.200  0.3476 -0.4513 -0.0981
 3560TIP3    H110625   6.693   7.343   5.286  1.6693 -0.0587 -0.7507
 3560TIP3    H210626   6.626   7.236   5.203  2.1088 -1.0277  0.1269
 3561TIP3   OH210627   7.559   2.248   4.262 -0.6022  0.3912  0.7411
 3561TIP3    H110628   7.471   2.273   4.237 -0.3275  0.4373 -0.2139
 3561TIP3    H210629   7.616   2.314   4.220 -0.0742 -0.0826  0.6989
 3562TIP3   OH210630   8.115   2.476   6.138  0.2010 -0.8118  0.7155
 3562TIP3    H110631   8.087   2.553   6.089  2.7337 -0.2675 -0.0204
 3562TIP3    H210632   8.102   2.500   6.230 -2.3255 -0.9204  0.4493
 3563TIP3   OH210633   0.488   6.322   1.970  0.3401 -0.7917  0.0387
 3563TIP3    H110634   0.552   6.302   2.038 -0.9578 -0.1450  1.5034
 3563TIP3    H210635   0.468   6.237   1.930  1.7140 -1.0658 -0.1304
 3564TIP3   OH210636   5.099   4.273   1.116  0.3647  0.1801 -0.3024
 3564TIP3    H110637   5.134   4.186   1.096  0.5901 -0.2148  1.5902
 3564TIP3    H210638   5.007   4.268   1.091  0.0887 -1.0230  0.8637
 3565TIP3   OH210639   2.483   5.584   3.867 -0.2270  0.0424 -0.4537
 3565TIP3    H110640   2.508   5.539   3.786 -0.1990  0.1640 -0.5125
 3565TIP3    H210641   2.478   5.514   3.932 -0.2741 -0.0599 -0.5652
 3566TIP3   OH210642   6.798   4.512   5.678  0.2214  0.1979  0.4919
 3566TIP3    H110643   6.836   4.442   5.625 -0.5464 -0.0370  0.2302
 3566TIP3    H210644   6.720   4.539   5.629  0.0131  0.6211  1.0444
 3567TIP3   OH210645   7.024   7.384   5.994  0.3513  0.0665 -0.1351
 3567TIP3    H110646   6.944   7.333   5.979 -0.9252  2.1557 -0.9363
 3567TIP3    H210647   7.091   7.339   5.944 -0.7480 -0.7594 -0.9239
 3568TIP3   OH210648   0.766   2.877   2.360  0.1423 -0.3461 -0.0503
 3568TIP3    H110649   0.733   2.875   2.450 -1.0077  0.1763 -0.4491
 3568TIP3    H210650   0.720   2.807   2.315 -0.4008  0.3525 -0.6010
 3569TIP3   OH210651   3.647   6.599   4.016  0.0332  0.1402  0.0143
 3569TIP3    H110652   3.631   6.544   3.940 -2.7870 -0.0571  0.6171
 3569TIP3    H210653   3.608   6.684   3.993 -0.6008  0.1608  1.0862
 3570TIP3   OH210654   6.867   3.503   4.185  0.5806  0.2450 -0.1428
 3570TIP3    H110655   6.792   3.476   4.239  1.2181  0.3539  0.8171
 3570TIP3    H210656   6.853   3.459   4.101 -1.9668  2.3113 -0.9559
 3571TIP3   OH210657   7.818   0.269   4.118 -0.1404 -0.0011 -0.1687
 3571TIP3    H110658   7.855   0.351   4.149 -1.7327  0.7982 -0.2809
 3571TIP3    H210659   7.827   0.210   4.193  2.0749 -0.1340 -0.4699
 3572TIP3   OH210660   1.838   6.692   0.252  0.5233 -0.9088  0.4592
 3572TIP3    H110661   1.796   6.617   0.295  0.2466 -1.2229 -0.3415
 3572TIP3    H210662   1.767   6.757   0.244  0.7691 -0.5412  1.1768
 3573TIP3   OH210663   1.389   6.439   6.101 -0.4702 -0.3964  0.3898
 3573TIP3    H110664   1.439   6.506   6.054 -1.4830  1.1185  1.3998
 3573TIP3    H210665   1.455   6.392   6.153 -0.0659  1.8321  2.0215
 3574TIP3   OH210666   2.637   4.351   3.688  0.1320 -0.4898 -0.7338
 3574TIP3    H110667   2.687   4.421   3.645 -0.0905 -0.4434 -0.9185
 3574TIP3    H210668   2.613   4.292   3.617  0.6132 -0.9418 -0.5272
 3575TIP3   OH210669   3.658   0.956   6.254 -0.1159 -0.0567 -0.2425
 3575TIP3    H110670   3.694   0.927   6.170 -0.3019 -0.0880 -0.3120
 3575TIP3    H210671   3.648   0.876   6.305 -0.6367 -0.1238 -0.4376
 3576TIP3   OH210672   3.949   7.391   4.514 -0.4960 -0.4759 -0.2157
 3576TIP3    H110673   3.915   7.480   4.500 -1.2957 -0.7555 -0.0958
 3576TIP3    H210674   3.873   7.341   4.544  0.2376 -0.8974  0.9855
 3577TIP3   OH210675   6.807   3.623   6.137 -0.7740  0.1468  0.2143
 3577TIP3    H110676   6.876   3.561   6.112 -0.4940  1.3775 -2.4155
 3577TIP3    H210677   6.840   3.666   6.215 -0.1113 -1.6223  0.9656
 3578TIP3   OH210678   3.218   7.746   2.790  0.0814 -0.0235 -0.1644
 3578TIP3    H110679   3.237   7.840   2.791  1.7895 -0.2902 -1.5043
 3578TIP3    H210680   3.206   7.725   2.697 -0.5162 -1.0981  0.1335
 3579TIP3   OH210681   5.866   6.812   3.004  0.3681 -0.1473 -0.3786
 3579TIP3    H110682   5.808   6.884   3.029 -0.8533 -0.8479 -1.0526
 3579TIP3    H210683   5.814   6.760   2.942  2.3374  0.1550 -2.4384
 3580TIP3   OH210684   0.909   5.809   6.735 -0.5499 -0.4130 -1.0047
 3580TIP3    H110685   0.932   5.800   6.642 -0.7784 -0.9578 -1.0151
 3580TIP3    H210686   0.873   5.723   6.759 -0.5339 -0.2615 -0.4230
 3581TIP3   OH210687   7.174   1.971   5.088  0.9735 -0.3329 -0.0216
 3581TIP3    H110688   7.261   1.959   5.126  1.4957  0.3361 -0.9624
 3581TIP3    H210689   7.180   2.053   5.040 -0.7264  0.6652  1.3606
 3582TIP3   OH210690   0.164   3.889   2.270  0.0519  0.1601 -0.4415
 3582TIP3    H110691   0.088   3.940   2.301  0.0726  0.8347 -1.4744
 3582TIP3    H210692   0.223   3.887   2.346 -0.9172 -0.2463  0.3339
 3583TIP3   OH210693   7.092   0.075   2.620 -0.2891  0.0669 -0.2672
 3583TIP3    H110694   7.143   0.141   2.667 -0.6897  0.5523 -0.5051
 3583TIP3    H210695   7.054   0.123   2.547  0.7900 -0.7893 -1.4375
 3584TIP3   OH210696   4.151   6.623   3.761 -0.1846  0.1779  0.4119
 3584TIP3    H110697   4.131   6.717   3.756  0.4321  0.2616 -0.6912
 3584TIP3    H210698   4.101   6.584   3.689 -1.5516 -0.5772  1.6953
 3585TIP3   OH210699   6.139   1.884   4.623 -0.1259 -0.9442 -0.5491
 3585TIP3    H110700   6.102   1.913   4.539  1.3531 -0.5997 -1.1243
 3585TIP3    H210701   6.226   1.925   4.625  0.5309 -2.3257  0.3774
 3586TIP3   OH210702   3.042   4.756   3.259  0.1749 -0.6183  0.1462
 3586TIP3    H110703   2.951   4.727   3.267  0.0864 -0.6879 -0.9377
 3586TIP3    H210704   3.093   4.675   3.259  0.0284 -0.7564 -1.5867
 3587TIP3   OH210705   1.809   5.288   4.275  0.4089 -0.2529  0.0046
 3587TIP3    H110706   1.874   5.357   4.258 -1.1982  0.8603 -2.1193
 3587TIP3    H210707   1.837   5.215   4.221 -0.7466  0.7175 -2.0247
 3588TIP3   OH210708   2.710   4.583   6.646 -0.6492 -0.0251 -0.1284
 3588TIP3    H110709   2.800   4.611   6.663 -0.4336 -1.4913  1.4111
 3588TIP3    H210710   2.667   4.661   6.611  0.8717  1.1010  0.3983
 3589TIP3   OH210711   5.610   7.298   3.420  0.0576  0.1199  0.2771
 3589TIP3    H110712   5.662   7.367   3.460 -1.6269  1.4680  0.2312
 3589TIP3    H210713   5.603   7.231   3.488  0.4298  0.6724  0.8728
 3590TIP3   OH210714   1.432   5.349   2.799  0.1107 -0.0242 -0.6121
 3590TIP3    H110715   1.430   5.320   2.890  0.1910  0.9668 -0.2864
 3590TIP3    H210716   1.389   5.435   2.800  1.6095  0.7741 -1.2101
 3591TIP3   OH210717   6.572   6.300   3.712  0.1805  0.2673  0.2914
 3591TIP3    H110718   6.660   6.337   3.720  0.2459  0.0350  0.6594
 3591TIP3    H210719   6.572   6.225   3.772  0.6382 -1.4336 -1.7000
 3592TIP3   OH210720   1.918   4.168   4.731 -0.2829  0.0510  0.0777
 3592TIP3    H110721   1.847   4.112   4.701  0.2159 -1.8478  2.1336
 3592TIP3    H210722   1.996   4.112   4.727  0.1973  0.4393  2.4166
 3593TIP3   OH210723   7.042   3.740   3.721  0.0288  0.0653 -0.5725
 3593TIP3    H110724   6.983   3.666   3.734 -0.4693  0.5669  0.1060
 3593TIP3    H210725   6.996   3.814   3.760  1.0062  0.5124 -0.2439
 3594TIP3   OH210726   5.937   6.977   5.314 -0.5104 -0.6142  0.5342
 3594TIP3    H110727   6.011   6.998   5.258  0.9423  1.5292  2.9907
 3594TIP3    H210728   5.976   6.936   5.391 -2.3065 -2.5708  0.4974
 3595TIP3   OH210729   5.792   0.507   1.823  0.2129  0.0495  0.1408
 3595TIP3    H110730   5.829   0.431   1.868  2.3335  0.5379 -0.7109
 3595TIP3    H210731   5.759   0.472   1.740  1.9785  0.1523 -0.6414
 3596TIP3   OH210732   0.084   6.606   0.332 -0.2660 -0.5484  0.7203
 3596TIP3    H110733   0.124   6.661   0.265 -0.0625 -1.2228  0.2770
 3596TIP3    H210734   0.121   6.519   0.317 -1.8234 -1.1787  0.3355
 3597TIP3   OH210735   6.483   4.673   0.573  0.0627  0.1088 -0.5365
 3597TIP3    H110736   6.397   4.633   0.585 -0.2763  0.8527 -0.4256
 3597TIP3    H210737   6.530   4.653   0.654 -0.1662  0.0869 -0.4076
 3598TIP3   OH210738   5.634   5.002   5.224  0.1641 -0.1501  0.0524
 3598TIP3    H110739   5.554   4.950   5.217 -0.7111  1.1582 -0.0067
 3598TIP3    H210740   5.652   5.030   5.134  0.4011 -0.0280  0.1358
 3599TIP3   OH210741   3.108   0.329   1.778  0.3426 -0.8512 -0.0107
 3599TIP3    H110742   3.101   0.310   1.684  0.6830 -0.2859 -0.1584
 3599TIP3    H210743   3.100   0.244   1.821 -2.1798 -0.9191 -0.4129
 3600TIP3   OH210744   2.187   4.711   0.069  0.1772 -0.4152 -0.1934
 3600TIP3    H110745   2.202   4.799   0.037  1.4605 -0.9595 -1.1590
 3600TIP3    H210746   2.097   4.692   0.045 -0.2522  0.7633  0.3974
 3601TIP3   OH210747   3.034   3.719   6.340  0.1743  0.1301  0.4959
 3601TIP3    H110748   2.950   3.726   6.385 -0.0541 -1.2888  0.3117
 3601TIP3    H210749   3.064   3.630   6.358  1.8894  0.7665  0.9903
 3602TIP3   OH210750   5.446   7.099   5.278 -0.1291 -0.0054  0.4278
 3602TIP3    H110751   5.438   7.004   5.276 -1.2895  0.0713 -1.0773
 3602TIP3    H210752   5.532   7.117   5.239  0.6687 -0.4488  1.9340
 3603TIP3   OH210753   5.155   2.157   5.025 -0.2729  0.4306 -0.0131
 3603TIP3    H110754   5.196   2.076   5.056 -1.3261  0.4854  1.6568
 3603TIP3    H210755   5.223   2.223   5.031 -0.1685  0.2323  1.3724
 3604TIP3   OH210756   1.381   5.319   6.662 -0.5178  0.2878  0.5951
 3604TIP3    H110757   1.420   5.403   6.689  2.2615 -1.4643  2.5807
 3604TIP3    H210758   1.417   5.302   6.575 -0.6249  0.8561  0.4353
 3605TIP3   OH210759   5.302   6.114   4.650 -0.6121 -0.3416  0.2993
 3605TIP3    H110760   5.248   6.048   4.608 -2.2169  1.3575 -0.4328
 3605TIP3    H210761   5.367   6.138   4.584 -2.2063  1.2526 -0.7807
 3606TIP3   OH210762   6.140   4.667   5.250  0.5880  0.0139  0.4858
 3606TIP3    H110763   6.058   4.690   5.292 -0.7274 -3.3910  0.0750
 3606TIP3    H210764   6.176   4.751   5.220 -2.1962  1.7183  1.5508
 3607TIP3   OH210765   2.541   2.229   2.586 -0.5474  0.6258  0.4148
 3607TIP3    H110766   2.461   2.270   2.619 -1.3758 -1.6868  1.4812
 3607TIP3    H210767   2.525   2.219   2.492 -0.5986  2.0363  0.2443
 3608TIP3   OH210768   5.076   4.570   6.342  0.3552 -0.2105  0.3265
 3608TIP3    H110769   5.166   4.560   6.371  0.6091 -2.4649 -1.0419
 3608TIP3    H210770   5.026   4.511   6.398 -0.3932  1.3891  1.4079
 3609TIP3   OH210771   6.995   6.972   0.110 -0.1087 -0.0400 -0.3155
 3609TIP3    H110772   6.938   6.898   0.087  0.9937 -0.6469 -1.1969
 3609TIP3    H210773   6.962   7.044   0.057  0.2228 -0.5208 -1.2123
 3610TIP3   OH210774   7.559   1.707   3.053  0.1986  0.2074 -0.0952
 3610TIP3    H110775   7.586   1.687   2.963 -0.1550  0.0294 -0.1631
 3610TIP3    H210776   7.590   1.796   3.069 -1.0741  0.8196 -0.9197
 3611TIP3   OH210777   1.655   3.499   5.982  0.8285  0.7583  0.3362
 3611TIP3    H110778   1.722   3.435   5.961 -0.8300 -1.6609  1.8884
 3611TIP3    H210779   1.621   3.528   5.897  0.4959 -1.7413 -0.4599
 3612TIP3   OH210780   4.704   1.910   4.800 -0.0903  0.2986 -0.2422
 3612TIP3    H110781   4.769   1.933   4.866 -1.9630  1.0398  1.4495
 3612TIP3    H210782   4.638   1.978   4.807  0.7252  1.8291 -4.6406
 3613TIP3   OH210783   3.742   5.182   3.636  0.2370 -0.2410  0.2665
 3613TIP3    H110784   3.783   5.208   3.554  0.7488 -0.3907  0.4689
 3613TIP3    H210785   3.709   5.093   3.619  0.5134 -0.3481  0.2797
 3614TIP3   OH210786   3.328   6.178   3.094  0.0673 -0.1936  0.1485
 3614TIP3    H110787   3.373   6.235   3.032  1.2838 -0.3225  0.8813
 3614TIP3    H210788   3.365   6.202   3.179 -0.7990 -0.7597  0.6959
 3615TIP3   OH210789   4.857   1.901   0.912  0.2957 -0.2366  0.0199
 3615TIP3    H110790   4.824   1.903   0.823 -1.0086  0.8002  0.4916
 3615TIP3    H210791   4.795   1.845   0.959  0.0932  0.4625  0.5958
 3616TIP3   OH210792   0.987   2.595   4.714  0.4191 -0.1797 -0.7234
 3616TIP3    H110793   0.932   2.673   4.708  0.1958 -0.2414  0.3063
 3616TIP3    H210794   0.941   2.538   4.776  0.6496 -1.0758 -1.3568
 3617TIP3   OH210795   0.604   3.801   1.944  0.7139 -0.4575 -0.1689
 3617TIP3    H110796   0.516   3.765   1.956 -0.8065  2.4186 -1.7894
 3617TIP3    H210797   0.621   3.852   2.024 -0.0395  0.7330 -0.7514
 3618TIP3   OH210798   2.561   3.169   5.791 -0.0767  0.8227  0.1766
 3618TIP3    H110799   2.473   3.177   5.829 -0.2102 -0.1413  0.1097
 3618TIP3    H210800   2.564   3.078   5.759  0.4928  1.2119 -0.9346
 3619TIP3   OH210801   8.190   0.874   6.497  0.4929 -0.0767 -0.1604
 3619TIP3    H110802   8.228   0.885   6.584 -0.5537  1.2187  0.1542
 3619TIP3    H210803   8.100   0.845   6.513  0.8339 -1.6491 -0.8647
 3620TIP3   OH210804   6.710   5.395   5.892 -0.1813 -0.0629 -0.2031
 3620TIP3    H110805   6.711   5.349   5.808  2.0097 -0.9240  0.2236
 3620TIP3    H210806   6.739   5.484   5.872 -1.2659  0.2211 -0.5663
 3621TIP3   OH210807   3.293   6.474   4.241  0.0948  0.3905  0.3795
 3621TIP3    H110808   3.318   6.552   4.191  3.3167  0.3306  1.5923
 3621TIP3    H210809   3.345   6.403   4.203 -1.9836 -1.0056 -0.0165
 3622TIP3   OH210810   6.273   2.869   6.274 -0.1155 -0.1445 -0.3455
 3622TIP3    H110811   6.257   2.929   6.201  0.6258  0.7232  0.1885
 3622TIP3    H210812   6.323   2.921   6.337 -2.6703 -0.0896  1.8399
 3623TIP3   OH210813   1.992   3.500   1.006  0.1204 -0.0964  0.1553
 3623TIP3    H110814   2.036   3.446   1.071  0.3416  0.1588  0.2166
 3623TIP3    H210815   1.948   3.438   0.949 -0.8348 -0.3042  1.0868
 3624TIP3   OH210816   4.521   2.761   5.390  0.3820  0.0031  0.2427
 3624TIP3    H110817   4.590   2.706   5.354  0.3144 -0.0903  0.2554
 3624TIP3    H210818   4.514   2.733   5.482 -0.7085 -1.0328 -0.1408
 3625TIP3   OH210819   2.800   5.470   4.264 -0.1459  0.1613 -0.6026
 3625TIP3    H110820   2.853   5.547   4.285 -0.2252  0.2305 -0.6548
 3625TIP3    H210821   2.845   5.430   4.190 -1.1544  1.2419 -1.8534
 3626TIP3   OH210822   7.333   6.981   4.449 -0.3787  0.1615  0.2579
 3626TIP3    H110823   7.353   6.935   4.367  0.3040  0.0885  0.4600
 3626TIP3    H210824   7.383   7.062   4.444  0.8054 -0.4661  1.2021
 3627TIP3   OH210825   2.794   2.807   1.480 -0.1038  0.2097  0.3958
 3627TIP3    H110826   2.851   2.854   1.418  1.5939 -0.3100  1.4888
 3627TIP3    H210827   2.855   2.757   1.535 -1.5332  0.7457  2.5758
 3628TIP3   OH210828   3.794   2.909   1.165  0.1041  0.0238 -0.1296
 3628TIP3    H110829   3.813   3.000   1.190  1.7165 -0.1355 -0.6617
 3628TIP3    H210830   3.698   2.902   1.170 -0.1438  2.0524 -1.0981
 3629TIP3   OH210831   1.989   7.655   2.173 -0.0001 -0.0700 -0.2104
 3629TIP3    H110832   2.073   7.629   2.210 -0.3517 -2.6529 -1.0416
 3629TIP3    H210833   1.990   7.750   2.176  1.9602 -0.0644  1.9448
 3630TIP3   OH210834   1.195   5.897   5.860  0.0668  0.1248  0.1022
 3630TIP3    H110835   1.258   5.878   5.790  0.5849 -1.0651  0.8764
 3630TIP3    H210836   1.170   5.812   5.894 -1.4704  0.6142  0.2679
 3631TIP3   OH210837   7.053   5.991   3.408  0.2666 -0.1958 -0.6504
 3631TIP3    H110838   7.111   5.963   3.338  0.1091 -0.1868 -0.7866
 3631TIP3    H210839   7.025   5.910   3.450  1.4107 -0.1341  0.2624
 3632TIP3   OH210840   5.586   6.050   1.665  0.1526 -0.1688  0.1325
 3632TIP3    H110841   5.633   5.970   1.689 -0.2766 -0.2427  0.7534
 3632TIP3    H210842   5.619   6.117   1.724  0.0223 -0.0455  0.0680
 3633TIP3   OH210843   4.652   3.223   3.199 -0.2646  0.3660  0.5424
 3633TIP3    H110844   4.664   3.290   3.266  2.9513 -1.7422  2.3426
 3633TIP3    H210845   4.596   3.158   3.241  1.7665 -0.9642  1.3602
 3634TIP3   OH210846   5.052   7.679   2.018  0.3194 -0.5848  0.2074
 3634TIP3    H110847   4.979   7.727   1.980  1.7087  1.2628 -0.3102
 3634TIP3    H210848   5.013   7.602   2.058 -1.7041 -0.4502 -1.3779
 3635TIP3   OH210849   7.144   7.256   6.336 -0.3356 -0.4583  0.9258
 3635TIP3    H110850   7.143   7.329   6.275  1.2814 -0.0735  1.3132
 3635TIP3    H210851   7.237   7.233   6.345 -0.7173 -1.8719  1.6277
 3636TIP3   OH210852   2.283   1.612   5.069 -0.2610 -0.0026  0.1336
 3636TIP3    H110853   2.306   1.524   5.099 -1.0179  0.2609  1.5809
 3636TIP3    H210854   2.204   1.599   5.016 -0.4291 -0.1880  0.4254
 3637TIP3   OH210855   2.714   6.612   0.076 -0.1573  0.8505 -0.7027
 3637TIP3    H110856   2.768   6.569   0.010  1.0743  1.4451 -0.1042
 3637TIP3    H210857   2.641   6.551   0.090  0.9786 -0.5720 -0.6384
 3638TIP3   OH210858   0.663   6.448   5.101 -0.3043 -0.3143 -0.0729
 3638TIP3    H110859   0.586   6.403   5.136 -0.9024 -0.3862 -1.3997
 3638TIP3    H210860   0.732   6.432   5.165 -1.0424 -1.4142  0.4736
 3639TIP3   OH210861   3.467   5.684   0.723  0.6139 -0.1847 -0.0115
 3639TIP3    H110862   3.547   5.650   0.764  1.5808  0.5027 -1.2678
 3639TIP3    H210863   3.495   5.763   0.678 -0.8847  0.3183 -0.0991
 3640TIP3   OH210864   8.113   4.219   4.892  0.0578 -0.5142  0.7644
 3640TIP3    H110865   8.201   4.257   4.886 -0.0414 -0.4352 -0.3816
 3640TIP3    H210866   8.120   4.135   4.848 -0.6154 -0.1694 -0.0341
 3641TIP3   OH210867   4.804   5.778   3.917  0.2428 -0.0587 -0.1611
 3641TIP3    H110868   4.853   5.772   3.999  0.8983  0.7517 -0.4799
 3641TIP3    H210869   4.790   5.872   3.905 -1.6967 -0.2658  0.0952
 3642TIP3   OH210870   3.083   6.458   3.969  0.1322 -0.2478 -0.0092
 3642TIP3    H110871   3.032   6.535   3.993 -1.2819 -0.9972 -0.5211
 3642TIP3    H210872   3.030   6.384   3.996  1.5066 -1.0631  0.5319
 3643TIP3   OH210873   5.968   3.615   0.326 -0.4577 -0.2190  0.4847
 3643TIP3    H110874   6.014   3.604   0.409  2.0793 -1.7119 -1.0137
 3643TIP3    H210875   5.961   3.527   0.290  1.6531  0.6565 -2.4208
 3644TIP3   OH210876   1.595   0.189   6.531  0.2368  0.4730 -0.5127
 3644TIP3    H110877   1.504   0.195   6.561 -0.0250  0.4599 -1.2963
 3644TIP3    H210878   1.609   0.095   6.517  0.3691  0.4778 -0.4200
 3645TIP3   OH210879   5.156   6.012   3.128 -0.0623 -0.0575  0.5550
 3645TIP3    H110880   5.067   6.004   3.162  0.1631 -1.2577  0.9272
 3645TIP3    H210881   5.195   5.926   3.145  0.6326 -0.1011 -1.1205
 3646TIP3   OH210882   2.372   0.513   6.528 -0.5485 -0.2208 -0.7940
 3646TIP3    H110883   2.405   0.600   6.548  0.9891 -0.2848 -2.7436
 3646TIP3    H210884   2.287   0.528   6.488  0.5108  0.5799 -2.8555
 3647TIP3   OH210885   6.594   4.899   1.146  0.1568  0.0925 -0.6708
 3647TIP3    H110886   6.635   4.820   1.110  1.1504  0.6246 -0.7426
 3647TIP3    H210887   6.560   4.871   1.232  4.5126  0.5683  1.4807
 3648TIP3   OH210888   3.673   6.788   5.678  0.1526  0.8514  0.0106
 3648TIP3    H110889   3.677   6.849   5.604 -1.0267  2.0401  0.8689
 3648TIP3    H210890   3.759   6.746   5.679  0.8039  2.0885 -0.9683
 3649TIP3   OH210891   8.132   3.330   5.295  0.7516 -0.0702  0.3128
 3649TIP3    H110892   8.212   3.372   5.325  0.7212  0.6024 -0.5102
 3649TIP3    H210893   8.091   3.295   5.374  2.6159 -1.7977  0.6060
 3650TIP3   OH210894   2.460   2.441   2.869 -0.3179  0.3015 -0.3899
 3650TIP3    H110895   2.367   2.432   2.885 -0.1668  0.4611  0.6522
 3650TIP3    H210896   2.472   2.533   2.847 -0.2955  0.4855  0.3600
 3651TIP3   OH210897   3.869   7.241   0.897  0.0766 -0.3201 -0.2020
 3651TIP3    H110898   3.880   7.146   0.885 -0.0056 -0.3965  0.2877
 3651TIP3    H210899   3.901   7.279   0.816  0.2157 -0.7635 -0.3613
 3652TIP3   OH210900   4.037   5.998   3.036  0.1845  0.3826  0.1391
 3652TIP3    H110901   4.120   6.035   3.007 -0.6507  1.9802 -0.2671
 3652TIP3    H210902   3.985   5.987   2.956  0.7022 -2.6478  0.0701
 3653TIP3   OH210903   6.024   4.851   2.609  0.1810 -0.1635  0.0611
 3653TIP3    H110904   6.075   4.929   2.586 -2.0275  1.1660 -0.5796
 3653TIP3    H210905   6.000   4.864   2.701 -0.2994 -0.0210 -0.0838
 3654TIP3   OH210906   5.949   6.503   5.154 -0.0494 -0.7291  0.0865
 3654TIP3    H110907   6.009   6.547   5.214 -1.3329  0.4078  0.5971
 3654TIP3    H210908   5.870   6.487   5.207  0.0354 -2.8601 -0.3506
 3655TIP3   OH210909   1.390   0.247   1.013 -0.1649  0.2963  0.4599
 3655TIP3    H110910   1.307   0.205   1.034 -0.1097 -0.7937 -1.3204
 3655TIP3    H210911   1.445   0.176   0.979  1.1293  1.1943  0.6146
 3656TIP3   OH210912   5.308   2.444   0.933  0.4723 -0.6501  0.3568
 3656TIP3    H110913   5.400   2.464   0.948  1.0969 -2.0520 -1.2759
 3656TIP3    H210914   5.274   2.422   1.020  1.6863 -0.2028  0.9720
 3657TIP3   OH210915   2.901   3.415   3.813  0.6027 -1.1134 -0.9487
 3657TIP3    H110916   2.942   3.335   3.780  1.0757 -1.6021  0.6940
 3657TIP3    H210917   2.883   3.395   3.905  2.4553  1.2807  0.0341
 3658TIP3   OH210918   6.644   2.408   3.776  0.0772  0.4944 -0.2720
 3658TIP3    H110919   6.702   2.353   3.724 -1.9133 -1.1304 -0.8943
 3658TIP3    H210920   6.576   2.436   3.715 -0.7349  0.9650  0.8083
 3659TIP3   OH210921   0.570   5.407   1.190 -0.0688  0.0414 -0.1252
 3659TIP3    H110922   0.486   5.395   1.146  0.2616 -1.0540 -0.4890
 3659TIP3    H210923   0.591   5.321   1.225  1.2942  0.0951 -0.7510
 3660TIP3   OH210924   1.520   5.565   5.313 -0.6783  0.3001  0.0155
 3660TIP3    H110925   1.552   5.606   5.233  1.7765 -2.7016 -0.7205
 3660TIP3    H210926   1.546   5.624   5.383 -0.2101  1.5447 -1.1706
 3661TIP3   OH210927   3.273   4.448   6.188  0.2610  0.7519 -0.1263
 3661TIP3    H110928   3.320   4.487   6.262  0.5237  0.8199 -0.3306
 3661TIP3    H210929   3.221   4.377   6.228  1.2929  0.0196 -0.0382
 3662TIP3   OH210930   3.304   7.555   0.422 -0.0185  0.1388  0.1051
 3662TIP3    H110931   3.234   7.495   0.397  1.0208 -1.3044  0.5420
 3662TIP3    H210932   3.289   7.572   0.515 -1.1299  1.7452 -0.3169
 3663TIP3   OH210933   2.400   3.879   4.907 -0.0555  0.0461 -0.4151
 3663TIP3    H110934   2.494   3.893   4.894  0.1764  0.2507  1.3002
 3663TIP3    H210935   2.388   3.879   5.002 -2.0231  1.6316 -0.5867
 3664TIP3   OH210936   6.810   0.312   2.488 -0.1300  0.6462 -0.5691
 3664TIP3    H110937   6.767   0.260   2.556  2.1613 -0.7302 -0.0424
 3664TIP3    H210938   6.741   0.331   2.424 -1.4405 -1.7003  0.0408
 3665TIP3   OH210939   3.607   7.799   5.500 -0.0760 -0.2869 -0.0160
 3665TIP3    H110940   3.638   7.887   5.522  1.1509 -0.6359 -0.2701
 3665TIP3    H210941   3.654   7.741   5.560 -1.3442 -0.7298  0.5733
 3666TIP3   OH210942   3.970   2.692   0.215 -0.0812  0.4677 -0.4292
 3666TIP3    H110943   3.932   2.609   0.188  0.1263 -0.2630  1.3779
 3666TIP3    H210944   3.942   2.703   0.306  2.1480  1.0075  0.2585
 3667TIP3   OH210945   1.422   3.684   2.966  0.2338  0.5613 -0.1897
 3667TIP3    H110946   1.371   3.751   3.010 -0.3065 -0.7140  1.2166
 3667TIP3    H210947   1.394   3.688   2.874 -1.2724  0.9170  0.2630
 3668TIP3   OH210948   7.274   6.960   0.614 -0.2229 -0.6381  0.0716
 3668TIP3    H110949   7.314   7.039   0.577 -0.3953 -0.7596 -0.3773
 3668TIP3    H210950   7.203   6.992   0.669 -0.5325 -0.4935 -0.4067
 3669TIP3   OH210951   6.559   6.938   4.805 -0.2612  0.2815 -0.0849
 3669TIP3    H110952   6.600   6.851   4.808  0.1126  0.4416 -0.3671
 3669TIP3    H210953   6.476   6.924   4.760 -1.2102 -0.3102  1.7834
 3670TIP3   OH210954   5.398   5.622   3.411  0.5302 -0.2127 -0.0577
 3670TIP3    H110955   5.346   5.553   3.452  0.2457 -0.5924 -1.0203
 3670TIP3    H210956   5.365   5.703   3.450 -1.7992 -0.3109 -1.6140
 3671TIP3   OH210957   7.977   1.240   1.289 -0.2341 -0.1869 -0.0212
 3671TIP3    H110958   8.039   1.297   1.334 -0.1391 -0.3146  0.0097
 3671TIP3    H210959   7.905   1.298   1.263 -0.8786 -0.3252  1.3631
 3672TIP3   OH210960   1.949   0.544   0.616 -0.0439  0.4045  0.1059
 3672TIP3    H110961   1.856   0.521   0.612  0.1766 -0.5475  0.1970
 3672TIP3    H210962   1.971   0.571   0.527 -0.0531 -0.8460 -0.2925
 3673TIP3   OH210963   3.049   5.693   5.384 -0.0530  0.7850 -0.1627
 3673TIP3    H110964   2.986   5.743   5.331 -0.9407  0.2922  0.3996
 3673TIP3    H210965   3.132   5.702   5.337 -0.1394  2.9227  0.0234
 3674TIP3   OH210966   4.590   4.908   5.630  0.3837  0.0145  0.0039
 3674TIP3    H110967   4.508   4.947   5.601  0.6444  1.6556  1.3050
 3674TIP3    H210968   4.571   4.815   5.638 -0.9934  0.1942 -0.8654
 3675TIP3   OH210969   2.088   0.752   5.795 -0.1222 -0.3149  0.7228
 3675TIP3    H110970   2.065   0.835   5.837 -0.4529 -0.6390  1.1925
 3675TIP3    H210971   2.169   0.725   5.839  0.9746  0.6229 -0.6462
 3676TIP3   OH210972   6.455   0.417   0.837 -0.1747 -0.3465  0.9409
 3676TIP3    H110973   6.544   0.449   0.826  0.2496 -2.0529 -1.3315
 3676TIP3    H210974   6.400   0.493   0.821  0.8379 -0.1122 -2.2472
 3677TIP3   OH210975   6.862   1.132   6.518  0.1991  0.1438 -0.3878
 3677TIP3    H110976   6.783   1.091   6.553  0.0806 -0.4704 -1.3124
 3677TIP3    H210977   6.934   1.094   6.568  0.2320 -2.4476 -2.1923
 3678TIP3   OH210978   2.907  -0.021   6.217 -0.8626 -0.2691  0.1377
 3678TIP3    H110979   2.941   0.066   6.238 -0.5842 -0.5127  0.6963
 3678TIP3    H210980   2.875  -0.012   6.127  0.3700  0.0525 -0.2913
 3679TIP3   OH210981   6.196   6.214   2.218  0.6082 -0.3262  0.0050
 3679TIP3    H110982   6.119   6.202   2.162  1.2224  0.6851 -1.0976
 3679TIP3    H210983   6.253   6.140   2.196 -0.0987 -1.2096  0.9912
 3680TIP3   OH210984   0.604   0.965   4.731 -0.2900 -0.6815 -0.3891
 3680TIP3    H110985   0.663   0.926   4.667 -0.5710 -1.5410 -0.1335
 3680TIP3    H210986   0.642   1.051   4.749 -0.9351  0.2065 -2.7441
 3681TIP3   OH210987   0.421   1.656   4.120 -0.5033 -0.4489 -0.0430
 3681TIP3    H110988   0.342   1.603   4.128  0.6968 -2.5135 -0.8819
 3681TIP3    H210989   0.489   1.593   4.093  1.1645  1.4304 -0.4644
 3682TIP3   OH210990   6.117   3.665   3.329  0.4635 -0.0206 -0.0640
 3682TIP3    H110991   6.163   3.750   3.331  0.9124 -0.2545 -0.2568
 3682TIP3    H210992   6.102   3.648   3.236  0.8289 -0.3890 -0.0602
 3683TIP3   OH210993   5.984   1.475   5.065  0.2995 -0.1769  0.4526
 3683TIP3    H110994   5.898   1.467   5.106  0.7163 -0.3651  1.3112
 3683TIP3    H210995   6.046   1.472   5.138  1.0681 -0.6719 -0.2023
 3684TIP3   OH210996   5.384   5.412   4.733  0.1356  0.2676  0.5834
 3684TIP3    H110997   5.456   5.473   4.714 -0.8457  1.2466 -0.0916
 3684TIP3    H210998   5.401   5.382   4.823  1.4088  0.4356  0.4123
 3685TIP3   OH210999   2.993   6.329   3.118 -0.4818 -0.9495  0.5313
 3685TIP3    H111000   3.012   6.267   3.048  0.9781 -0.7323  0.6902
 3685TIP3    H211001   2.998   6.278   3.198  1.6140 -0.5364  0.7379
 3686TIP3   OH211002   6.721   1.318   0.933  0.2648  0.3980 -0.4222
 3686TIP3    H111003   6.650   1.379   0.917 -0.9527  0.0504  2.8252
 3686TIP3    H211004   6.743   1.282   0.847 -4.9648 -1.0873 -1.4504
 3687TIP3   OH211005   1.678   3.175   2.055 -0.4253  0.3700  0.1653
 3687TIP3    H111006   1.697   3.225   2.135 -3.4334  1.4762  0.3245
 3687TIP3    H211007   1.618   3.106   2.084 -0.7525  0.1599 -0.9620
 3688TIP3   OH211008   3.538   4.277   2.433 -0.2262 -0.1258 -0.1712
 3688TIP3    H111009   3.606   4.342   2.416  1.0090 -1.1009  0.7915
 3688TIP3    H211010   3.566   4.199   2.385 -0.7966 -0.4582  0.0208
 3689TIP3   OH211011   5.058   5.592   5.497 -0.4861  0.3894  0.2000
 3689TIP3    H111012   5.151   5.604   5.476 -0.2813  2.2202  1.8843
 3689TIP3    H211013   5.058   5.566   5.589 -1.6127 -0.7542 -0.1068
 3690TIP3   OH211014   4.150   6.945   6.048  0.2346  0.4587  0.2131
 3690TIP3    H111015   4.209   7.020   6.052 -0.4049  0.9619  0.3956
 3690TIP3    H211016   4.184   6.883   6.113 -0.0122  1.1618  1.0249
 3691TIP3   OH211017   3.437   1.321   2.133  0.0679 -0.4839 -0.6193
 3691TIP3    H111018   3.462   1.263   2.061  0.0347 -0.9233 -0.2893
 3691TIP3    H211019   3.342   1.324   2.130  0.0219 -1.0796 -0.1732
 3692TIP3   OH211020   1.305   7.709   4.848  0.2187 -0.3259  0.0941
 3692TIP3    H111021   1.393   7.714   4.811  0.2297 -0.7716  0.0503
 3692TIP3    H211022   1.272   7.799   4.845  0.9716 -0.0105  0.8625
 3693TIP3   OH211023   8.062   6.220   3.935  0.5118  0.0866  0.3880
 3693TIP3    H111024   8.157   6.216   3.943  0.5042 -0.4109  0.2853
 3693TIP3    H211025   8.044   6.187   3.847  0.3229  1.4067 -0.0917
 3694TIP3   OH211026   7.415   5.677   4.617 -0.1930 -0.0228 -0.1374
 3694TIP3    H111027   7.479   5.731   4.664  1.5511 -2.9992  1.2011
 3694TIP3    H211028   7.351   5.651   4.683 -0.1330 -0.8193 -0.3755
 3695TIP3   OH211029   5.702   2.580   2.141 -0.4484  0.1774  0.3570
 3695TIP3    H111030   5.794   2.554   2.146 -0.6744 -0.6124  0.5657
 3695TIP3    H211031   5.660   2.534   2.214 -1.3838 -1.0943 -0.9309
 3696TIP3   OH211032   2.898   2.282   6.693 -0.7023  0.3817 -0.5200
 3696TIP3    H111033   2.980   2.303   6.648  0.5289 -0.0381  1.4107
 3696TIP3    H211034   2.905   2.188   6.711 -1.9392  0.1973 -0.9114
 3697TIP3   OH211035   6.414   1.484   5.967  0.0313  0.0590  0.1400
 3697TIP3    H111036   6.456   1.415   6.020 -0.7667 -0.5444  0.0056
 3697TIP3    H211037   6.401   1.443   5.881  4.5594  2.1043 -1.8294
 3698TIP3   OH211038   3.488   7.055   4.015  0.1040 -0.0444  0.3061
 3698TIP3    H111039   3.568   7.003   4.011 -1.8758 -3.3533 -0.6431
 3698TIP3    H211040   3.468   7.075   3.924 -0.2661  0.6031  0.5215
 3699TIP3   OH211041   7.828   4.710   1.802  0.2597  0.0311 -0.3461
 3699TIP3    H111042   7.748   4.689   1.754 -1.0839  1.8292  0.9336
 3699TIP3    H211043   7.813   4.675   1.890  0.6935  0.6996  0.0065
 3700TIP3   OH211044   1.613   0.479   5.967  0.3630  0.6263  0.2409
 3700TIP3    H111045   1.703   0.448   5.977  0.2021 -0.4464 -1.2573
 3700TIP3    H211046   1.581   0.436   5.888 -1.2812  1.4575  0.3951
 3701TIP3   OH211047   5.152   1.665   1.874  1.0180  0.4521  0.0289
 3701TIP3    H111048   5.084   1.641   1.812  1.8813  1.1373 -1.2471
 3701TIP3    H211049   5.176   1.755   1.849  1.1281  0.8826  1.6058
 3702TIP3   OH211050   8.042   0.413   3.046  0.7814  0.3196  0.0011
 3702TIP3    H111051   8.132   0.434   3.068  0.7617  0.0477  0.3591
 3702TIP3    H211052   7.996   0.415   3.130  0.6390 -0.4224 -0.0539
 3703TIP3   OH211053   0.201   1.488   4.188 -0.4883 -0.0416 -0.7043
 3703TIP3    H111054   0.177   1.421   4.251  0.1836  0.5947  0.2601
 3703TIP3    H211055   0.125   1.497   4.131 -1.7240  0.4197  0.9498
 3704TIP3   OH211056   2.713   0.872   1.332 -0.4330 -0.8171  0.2091
 3704TIP3    H111057   2.711   0.788   1.285  0.6919 -1.0434  0.5249
 3704TIP3    H211058   2.672   0.854   1.416 -0.5885 -0.9398  0.1074
 3705TIP3   OH211059   6.827   6.255   6.525  0.2762 -0.3612  0.3986
 3705TIP3    H111060   6.797   6.165   6.518  1.9751 -1.0327  1.2028
 3705TIP3    H211061   6.840   6.269   6.619  1.5640  0.1809  0.1631
 3706TIP3   OH211062   7.606   0.784   6.525 -0.4499 -0.2151 -0.0609
 3706TIP3    H111063   7.684   0.839   6.514  0.7839 -1.6542  1.0235
 3706TIP3    H211064   7.638   0.695   6.509 -1.4203 -1.0441  2.1811
 3707TIP3   OH211065   1.741   7.197   0.039 -0.1661  0.4258 -0.2980
 3707TIP3    H111066   1.695   7.121   0.004 -0.8344  1.5030 -1.9200
 3707TIP3    H211067   1.809   7.161   0.095 -1.0471 -1.3169 -0.2841
 3708TIP3   OH211068   1.081   3.002   6.231 -0.7449  0.1590 -0.5483
 3708TIP3    H111069   1.156   3.052   6.199 -0.9698  0.8272 -0.0725
 3708TIP3    H211070   1.100   2.911   6.207 -0.1749  0.4309 -1.1516
 3709TIP3   OH211071   8.248   0.161   1.081 -0.2721 -0.5610 -0.3377
 3709TIP3    H111072   8.186   0.131   1.015  1.1789 -1.2635 -1.4358
 3709TIP3    H211073   8.260   0.254   1.063 -0.0055 -0.7159 -0.9669
 3710TIP3   OH211074   2.444   4.493   4.128  0.0462  0.6184 -0.4301
 3710TIP3    H111075   2.367   4.545   4.106 -0.6863 -0.2033  0.1310
 3710TIP3    H211076   2.419   4.446   4.208 -0.0879 -2.1694 -2.0063
 3711TIP3   OH211077   2.483   3.791   6.172  0.1880 -0.5849  0.2426
 3711TIP3    H111078   2.486   3.827   6.261 -0.7687 -0.3439  0.1934
 3711TIP3    H211079   2.392   3.764   6.160  0.3071 -0.6276 -0.6610
 3712TIP3   OH211080   6.110   4.280   4.553  0.0605 -0.1288 -0.5056
 3712TIP3    H111081   6.136   4.372   4.558 -1.2372  0.2234  0.1474
 3712TIP3    H211082   6.046   4.276   4.483  0.7356 -0.7126 -1.1071
 3713TIP3   OH211083   4.410   0.307   5.515  0.0264  0.1177 -0.2680
 3713TIP3    H111084   4.412   0.238   5.450  0.2089 -0.6547  0.5308
 3713TIP3    H211085   4.471   0.278   5.583 -0.5186  0.6587  0.4767
 3714TIP3   OH211086   2.984   3.373   0.379 -0.7405 -0.2631  0.6083
 3714TIP3    H111087   3.002   3.464   0.358  0.2180 -0.6788 -0.5142
 3714TIP3    H211088   3.070   3.330   0.374 -1.3871 -1.5010 -0.4267
 3715TIP3   OH211089   3.913   7.074   2.057  0.1259  0.2776 -0.6111
 3715TIP3    H111090   3.984   7.123   2.017  1.5546 -0.4290  0.9552
 3715TIP3    H211091   3.889   7.126   2.134  0.5324 -0.6295  0.1414
 3716TIP3   OH211092   4.435   4.211   4.755 -0.2750  0.1707 -0.3062
 3716TIP3    H111093   4.516   4.180   4.794 -0.0720  0.4101 -0.5291
 3716TIP3    H211094   4.370   4.143   4.775  0.1709 -0.4271 -0.8332
 3717TIP3   OH211095   3.022   1.012   2.836 -0.3649  0.4529 -0.6507
 3717TIP3    H111096   2.955   0.991   2.772  0.0699 -0.1025 -0.9328
 3717TIP3    H211097   3.019   0.940   2.899 -0.8634  1.0463  0.0269
 3718TIP3   OH211098   6.938   2.276   5.020 -0.4798 -0.6008  0.4127
 3718TIP3    H111099   7.029   2.304   5.009 -0.7642  0.1147 -0.2435
 3718TIP3    H211100   6.942   2.206   5.085  0.3052  0.7626  1.9013
 3719TIP3   OH211101   5.673   3.439   5.047  0.2290 -0.5127  0.6351
 3719TIP3    H111102   5.662   3.347   5.069 -0.9811 -1.0213 -1.8493
 3719TIP3    H211103   5.586   3.477   5.061 -0.3120 -0.6323 -1.9280
 3720TIP3   OH211104   7.159   6.036   2.932  0.1911 -0.2742 -0.1905
 3720TIP3    H111105   7.077   6.049   2.885 -0.8710 -2.8658  0.7878
 3720TIP3    H211106   7.214   5.985   2.872  0.5634  0.2000 -0.2684
 3721TIP3   OH211107   3.590   2.489   2.466 -0.7145  0.5217 -0.4577
 3721TIP3    H111108   3.630   2.575   2.475 -2.4501  1.3245 -0.0447
 3721TIP3    H211109   3.578   2.459   2.555 -0.1007 -0.1844 -0.6003
 3722TIP3   OH211110   5.057   5.405   2.612 -0.3419  0.0848  0.6112
 3722TIP3    H111111   5.151   5.398   2.597 -0.6488 -2.2618 -0.6799
 3722TIP3    H211112   5.034   5.493   2.581  1.0986 -0.1106 -1.1654
 3723TIP3   OH211113   1.097   3.084   1.294 -0.4597  0.2559  0.1931
 3723TIP3    H111114   1.065   3.168   1.259 -1.9736 -0.3874 -0.0576
 3723TIP3    H211115   1.025   3.053   1.349  1.0651  0.2653  2.3058
 3724TIP3   OH211116   6.192   6.486   5.751 -0.3299  0.4358 -0.3064
 3724TIP3    H111117   6.205   6.579   5.735  0.8927  0.3658  0.1553
 3724TIP3    H211118   6.109   6.481   5.797  0.3795  1.4725  1.1535
 3725TIP3   OH211119   7.029   3.912   4.500  0.7440 -0.2430 -0.3751
 3725TIP3    H111120   7.018   3.867   4.416  1.7685 -0.3376 -0.4636
 3725TIP3    H211121   7.117   3.888   4.529  1.1430  1.3320 -0.2036
 3726TIP3   OH211122   1.253   7.625   1.522  0.0277  0.0594 -0.2111
 3726TIP3    H111123   1.344   7.628   1.490  0.3590 -0.5849  0.6331
 3726TIP3    H211124   1.215   7.550   1.477  0.2535 -0.3592  0.2942
 3727TIP3   OH211125   5.835   5.621   5.374  0.2303  0.1527 -0.4374
 3727TIP3    H111126   5.907   5.584   5.425 -1.6226 -1.8976  0.9015
 3727TIP3    H211127   5.793   5.684   5.432  0.5672  0.9074 -0.9961
 3728TIP3   OH211128   3.271   5.652   3.430 -0.1498 -0.1857  0.3687
 3728TIP3    H111129   3.307   5.728   3.385 -0.4490 -0.3515 -0.1651
 3728TIP3    H211130   3.317   5.648   3.513 -0.9617  1.2899  0.9234
 3729TIP3   OH211131   2.106   2.735   4.831 -0.1023  0.1991  0.4748
 3729TIP3    H111132   2.136   2.817   4.791 -2.0870  0.5069 -0.4438
 3729TIP3    H211133   2.167   2.669   4.798  1.1402  1.1651  0.7279
 3730TIP3   OH211134   6.002   7.060   0.853  0.0266 -0.2725 -0.1878
 3730TIP3    H111135   6.009   6.965   0.851 -0.6662 -0.4325  2.1518
 3730TIP3    H211136   5.912   7.077   0.881  0.9440  0.9514  2.3306
 3731TIP3   OH211137   6.312   1.246   3.563  0.3820 -0.1522  0.0464
 3731TIP3    H111138   6.398   1.275   3.533  0.0869  1.8181  0.9220
 3731TIP3    H211139   6.295   1.297   3.642 -1.7957 -0.1085 -0.3625
 3732TIP3   OH211140   0.442   6.393   6.636 -0.3335 -0.4766  0.0866
 3732TIP3    H111141   0.502   6.353   6.698  1.1192 -0.6419 -1.3651
 3732TIP3    H211142   0.491   6.399   6.555 -1.8478  0.6207 -0.8114
 3733TIP3   OH211143   5.520   1.398   3.266  0.1036  0.0106 -0.2994
 3733TIP3    H111144   5.581   1.471   3.271  1.0379 -0.7324 -0.4323
 3733TIP3    H211145   5.500   1.390   3.173 -0.3063  0.3308 -0.2428
 3734TIP3   OH211146   0.464   4.988   4.706  0.3862 -0.3418  0.5963
 3734TIP3    H111147   0.507   4.980   4.791 -0.0503 -0.3681  0.8164
 3734TIP3    H211148   0.449   5.082   4.696 -0.0420 -0.3904  0.7869
 3735TIP3   OH211149   5.784   3.157   4.401 -0.2323 -0.0025  0.5526
 3735TIP3    H111150   5.789   3.170   4.307  3.1079  1.9510  0.8376
 3735TIP3    H211151   5.727   3.227   4.432 -1.2643 -0.5929  0.0358
 3736TIP3   OH211152   2.741   7.807   5.438 -0.0924  0.0693  0.2735
 3736TIP3    H111153   2.788   7.758   5.371 -0.4661 -0.0246  0.0750
 3736TIP3    H211154   2.648   7.787   5.422 -0.1155 -2.6080  2.8379
 3737TIP3   OH211155   8.008   2.934   4.928 -0.8238  0.3233 -0.0691
 3737TIP3    H111156   8.070   3.001   4.957  0.9792  0.1607 -3.1673
 3737TIP3    H211157   7.985   2.960   4.839 -3.4022 -0.9669  0.1175
 3738TIP3   OH211158   0.736   1.678   5.955 -0.2411  0.0855 -0.2542
 3738TIP3    H111159   0.761   1.597   5.912 -1.1565 -0.1496 -0.3557
 3738TIP3    H211160   0.645   1.664   5.982 -0.2783  0.9248  0.0832
 3739TIP3   OH211161   1.888   0.755   3.521 -0.8062  0.0019 -0.3350
 3739TIP3    H111162   1.860   0.837   3.561 -1.0878 -0.1774 -0.1611
 3739TIP3    H211163   1.983   0.765   3.509 -0.8275  0.3184 -0.2361
 3740TIP3   OH211164   6.690   5.620   1.435  0.0401 -0.4792 -0.3899
 3740TIP3    H111165   6.645   5.704   1.446  0.1403 -0.6614  1.8469
 3740TIP3    H211166   6.779   5.636   1.465  0.2863 -1.1874 -0.7183
 3741TIP3   OH211167   1.166   1.895   5.112 -0.1056 -0.5731  0.0493
 3741TIP3    H111168   1.200   1.806   5.112  0.8843 -0.2143 -1.2915
 3741TIP3    H211169   1.217   1.941   5.046 -0.7078  0.9602  0.6002
 3742TIP3   OH211170   0.890   0.672   6.551  0.0609  0.4158 -0.2558
 3742TIP3    H111171   0.897   0.585   6.590 -1.0530 -0.0811 -1.0819
 3742TIP3    H211172   0.975   0.713   6.567  1.5277 -1.7230 -1.9843
 3743TIP3   OH211173   4.599   0.102   1.076 -0.2735  0.4193  0.4527
 3743TIP3    H111174   4.539   0.110   1.150  0.4722  2.3144  0.9120
 3743TIP3    H211175   4.679   0.146   1.106  1.6579 -2.5517  0.1227
 3744TIP3   OH211176   4.677   7.453   1.342  0.1352  0.8517  0.5613
 3744TIP3    H111177   4.600   7.460   1.399  0.0670  0.2420  0.5499
 3744TIP3    H211178   4.669   7.526   1.282 -1.6806 -0.4818 -0.9332
 3745TIP3   OH211179   4.004   6.455   1.673  0.0059  0.2368  0.4252
 3745TIP3    H111180   4.008   6.439   1.767 -2.4319 -0.3544  0.5047
 3745TIP3    H211181   3.952   6.382   1.639  2.0773 -0.3937 -1.6499
 3746TIP3   OH211182   6.079   2.462   4.443 -0.1684 -0.2492  0.0887
 3746TIP3    H111183   6.073   2.394   4.375  0.9582 -0.7144  0.4472
 3746TIP3    H211184   6.172   2.483   4.448 -0.3245  0.2457  1.0516
 3747TIP3   OH211185   2.768   7.371   5.666 -0.0654  0.8705  0.5941
 3747TIP3    H111186   2.704   7.317   5.713  0.5067 -1.0647 -0.7064
 3747TIP3    H211187   2.853   7.331   5.687  0.6577  2.7292  1.4202
 3748TIP3   OH211188   8.049   0.984   2.291 -0.0442  0.4285 -0.4869
 3748TIP3    H111189   7.958   0.982   2.263 -0.2980 -2.3462  0.3171
 3748TIP3    H211190   8.096   0.935   2.224  0.6182  0.4638 -0.0629
 3749TIP3   OH211191   3.089   4.400   3.482  0.0927 -0.7382  0.1080
 3749TIP3    H111192   3.142   4.447   3.419  0.3606 -0.6223  0.4142
 3749TIP3    H211193   3.148   4.386   3.557 -0.3110 -0.5934  0.4574
 3750TIP3   OH211194   0.274   6.984   4.950  0.0408 -0.4212  0.0915
 3750TIP3    H111195   0.275   6.965   5.044 -2.1410  0.8705  0.4442
 3750TIP3    H211196   0.209   6.923   4.914 -1.6035  1.2899  0.0293
 3751TIP3   OH211197   4.876   2.275   4.568 -0.3236  0.1926 -0.3094
 3751TIP3    H111198   4.920   2.226   4.638  0.1243 -1.6294 -1.8112
 3751TIP3    H211199   4.934   2.267   4.492 -1.6027  0.6897 -1.3788
 3752TIP3   OH211200   5.397   2.694   6.439 -0.3034  0.0202  0.0178
 3752TIP3    H111201   5.421   2.772   6.489  0.6191  0.5165 -1.1387
 3752TIP3    H211202   5.480   2.647   6.428 -0.1954  0.5666 -2.0607
 3753TIP3   OH211203   2.260   1.028   0.113  0.2479  0.6131  0.0391
 3753TIP3    H111204   2.206   0.973   0.056 -0.0375  0.6027  0.3168
 3753TIP3    H211205   2.237   1.001   0.202  1.2035  0.1464  0.1562
 3754TIP3   OH211206   5.362   7.635   1.616  0.2664  0.0074  0.3417
 3754TIP3    H111207   5.333   7.578   1.545 -0.9217 -0.1532  0.9316
 3754TIP3    H211208   5.330   7.592   1.696  0.0668  1.0814  0.8490
 3755TIP3   OH211209   0.135   4.114   5.973 -0.2637  0.3159  0.5336
 3755TIP3    H111210   0.075   4.159   6.031 -0.4926  0.8832 -0.1275
 3755TIP3    H211211   0.170   4.183   5.916  1.4748  0.1093  1.2837
 3756TIP3   OH211212   6.319   2.239   0.936 -0.2376 -0.1807  0.2841
 3756TIP3    H111213   6.267   2.208   1.010 -0.8065  0.1027  0.0088
 3756TIP3    H211214   6.377   2.305   0.974 -0.1816 -0.3885  0.5665
 3757TIP3   OH211215   3.114   7.833   4.656  0.8014 -0.3619 -0.0760
 3757TIP3    H111216   3.194   7.781   4.643  0.2983 -1.1477 -0.1046
 3757TIP3    H211217   3.043   7.769   4.651  0.0703  0.4884 -1.3264
 3758TIP3   OH211218   4.515   5.992   2.741  0.0862  0.1575  0.0744
 3758TIP3    H111219   4.530   5.897   2.742 -1.0942 -0.0357  0.3391
 3758TIP3    H211220   4.571   6.024   2.670  0.3747 -0.7576 -0.1258
 3759TIP3   OH211221   5.437   2.656   4.019  0.0159 -0.5591  0.0609
 3759TIP3    H111222   5.377   2.586   3.994 -0.1430 -0.5761  0.4752
 3759TIP3    H211223   5.409   2.680   4.108 -2.7024  2.9050 -1.4698
 3760TIP3   OH211224   2.516   0.454   1.675 -0.0716  0.0211 -0.2206
 3760TIP3    H111225   2.568   0.533   1.690  0.8015 -0.6058  0.1459
 3760TIP3    H211226   2.573   0.397   1.623 -0.9439 -0.1164 -1.0707
 3761TIP3   OH211227   0.078   7.622   4.111 -0.3652 -0.5059  0.2060
 3761TIP3    H111228   0.102   7.547   4.058 -0.9274 -0.2423 -0.4361
 3761TIP3    H211229   0.129   7.612   4.192 -0.1815 -1.3875 -0.0108
 3762TIP3   OH211230   5.749   0.780   1.878 -0.1914  0.1954  0.2936
 3762TIP3    H111231   5.674   0.755   1.931  0.2601 -0.8755  0.4575
 3762TIP3    H211232   5.797   0.698   1.865  0.0990  0.5762 -1.1510
 3763TIP3   OH211233   1.652   3.494   3.852 -0.2630 -0.0599  0.4067
 3763TIP3    H111234   1.630   3.417   3.800  1.1642  2.2845 -4.1851
 3763TIP3    H211235   1.567   3.527   3.883 -0.9294 -3.0805  2.1991
 3764TIP3   OH211236   0.333   0.610   3.959  0.7587 -0.1959  0.3405
 3764TIP3    H111237   0.418   0.653   3.954  0.4121  0.4317 -0.2994
 3764TIP3    H211238   0.302   0.628   4.047  1.4389 -0.7344  0.7031
 3765TIP3   OH211239   4.680   3.882   2.083  0.0741 -0.4055 -0.5136
 3765TIP3    H111240   4.649   3.972   2.100 -0.2976  0.1677 -3.6379
 3765TIP3    H211241   4.775   3.888   2.092 -0.0870 -0.3626  1.7419
 3766TIP3   OH211242   1.650   7.722   3.113 -0.3786  0.0060 -0.5303
 3766TIP3    H111243   1.697   7.779   3.053 -1.9334  2.1739  0.1814
 3766TIP3    H211244   1.717   7.666   3.152  0.7704 -1.0759 -3.7362
 3767TIP3   OH211245   8.155   1.546   4.085  0.1872 -0.1749  0.1530
 3767TIP3    H111246   8.094   1.485   4.042 -0.2394  0.4002 -0.0735
 3767TIP3    H211247   8.115   1.632   4.073  1.5890  0.3740 -1.0095
 3768TIP3   OH211248   0.984   2.228   4.245  0.0788  0.2760  0.1327
 3768TIP3    H111249   0.939   2.282   4.181 -1.6664  1.0364  1.9018
 3768TIP3    H211250   1.059   2.281   4.273 -0.8683  1.2408  0.8838
 3769TIP3   OH211251   4.793   6.524   3.115 -0.3100 -0.3786  0.1888
 3769TIP3    H111252   4.780   6.599   3.057 -2.5246 -0.1569  0.8689
 3769TIP3    H211253   4.716   6.469   3.100 -0.1658 -1.0606  1.7990
 3770TIP3   OH211254   7.844   0.891   0.688 -0.2065  0.2710 -0.0982
 3770TIP3    H111255   7.916   0.832   0.665 -0.1225  0.5922 -0.6688
 3770TIP3    H211256   7.813   0.859   0.772 -0.1253 -0.5638 -0.3753
 3771TIP3   OH211257   6.477   4.609   1.111  0.4664  0.1701  0.3529
 3771TIP3    H111258   6.402   4.668   1.117  0.6895  0.5187 -0.2621
 3771TIP3    H211259   6.439   4.523   1.096  0.2212  0.6307 -2.0455
 3772TIP3   OH211260   7.854   0.149   2.776  0.3583 -0.0597 -0.2989
 3772TIP3    H111261   7.810   0.203   2.841  0.2432  1.1475 -1.3435
 3772TIP3    H211262   7.897   0.211   2.717  1.4800 -1.1406 -0.6915
 3773TIP3   OH211263   7.569   5.769   1.642 -0.2837  0.3365 -0.3344
 3773TIP3    H111264   7.608   5.695   1.595 -0.3056  0.2460 -0.2113
 3773TIP3    H211265   7.577   5.842   1.582 -1.4448 -0.0526 -0.9923
 3774TIP3   OH211266   3.730   2.195   0.203  0.1480  0.3072  0.2023
 3774TIP3    H111267   3.825   2.204   0.212  0.2582 -0.2494 -0.3794
 3774TIP3    H211268   3.713   2.103   0.222  0.0600 -0.2581 -2.3456
 3775TIP3   OH211269   2.814   6.366   6.560 -0.0559  0.1170 -0.3192
 3775TIP3    H111270   2.870   6.443   6.550 -0.9717  0.8975  0.3987
 3775TIP3    H211271   2.784   6.370   6.650  1.0408 -1.9093  0.1944
 3776TIP3   OH211272   4.054   0.904   5.975  0.3488  0.4311 -0.0865
 3776TIP3    H111273   4.096   0.842   6.035  0.4170  0.1811 -0.3892
 3776TIP3    H211274   4.090   0.989   5.999  1.2259  0.1870 -0.5140
 3777TIP3   OH211275   2.564   4.346   5.315  0.2139 -0.0457  0.0134
 3777TIP3    H111276   2.650   4.308   5.332  0.9095  0.7886 -1.4540
 3777TIP3    H211277   2.513   4.276   5.275  0.7152 -0.1043 -0.5222
 3778TIP3   OH211278   5.083   6.346   2.837  0.2635 -0.4555  0.4516
 3778TIP3    H111279   5.129   6.423   2.804 -0.0015 -0.4734  0.0330
 3778TIP3    H211280   5.116   6.334   2.926 -0.2946  0.6431  0.8262
 3779TIP3   OH211281   4.980   1.781   6.119 -0.6838 -0.1043  0.7850
 3779TIP3    H111282   4.962   1.775   6.026  1.8514  1.0257  0.1139
 3779TIP3    H211283   4.912   1.839   6.153 -0.0997  1.7189 -0.9477
 3780TIP3   OH211284   6.628   5.740   6.164 -0.4099 -0.3307 -0.5201
 3780TIP3    H111285   6.532   5.737   6.165 -0.4516  0.6176  0.6087
 3780TIP3    H211286   6.649   5.833   6.176  0.6611 -0.3649 -1.8933
 3781TIP3   OH211287   2.517   2.378   1.043 -0.0242  0.0381 -0.8745
 3781TIP3    H111288   2.510   2.304   0.982 -1.0533 -0.1875 -0.5043
 3781TIP3    H211289   2.535   2.454   0.987 -0.5861 -0.2268 -1.4322
 3782TIP3   OH211290   1.801   3.642   3.089 -0.0730 -0.4454  0.4408
 3782TIP3    H111291   1.855   3.640   3.168 -0.5305 -1.0427  0.7482
 3782TIP3    H211292   1.864   3.647   3.017  0.3127  1.5798  0.8813
 3783TIP3   OH211293   3.524   3.226   5.697 -0.7867  0.3804 -0.2675
 3783TIP3    H111294   3.430   3.232   5.712 -0.4924  2.4125  1.1353
 3783TIP3    H211295   3.558   3.312   5.720  1.5396 -0.5687  0.1546
 3784TIP3   OH211296   3.034   2.104   3.795  0.5173  0.2115  0.8263
 3784TIP3    H111297   3.067   2.057   3.872 -0.0358  1.2107  1.7057
 3784TIP3    H211298   3.078   2.063   3.721  0.7853 -1.0264  1.6399
 3785TIP3   OH211299   3.608   1.964   0.278 -0.2561  0.3926  0.3211
 3785TIP3    H111300   3.521   1.996   0.301 -0.5516  0.1858 -0.4569
 3785TIP3    H211301   3.602   1.869   0.288 -0.7376  0.1772 -1.5999
 3786TIP3   OH211302   5.478   0.769   3.598 -0.1681  0.5589  0.0451
 3786TIP3    H111303   5.557   0.823   3.596 -1.9885  3.5058  1.4422
 3786TIP3    H211304   5.421   0.809   3.532 -0.7901 -1.1036 -0.4682
 3787TIP3   OH211305   7.579   3.991   2.811 -0.1385 -0.2262  0.5696
 3787TIP3    H111306   7.490   3.992   2.776 -0.9873 -0.2034  2.5750
 3787TIP3    H211307   7.616   4.075   2.783 -0.5332 -0.4596 -0.7291
 3788TIP3   OH211308   5.816   0.584   2.893 -0.8072  0.1512  0.0203
 3788TIP3    H111309   5.909   0.606   2.888 -0.9987  0.8581 -0.8286
 3788TIP3    H211310   5.809   0.521   2.964  0.5583 -1.1251 -0.9224
 3789TIP3   OH211311   3.804   0.630   5.263  0.0740 -0.3377  0.2512
 3789TIP3    H111312   3.777   0.576   5.188  0.9696  1.4462 -1.4352
 3789TIP3    H211313   3.899   0.626   5.262  0.0869 -1.3172  2.1365
 3790TIP3   OH211314   5.856   5.920   1.235  0.1357 -0.7317  0.3314
 3790TIP3    H111315   5.834   5.834   1.271 -0.6330 -0.2724  1.0058
 3790TIP3    H211316   5.870   5.975   1.313 -0.1539 -0.0604 -0.0866
 3791TIP3   OH211317   7.228   5.313   0.310  0.0619 -0.2958 -0.1683
 3791TIP3    H111318   7.154   5.291   0.367 -1.7020  0.7054 -1.9345
 3791TIP3    H211319   7.297   5.341   0.369 -1.1103 -0.8563  1.5347
 3792TIP3   OH211320   3.034   6.182   0.772  0.6088 -0.0210 -0.2630
 3792TIP3    H111321   2.948   6.212   0.803  0.6725  0.9674 -0.9981
 3792TIP3    H211322   3.076   6.261   0.738  2.2798 -0.2641  1.1300
 3793TIP3   OH211323   0.708   4.957   5.593  0.5280 -0.4218  0.1746
 3793TIP3    H111324   0.717   4.878   5.538 -0.9740  1.1845 -2.6349
 3793TIP3    H211325   0.614   4.975   5.593  0.9720  2.6251 -1.3821
 3794TIP3   OH211326   6.279   4.304   3.322 -0.2197 -0.2375  0.2707
 3794TIP3    H111327   6.269   4.241   3.393 -0.1939 -1.1026 -0.4717
 3794TIP3    H211328   6.337   4.260   3.259  1.7756  1.4755  0.8254
 3795TIP3   OH211329   4.083   0.443   3.346  0.2414 -0.2836 -0.0758
 3795TIP3    H111330   4.017   0.457   3.278  2.3625 -0.6282 -2.3812
 3795TIP3    H211331   4.154   0.503   3.323  1.2230 -0.7461  1.5857
 3796TIP3   OH211332   0.294   5.701   1.993  0.6461  0.3576 -0.5914
 3796TIP3    H111333   0.355   5.677   1.924 -1.8028 -1.3436 -2.3317
 3796TIP3    H211334   0.249   5.779   1.960  0.6657  0.5847 -0.1009
 3797TIP3   OH211335   7.094   7.030   2.043  0.2822 -0.1736 -0.0021
 3797TIP3    H111336   7.143   7.001   1.966 -0.3507 -0.8455 -0.1595
 3797TIP3    H211337   7.014   7.068   2.008 -0.2269 -0.9096  0.3366
 3798TIP3   OH211338   7.853   7.472   5.300  0.2857  0.1777  0.3452
 3798TIP3    H111339   7.903   7.391   5.297  0.6575  0.4105 -2.6723
 3798TIP3    H211340   7.919   7.541   5.303 -0.0202  0.4539  1.7076
 3799TIP3   OH211341   0.434   4.473   4.342 -0.0730  0.9278 -0.2856
 3799TIP3    H111342   0.401   4.527   4.414 -0.5419  0.8303 -0.4242
 3799TIP3    H211343   0.355   4.442   4.297  0.2077  0.6393 -0.5837
 3800TIP3   OH211344   4.761   3.305   1.806 -0.0471  0.0609  0.3741
 3800TIP3    H111345   4.738   3.375   1.868 -2.5874 -0.2494 -0.0940
 3800TIP3    H211346   4.678   3.285   1.761  1.1848 -1.4310 -1.3780
 3801TIP3   OH211347   3.098   0.119   2.093 -0.6754 -0.0054 -0.0740
 3801TIP3    H111348   3.006   0.100   2.074 -0.9702  2.8046 -2.1366
 3801TIP3    H211349   3.095   0.196   2.150  0.3889 -0.0350  0.0246
 3802TIP3   OH211350   3.908   7.093   4.279  0.8662  0.2483 -0.2265
 3802TIP3    H111351   3.910   7.152   4.204 -0.7740  1.2772  0.4767
 3802TIP3    H211352   3.934   7.149   4.353 -0.2888  0.0107  0.3830
 3803TIP3   OH211353   0.401   5.303   5.146 -0.1043  0.2565  0.0930
 3803TIP3    H111354   0.327   5.351   5.182  1.2034  1.5377  1.2469
 3803TIP3    H211355   0.468   5.371   5.131  1.2334 -0.9896  0.2172
 3804TIP3   OH211356   2.218   2.963   2.202  0.2719  0.1692 -0.1108
 3804TIP3    H111357   2.234   2.891   2.263 -0.7256  0.3932  0.4518
 3804TIP3    H211358   2.264   2.938   2.122  1.2669 -0.3295  0.5944
 3805TIP3   OH211359   0.394   7.078   2.010  0.3078  0.0340 -0.0740
 3805TIP3    H111360   0.337   7.099   2.084  0.8637 -1.2075  0.7283
 3805TIP3    H211361   0.344   7.014   1.959  0.1708  0.4462 -0.4662
 3806TIP3   OH211362   1.367   4.511   2.120  0.5850  0.3698 -0.0994
 3806TIP3    H111363   1.341   4.486   2.209 -1.3911  2.0804 -0.1160
 3806TIP3    H211364   1.287   4.499   2.068  1.2678  0.9376 -1.2968
 3807TIP3   OH211365   2.238   0.204   6.663  0.8135  0.1605 -0.2331
 3807TIP3    H111366   2.312   0.216   6.723 -0.2238  0.3041  1.0538
 3807TIP3    H211367   2.279   0.185   6.579  2.3562 -3.6856  1.1581
 3808TIP3   OH211368   7.888   3.860   6.539  0.1866  0.0325 -0.0443
 3808TIP3    H111369   7.931   3.821   6.462 -0.2853  1.4074 -1.0519
 3808TIP3    H211370   7.902   3.797   6.609 -0.4530 -1.8690 -1.5666
 3809TIP3   OH211371   1.707   5.787   5.857  0.0757 -0.2005  0.4313
 3809TIP3    H111372   1.733   5.738   5.779  1.1114 -1.0019  1.2574
 3809TIP3    H211373   1.788   5.799   5.906 -0.3593  1.3174  0.8355
 3810TIP3   OH211374   3.006   2.819   1.675  0.5310 -0.2770  0.5373
 3810TIP3    H111375   3.097   2.829   1.647  0.9155 -2.6627  0.7360
 3810TIP3    H211376   2.970   2.907   1.669  1.7614  0.1440 -3.2631
 3811TIP3   OH211377   3.459   0.869   2.899 -0.3636 -0.4476 -0.3494
 3811TIP3    H111378   3.459   0.819   2.818  1.9709  1.1248 -1.4481
 3811TIP3    H211379   3.388   0.932   2.888 -1.1783 -1.3609 -0.3975
 3812TIP3   OH211380   0.184   4.543   1.788 -0.5855  0.3792 -0.0765
 3812TIP3    H111381   0.262   4.487   1.792 -1.2312 -0.5745 -0.3551
 3812TIP3    H211382   0.199   4.610   1.854 -0.0322 -0.4583  0.6756
 3813TIP3   OH211383   4.027   4.533   4.912 -0.0114  0.1024  0.2253
 3813TIP3    H111384   4.036   4.608   4.853  2.3270  0.7210  1.2702
 3813TIP3    H211385   3.938   4.540   4.946  0.3504  2.8305  0.8204
 3814TIP3   OH211386   1.643   3.084   4.046  0.2600 -0.1086  0.2169
 3814TIP3    H111387   1.693   3.004   4.063 -0.8350 -1.1165 -1.1446
 3814TIP3    H211388   1.675   3.115   3.962 -1.4671 -0.8798 -0.7767
 3815TIP3   OH211389   4.347   7.623   2.516 -0.1962 -0.3273 -0.7687
 3815TIP3    H111390   4.326   7.716   2.505  2.3614  0.2346 -1.4777
 3815TIP3    H211391   4.339   7.607   2.610 -0.0851  0.7610 -0.5699
 3816TIP3   OH211392   3.929   2.372   3.430 -0.1043 -0.4129  0.0245
 3816TIP3    H111393   3.855   2.337   3.381 -0.7489  0.9399 -0.0198
 3816TIP3    H211394   4.003   2.316   3.407 -0.9844 -1.4173 -0.4013
 3817TIP3   OH211395   7.574   7.145   3.475 -0.9977 -0.1538  0.2275
 3817TIP3    H111396   7.479   7.138   3.467 -1.0339  1.2923 -0.9339
 3817TIP3    H211397   7.603   7.182   3.392  0.4718  0.4673  0.9770
 3818TIP3   OH211398   7.041   2.177   5.694 -0.3777  0.4398  0.0332
 3818TIP3    H111399   7.109   2.244   5.690  0.3331 -0.2997 -0.8219
 3818TIP3    H211400   7.007   2.172   5.605 -0.2950 -0.4539  0.0407
 3819TIP3   OH211401   4.309   1.116   2.846  0.4162  0.7143 -0.3757
 3819TIP3    H111402   4.322   1.093   2.754  1.8769  1.1530 -0.3057
 3819TIP3    H211403   4.352   1.201   2.856  0.2031  0.7087  0.6849
 3820TIP3   OH211404   7.928   3.244   1.188  0.1354 -0.0047  0.0845
 3820TIP3    H111405   7.896   3.322   1.142  0.2841  2.4582  3.7422
 3820TIP3    H211406   8.022   3.257   1.195 -0.0563  0.5587  2.3441
 3821TIP3   OH211407   6.296   0.337   6.018 -0.1394  0.2707 -0.5326
 3821TIP3    H111408   6.214   0.386   6.010 -1.5654 -1.7488  0.8464
 3821TIP3    H211409   6.310   0.330   6.113  0.2647 -1.5227 -0.6954
 3822TIP3   OH211410   5.804   2.941   0.691  0.1181  0.8420  0.4785
 3822TIP3    H111411   5.756   2.858   0.694  1.5381 -0.0102  0.3536
 3822TIP3    H211412   5.772   2.989   0.768 -0.4006  0.0056  0.8060
 3823TIP3   OH211413   1.834   3.238   0.937 -0.2213 -0.3530  0.1325
 3823TIP3    H111414   1.876   3.153   0.954 -1.2022 -1.0154 -0.6237
 3823TIP3    H211415   1.779   3.222   0.859  1.0452  1.4776 -1.2156
 3824TIP3   OH211416   2.402   0.671   2.309  0.2986 -0.3849  0.3221
 3824TIP3    H111417   2.391   0.591   2.360  0.5002 -1.1010 -0.7200
 3824TIP3    H211418   2.454   0.728   2.364  1.1475 -1.4212  0.6315
 3825TIP3   OH211419   5.354   2.878   2.415  0.1116 -0.5873 -0.1388
 3825TIP3    H111420   5.359   2.948   2.350  1.2289  0.8042  1.3775
 3825TIP3    H211421   5.264   2.846   2.409 -0.7619  1.7144 -0.1321
 3826TIP3   OH211422   3.110   5.101   3.922 -0.2193 -0.2089  0.1758
 3826TIP3    H111423   3.107   5.120   3.828  0.0655 -0.3244  0.1434
 3826TIP3    H211424   3.203   5.098   3.944 -0.2878  1.4549  0.8113
 3827TIP3   OH211425   6.979   5.353   5.267 -0.8965  0.2177  0.1800
 3827TIP3    H111426   7.033   5.329   5.342  0.3169 -0.0606 -0.7576
 3827TIP3    H211427   6.929   5.429   5.297  0.7777  1.1350  0.7476
 3828TIP3   OH211428   2.018   7.752   4.658 -0.1259  0.6432  0.0811
 3828TIP3    H111429   2.032   7.780   4.748  0.4676  0.0842  0.1770
 3828TIP3    H211430   2.023   7.656   4.662  0.5895  0.6382 -0.6453
 3829TIP3   OH211431   6.733   6.655   5.365 -0.3009  0.1261 -0.7926
 3829TIP3    H111432   6.756   6.733   5.313  0.7380 -0.0001 -0.5413
 3829TIP3    H211433   6.652   6.679   5.410  1.1375  1.9058  1.0010
 3830TIP3   OH211434   2.056   7.565   4.348 -0.3339  0.1419  0.4190
 3830TIP3    H111435   2.105   7.647   4.344 -0.1755  0.0534  0.5370
 3830TIP3    H211436   2.095   7.511   4.279 -0.0603 -0.0416  0.7200
 3831TIP3   OH211437   5.646   1.874   4.458 -0.0518  0.1655 -0.0874
 3831TIP3    H111438   5.671   1.831   4.540  0.1755  0.3837 -0.0393
 3831TIP3    H211439   5.688   1.821   4.390  1.3638  1.0528  0.0363
 3832TIP3   OH211440   4.766   3.916   5.921 -0.7163  0.1839 -0.1985
 3832TIP3    H111441   4.717   3.860   5.861  0.2057 -0.5393 -0.3016
 3832TIP3    H211442   4.753   3.877   6.007 -1.0659  0.5263 -0.0944
 3833TIP3   OH211443   3.400   7.446   2.660  0.3718 -0.0440  0.7533
 3833TIP3    H111444   3.395   7.474   2.752 -0.8133  0.0641  0.6779
 3833TIP3    H211445   3.481   7.396   2.655 -0.3831 -1.5569  2.3063
 3834TIP3   OH211446   6.570   7.720   3.123  1.0867 -0.0725 -0.3079
 3834TIP3    H111447   6.524   7.637   3.113 -2.2996  1.3762  1.3808
 3834TIP3    H211448   6.578   7.754   3.033  0.8564 -1.4017 -0.8531
 3835TIP3   OH211449   0.322   0.569   1.524 -0.1941 -0.6578 -0.0033
 3835TIP3    H111450   0.250   0.618   1.486  1.5140  0.5186 -1.9217
 3835TIP3    H211451   0.367   0.530   1.449  2.5735  0.6789  0.8047
 3836TIP3   OH211452   6.180   1.908   3.542  0.1172 -0.1631  0.4395
 3836TIP3    H111453   6.166   2.002   3.552  0.7867  0.0201 -0.3017
 3836TIP3    H211454   6.275   1.897   3.546 -0.0193 -1.0206  2.2599
 3837TIP3   OH211455   2.522   5.777   0.678 -0.8658 -0.1806 -0.0096
 3837TIP3    H111456   2.493   5.815   0.595 -0.1231 -0.4049 -0.3795
 3837TIP3    H211457   2.604   5.733   0.657  1.0553  2.3988  1.4436
 3838TIP3   OH211458   4.148   7.559   0.587  0.3286 -0.1409 -0.3710
 3838TIP3    H111459   4.140   7.467   0.564 -0.1757 -0.4058  0.7898
 3838TIP3    H211460   4.083   7.572   0.657 -0.9288  1.5385 -1.7816
 3839TIP3   OH211461   8.205   4.493   0.108 -0.4785 -0.0890  0.3245
 3839TIP3    H111462   8.113   4.472   0.094 -0.5002  0.3567 -0.2389
 3839TIP3    H211463   8.214   4.583   0.078 -0.3972  0.7845  2.7311
 3840TIP3   OH211464   1.818   0.117   4.256 -0.3062  0.0958  0.4712
 3840TIP3    H111465   1.807   0.026   4.228  0.1181 -0.7094  2.6671
 3840TIP3    H211466   1.907   0.140   4.229  0.5782 -1.1034  2.2000
 3841TIP3   OH211467   8.200   6.760   0.474  0.1878 -0.1574  0.3617
 3841TIP3    H111468   8.270   6.698   0.456  2.1946  1.8802  0.6623
 3841TIP3    H211469   8.161   6.778   0.388 -0.3079 -1.6492  0.2564
 3842TIP3   OH211470   5.127   0.774   6.677 -0.6367  0.5806 -0.7976
 3842TIP3    H111471   5.101   0.863   6.697 -1.3509  0.1149  0.4185
 3842TIP3    H211472   5.049   0.733   6.639 -0.9294 -0.0829  0.4832
 3843TIP3   OH211473   7.625   4.170   1.114  0.2208 -0.8062 -0.6521
 3843TIP3    H111474   7.558   4.238   1.114  2.5095  1.6434 -0.2456
 3843TIP3    H211475   7.671   4.182   1.031  0.9198 -1.6035 -0.3975
 3844TIP3   OH211476   5.686   4.533   2.515  0.8614 -0.0234  0.1354
 3844TIP3    H111477   5.648   4.464   2.568 -0.6902 -0.3574 -1.3489
 3844TIP3    H211478   5.731   4.487   2.444 -1.3333  0.4071 -1.6444
 3845TIP3   OH211479   0.736   5.558   0.335  0.4571  0.5400 -0.6780
 3845TIP3    H111480   0.720   5.559   0.240  0.2370 -2.7393 -0.7800
 3845TIP3    H211481   0.826   5.587   0.344  0.7684  0.0815 -2.0040
 3846TIP3   OH211482   3.352   5.230   1.450 -0.5913  0.1020  0.4226
 3846TIP3    H111483   3.340   5.236   1.355 -0.9861  0.4761  0.4902
 3846TIP3    H211484   3.431   5.280   1.468  0.6799 -1.6773  0.0632
 3847TIP3   OH211485   2.853   6.141   4.752  0.5046 -0.3083 -0.0078
 3847TIP3    H111486   2.887   6.173   4.836  0.4838  1.3698 -0.6030
 3847TIP3    H211487   2.775   6.092   4.775  1.8796 -2.0933  1.1650
 3848TIP3   OH211488   2.765   5.301   6.126  0.4939  0.1382 -0.6457
 3848TIP3    H111489   2.676   5.309   6.094  0.5972 -0.2115 -1.0385
 3848TIP3    H211490   2.793   5.391   6.142 -0.5079  0.1707  1.1467
 3849TIP3   OH211491   7.569   6.367   0.057  0.5670  0.5374  0.3123
 3849TIP3    H111492   7.553   6.287   0.107  3.3649 -0.0757  0.3714
 3849TIP3    H211493   7.533   6.348  -0.030  0.6110 -0.5308  0.5108
 3850TIP3   OH211494   1.992   3.192   3.257 -0.3262 -0.4631 -0.2395
 3850TIP3    H111495   2.061   3.126   3.265  3.7494  3.2481 -0.3834
 3850TIP3    H211496   2.009   3.234   3.172 -1.3870  1.9590  0.6485
 3851TIP3   OH211497   2.385   6.450   4.646 -0.5001  0.0183 -0.7443
 3851TIP3    H111498   2.345   6.480   4.727  0.4471  1.9766 -0.9248
 3851TIP3    H211499   2.416   6.361   4.665 -3.0978 -0.8114 -0.0201
 3852TIP3   OH211500   3.619   7.411   3.298  0.1382 -0.1478 -0.1367
 3852TIP3    H111501   3.647   7.407   3.389 -0.7946 -1.7870  0.1121
 3852TIP3    H211502   3.554   7.482   3.295 -1.1115 -1.2121  0.8731
 3853TIP3   OH211503   0.825   4.105   1.988 -0.2267 -0.2650 -0.4896
 3853TIP3    H111504   0.815   4.010   1.988  1.4985 -0.5031 -1.4801
 3853TIP3    H211505   0.861   4.125   2.074 -1.6580 -0.3366  0.1505
 3854TIP3   OH211506   3.680   1.215   5.388 -0.2441  0.6604  0.3924
 3854TIP3    H111507   3.693   1.229   5.294  0.1339 -1.6877  0.0079
 3854TIP3    H211508   3.743   1.274   5.430  0.8640  0.4826 -0.9290
 3855TIP3   OH211509   5.633   0.262   3.919  0.4223  0.1515 -0.1414
 3855TIP3    H111510   5.635   0.348   3.961 -0.4392  0.4149 -0.6123
 3855TIP3    H211511   5.713   0.260   3.867  1.7348 -0.3527  1.7803
 3856TIP3   OH211512   1.624   3.666   0.932 -0.0953  0.1045 -0.7894
 3856TIP3    H111513   1.701   3.672   0.876  0.1545  1.2021 -0.3553
 3856TIP3    H211514   1.617   3.574   0.954  0.0078 -0.3020 -2.3389
 3857TIP3   OH211515   7.448   3.464   4.960 -0.4527  0.2300 -0.0556
 3857TIP3    H111516   7.434   3.428   5.048 -1.5025  2.2165  0.6372
 3857TIP3    H211517   7.529   3.423   4.931 -1.1944 -2.1262  0.9295
 3858TIP3   OH211518   4.205   4.116   0.291 -0.4245  0.0334 -0.6813
 3858TIP3    H111519   4.265   4.055   0.248  0.7859  1.3060 -0.8483
 3858TIP3    H211520   4.189   4.077   0.377  1.3777  0.0940 -0.2747
 3859TIP3   OH211521   4.215   3.364   4.511  0.5541  0.5281 -0.5830
 3859TIP3    H111522   4.301   3.400   4.534  0.2232  0.0488  1.6106
 3859TIP3    H211523   4.153   3.429   4.541  0.1102  0.4500 -1.3136
 3860TIP3   OH211524   3.655   7.311   2.581  0.2339 -0.1461  0.3642
 3860TIP3    H111525   3.678   7.226   2.542  2.0026  0.5008 -0.0770
 3860TIP3    H211526   3.701   7.375   2.527 -0.7482  1.0899  0.9424
 3861TIP3   OH211527   8.307   7.379   2.962  0.0312 -0.2929  0.0594
 3861TIP3    H111528   8.290   7.321   2.888 -2.5647 -1.5993  1.5530
 3861TIP3    H211529   8.222   7.419   2.981  0.7797  0.5268  1.9026
 3862TIP3   OH211530   3.400   7.569   6.415 -0.1391  0.1297 -0.1494
 3862TIP3    H111531   3.397   7.640   6.480  0.1011 -1.4318  1.6805
 3862TIP3    H211532   3.391   7.489   6.467 -0.4963 -1.1966 -2.1414
 3863TIP3   OH211533   5.992   5.760   2.424  0.4851 -0.0317  0.2187
 3863TIP3    H111534   5.968   5.852   2.412  2.1102  0.2664 -1.0532
 3863TIP3    H211535   6.038   5.737   2.344  2.0849 -1.3007  1.4526
 3864TIP3   OH211536   7.319   4.168   0.387  0.1154 -1.1082  0.4971
 3864TIP3    H111537   7.238   4.203   0.425  0.8346  0.4003  0.6908
 3864TIP3    H211538   7.381   4.167   0.459  0.4031 -1.8978  0.2515
 3865TIP3   OH211539   2.817   3.052   3.150 -0.0133  0.1724 -0.8333
 3865TIP3    H111540   2.833   3.105   3.228  0.6459  0.3642 -1.0894
 3865TIP3    H211541   2.894   2.994   3.145  0.3366  0.7020 -1.7723
 3866TIP3   OH211542   8.236   4.886   3.817  0.2282 -0.4309  0.1123
 3866TIP3    H111543   8.165   4.867   3.878 -0.7554 -2.4518 -1.5505
 3866TIP3    H211544   8.204   4.961   3.767 -0.3886 -0.8153 -0.0783
 3867TIP3   OH211545   0.437   0.414   6.421  0.0459  0.4735  0.3086
 3867TIP3    H111546   0.515   0.361   6.401  0.2483  0.9369 -0.1499
 3867TIP3    H211547   0.470   0.490   6.467 -0.3492 -0.2386  1.8434
 3868TIP3   OH211548   0.059   7.264   4.280 -0.0930 -0.2698 -0.0773
 3868TIP3    H111549   0.040   7.184   4.232  1.6570 -2.0921  2.0784
 3868TIP3    H211550   0.130   7.306   4.231  0.5037 -1.2050 -0.0273
 3869TIP3   OH211551   5.348   3.050   2.113  0.4272 -0.0724  0.1674
 3869TIP3    H111552   5.433   3.090   2.093  1.5577 -2.0843  0.6547
 3869TIP3    H211553   5.317   3.017   2.029  0.0069  0.8154 -0.0421
 3870TIP3   OH211554   0.481   5.762   2.275 -0.1112 -0.3225 -0.2457
 3870TIP3    H111555   0.576   5.761   2.260 -0.3385 -1.4438 -1.7372
 3870TIP3    H211556   0.453   5.673   2.257 -1.3916 -0.1411  0.7379
 3871TIP3   OH211557   0.691   3.283   4.720  0.6361  0.1715 -0.2788
 3871TIP3    H111558   0.655   3.200   4.688  0.6496  0.2852 -0.5894
 3871TIP3    H211559   0.778   3.260   4.754  0.6836  0.0768 -0.4626
 3872TIP3   OH211560   6.986   2.952   2.893 -0.6193 -0.4609 -0.1967
 3872TIP3    H111561   6.985   3.045   2.916 -3.2624 -0.4588 -0.1040
 3872TIP3    H211562   6.946   2.908   2.969 -1.2064 -1.4399 -1.0533
 3873TIP3   OH211563   1.525   2.887   0.153 -0.2499  1.0887 -0.0358
 3873TIP3    H111564   1.612   2.848   0.157  0.1809  1.2293 -4.0164
 3873TIP3    H211565   1.529   2.962   0.212  2.0446  0.6836  0.4158
 3874TIP3   OH211566   4.799   5.366   0.978 -0.2220  0.1768  0.2562
 3874TIP3    H111567   4.794   5.395   0.888  0.4783  1.1391  0.5156
 3874TIP3    H211568   4.764   5.439   1.030 -1.0770 -0.5481  0.7512
 3875TIP3   OH211569   5.065   7.274   1.924  0.2872  0.2070  0.0388
 3875TIP3    H111570   4.992   7.213   1.939  0.1108  0.7514  1.5980
 3875TIP3    H211571   5.143   7.224   1.947  0.3330 -0.0612 -0.6709
 3876TIP3   OH211572   1.102   3.198   2.848 -0.1180  0.5449  0.4809
 3876TIP3    H111573   1.108   3.158   2.935  0.9515  1.4674  0.8589
 3876TIP3    H211574   1.032   3.263   2.856 -2.0802 -1.3925 -0.2258
 3877TIP3   OH211575   7.227   4.385   4.831 -0.0091 -0.1717  0.6559
 3877TIP3    H111576   7.155   4.324   4.850  0.9885 -1.2952  0.8879
 3877TIP3    H211577   7.253   4.420   4.916 -1.1996  1.3743  0.4526
 3878TIP3   OH211578   6.213   7.125   5.794 -0.9119  0.5255  0.8281
 3878TIP3    H111579   6.264   7.105   5.716 -1.7287  1.9684 -0.1151
 3878TIP3    H211580   6.270   7.098   5.867  0.0922 -0.3165 -0.2279
 3879TIP3   OH211581   2.983   3.661   3.417 -0.0327  0.1365 -0.4372
 3879TIP3    H111582   3.055   3.723   3.422  0.4031 -0.4030  0.0546
 3879TIP3    H211583   2.919   3.692   3.481 -1.1741  1.7677 -2.2659
 3880TIP3   OH211584   0.264   7.440   6.688 -0.4643 -0.0455  0.3561
 3880TIP3    H111585   0.353   7.422   6.657  0.0778  0.7753  1.4028
 3880TIP3    H211586   0.259   7.396   6.773 -2.1634 -2.8655 -1.0243
 3881TIP3   OH211587   3.868   3.974   4.372 -0.3999 -0.2686  0.3062
 3881TIP3    H111588   3.862   4.045   4.435 -1.8476 -0.0854 -0.0059
 3881TIP3    H211589   3.959   3.945   4.377 -0.2497  0.3829  1.7558
 3882TIP3   OH211590   6.554   1.580   0.267 -0.2768 -0.0226 -0.2798
 3882TIP3    H111591   6.584   1.671   0.270 -0.9321  0.2605 -1.6309
 3882TIP3    H211592   6.609   1.539   0.200 -1.1709 -0.1522 -0.9488
 3883TIP3   OH211593   2.922   5.302   0.850 -1.0692  0.2200  0.2357
 3883TIP3    H111594   2.896   5.267   0.935  0.6025  0.2954  0.8279
 3883TIP3    H211595   2.956   5.390   0.870 -0.0274 -0.0200 -0.3771
 3884TIP3   OH211596   6.635   6.368   1.183 -0.1653  0.2723  0.2197
 3884TIP3    H111597   6.598   6.370   1.094  1.1523 -0.3445 -0.3663
 3884TIP3    H211598   6.714   6.315   1.175 -0.7314 -0.9324  2.0503
 3885TIP3   OH211599   7.779   0.741   1.334  0.3273  0.0473 -0.0910
 3885TIP3    H111600   7.816   0.700   1.412 -0.5580 -0.7536 -0.0698
 3885TIP3    H211601   7.843   0.808   1.309  2.9337 -2.6762 -1.3399
 3886TIP3   OH211602   8.241   3.373   1.767  0.4005 -0.1373 -0.1815
 3886TIP3    H111603   8.265   3.359   1.858 -0.2397  1.9913  0.3616
 3886TIP3    H211604   8.325   3.380   1.721  0.7242 -1.3970  0.1666
 3887TIP3   OH211605   4.888   1.764   2.960 -0.3490  0.1475 -0.0613
 3887TIP3    H111606   4.980   1.771   2.987 -0.1178 -0.9273 -0.5003
 3887TIP3    H211607   4.885   1.807   2.875 -0.1059 -0.3268 -0.3195
 3888TIP3   OH211608   0.829   2.975   1.846  0.2372  0.1862  0.4939
 3888TIP3    H111609   0.870   2.924   1.915  2.2637  0.8874 -0.1188
 3888TIP3    H211610   0.742   2.937   1.837  0.3737 -0.7680  2.5102
 3889TIP3   OH211611   5.703   2.554   5.525  0.4576 -0.5626  0.5604
 3889TIP3    H111612   5.759   2.483   5.556  1.0386  0.2766  1.4928
 3889TIP3    H211613   5.762   2.629   5.516  0.0746 -0.4610 -1.5021
 3890TIP3   OH211614   6.569   4.611   6.472 -0.1132  0.1668 -0.3321
 3890TIP3    H111615   6.643   4.606   6.411 -1.3110 -0.0693 -1.8555
 3890TIP3    H211616   6.535   4.700   6.462 -0.8564 -0.1442 -0.7128
 3891TIP3   OH211617   7.979   6.705   6.007  0.3201 -0.0184  0.2664
 3891TIP3    H111618   7.959   6.685   5.915 -0.2910  0.4026  0.3021
 3891TIP3    H211619   8.073   6.721   6.008  0.2038  0.7786 -0.4452
 3892TIP3   OH211620   2.961   4.663   6.646 -0.3598  0.0572  0.3891
 3892TIP3    H111621   3.018   4.738   6.635  0.6710 -0.7122  0.3566
 3892TIP3    H211622   2.921   4.650   6.560  0.6266 -0.3449 -0.0203
 3893TIP3   OH211623   3.758   2.916   0.423  0.7466 -0.1535 -0.7170
 3893TIP3    H111624   3.847   2.930   0.453  0.3747  0.1999  0.2655
 3893TIP3    H211625   3.752   2.821   0.410  1.0784 -0.2594 -0.1443
 3894TIP3   OH211626   5.757   6.964   0.150  0.0816  0.2084 -0.2810
 3894TIP3    H111627   5.841   6.986   0.188 -0.0164  1.5786 -0.8256
 3894TIP3    H211628   5.712   7.048   0.139 -0.5663 -0.3006 -1.8200
 3895TIP3   OH211629   4.179   0.890   5.145 -0.3420 -0.0865 -0.1569
 3895TIP3    H111630   4.140   0.947   5.210  1.3431 -0.0758  0.9126
 3895TIP3    H211631   4.105   0.849   5.100 -1.5485 -0.2033  1.8515
 3896TIP3   OH211632   3.310   0.185   5.988 -0.0737 -0.6879 -0.2508
 3896TIP3    H111633   3.336   0.170   5.897  2.1139  0.4999  0.1141
 3896TIP3    H211634   3.362   0.124   6.039  1.0137  0.7150  0.3980
 3897TIP3   OH211635   6.844   6.655   0.329  0.1150  0.6278  0.3901
 3897TIP3    H111636   6.794   6.736   0.340  1.5174  1.3944  1.3690
 3897TIP3    H211637   6.852   6.620   0.418 -0.6273 -0.7072 -0.0396
 3898TIP3   OH211638   7.725   3.436   4.827  0.2257  0.2873 -0.1223
 3898TIP3    H111639   7.783   3.387   4.885  0.1814  0.3496 -0.0253
 3898TIP3    H211640   7.759   3.525   4.829  0.2274  0.2886 -0.1973
 3899TIP3   OH211641   5.179   3.597   6.600  0.8019 -0.3680 -0.1871
 3899TIP3    H111642   5.201   3.672   6.545 -0.1236  0.7241  0.8814
 3899TIP3    H211643   5.230   3.609   6.680 -1.6655  0.9405  1.3374
 3900TIP3   OH211644   5.658   5.035   2.971  1.1198  0.0508  0.6263
 3900TIP3    H111645   5.562   5.027   2.975  1.1037 -1.2336 -0.9303
 3900TIP3    H211646   5.684   5.066   3.057 -0.5717 -1.2772  1.6777
 3901TIP3   OH211647   7.189   0.535   2.844  0.1862  0.6968  0.2759
 3901TIP3    H111648   7.102   0.566   2.817 -0.2920 -1.5252 -1.0499
 3901TIP3    H211649   7.248   0.568   2.777 -0.2240 -0.6427 -0.7909
 3902TIP3   OH211650   2.021   0.955   5.957  0.4516 -0.1075  0.3086
 3902TIP3    H111651   2.028   0.936   6.051  1.1953 -1.5660 -0.0226
 3902TIP3    H211652   2.026   1.051   5.953 -0.6676  0.0676  1.8279
 3903TIP3   OH211653   5.357   4.174   2.895  0.0586  0.0484 -0.0502
 3903TIP3    H111654   5.437   4.190   2.945  0.0572  0.7622 -0.2700
 3903TIP3    H211655   5.374   4.093   2.847  0.7735  0.3753 -0.3492
 3904TIP3   OH211656   4.974   6.786   1.432 -0.0830  0.1102 -0.2603
 3904TIP3    H111657   4.880   6.788   1.415 -0.0014  1.0989 -0.6336
 3904TIP3    H211658   4.997   6.876   1.454  1.0831  0.2384 -1.8505
 3905TIP3   OH211659   2.525   3.508   5.904  0.0434  0.1052 -0.1869
 3905TIP3    H111660   2.498   3.541   5.818 -0.1855 -1.1310 -0.6103
 3905TIP3    H211661   2.616   3.537   5.913  0.0230  0.3695 -0.7765
 3906TIP3   OH211662   5.094   5.078   3.982 -0.3677  0.0905 -0.3767
 3906TIP3    H111663   5.048   5.079   4.066 -0.0766  0.5957 -0.2239
 3906TIP3    H211664   5.130   4.989   3.976 -2.0030 -0.5818 -0.8506
 3907TIP3   OH211665   1.208   1.262   5.055 -0.0886  0.9003  1.0955
 3907TIP3    H111666   1.268   1.199   5.094 -0.2309 -0.9261 -1.4063
 3907TIP3    H211667   1.264   1.329   5.017  0.4283 -0.5003 -0.7374
 3908TIP3   OH211668   2.750   0.455   2.196  0.1546  0.4480  1.3470
 3908TIP3    H111669   2.723   0.486   2.109 -0.8308 -2.9388  0.3026
 3908TIP3    H211670   2.845   0.460   2.195  0.3434 -1.6863 -0.9608
 3909TIP3   OH211671   5.681   6.394   3.976  0.6326  0.3063  0.2700
 3909TIP3    H111672   5.597   6.372   3.935  0.2536  0.0617  1.1591
 3909TIP3    H211673   5.729   6.440   3.908  0.5456 -1.2540 -0.9007
 3910TIP3   OH211674   7.864   2.560   0.485 -0.0188  0.0994 -0.0195
 3910TIP3    H111675   7.858   2.551   0.390 -0.3600  0.1608 -0.0031
 3910TIP3    H211676   7.819   2.482   0.519  0.3871 -0.0891  0.0883
 3911TIP3   OH211677   3.155   7.740   5.325 -0.2979  0.5052 -0.1522
 3911TIP3    H111678   3.235   7.775   5.365 -0.8486  2.1938 -0.4248
 3911TIP3    H211679   3.168   7.646   5.322  0.1460  0.3458  3.2056
 3912TIP3   OH211680   2.056   3.840   2.213  0.0959 -0.5039  0.1932
 3912TIP3    H111681   1.986   3.842   2.279  0.7513 -0.3074  0.8859
 3912TIP3    H211682   2.111   3.766   2.237  0.5553 -0.1991  0.0919
 3913TIP3   OH211683   6.463   7.315   6.471  0.0093 -0.3584  0.3735
 3913TIP3    H111684   6.396   7.382   6.488  0.8967  0.6583 -0.0388
 3913TIP3    H211685   6.538   7.342   6.523 -0.1151 -1.9292  1.4597
 3914TIP3   OH211686   0.605   2.014   1.523 -0.0786 -0.1529  0.1725
 3914TIP3    H111687   0.535   2.024   1.459  0.2954 -2.4373 -0.6982
 3914TIP3    H211688   0.684   2.043   1.478  0.3548 -2.7120 -0.8876
 3915TIP3   OH211689   6.925   7.752   2.874  0.1079  0.6642  0.4949
 3915TIP3    H111690   6.988   7.759   2.803  0.0585 -1.4883  0.1808
 3915TIP3    H211691   6.877   7.835   2.872  0.8570  1.0982 -1.2479
 3916TIP3   OH211692   0.801   6.130   2.888  0.5816 -0.2598 -0.3906
 3916TIP3    H111693   0.873   6.131   2.951 -0.8467 -0.1934  1.3102
 3916TIP3    H211694   0.765   6.218   2.891 -0.5271 -0.7134 -0.0720
 3917TIP3   OH211695   2.532   7.351   4.099 -0.2289  0.9051  0.2430
 3917TIP3    H111696   2.579   7.275   4.067 -0.2974  1.8351 -2.2934
 3917TIP3    H211697   2.451   7.316   4.136  1.0181 -0.4429  1.8032
 3918TIP3   OH211698   1.204   7.527   2.300  0.0911  0.0772  0.0420
 3918TIP3    H111699   1.162   7.478   2.371  1.0303 -1.4129 -0.3909
 3918TIP3    H211700   1.203   7.468   2.225  2.0982  0.3088 -0.2356
 3919TIP3   OH211701   7.515   6.232   0.847  0.0469  0.6588 -0.6369
 3919TIP3    H111702   7.561   6.151   0.826 -0.0822  0.4792 -0.2493
 3919TIP3    H211703   7.424   6.205   0.860  0.3102  0.5329  1.3159
 3920TIP3   OH211704   5.464   7.034   0.871 -0.1091 -0.0760 -0.1240
 3920TIP3    H111705   5.450   7.096   0.943  2.1935  0.7638 -0.3001
 3920TIP3    H211706   5.447   6.948   0.909 -2.2570  0.5330  0.4419
 3921TIP3   OH211707   6.977   3.488   4.507 -0.1252  0.1526  0.3512
 3921TIP3    H111708   7.012   3.469   4.420 -0.0990  1.2020  0.1210
 3921TIP3    H211709   7.037   3.553   4.543  0.9825 -1.6287  1.9487
 3922TIP3   OH211710   7.260   3.337   4.525  0.2009 -0.1170 -0.4519
 3922TIP3    H111711   7.297   3.425   4.514  0.0842  0.0225  0.1967
 3922TIP3    H211712   7.263   3.322   4.620 -0.1852 -0.6366 -0.5187
 3923TIP3   OH211713   7.625   5.626   1.350 -0.0735 -0.4695 -0.2076
 3923TIP3    H111714   7.541   5.582   1.336 -0.8904  1.2530 -1.1013
 3923TIP3    H211715   7.645   5.667   1.265  0.4066  1.1847  0.6508
 3924TIP3   OH211716   4.152   2.001   3.150  0.4061 -0.3270  0.4961
 3924TIP3    H111717   4.156   1.907   3.166  1.2542 -0.9366 -2.7701
 3924TIP3    H211718   4.242   2.031   3.163  0.2288 -0.0123  1.0555
 3925TIP3   OH211719   4.651   0.873   4.167 -0.1729  0.3503 -0.1582
 3925TIP3    H111720   4.650   0.782   4.135 -0.3640  0.7851 -1.4492
 3925TIP3    H211721   4.600   0.922   4.102 -0.0561  1.3917  0.5110
 3926TIP3   OH211722   4.240   5.917   6.701  0.3751  0.7276 -0.5365
 3926TIP3    H111723   4.302   5.990   6.702  1.3572 -0.0851  0.6835
 3926TIP3    H211724   4.278   5.855   6.639 -0.4942  1.2557 -1.6250
 3927TIP3   OH211725   1.216   3.801   2.623 -0.5007 -0.2651 -0.1504
 3927TIP3    H111726   1.263   3.875   2.584  0.8436 -1.3192 -0.5953
 3927TIP3    H211727   1.125   3.831   2.628 -0.0798  1.2250 -0.7850
 3928TIP3   OH211728   5.995   1.469   0.162  0.1396 -0.1344 -0.0867
 3928TIP3    H111729   6.054   1.433   0.095  1.6894  0.2397  1.0225
 3928TIP3    H211730   5.966   1.553   0.126  1.9575  0.6508  0.2002
 3929TIP3   OH211731   6.769   2.407   4.316  0.1153  0.5706 -0.3328
 3929TIP3    H111732   6.730   2.459   4.387  0.0681  0.6046 -0.3842
 3929TIP3    H211733   6.719   2.430   4.238  0.6709  1.1409 -0.5398
 3930TIP3   OH211734   7.814   1.285   0.931  0.1854 -0.5010  0.8025
 3930TIP3    H111735   7.753   1.281   1.004 -0.1246 -0.3438  0.5557
 3930TIP3    H211736   7.786   1.362   0.881 -1.8847 -2.5775 -1.4850
 3931TIP3   OH211737   2.581   3.876   3.351  0.1790  0.1671 -0.0218
 3931TIP3    H111738   2.587   3.869   3.447 -0.2888  2.6943  0.2434
 3931TIP3    H211739   2.499   3.923   3.335 -0.0845 -0.7828 -1.7309
 3932TIP3   OH211740   7.977   5.751   3.623  0.2178 -0.2077 -0.7394
 3932TIP3    H111741   7.970   5.656   3.635  1.9861 -0.4398 -1.2957
 3932TIP3    H211742   7.991   5.785   3.712 -1.1415 -0.3541 -0.4407
 3933TIP3   OH211743   3.811   2.863   3.409  0.0750  0.3362 -0.3517
 3933TIP3    H111744   3.762   2.838   3.487  1.0908 -0.1512  0.1526
 3933TIP3    H211745   3.776   2.949   3.385 -0.4036  0.3961  0.4994
 3934TIP3   OH211746   2.737   0.553   4.167  0.0728  0.0950 -0.1979
 3934TIP3    H111747   2.685   0.587   4.094 -0.5956 -1.0018 -0.2578
 3934TIP3    H211748   2.821   0.530   4.128  0.5979  1.7558 -0.1275
 3935TIP3   OH211749   2.178   6.908   1.902  0.3491  0.0963  0.0938
 3935TIP3    H111750   2.262   6.862   1.897 -0.1528 -0.8402 -0.0053
 3935TIP3    H211751   2.126   6.856   1.963  0.1279  1.1521  0.8381
 3936TIP3   OH211752   5.808   0.340   6.190 -0.4033 -0.6600 -0.6040
 3936TIP3    H111753   5.764   0.255   6.186  0.0268 -0.8641 -1.1868
 3936TIP3    H211754   5.742   0.403   6.164 -0.3874 -0.9508 -1.3588
 3937TIP3   OH211755   4.033   7.619   3.965 -0.0316 -0.5818 -0.0368
 3937TIP3    H111756   4.085   7.687   3.922  0.8711 -1.2010  0.0474
 3937TIP3    H211757   4.075   7.537   3.938 -1.3604 -1.1374 -0.4813
 3938TIP3   OH211758   6.836   7.749   1.487 -0.1198  0.1554  0.2052
 3938TIP3    H111759   6.771   7.819   1.481 -1.1858 -0.9067 -1.1403
 3938TIP3    H211760   6.900   7.782   1.551 -0.8263  2.1436 -0.0336
 3939TIP3   OH211761   1.420   5.864   4.988 -0.1027  0.0243  0.1249
 3939TIP3    H111762   1.391   5.856   4.897 -0.7308  1.8860  0.1116
 3939TIP3    H211763   1.339   5.864   5.039  0.2094 -0.3408  0.6255
 3940TIP3   OH211764   0.853   7.209   3.728  0.2224 -0.6571  0.6594
 3940TIP3    H111765   0.891   7.275   3.786 -1.1068  0.5345  0.2259
 3940TIP3    H211766   0.901   7.218   3.646  0.3258 -0.5197  0.7353
 3941TIP3   OH211767   3.304   2.313   2.946  0.0682 -0.2339 -0.1277
 3941TIP3    H111768   3.321   2.311   3.040  1.0594 -0.8543 -0.3101
 3941TIP3    H211769   3.252   2.234   2.929 -0.7360  0.2491 -0.0076
 3942TIP3   OH211770   2.259   3.241   0.532 -0.3628 -0.6067  0.4382
 3942TIP3    H111771   2.243   3.279   0.446 -1.9245  1.4155  1.5119
 3942TIP3    H211772   2.354   3.231   0.537  0.0573  2.1077 -0.4330
 3943TIP3   OH211773   7.299   7.117   2.827  0.2773  1.0504 -0.0760
 3943TIP3    H111774   7.308   7.026   2.800 -0.3191  1.0871 -0.4144
 3943TIP3    H211775   7.316   7.168   2.748 -1.2154  1.1671 -0.3463
 3944TIP3   OH211776   1.193   4.648   4.784 -0.4199  0.4603 -0.2876
 3944TIP3    H111777   1.102   4.656   4.754 -0.0988  2.7050 -0.8121
 3944TIP3    H211778   1.244   4.641   4.704  0.0433  1.6045 -0.1069
 3945TIP3   OH211779   1.223   3.250   3.117 -0.2695  0.6709  0.7158
 3945TIP3    H111780   1.284   3.262   3.189  2.2449 -1.2551 -0.8879
 3945TIP3    H211781   1.163   3.181   3.148 -0.3052  1.0658  1.5524
 3946TIP3   OH211782   1.444   2.875   4.690 -0.6244  0.4666 -0.0097
 3946TIP3    H111783   1.404   2.943   4.744 -0.2133  1.3439 -0.7895
 3946TIP3    H211784   1.385   2.866   4.615  0.0759  1.0346 -0.6494
 3947TIP3   OH211785   3.349   1.568   2.923 -0.0960 -0.2709  0.2147
 3947TIP3    H111786   3.353   1.612   3.008 -2.9710 -1.6367  1.1685
 3947TIP3    H211787   3.261   1.585   2.891  0.5816 -0.6782 -2.0530
 3948TIP3   OH211788   4.464   5.140   5.380  0.3355  0.2029 -0.2744
 3948TIP3    H111789   4.413   5.131   5.300  0.3365  0.2311 -0.2783
 3948TIP3    H211790   4.438   5.066   5.435  1.6941 -0.8964 -1.0562
 3949TIP3   OH211791   7.866   6.960   2.537 -0.1087 -0.1137  0.1216
 3949TIP3    H111792   7.836   7.051   2.539  1.1693  0.5295 -3.1253
 3949TIP3    H211793   7.876   6.940   2.444 -0.3478 -3.6292  0.7186
 3950TIP3   OH211794   7.989   6.976   0.487 -0.2411  0.3803  0.2213
 3950TIP3    H111795   8.004   6.897   0.539  2.0344  0.6632  0.0726
 3950TIP3    H211796   7.978   7.046   0.552 -2.1935  0.0133  0.3511
 3951TIP3   OH211797   8.111   6.092   5.249  0.2957  0.0358 -0.8579
 3951TIP3    H111798   8.155   6.170   5.217  0.8189 -0.0608 -0.3965
 3951TIP3    H211799   8.120   6.096   5.344 -0.7991  0.0675 -0.7441
 3952TIP3   OH211800   1.200   5.418   3.723  0.5212 -0.0466  0.0290
 3952TIP3    H111801   1.277   5.442   3.776  1.2753 -0.2253 -0.9576
 3952TIP3    H211802   1.218   5.328   3.694 -0.3534 -0.3119  0.2921
 3953TIP3   OH211803   2.895   0.538   4.405  0.0916 -0.2085 -0.2980
 3953TIP3    H111804   2.935   0.453   4.390  1.0141  0.2079 -0.2870
 3953TIP3    H211805   2.956   0.584   4.463  0.4861  1.0847 -1.6629
 3954TIP3   OH211806   7.754   0.998   6.054  0.0866 -0.1078 -0.0206
 3954TIP3    H111807   7.660   0.999   6.075  0.3162 -2.5208  1.5366
 3954TIP3    H211808   7.795   0.961   6.132  2.1574 -0.6327 -1.2923
 3955TIP3   OH211809   7.444   5.211   3.149 -0.5844 -0.2483 -0.6153
 3955TIP3    H111810   7.393   5.132   3.168 -0.9720 -0.2171 -1.4565
 3955TIP3    H211811   7.482   5.194   3.063  1.1106 -0.4030  0.1358
 3956TIP3   OH211812   3.394   4.168   0.316 -0.0563 -0.1491  0.0257
 3956TIP3    H111813   3.383   4.123   0.400 -0.8142  1.2014  0.6791
 3956TIP3    H211814   3.312   4.215   0.303 -0.2357 -0.8789 -1.8401
 3957TIP3   OH211815   0.207   6.173   3.382 -0.2439  0.1664  0.3754
 3957TIP3    H111816   0.220   6.136   3.295 -0.0366 -0.4667  0.6643
 3957TIP3    H211817   0.115   6.200   3.384 -0.4035 -0.3604  0.1637
 3958TIP3   OH211818   7.038   5.851   5.966  0.2459  0.5153 -0.6227
 3958TIP3    H111819   7.022   5.901   5.886 -1.0601 -1.3826 -1.6389
 3958TIP3    H211820   7.052   5.762   5.936  0.4267 -0.1331  1.2429
 3959TIP3   OH211821   0.723   4.420   4.440  0.0076 -0.3842 -0.0308
 3959TIP3    H111822   0.727   4.377   4.526 -0.8166 -2.5459 -1.0136
 3959TIP3    H211823   0.630   4.416   4.417  0.2742 -0.1186 -1.1690
 3960TIP3   OH211824   2.548   2.915   6.359  0.4999  0.0299 -0.1011
 3960TIP3    H111825   2.479   2.981   6.351 -0.4864 -0.9767 -0.1967
 3960TIP3    H211826   2.506   2.833   6.333  1.2745 -0.8871  1.3871
 3961TIP3   OH211827   8.155   4.602   2.909 -0.5185 -0.3153  0.4348
 3961TIP3    H111828   8.232   4.610   2.852  0.3257 -0.6632  1.4906
 3961TIP3    H211829   8.081   4.617   2.851  0.4110  2.7224 -0.1352
 3962TIP3   OH211830   3.539   5.509   3.861 -0.4701  0.1767  0.3920
 3962TIP3    H111831   3.472   5.463   3.911 -0.0622  0.3308  1.0892
 3962TIP3    H211832   3.589   5.439   3.818 -1.1103  0.0641 -0.1903
 3963TIP3   OH211833   2.232   7.437   1.258 -0.4775 -0.0996 -0.1645
 3963TIP3    H111834   2.325   7.456   1.272 -0.2303 -1.7501  0.7191
 3963TIP3    H211835   2.226   7.412   1.166 -0.0994  0.2981 -0.2988
 3964TIP3   OH211836   3.396   1.248   2.943 -0.3121  0.2407 -0.3292
 3964TIP3    H111837   3.317   1.296   2.969 -0.4258  1.0862 -2.0765
 3964TIP3    H211838   3.362   1.168   2.902 -0.2276  0.0896 -0.1024
 3965TIP3   OH211839   0.903   1.979   5.046  0.0001  0.1766  0.0276
 3965TIP3    H111840   0.837   1.912   5.066  1.2805 -0.8195  1.0803
 3965TIP3    H211841   0.986   1.934   5.058  0.9159  1.1864 -2.0355
 3966TIP3   OH211842   4.775   6.047   0.631 -0.4941  0.0982 -0.7150
 3966TIP3    H111843   4.781   6.033   0.726  2.1914  1.8539 -0.5240
 3966TIP3    H211844   4.688   6.085   0.618 -1.0933 -0.6106  0.9775
 3967TIP3   OH211845   5.700   4.366   2.166 -0.0938 -0.3012  0.1187
 3967TIP3    H111846   5.720   4.366   2.072  0.5638 -1.7933  0.2292
 3967TIP3    H211847   5.605   4.369   2.170 -0.1524 -0.8440 -0.6189
 3968TIP3   OH211848   2.718   3.251   1.605 -0.4031  0.3638 -0.0264
 3968TIP3    H111849   2.696   3.309   1.678 -1.1059 -1.7164  1.5350
 3968TIP3    H211850   2.638   3.200   1.590  0.2634 -0.4046 -1.1308
 3969TIP3   OH211851   1.800   6.996   4.223 -0.2947  0.1004  0.4889
 3969TIP3    H111852   1.806   7.065   4.289  0.1393 -0.6922  1.3149
 3969TIP3    H211853   1.801   7.041   4.139 -0.9529  1.1475  1.0266
 3970TIP3   OH211854   0.401   3.029   3.323 -0.0493 -0.1742  0.2419
 3970TIP3    H111855   0.391   2.937   3.295 -2.6050  0.3821 -1.0031
 3970TIP3    H211856   0.317   3.051   3.363  1.0551  1.2348  1.9146
 3971TIP3   OH211857   7.726   7.148   1.757  0.4898  0.3026  0.3697
 3971TIP3    H111858   7.705   7.241   1.755  0.9731  0.3978 -0.3115
 3971TIP3    H211859   7.783   7.138   1.833  2.2439  0.9648 -0.8094
 3972TIP3   OH211860   7.138   5.777   0.149 -0.5329  0.7358 -0.5030
 3972TIP3    H111861   7.079   5.710   0.116  1.3022 -0.1104 -2.2781
 3972TIP3    H211862   7.225   5.745   0.127  0.6652  1.7244  2.3965
 3973TIP3   OH211863   3.434   0.122   3.891 -0.0931 -0.4374 -0.2428
 3973TIP3    H111864   3.401   0.056   3.952  0.5519 -0.4096  0.1401
 3973TIP3    H211865   3.471   0.190   3.947  0.0658 -0.1837 -0.6536
 3974TIP3   OH211866   5.264   2.987   1.861  0.4617  1.1822 -0.2708
 3974TIP3    H111867   5.186   2.949   1.820  1.5088  0.0318 -1.3012
 3974TIP3    H211868   5.261   3.079   1.837 -0.2942  1.0416 -0.7759
 3975TIP3   OH211869   7.436   3.297   0.078 -0.1245  0.3471 -0.3309
 3975TIP3    H111870   7.523   3.319   0.044 -0.6472  0.8944 -1.3600
 3975TIP3    H211871   7.419   3.208   0.045 -0.4891  0.7468 -1.2628
 3976TIP3   OH211872   6.817   3.568   3.760 -0.0668  0.1267 -0.0234
 3976TIP3    H111873   6.793   3.499   3.698  0.2444 -0.8232  0.8883
 3976TIP3    H211874   6.750   3.563   3.828  1.6511 -1.4239  1.6677
 3977TIP3   OH211875   1.535   4.237   3.904 -0.2547  0.1376 -0.0236
 3977TIP3    H111876   1.448   4.249   3.864 -0.1771  1.0499  0.0694
 3977TIP3    H211877   1.567   4.156   3.865 -1.9252 -1.2893  1.3524
 3978TIP3   OH211878   7.479   3.264   1.638  0.4390  0.3062  0.3319
 3978TIP3    H111879   7.422   3.338   1.660 -0.0918  0.4337 -1.3728
 3978TIP3    H211880   7.440   3.190   1.684 -0.2388  0.6867  0.3830
 3979TIP3   OH211881   6.249   3.073   5.306  0.7896  0.0500  0.6211
 3979TIP3    H111882   6.242   3.039   5.395 -2.3068 -1.1446  0.0522
 3979TIP3    H211883   6.179   3.030   5.258  1.4267  1.7470 -2.0705
 3980TIP3   OH211884   4.399   5.555   3.020 -0.3441 -0.0312 -0.1725
 3980TIP3    H111885   4.482   5.585   2.982 -0.9961  1.8894 -0.1898
 3980TIP3    H211886   4.405   5.579   3.113 -1.6474  2.0016 -0.5664
 3981TIP3   OH211887   4.867   4.421   3.260 -0.0173  0.3232 -0.2375
 3981TIP3    H111888   4.820   4.387   3.183  0.1746  0.8559 -0.5909
 3981TIP3    H211889   4.912   4.499   3.228 -0.9131  1.2455  0.7148
 3982TIP3   OH211890   4.921   3.969   1.949 -0.6191  0.2363  0.2673
 3982TIP3    H111891   5.015   3.955   1.939 -0.5837 -0.0691  1.0008
 3982TIP3    H211892   4.910   4.063   1.935 -0.0082  0.5237  1.5992
 3983TIP3   OH211893   0.711   3.513   1.043  0.5410  0.0068  0.1946
 3983TIP3    H111894   0.703   3.583   0.978  1.1403 -0.1021 -0.0032
 3983TIP3    H211895   0.805   3.509   1.062  0.6772 -1.5123 -0.6730
 3984TIP3   OH211896   1.460   0.757   4.455 -0.0415  0.3234  0.7568
 3984TIP3    H111897   1.474   0.663   4.463 -1.3264 -0.1196 -1.4516
 3984TIP3    H211898   1.547   0.794   4.443  0.4420 -0.6202  1.2568
 3985TIP3   OH211899   2.781   6.747   1.511  0.8295 -0.9398  0.4619
 3985TIP3    H111900   2.731   6.816   1.468 -0.5345 -2.2294 -0.1086
 3985TIP3    H211901   2.788   6.774   1.602 -1.5166 -1.0068  0.7206
 3986TIP3   OH211902   2.798   2.159   0.407  0.4025 -0.2101  0.1681
 3986TIP3    H111903   2.777   2.221   0.338 -2.2767 -0.1977  0.8943
 3986TIP3    H211904   2.879   2.193   0.445 -0.3742  2.2525 -0.1835
 3987TIP3   OH211905   5.766   4.601   1.642 -0.4482 -0.2418  0.2976
 3987TIP3    H111906   5.696   4.650   1.686 -0.6632 -0.4229  0.1587
 3987TIP3    H211907   5.841   4.609   1.701 -0.3801  0.5448  0.1151
 3988TIP3   OH211908   0.516   6.808   5.614 -0.1446 -0.0357 -0.4509
 3988TIP3    H111909   0.528   6.872   5.684 -0.6431 -1.1570  0.7238
 3988TIP3    H211910   0.423   6.785   5.618 -0.2295  0.0356 -1.6503
 3989TIP3   OH211911   4.779   3.071   2.601 -0.7804 -0.1012  0.3555
 3989TIP3    H111912   4.769   3.163   2.622 -0.1541  0.0663 -0.0447
 3989TIP3    H211913   4.762   3.065   2.507 -1.1421 -0.4471  0.4403
 3990TIP3   OH211914   1.823   4.448   3.621 -0.0284 -0.5279 -0.2668
 3990TIP3    H111915   1.734   4.475   3.642 -0.4773 -0.9405 -1.5382
 3990TIP3    H211916   1.815   4.357   3.593  0.8776 -0.7544  0.1639
 3991TIP3   OH211917   7.360   0.018   0.834  0.3181  0.4264  0.6137
 3991TIP3    H111918   7.418   0.023   0.910 -0.2577  1.4379  1.0074
 3991TIP3    H211919   7.272   0.029   0.871 -0.0655 -0.2886 -0.0676
 3992TIP3   OH211920   3.203   3.816   3.707 -0.0532 -0.3754  0.1403
 3992TIP3    H111921   3.165   3.886   3.761 -1.0166 -0.2902 -0.6335
 3992TIP3    H211922   3.195   3.738   3.761  0.2046 -0.0600  0.6468
 3993TIP3   OH211923   4.616   4.057   4.914 -0.6111  0.2170 -0.2530
 3993TIP3    H111924   4.707   4.088   4.919 -0.7295  0.5568 -0.2030
 3993TIP3    H211925   4.618   3.972   4.958 -0.1226 -0.2307 -1.1050
 3994TIP3   OH211926   0.966   5.018   3.546 -0.6420  0.1458 -0.1719
 3994TIP3    H111927   0.972   4.980   3.458 -1.8155 -1.1885  0.3018
 3994TIP3    H211928   0.960   4.943   3.605 -0.0958  1.0226  1.0515
 3995TIP3   OH211929   5.328   3.237   5.888 -0.5686  0.0737  1.2903
 3995TIP3    H111930   5.307   3.149   5.859 -0.2206 -0.0888  1.5277
 3995TIP3    H211931   5.305   3.293   5.814  0.9823 -0.4053  0.4039
 3996TIP3   OH211932   2.744   4.820   1.051 -0.0790  0.0855  0.3776
 3996TIP3    H111933   2.800   4.785   1.120  0.9271 -1.8194 -1.3066
 3996TIP3    H211934   2.710   4.743   1.006  1.2591  1.1771 -2.7721
 3997TIP3   OH211935   3.258   7.779   1.333 -0.1183  0.2070 -0.1295
 3997TIP3    H111936   3.283   7.848   1.271  1.2988  0.3968  0.6147
 3997TIP3    H211937   3.295   7.699   1.296 -1.3299 -0.1091 -0.7290
 3998TIP3   OH211938   1.362   0.367   5.100  0.0251  0.3402 -0.0002
 3998TIP3    H111939   1.381   0.290   5.154  0.0917 -1.2877 -2.2226
 3998TIP3    H211940   1.444   0.384   5.053  0.1747  2.1319  0.8194
 3999TIP3   OH211941   1.301   7.095   4.265  0.0906 -0.4437 -0.4264
 3999TIP3    H111942   1.384   7.063   4.230 -0.6338 -1.9071 -0.9136
 3999TIP3    H211943   1.301   7.069   4.357  1.0979  1.5575  0.1981
 4000TIP3   OH211944   1.650   3.038   2.458 -0.1115  0.4357  0.4254
 4000TIP3    H111945   1.730   3.082   2.429  0.4489 -0.2010  0.9640
 4000TIP3    H211946   1.583   3.106   2.456  0.7612  1.3599  1.3734
 4001TIP3   OH211947   1.044   7.070   0.770  0.0723  0.1711 -0.1059
 4001TIP3    H111948   1.024   7.164   0.776  0.8461  0.2911  1.1275
 4001TIP3    H211949   0.971   7.033   0.722  0.6269  1.6622 -2.2212
 4002TIP3   OH211950   3.964   4.023   3.214 -0.1867  0.6149 -0.5769
 4002TIP3    H111951   3.924   4.104   3.245  0.2993  0.7570 -0.3063
 4002TIP3    H211952   3.936   3.957   3.277 -2.8914 -0.0309 -2.3209
 4003TIP3   OH211953   1.200   0.593   1.798 -0.4258  0.2089  0.3034
 4003TIP3    H111954   1.212   0.651   1.722 -0.5319 -0.3793 -0.1749
 4003TIP3    H211955   1.145   0.643   1.858 -0.1200  0.7858  0.1078
 4004TIP3   OH211956   6.461   2.990   4.178 -0.0781  0.0362 -0.7210
 4004TIP3    H111957   6.419   2.947   4.103  0.4988 -0.2710 -0.8763
 4004TIP3    H211958   6.480   3.079   4.147 -0.6106  0.1741 -0.6502
 4005TIP3   OH211959   3.825   1.544   0.475 -0.5466  0.4181  0.4023
 4005TIP3    H111960   3.821   1.565   0.382 -1.0061  0.6892  0.4843
 4005TIP3    H211961   3.764   1.605   0.517 -0.3507  0.2925  0.8803
 4006TIP3   OH211962   4.461   3.183   0.651  0.2886 -0.2319 -0.1246
 4006TIP3    H111963   4.503   3.260   0.690  0.1154 -0.0682 -0.2551
 4006TIP3    H211964   4.501   3.108   0.695 -0.7356 -0.0316  1.2533
 4007TIP3   OH211965   2.493   5.174   4.420 -0.3786 -0.3483 -0.1336
 4007TIP3    H111966   2.477   5.140   4.509  1.6085 -2.4028 -0.4719
 4007TIP3    H211967   2.507   5.268   4.433 -1.2396 -0.4108  1.5620
 4008TIP3   OH211968   4.921   7.472   5.348  0.2827 -0.3878  0.3564
 4008TIP3    H111969   4.957   7.432   5.269 -2.9536 -2.5102 -0.1927
 4008TIP3    H211970   4.849   7.527   5.317 -1.0658 -1.2726  1.7992
 4009TIP3   OH211971   7.915   7.142   4.079 -0.3459  0.3222 -0.2453
 4009TIP3    H111972   7.984   7.208   4.065 -0.4987  0.7184  0.8395
 4009TIP3    H211973   7.855   7.182   4.141 -0.8367 -0.5591 -0.1338
 4010TIP3   OH211974   8.062   4.030   3.523 -0.7024  0.3635 -0.1767
 4010TIP3    H111975   8.120   3.958   3.546  0.0847  1.1639  0.4285
 4010TIP3    H211976   8.119   4.094   3.480 -1.8040 -0.2959 -2.8036
 4011TIP3   OH211977   5.073   3.813   0.358  0.0752  0.5444 -0.0636
 4011TIP3    H111978   4.979   3.798   0.351  0.4081 -1.2493 -1.8393
 4011TIP3    H211979   5.103   3.747   0.422  0.4171 -0.6932 -1.4441
 4012TIP3   OH211980   7.221   0.985   6.045 -0.0190 -0.3136 -0.4267
 4012TIP3    H111981   7.159   0.957   6.112 -0.7603  0.7829 -0.6225
 4012TIP3    H211982   7.178   1.059   6.003  0.0005 -1.5760 -2.7937
 4013TIP3   OH211983   3.246   7.033   5.317 -0.6616  0.3184 -0.0306
 4013TIP3    H111984   3.299   6.959   5.289  1.0859  2.0116 -1.5231
 4013TIP3    H211985   3.277   7.053   5.406 -0.2243  0.0462 -0.1206
 4014TIP3   OH211986   0.882   4.599   0.408  0.3121 -0.1410 -0.2309
 4014TIP3    H111987   0.921   4.667   0.463  1.6498 -0.9508 -0.1545
 4014TIP3    H211988   0.955   4.544   0.382 -0.9736 -2.9659  1.6137
 4015TIP3   OH211989   4.586   1.685   1.512 -0.1017 -0.2066 -0.4379
 4015TIP3    H111990   4.611   1.661   1.423 -2.9335 -3.4767 -0.5357
 4015TIP3    H211991   4.552   1.774   1.504  1.9309  0.5053 -2.0631
 4016TIP3   OH211992   1.087   2.693   5.202 -0.4075 -0.1276 -0.2647
 4016TIP3    H111993   1.117   2.752   5.132 -0.1837 -0.4921 -0.4770
 4016TIP3    H211994   1.047   2.620   5.155  0.2779 -0.6628 -0.0254
 4017TIP3   OH211995   0.465   3.739   1.366  0.3819  0.1363 -0.4941
 4017TIP3    H111996   0.459   3.667   1.303  0.4149  0.4221 -0.8293
 4017TIP3    H211997   0.521   3.705   1.436 -1.1511 -0.8506  0.3155
 4018TIP3   OH211998   5.089   5.037   4.724  0.0164  0.5472  0.5637
 4018TIP3    H111999   5.160   5.078   4.673  0.4524 -1.0393 -0.1700
 4018TIP3    H212000   5.065   5.103   4.789  0.9181  1.8199 -0.3454
 4019TIP3   OH212001   3.951   0.430   6.726 -0.2581 -0.1057  0.2530
 4019TIP3    H112002   4.033   0.406   6.682  0.4762 -0.3859  1.6991
 4019TIP3    H212003   3.979   0.455   6.814 -1.7610 -0.3434  0.8148
 4020TIP3   OH212004   4.654   6.445   4.924  0.1323 -0.0080  1.0417
 4020TIP3    H112005   4.702   6.482   4.998 -0.7236  0.2418  1.4829
 4020TIP3    H212006   4.592   6.513   4.899 -1.3459 -1.0348  1.7487
 4021TIP3   OH212007   2.028   2.600   2.037  0.0700 -0.8107  0.0018
 4021TIP3    H112008   2.082   2.524   2.060  1.8454  0.5541  0.6158
 4021TIP3    H212009   1.968   2.610   2.111  0.2610 -1.2397  0.2200
 4022TIP3   OH212010   7.894   7.165   2.831  0.2002 -0.9200  0.3162
 4022TIP3    H112011   7.809   7.125   2.850 -0.6956  0.3565 -0.7968
 4022TIP3    H212012   7.878   7.222   2.755  1.8263  0.0999  0.6735
 4023TIP3   OH212013   6.731   6.518   4.971 -0.4357  0.0262 -0.7635
 4023TIP3    H112014   6.662   6.583   4.988 -0.7147 -0.6843  1.0883
 4023TIP3    H212015   6.708   6.444   5.027  2.6738  0.3816  1.1942
 4024TIP3   OH212016   5.364   1.534   3.491 -0.5870  0.3952  0.0458
 4024TIP3    H112017   5.403   1.615   3.459  0.4307  0.6477  1.7565
 4024TIP3    H212018   5.438   1.473   3.500 -0.8580  0.2344  1.4672
 4025TIP3   OH212019   2.173   2.704   1.596 -0.3954 -0.7135  0.0569
 4025TIP3    H112020   2.145   2.735   1.510 -0.6172  1.2111  0.7751
 4025TIP3    H212021   2.099   2.651   1.627 -1.7475  1.2108  0.3465
 4026TIP3   OH212022   0.852   0.192   0.643 -0.1605  0.1147 -0.4060
 4026TIP3    H112023   0.850   0.175   0.737 -0.6654 -0.5192 -0.5290
 4026TIP3    H212024   0.917   0.262   0.633  1.1982 -1.0184  0.2167
 4027TIP3   OH212025   5.257   7.466   1.852  0.3345 -0.6259 -0.1722
 4027TIP3    H112026   5.175   7.418   1.864 -0.8920  0.7406 -2.3817
 4027TIP3    H212027   5.323   7.398   1.839 -0.9796 -1.7546 -1.2115
 4028TIP3   OH212028   3.446   5.414   3.031 -0.1164 -0.9746  0.0044
 4028TIP3    H112029   3.522   5.468   3.055  0.0082 -0.0686 -2.1666
 4028TIP3    H212030   3.389   5.417   3.108  0.3061  1.5768  0.3229
 4029TIP3   OH212031   5.434   2.311   0.363 -0.4305  0.0915  0.4633
 4029TIP3    H112032   5.459   2.267   0.282 -0.5269 -0.1964  0.5904
 4029TIP3    H212033   5.515   2.349   0.395 -0.4201  0.3465  0.1491
 4030TIP3   OH212034   7.310   2.358   4.244  0.1287 -0.1814 -0.2332
 4030TIP3    H112035   7.326   2.440   4.196  0.7428  0.2441  0.6727
 4030TIP3    H212036   7.227   2.374   4.290  0.2381 -0.0833 -0.0723
 4031TIP3   OH212037   1.369   3.322   4.761 -0.2031  0.8445  0.0235
 4031TIP3    H112038   1.369   3.235   4.801 -1.2193  0.6700 -0.3217
 4031TIP3    H212039   1.401   3.308   4.672  0.2929  0.9359  0.1870
 4032TIP3   OH212040   1.667   0.790   5.115 -0.3066 -0.1017 -0.0556
 4032TIP3    H112041   1.706   0.705   5.137  1.2898  0.5808 -0.1149
 4032TIP3    H212042   1.588   0.795   5.169 -0.5714 -1.7269 -0.2468
 4033TIP3   OH212043   5.403   1.567   0.529 -0.4814  0.0851 -0.2837
 4033TIP3    H112044   5.326   1.510   0.535  0.1134 -0.9559 -1.7865
 4033TIP3    H212045   5.392   1.630   0.600 -1.5287 -1.4841  1.0182
 4034TIP3   OH212046   8.237   0.773   5.810 -0.3258  1.5807 -0.3147
 4034TIP3    H112047   8.196   0.709   5.752  0.3926  2.3130 -1.7050
 4034TIP3    H212048   8.165   0.825   5.845 -0.9397 -0.1200  1.0514
 4035TIP3   OH212049   0.987   3.227   1.081  0.5587 -0.4050  0.2032
 4035TIP3    H112050   0.908   3.218   1.027  0.8039  0.7369 -0.3823
 4035TIP3    H212051   1.059   3.208   1.021  0.8180  0.5939  0.1769
 4036TIP3   OH212052   2.425   3.671   5.699  0.0285 -0.0592  0.2753
 4036TIP3    H112053   2.351   3.731   5.695 -0.3302 -0.5502 -0.7623
 4036TIP3    H212054   2.420   3.620   5.618  2.1629  0.6618 -0.3831
 4037TIP3   OH212055   5.238   5.858   1.151 -0.0901  0.7059 -0.4728
 4037TIP3    H112056   5.277   5.896   1.073  0.5450  1.7547  0.3302
 4037TIP3    H212057   5.305   5.868   1.219 -1.1460  1.1090  0.5503
 4038TIP3   OH212058   0.881   4.138   0.082 -0.3800  0.2644 -0.6543
 4038TIP3    H112059   0.847   4.049   0.071 -0.3977  0.2542 -0.5195
 4038TIP3    H212060   0.971   4.133   0.051  0.2783 -0.2864  1.2130
 4039TIP3   OH212061   0.524   7.726   3.972 -0.2928  0.2022 -0.1133
 4039TIP3    H112062   0.477   7.644   3.962  1.0650 -0.5544 -0.4790
 4039TIP3    H212063   0.606   7.702   4.014  0.2877  1.3003 -0.5701
 4040TIP3   OH212064   4.909   5.444   6.290  0.1168  0.2447 -0.3789
 4040TIP3    H112065   4.896   5.351   6.268  0.2187  0.1345  0.0341
 4040TIP3    H212066   4.839   5.464   6.351 -0.5409  0.7205 -1.2661
 4041TIP3   OH212067   8.229   1.077   0.812 -0.0024 -0.3785 -0.5305
 4041TIP3    H112068   8.191   1.157   0.775  1.5558  0.7718  0.2588
 4041TIP3    H212069   8.167   1.050   0.880  1.2950  2.5102  2.0313
 4042TIP3   OH212070   4.998   7.545   0.703 -0.0586 -0.6122  0.4725
 4042TIP3    H112071   4.975   7.591   0.783 -1.4355  1.0370 -0.7922
 4042TIP3    H212072   5.066   7.599   0.662 -1.6729  0.3652 -1.0191
 4043TIP3   OH212073   6.772   6.763   2.759 -0.4248  0.6519  0.3216
 4043TIP3    H112074   6.682   6.747   2.789 -1.0009  0.1969 -1.5300
 4043TIP3    H212075   6.762   6.809   2.676  0.9805 -0.9121 -0.7875
 4044TIP3   OH212076   3.425   3.654   4.196 -0.0661  0.1056  0.5486
 4044TIP3    H112077   3.376   3.683   4.272  1.1031 -0.3836  1.5217
 4044TIP3    H212078   3.482   3.728   4.174  0.5151 -0.2084  0.9612
 4045TIP3   OH212079   3.837   2.223   2.313 -0.2340 -0.7448 -0.7689
 4045TIP3    H112080   3.748   2.237   2.346  0.1646 -0.6769  0.3128
 4045TIP3    H212081   3.867   2.310   2.287  0.2863 -0.3944  0.9032
 4046TIP3   OH212082   3.473   1.977   6.095 -0.5059 -0.3801  0.3439
 4046TIP3    H112083   3.526   2.053   6.072 -3.7985  1.8776 -0.6138
 4046TIP3    H212084   3.473   1.975   6.191  0.5681  0.0841  0.3642
 4047TIP3   OH212085   5.146   3.776   3.491  1.1686  0.2366 -0.2536
 4047TIP3    H112086   5.120   3.853   3.440 -0.1781  0.4032  0.6193
 4047TIP3    H212087   5.133   3.702   3.431  0.8390  0.5436 -0.5675
 4048TIP3   OH212088   4.489   7.756   3.005 -0.4978  0.4612 -0.3028
 4048TIP3    H112089   4.461   7.736   3.094 -1.5314  0.7208 -0.5605
 4048TIP3    H212090   4.444   7.837   2.983 -1.1185 -0.1692 -1.4443
 4049TIP3   OH212091   6.864   1.199   2.910 -0.1517  0.2683  0.3644
 4049TIP3    H112092   6.881   1.262   2.839  0.4438  0.7486  0.9191
 4049TIP3    H212093   6.813   1.247   2.974 -0.6905 -0.1682  0.2726
 4050TIP3   OH212094   3.839   5.988   2.349 -0.7971 -0.1579  0.0572
 4050TIP3    H112095   3.911   5.950   2.400 -0.3419 -0.2072 -0.6117
 4050TIP3    H212096   3.816   6.068   2.396  1.0679  0.9579 -0.7966
 4051TIP3   OH212097   1.870   6.669   6.466  0.1117 -0.2613 -0.1387
 4051TIP3    H112098   1.841   6.739   6.524  2.8666 -0.1801  1.3435
 4051TIP3    H212099   1.899   6.715   6.386 -1.4593 -0.1421 -0.6804
 4052TIP3   OH212100   1.321   4.589   4.134 -0.1361  0.3597 -0.1442
 4052TIP3    H112101   1.271   4.510   4.150 -0.0619  0.6513  1.7193
 4052TIP3    H212102   1.266   4.640   4.074 -1.0884 -0.2523  0.1771
 4053TIP3   OH212103   4.376   3.643   0.252 -0.1125  0.1487  0.2136
 4053TIP3    H112104   4.427   3.562   0.246 -0.0465  0.2608 -0.9203
 4053TIP3    H212105   4.377   3.666   0.345 -1.6166 -2.0937  0.8662
 4054TIP3   OH212106   7.034   1.573   1.067 -0.2811  0.2424  0.2848
 4054TIP3    H112107   7.092   1.502   1.094  0.4057  1.1291  1.1764
 4054TIP3    H212108   7.026   1.563   0.972  0.0560 -0.8289  0.3619
 4055TIP3   OH212109   5.993   4.859   0.316 -0.1776 -0.0921 -0.0177
 4055TIP3    H112110   6.040   4.942   0.316 -0.6294  0.1927 -1.0165
 4055TIP3    H212111   5.945   4.860   0.232 -1.5956 -0.5511  0.7558
 4056TIP3   OH212112   0.942   6.803   0.093 -0.1028  0.1099 -0.1421
 4056TIP3    H112113   0.985   6.755   0.163  2.1751  1.2826 -0.6198
 4056TIP3    H212114   0.961   6.895   0.112 -1.0967  0.5730 -1.2586
 4057TIP3   OH212115   5.950   3.986   0.746 -0.6691  0.4730 -0.0655
 4057TIP3    H112116   6.021   4.033   0.791  1.0915 -0.9459 -1.2009
 4057TIP3    H212117   5.935   3.908   0.799  0.9573 -0.8725 -1.4470
 4058TIP3   OH212118   4.204   3.778   3.950 -0.0130  0.7840  0.1214
 4058TIP3    H112119   4.248   3.794   3.866  1.0190 -0.0454  0.4811
 4058TIP3    H212120   4.273   3.745   4.007 -1.2702 -1.5364  0.4272
 4059TIP3   OH212121   1.653   2.837   0.438 -0.7125  0.4893 -0.1393
 4059TIP3    H112122   1.566   2.874   0.451 -0.2413  1.8395 -0.6180
 4059TIP3    H212123   1.694   2.895   0.373  0.4279 -0.3000 -0.1520
 4060TIP3   OH212124   1.149   2.355   3.526  0.6668 -0.4692 -0.2040
 4060TIP3    H112125   1.223   2.344   3.586  1.3407 -1.3750 -1.1754
 4060TIP3    H212126   1.102   2.272   3.531  0.5192 -0.4131 -0.6564
 4061TIP3   OH212127   6.648   5.178   0.771 -0.2006 -0.4990 -0.4954
 4061TIP3    H112128   6.613   5.111   0.830 -0.9260  0.4427  0.1711
 4061TIP3    H212129   6.608   5.156   0.686 -1.0482 -0.4764 -0.1194
 4062TIP3   OH212130   1.617   2.024   5.788 -0.2968  0.1577  0.1135
 4062TIP3    H112131   1.703   2.055   5.819 -0.4153  0.5627  0.0435
 4062TIP3    H212132   1.573   2.104   5.759 -1.3611  0.1937  1.7108
 4063TIP3   OH212133   2.109   5.356   3.329  0.0087  0.2567  0.2727
 4063TIP3    H112134   2.147   5.297   3.264  1.3935  0.1139  1.1848
 4063TIP3    H212135   2.182   5.412   3.357 -0.4575  0.0620  1.9765
 4064TIP3   OH212136   0.799   3.561   4.578 -0.1703  0.0019  0.2391
 4064TIP3    H112137   0.809   3.472   4.544 -0.1359 -0.7312  2.0353
 4064TIP3    H212138   0.877   3.574   4.633 -0.4473  0.9303  0.4247
 4065TIP3   OH212139   5.550   1.448   0.887  0.4676 -0.6090  0.0032
 4065TIP3    H112140   5.618   1.385   0.907 -0.7057 -1.6942  0.7418
 4065TIP3    H212141   5.469   1.406   0.916 -0.6337  0.2419 -1.6733
 4066TIP3   OH212142   8.196   0.930   5.520 -0.2414 -0.2092  0.4907
 4066TIP3    H112143   8.219   1.014   5.561  0.7119 -0.7769  1.1428
 4066TIP3    H212144   8.275   0.876   5.529 -0.1882 -0.5622 -1.5846
 4067TIP3   OH212145   0.368   1.882   5.079 -0.5709  0.1837 -0.2673
 4067TIP3    H112146   0.391   1.814   5.016  1.4023  0.1655  0.3842
 4067TIP3    H212147   0.424   1.956   5.057  1.3877 -0.3552  2.3026
 4068TIP3   OH212148   4.019   2.859   5.369 -0.1062  0.0622 -0.0568
 4068TIP3    H112149   3.995   2.832   5.280 -0.3844  1.1435 -0.3252
 4068TIP3    H212150   4.115   2.864   5.367 -0.0296 -1.1770  0.0914
 4069TIP3   OH212151   0.977   1.723   1.686  0.4574  0.8267  0.0898
 4069TIP3    H112152   0.985   1.810   1.724  0.9049  0.3142  1.2324
 4069TIP3    H212153   0.884   1.714   1.665 -0.2649  0.3850  3.0697
 4070TIP3   OH212154   6.513   1.910   5.239 -0.3465 -0.3506 -0.3889
 4070TIP3    H112155   6.549   1.828   5.274  0.2490  0.1102  0.0871
 4070TIP3    H212156   6.485   1.888   5.150  0.6842 -0.8284 -0.6021
 4071TIP3   OH212157   6.504   7.350   5.871  0.2955 -0.0140  0.2750
 4071TIP3    H112158   6.520   7.420   5.809 -0.8157 -0.1431 -0.1911
 4071TIP3    H212159   6.541   7.381   5.953  0.1034  0.9884  0.0003
 4072TIP3   OH212160   1.303   7.041   2.499  1.0585  0.3440  0.5477
 4072TIP3    H112161   1.390   7.040   2.538  0.9649 -1.4178  0.8371
 4072TIP3    H212162   1.252   6.980   2.553 -0.0414  0.4888 -0.2738
 4073TIP3   OH212163   3.899   6.291   3.558  0.1191  0.4834 -0.0559
 4073TIP3    H112164   3.950   6.212   3.540  0.4556  1.0239 -1.5757
 4073TIP3    H212165   3.831   6.292   3.491 -1.1979  0.3974  1.2412
 4074TIP3   OH212166   7.353   6.560   6.804 -0.4900 -0.2624  0.5676
 4074TIP3    H112167   7.385   6.632   6.749 -0.3885 -0.4535  0.3732
 4074TIP3    H212168   7.324   6.493   6.742  2.5156 -1.8167  0.6288
 4075TIP3   OH212169   0.375   1.354   3.433  0.6569  0.3753 -0.3695
 4075TIP3    H112170   0.364   1.440   3.394 -0.5816  0.8279  0.8790
 4075TIP3    H212171   0.463   1.326   3.408  0.7136  1.5713 -1.5901
 4076TIP3   OH212172   5.390   6.364   3.907  0.3000 -0.0184 -0.5285
 4076TIP3    H112173   5.403   6.450   3.867  2.0795 -0.4725 -1.0157
 4076TIP3    H212174   5.339   6.315   3.843 -2.3306  1.1619  0.5122
 4077TIP3   OH212175   1.467   0.211   5.287 -0.1666 -0.1359 -0.2516
 4077TIP3    H112176   1.558   0.239   5.298  0.0817 -0.6464 -0.9059
 4077TIP3    H212177   1.456   0.141   5.351  0.1073 -0.5179 -0.6166
 4078TIP3   OH212178   1.944   1.712   2.667  0.1005  0.0628  0.3416
 4078TIP3    H112179   1.933   1.753   2.753  0.0174 -0.6026  0.6524
 4078TIP3    H212180   2.005   1.641   2.682  2.6069  1.8437 -0.7824
 4079TIP3   OH212181   0.551   2.853   2.554  0.2303 -0.1301  0.1556
 4079TIP3    H112182   0.492   2.880   2.484 -0.1276 -1.3340 -0.0190
 4079TIP3    H212183   0.543   2.923   2.619 -1.0101 -0.0209 -0.0912
 4080TIP3   OH212184   0.107   1.701   4.826 -0.3341  0.2051 -0.0681
 4080TIP3    H112185   0.089   1.774   4.885 -0.1775  0.2687 -0.0983
 4080TIP3    H212186   0.033   1.699   4.766  0.1146  0.9290 -0.6547
 4081TIP3   OH212187   8.277   1.914   0.310  0.6999 -0.1073 -0.6194
 4081TIP3    H112188   8.218   1.892   0.238 -1.3825  0.5761  0.7857
 4081TIP3    H212189   8.251   2.002   0.337 -0.5157 -1.3295  2.6896
 4082TIP3   OH212190   4.281   0.610   5.065 -0.3958  0.0626  0.3751
 4082TIP3    H112191   4.256   0.640   5.152 -0.5198  0.2634  0.2690
 4082TIP3    H212192   4.201   0.615   5.013 -0.1485  0.6728  0.0443
 4083TIP3   OH212193   2.999   3.578   0.828  0.1402 -0.1159  0.5349
 4083TIP3    H112194   2.987   3.609   0.918  0.8696 -0.5847  0.8014
 4083TIP3    H212195   2.911   3.558   0.798  0.0372 -2.3006  2.0105
 4084TIP3   OH212196   3.272   3.027   3.907 -0.6313  0.1700 -0.0622
 4084TIP3    H112197   3.357   3.060   3.936 -1.2070  0.6487  1.1346
 4084TIP3    H212198   3.268   2.938   3.939 -0.3975 -0.0139 -0.5303
 4085TIP3   OH212199   0.099   7.219   2.004 -0.0194  0.0711  0.2962
 4085TIP3    H112200   0.092   7.184   2.092  0.3580 -0.1754  0.2295
 4085TIP3    H212201   0.106   7.314   2.017 -2.0463  0.2436  0.4291
 4086TIP3   OH212202   2.462   5.344   2.962 -0.4111 -0.4490 -0.1770
 4086TIP3    H112203   2.433   5.436   2.970  1.1669  0.0825 -0.2971
 4086TIP3    H212204   2.460   5.327   2.868 -0.6839 -0.5353 -0.1562
 4087TIP3   OH212205   7.090   0.348   1.039  0.2020 -0.4813 -0.2420
 4087TIP3    H112206   7.043   0.310   1.113  0.0696 -2.7346 -1.3645
 4087TIP3    H212207   7.027   0.343   0.966  1.2630 -1.0808 -1.1488
 4088TIP3   OH212208   3.746   4.457   2.306 -0.0885  0.0905 -0.1705
 4088TIP3    H112209   3.748   4.489   2.396  1.5838 -0.9323  0.2044
 4088TIP3    H212210   3.795   4.521   2.256  0.4465 -0.2046 -0.0287
 4089TIP3   OH212211   5.706   4.667   1.144  0.0456 -0.1266 -0.8177
 4089TIP3    H112212   5.695   4.702   1.056 -0.1943 -0.8325 -1.0780
 4089TIP3    H212213   5.751   4.736   1.192 -0.9086  0.7502 -1.1551
 4090TIP3   OH212214   7.601   0.529   1.354  0.1191 -0.3932 -0.1050
 4090TIP3    H112215   7.657   0.602   1.327  1.0287 -0.4430  1.5592
 4090TIP3    H212216   7.512   0.564   1.347  0.3520 -0.0669 -2.0471
 4091TIP3   OH212217   2.516   7.752   6.233  0.2758 -0.4011 -0.4109
 4091TIP3    H112218   2.439   7.703   6.202 -0.2059  1.1481 -1.8140
 4091TIP3    H212219   2.513   7.744   6.328 -0.2852 -2.3119 -0.5484
 4092TIP3   OH212220   5.314   3.510   1.567 -0.2677  0.3474 -0.2988
 4092TIP3    H112221   5.302   3.598   1.530 -1.2351 -0.1658 -1.2685
 4092TIP3    H212222   5.249   3.456   1.521  0.3218 -0.8773  0.2748
 4093TIP3   OH212223   6.338   6.471   3.727 -0.5066  0.3568 -0.4306
 4093TIP3    H112224   6.426   6.432   3.728 -0.6593 -0.0985  2.3364
 4093TIP3    H212225   6.353   6.563   3.748 -0.6127  0.6447 -1.5287
 4094TIP3   OH212226   2.311   5.346   2.321 -0.0265 -0.3711 -0.6104
 4094TIP3    H112227   2.341   5.306   2.239  1.0197 -1.6588  0.3400
 4094TIP3    H212228   2.356   5.296   2.389 -0.4113  1.0458  0.7395
 4095TIP3   OH212229   3.010   0.302   4.802 -0.6684  0.2529  0.0578
 4095TIP3    H112230   2.927   0.281   4.760 -0.6252  0.7668 -0.2945
 4095TIP3    H212231   3.077   0.272   4.740 -0.6030  0.9248 -0.1988
 4096TIP3   OH212232   5.101   1.487   4.177 -0.3069  0.5398  0.1393
 4096TIP3    H112233   5.109   1.393   4.158  0.1138  0.9399 -1.8827
 4096TIP3    H212234   5.187   1.523   4.155 -0.4659  1.4191  0.9016
 4097TIP3   OH212235   4.960   6.408   3.864 -0.0524 -0.3538 -0.2398
 4097TIP3    H112236   5.028   6.459   3.819 -0.0877  1.0293  1.2261
 4097TIP3    H212237   4.996   6.319   3.866  1.0798  0.0660 -0.7488
 4098TIP3   OH212238   6.193   4.074   3.572  0.2750  0.0942  0.2669
 4098TIP3    H112239   6.122   4.138   3.575  0.3861  0.2413 -0.2644
 4098TIP3    H212240   6.269   4.122   3.604  0.7101  0.6959 -1.5718
 4099TIP3   OH212241   0.498   3.496   6.316 -0.2355 -0.2218  0.0698
 4099TIP3    H112242   0.429   3.532   6.373 -0.2167 -1.8277  1.1888
 4099TIP3    H212243   0.577   3.543   6.341 -0.7726  1.1640 -0.7454
 4100TIP3   OH212244   4.066   5.584   3.904 -0.0042 -0.1532  1.4417
 4100TIP3    H112245   4.094   5.577   3.995  0.9329 -0.6194  1.1251
 4100TIP3    H212246   3.982   5.537   3.901 -0.1747  0.0991  2.1144
 4101TIP3   OH212247   5.667   3.262   0.675  0.2092  0.0305  0.4195
 4101TIP3    H112248   5.698   3.219   0.754  0.4495  1.8832  1.3840
 4101TIP3    H212249   5.727   3.233   0.607  0.2495 -1.2676  0.9773
 4102TIP3   OH212250   7.219   4.020   5.832  0.2859 -0.0852 -0.0542
 4102TIP3    H112251   7.295   4.056   5.877  0.2839  1.0122 -0.8827
 4102TIP3    H212252   7.239   4.031   5.739 -1.3469  1.3273 -0.2931
 4103TIP3   OH212253   3.991   4.291   3.537  0.5677 -0.3855 -0.3065
 4103TIP3    H112254   3.956   4.284   3.448  0.1978  0.4399 -0.2400
 4103TIP3    H212255   4.005   4.201   3.564  0.1099 -0.6728 -0.9793
 4104TIP3   OH212256   4.703   1.716   4.206  0.6038 -0.4669  0.3889
 4104TIP3    H112257   4.617   1.759   4.210  0.3096 -0.5097 -2.8772
 4104TIP3    H212258   4.728   1.704   4.298 -2.2757  0.7142  1.4479
 4105TIP3   OH212259   3.467   0.935   5.495 -0.2138 -0.1863 -0.4513
 4105TIP3    H112260   3.441   0.985   5.573  1.7260  1.0321 -0.5395
 4105TIP3    H212261   3.452   0.995   5.422 -0.7064 -0.8372 -0.9001
 4106TIP3   OH212262   7.382   2.861   4.918 -0.1726  0.0766 -0.8158
 4106TIP3    H112263   7.412   2.782   4.873 -3.1932 -0.4158 -2.1574
 4106TIP3    H212264   7.438   2.931   4.884  2.1788 -1.2907 -0.0173
 4107TIP3   OH212265   4.440   2.811   1.464  0.3046  0.0198  0.3726
 4107TIP3    H112266   4.516   2.777   1.512 -0.8973 -0.8268  1.7616
 4107TIP3    H212267   4.419   2.743   1.400 -0.2197 -0.4875  1.0647
 4108TIP3   OH212268   1.326   5.707   2.344 -0.0545 -0.1083  0.1287
 4108TIP3    H112269   1.372   5.757   2.277  1.7980 -0.9169  0.7346
 4108TIP3    H212270   1.382   5.632   2.360 -1.1047 -0.6023  1.6732
 4109TIP3   OH212271   6.749   3.558   0.202 -0.7488  0.0931  0.6950
 4109TIP3    H112272   6.745   3.646   0.239 -0.2805  0.4414 -0.0453
 4109TIP3    H212273   6.752   3.500   0.278  1.7772  0.8461  1.2956
 4110TIP3   OH212274   0.477   0.672   5.976  0.2128 -0.0685 -0.0000
 4110TIP3    H112275   0.429   0.620   6.040  1.4020 -1.5308 -0.2286
 4110TIP3    H212276   0.456   0.633   5.892  0.0285  0.7398 -0.3451
 4111TIP3   OH212277   0.462   0.020   0.053 -0.0131 -0.1030 -0.3286
 4111TIP3    H112278   0.462  -0.058   0.110  1.5201 -1.9814 -2.6861
 4111TIP3    H212279   0.409   0.084   0.100 -2.5081 -3.0195  1.1554
 4112TIP3   OH212280   1.995   7.477   5.693 -0.0485  0.1941  0.8481
 4112TIP3    H112281   1.909   7.466   5.653 -0.3377 -0.7014  1.6662
 4112TIP3    H212282   1.995   7.567   5.725  0.6379  1.3543 -2.0997
 4113TIP3   OH212283   3.483   5.756   2.570 -0.3117 -0.0445 -0.1842
 4113TIP3    H112284   3.427   5.683   2.544 -0.7792 -0.4933  1.9219
 4113TIP3    H212285   3.481   5.755   2.665 -0.2025  2.6311 -0.0867
 4114TIP3   OH212286   7.307   4.096   4.650 -0.0088 -0.2376  0.0798
 4114TIP3    H112287   7.339   4.018   4.605 -0.3030 -0.6494  0.5688
 4114TIP3    H212288   7.387   4.143   4.676  0.1880 -0.7084  0.3512
 4115TIP3   OH212289   4.977   3.994   0.671  0.4415  0.5484 -0.1554
 4115TIP3    H112290   4.884   4.016   0.668  0.5671  1.2446  0.5612
 4115TIP3    H212291   5.006   3.998   0.579 -0.0057  1.3745 -0.2665
 4116TIP3   OH212292   7.935   1.581   1.457  0.3656  0.4094  0.3090
 4116TIP3    H112293   7.954   1.616   1.370  0.9525  0.8536  0.6108
 4116TIP3    H212294   7.975   1.494   1.457 -1.7960 -0.6850 -0.7310
 4117TIP3   OH212295   0.304   3.619   3.611 -0.1059  0.6027  0.0774
 4117TIP3    H112296   0.306   3.708   3.576 -1.6892  0.7747  0.3188
 4117TIP3    H212297   0.353   3.624   3.693  2.5072  0.4871 -1.3695
 4118TIP3   OH212298   4.508   1.289  -0.020  0.1965  0.3336 -0.1611
 4118TIP3    H112299   4.492   1.301   0.074  0.3821  0.2065 -0.1127
 4118TIP3    H212300   4.479   1.200  -0.038 -3.4437  1.5159 -1.0013
 4119TIP3   OH212301   4.481   4.146   2.994 -0.4407 -0.1690 -0.0549
 4119TIP3    H112302   4.421   4.118   2.925  0.3280  1.0195 -1.2408
 4119TIP3    H212303   4.424   4.182   3.062 -1.1272  0.3897 -0.9022
 4120TIP3   OH212304   1.659   4.542   0.195 -0.4199  0.2829 -0.4671
 4120TIP3    H112305   1.564   4.530   0.190 -0.4968  0.8105 -0.3154
 4120TIP3    H212306   1.671   4.619   0.251  0.0216  1.1808 -1.7436
 4121TIP3   OH212307   5.056   3.175   0.524 -0.4252  0.8701 -0.2790
 4121TIP3    H112308   5.090   3.190   0.436  2.1143 -0.6476  0.3469
 4121TIP3    H212309   5.097   3.243   0.578 -1.2150  1.1932 -0.0591
 4122TIP3   OH212310   1.778   6.985   1.076 -0.4003  0.0564 -0.0200
 4122TIP3    H112311   1.830   6.909   1.051 -0.1478 -0.1597  1.1293
 4122TIP3    H212312   1.705   6.949   1.127 -0.6286  0.5344  0.0014
 4123TIP3   OH212313   7.783   7.276   0.589 -0.0296 -0.5478  0.1277
 4123TIP3    H112314   7.689   7.279   0.609  0.2963  0.4099  1.7072
 4123TIP3    H212315   7.792   7.331   0.511 -0.7617 -0.5168  0.0548
 4124TIP3   OH212316   1.946   1.582   3.424  0.3935  0.1440  0.0682
 4124TIP3    H112317   1.925   1.534   3.504 -0.3314 -1.3563 -0.9819
 4124TIP3    H212318   1.916   1.672   3.442 -1.6952 -0.6218  0.7297
 4125TIP3   OH212319   3.118   1.679   0.438 -0.0889 -0.1795  0.2431
 4125TIP3    H112320   3.141   1.729   0.360 -1.0714 -0.1229 -0.0249
 4125TIP3    H212321   3.112   1.588   0.409 -0.8549 -0.1075  0.1491
 4126TIP3   OH212322   2.416   0.740   0.856  0.3569  0.3048  0.2281
 4126TIP3    H112323   2.385   0.750   0.765 -1.4011  1.4617  0.8944
 4126TIP3    H212324   2.418   0.829   0.890 -0.3629 -0.2177  1.7310
 4127TIP3   OH212325   7.296   4.165   5.336  0.1868 -0.2298  0.2335
 4127TIP3    H112326   7.238   4.097   5.370 -0.0322  0.1006  0.5146
 4127TIP3    H212327   7.297   4.150   5.241  1.3501 -1.5896  0.4185
 4128TIP3   OH212328   6.340   7.295   1.070 -0.0371  0.0615 -0.0446
 4128TIP3    H112329   6.264   7.237   1.071 -0.6638  0.8083 -1.5751
 4128TIP3    H212330   6.338   7.336   0.984  0.8998  1.6940  0.6645
 4129TIP3   OH212331   5.701   3.773   4.837  0.1002  0.1662 -0.0491
 4129TIP3    H112332   5.705   3.865   4.812  0.1526 -0.2553 -1.7212
 4129TIP3    H212333   5.672   3.774   4.929  1.6547  1.8865  0.4822
 4130TIP3   OH212334   7.818   7.590   3.938  0.6358  0.3046  0.0499
 4130TIP3    H112335   7.777   7.504   3.932 -1.1628  0.9443  2.0096
 4130TIP3    H212336   7.912   7.572   3.932  0.3385 -1.8590  0.8819
 4131TIP3   OH212337   1.638   2.610   1.791  0.3419 -0.4874  0.6897
 4131TIP3    H112338   1.621   2.645   1.879  1.1280 -1.0334  1.0745
 4131TIP3    H212339   1.619   2.682   1.732  0.5842  0.1450  1.3683
 4132TIP3   OH212340   1.301   2.605   0.609 -0.4169  0.2867  0.0070
 4132TIP3    H112341   1.396   2.607   0.615 -0.3265  0.2496 -1.2416
 4132TIP3    H212342   1.275   2.531   0.664  0.4779 -1.3622 -1.6644
 4133TIP3   OH212343   4.801   2.943   5.719  0.2646  0.2832 -0.5927
 4133TIP3    H112344   4.773   3.034   5.711  0.2444  0.1754 -1.9034
 4133TIP3    H212345   4.873   2.934   5.657  1.8968  0.0088  1.2240
 4134TIP3   OH212346   6.560   0.339   2.022  0.2799  0.5970 -0.2426
 4134TIP3    H112347   6.606   0.371   1.945 -2.3239  1.9399 -1.3616
 4134TIP3    H212348   6.498   0.275   1.988 -0.8600  1.1440  0.7311
 4135TIP3   OH212349   3.678   1.498   3.598 -0.5832  0.0381  0.5197
 4135TIP3    H112350   3.720   1.415   3.619 -0.7620  0.2123  1.6155
 4135TIP3    H212351   3.670   1.497   3.503  1.6620 -0.1025  0.2881
 4136TIP3   OH212352   0.843   3.788   1.547 -0.2235  0.3810 -0.0801
 4136TIP3    H112353   0.799   3.829   1.622 -0.0385  0.3713  0.0336
 4136TIP3    H212354   0.792   3.709   1.529  0.8290 -0.6504  1.2420
 4137TIP3   OH212355   1.723   7.522   6.164  0.3237 -0.3293 -0.3892
 4137TIP3    H112356   1.708   7.430   6.142  0.7122 -0.9958  1.9045
 4137TIP3    H212357   1.781   7.520   6.240 -1.3748  1.7259  1.0896
 4138TIP3   OH212358   6.390   1.710   2.552  0.1502 -0.0386 -0.6014
 4138TIP3    H112359   6.448   1.746   2.485 -0.4612  0.2303 -0.9948
 4138TIP3    H212360   6.302   1.737   2.525 -0.1477 -0.3207  0.0616
 4139TIP3   OH212361   3.815   5.985   3.264  0.1954 -0.7653  0.6671
 4139TIP3    H112362   3.797   5.891   3.262  1.5551 -1.0521  0.6045
 4139TIP3    H212363   3.882   5.998   3.197  0.3453  0.1719  0.9794
 4140TIP3   OH212364   4.069   5.269   0.673  0.5945  0.2801 -0.0873
 4140TIP3    H112365   4.110   5.183   0.674 -0.9735 -0.5100  1.7006
 4140TIP3    H212366   4.143   5.330   0.669  1.7316 -1.0958 -1.3600
 4141TIP3   OH212367   0.060   3.665   6.158 -0.1963  0.3029  0.7270
 4141TIP3    H112368   0.068   3.607   6.234  0.1908 -1.0523 -0.3010
 4141TIP3    H212369   0.143   3.655   6.112 -1.1407 -0.4369 -0.8958
 4142TIP3   OH212370   7.589   1.527   3.235  0.1789  0.5191 -0.1249
 4142TIP3    H112371   7.576   1.453   3.176  1.6796 -0.3485  0.5574
 4142TIP3    H212372   7.592   1.603   3.178  0.1645 -0.1256 -1.0127
 4143TIP3   OH212373   8.254   0.068   1.974 -0.3838 -0.1192  0.1050
 4143TIP3    H112374   8.171   0.061   1.927 -0.4974 -0.6465  0.3716
 4143TIP3    H212375   8.247   0.149   2.024 -0.3461  0.3330 -0.6135
 4144TIP3   OH212376   3.390   0.205   6.387  0.2068 -0.4038  0.2837
 4144TIP3    H112377   3.421   0.115   6.384  1.3346 -0.0057 -1.7814
 4144TIP3    H212378   3.296   0.199   6.370 -0.2130 -1.3088  2.5422
 4145TIP3   OH212379   0.230   7.511   5.234 -0.4326  0.4664 -0.1907
 4145TIP3    H112380   0.307   7.472   5.276  0.1129  0.7174 -0.9440
 4145TIP3    H212381   0.259   7.598   5.208 -1.3485  1.0321  0.6076
 4146TIP3   OH212382   4.723   0.082   1.628  0.1890 -0.3616 -0.5187
 4146TIP3    H112383   4.709   0.133   1.548 -1.2711 -0.1349 -0.1346
 4146TIP3    H212384   4.653   0.109   1.687  0.8286 -1.0445  0.5952
 4147TIP3   OH212385   6.633   6.255   6.118 -0.0625  1.0087 -0.2092
 4147TIP3    H112386   6.652   6.267   6.025  1.5470  0.8427  0.0639
 4147TIP3    H212387   6.717   6.269   6.162 -0.1320 -1.6267  0.9766
 4148TIP3   OH212388   7.120   1.719   2.069  0.2087 -0.8132  0.3461
 4148TIP3    H112389   7.176   1.789   2.034 -0.3368 -0.2246  0.6230
 4148TIP3    H212390   7.148   1.640   2.024 -0.6287 -0.0554 -1.5830
 4149TIP3   OH212391   4.520   1.944   1.539 -0.3396 -0.1028 -0.0906
 4149TIP3    H112392   4.430   1.958   1.569  0.1879  1.4601  0.8904
 4149TIP3    H212393   4.574   1.980   1.608  1.1431 -2.6823  0.1922
 4150TIP3   OH212394   7.747   6.331   0.706  0.5859  0.1841  0.7825
 4150TIP3    H112395   7.841   6.324   0.722  0.8523 -0.0478 -0.6625
 4150TIP3    H212396   7.722   6.415   0.744  1.5085  0.5137  0.6900
 4151TIP3   OH212397   6.296   4.122   1.714 -0.5306 -0.4481 -0.0882
 4151TIP3    H112398   6.348   4.202   1.726 -0.5655 -0.6373  1.4138
 4151TIP3    H212399   6.214   4.153   1.674  0.5431 -0.1095 -2.2112
 4152TIP3   OH212400   4.410   1.832   1.148 -0.3506 -0.0976  0.8854
 4152TIP3    H112401   4.439   1.900   1.087 -4.0842  2.1239  1.2759
 4152TIP3    H212402   4.324   1.807   1.115 -0.6268 -1.9914  2.8900
 4153TIP3   OH212403   7.674   3.991   5.739 -0.3336  0.4321 -0.4658
 4153TIP3    H112404   7.724   3.971   5.818 -0.2066 -0.0006 -0.6555
 4153TIP3    H212405   7.692   3.918   5.680  1.3849  1.8586 -1.7740
 4154TIP3   OH212406   7.634   3.611   0.535  0.1464  0.1952 -0.0728
 4154TIP3    H112407   7.577   3.556   0.588 -0.3853 -0.7208 -1.5361
 4154TIP3    H212408   7.669   3.552   0.468  0.2588  1.4338 -1.1515
 4155TIP3   OH212409   6.376   1.337   1.269 -0.3076  0.0883 -0.4282
 4155TIP3    H112410   6.322   1.273   1.316 -0.5924 -0.4114 -1.4109
 4155TIP3    H212411   6.466   1.309   1.287 -0.4289 -0.6559 -0.9175
 4156TIP3   OH212412   7.187   2.671   6.134  0.0407  0.2443  0.3442
 4156TIP3    H112413   7.173   2.658   6.227 -0.1800 -0.1381  0.2633
 4156TIP3    H212414   7.112   2.723   6.105  0.6179  1.2289  0.5572
 4157TIP3   OH212415   0.642   6.272   3.222 -0.4233 -0.2691 -0.0556
 4157TIP3    H112416   0.568   6.248   3.166 -0.9200 -1.2032  0.9607
 4157TIP3    H212417   0.633   6.366   3.236  0.5083  0.2902 -2.6397
 4158TIP3   OH212418   1.504   0.503   0.924 -0.0971  0.6297  0.4743
 4158TIP3    H112419   1.432   0.523   0.864 -0.2862  1.3231  0.9212
 4158TIP3    H212420   1.496   0.410   0.941 -0.4546  0.5589 -0.0384
 4159TIP3   OH212421   0.767   5.327   0.860  0.5847  0.3515 -0.3714
 4159TIP3    H112422   0.733   5.385   0.792  0.4566  1.0825  0.2977
 4159TIP3    H212423   0.783   5.385   0.934  2.2119 -0.1567 -0.2886
 4160TIP3   OH212424   7.759   3.188   4.740 -0.3509 -0.1757 -0.2904
 4160TIP3    H112425   7.852   3.180   4.719 -0.6194 -0.0665 -1.6101
 4160TIP3    H212426   7.742   3.282   4.739 -0.1252 -0.0736  1.6868
 4161TIP3   OH212427   5.931   2.144   0.818 -0.1905  0.6519 -0.2887
 4161TIP3    H112428   5.881   2.104   0.889  0.5725  0.1961 -0.0002
 4161TIP3    H212429   5.927   2.238   0.836 -0.6641  0.5926 -0.0881
 4162TIP3   OH212430   1.583   6.399   5.508  0.7972 -0.3368  0.2734
 4162TIP3    H112431   1.555   6.356   5.427  0.5357  0.1886  0.0790
 4162TIP3    H212432   1.546   6.345   5.578 -1.2011  0.6108  0.0230
 4163TIP3   OH212433   4.078   4.084   5.322  0.0671  0.4181  0.8096
 4163TIP3    H112434   4.083   4.017   5.390  2.4947 -1.0287 -0.6231
 4163TIP3    H212435   4.012   4.052   5.261 -0.0933  0.2812  1.0528
 4164TIP3   OH212436   8.172   2.032   0.768 -0.5943  0.5677 -0.0687
 4164TIP3    H112437   8.206   2.121   0.778  1.5259 -0.2315  0.4948
 4164TIP3    H212438   8.174   1.996   0.857 -1.3468 -0.0742 -0.3047
 4165TIP3   OH212439   2.689   0.767   3.713 -0.0819  0.5741 -0.2612
 4165TIP3    H112440   2.784   0.759   3.721 -0.0489  1.1895  0.0215
 4165TIP3    H212441   2.670   0.857   3.739 -0.7981  0.3108  0.1623
 4166TIP3   OH212442   7.041   4.149   0.871 -0.1152 -0.0436 -0.1327
 4166TIP3    H112443   7.002   4.065   0.848 -0.7327 -0.3154  1.7626
 4166TIP3    H212444   6.967   4.207   0.887  0.2790  0.2629  0.6273
 4167TIP3   OH212445   4.752   6.765   3.890  0.0895 -0.1028 -0.0636
 4167TIP3    H112446   4.738   6.716   3.971 -0.7363 -0.3364 -0.3374
 4167TIP3    H212447   4.847   6.769   3.881  0.2394  0.8199  1.4471
 4168TIP3   OH212448   2.835   3.434   2.715  0.0489 -0.0266 -0.3577
 4168TIP3    H112449   2.772   3.456   2.784 -0.3255 -0.8947 -0.4193
 4168TIP3    H212450   2.919   3.429   2.760 -0.4673 -2.5797  0.4596
 4169TIP3   OH212451   6.991   2.521   6.318  0.0484  0.8242  0.7242
 4169TIP3    H112452   6.980   2.442   6.372 -0.4825  1.2141  1.1923
 4169TIP3    H212453   6.902   2.549   6.299  0.1676 -0.1046 -1.5660
 4170TIP3   OH212454   2.184   4.423   0.930 -0.5363  0.0540  0.2593
 4170TIP3    H112455   2.139   4.487   0.985 -1.0784 -0.2940  0.2365
 4170TIP3    H212456   2.188   4.463   0.843 -0.5999  0.1799  0.3144
 4171TIP3   OH212457   0.930   4.704   5.117 -0.0943  0.7877  0.3499
 4171TIP3    H112458   0.924   4.736   5.027 -1.8221  3.1270  1.1975
 4171TIP3    H212459   0.858   4.641   5.125  2.2901 -2.3095 -0.8415
 4172TIP3   OH212460   3.680   3.123   2.646 -0.0419 -0.3146 -0.2872
 4172TIP3    H112461   3.615   3.138   2.577  0.7729  0.7076 -0.8574
 4172TIP3    H212462   3.634   3.069   2.710 -1.1320 -0.4700 -1.1550
 4173TIP3   OH212463   1.038   4.842   4.166 -0.6352  0.0780  0.3880
 4173TIP3    H112464   0.962   4.900   4.157 -0.6903  0.1415  1.1848
 4173TIP3    H212465   1.112   4.901   4.178 -0.3668  0.0313 -0.9076
 4174TIP3   OH212466   4.636   2.917   5.015 -0.1917 -0.0526 -0.7333
 4174TIP3    H112467   4.643   2.910   4.920 -1.6451 -1.0667 -0.8050
 4174TIP3    H212468   4.675   2.837   5.048  0.1390  0.2133 -0.4690
 4175TIP3   OH212469   4.453   2.453   1.264 -0.0279 -0.0343  0.0729
 4175TIP3    H112470   4.367   2.414   1.250 -0.2462  0.7949 -1.0944
 4175TIP3    H212471   4.445   2.541   1.227  0.9333  0.5288  1.1391
 4176TIP3   OH212472   0.829   1.633   4.232 -0.2449  0.2407 -0.0541
 4176TIP3    H112473   0.771   1.600   4.301 -0.3364  0.8967  0.1970
 4176TIP3    H212474   0.794   1.719   4.211 -0.1918  0.0627 -0.9038
 4177TIP3   OH212475   6.356   0.922   3.365  0.0063  0.4357 -0.2864
 4177TIP3    H112476   6.392   1.009   3.347  0.2713  0.2906 -0.4689
 4177TIP3    H212477   6.263   0.930   3.348 -0.0215  0.7702  0.0080
 4178TIP3   OH212478   7.858   3.771   0.648 -0.7346  0.3603 -0.4433
 4178TIP3    H112479   7.850   3.689   0.697  1.6603  0.2384 -0.1401
 4178TIP3    H212480   7.802   3.759   0.572  1.4378 -2.6717 -1.7598
 4179TIP3   OH212481   4.563   3.157   4.922  0.2736  0.3781 -0.1440
 4179TIP3    H112482   4.654   3.168   4.951  0.1191 -0.5074  0.7178
 4179TIP3    H212483   4.545   3.064   4.933 -0.6734  0.5019 -0.5285
 4180TIP3   OH212484   5.260   6.528   2.775 -0.0891 -0.0825  0.4514
 4180TIP3    H112485   5.325   6.521   2.845 -0.5721 -2.5383  0.7145
 4180TIP3    H212486   5.195   6.589   2.810  1.0096  0.8215  1.0059
 4181TIP3   OH212487   4.119   4.191   1.879  0.8508 -0.0628  0.0168
 4181TIP3    H112488   4.163   4.146   1.951  0.3907  0.9164  0.9438
 4181TIP3    H212489   4.148   4.144   1.800  1.8471 -0.7758  0.7726
 4182TIP3   OH212490   1.928   1.403   5.814  0.4668 -0.2175  0.0867
 4182TIP3    H112491   1.875   1.399   5.734  1.9481  0.8614 -1.0076
 4182TIP3    H212492   1.865   1.422   5.884 -1.0539 -2.5516 -0.5555
 4183TIP3   OH212493   1.907   3.778   4.032 -0.4189  0.3678  0.4617
 4183TIP3    H112494   1.945   3.798   4.118 -0.8366  3.7521 -0.0158
 4183TIP3    H212495   1.937   3.689   4.014  0.9401  0.0692  3.4265
 4184TIP3   OH212496   2.000   7.731   5.198 -0.0793 -0.3395  0.3362
 4184TIP3    H112497   1.953   7.736   5.115 -0.1770 -0.2017  0.3999
 4184TIP3    H212498   1.939   7.768   5.262  0.2509  0.1665  0.3622
 4185TIP3   OH212499   2.386   0.423   2.422  0.1564  0.1601 -0.2335
 4185TIP3    H112500   2.434   0.386   2.349  2.4980  0.8632  0.8353
 4185TIP3    H212501   2.426   0.384   2.500 -2.4044 -0.7530  0.7481
 4186TIP3   OH212502   2.745   3.478   5.569  0.6140 -0.7877  0.8962
 4186TIP3    H112503   2.782   3.522   5.646  0.7844 -1.3731  1.1545
 4186TIP3    H212504   2.819   3.431   5.530  1.3970  2.2348 -1.6608
 4187TIP3   OH212505   2.018   1.662   5.195  0.4885 -0.1841  0.5685
 4187TIP3    H112506   2.013   1.596   5.126  2.1758  0.9083 -0.7003
 4187TIP3    H212507   2.039   1.613   5.274  0.8463 -1.2534 -0.1703
 4188TIP3   OH212508   3.806   5.007   5.746 -0.3111 -0.5730  0.4197
 4188TIP3    H112509   3.800   4.912   5.735  2.4728 -0.7678 -0.0803
 4188TIP3    H212510   3.856   5.037   5.671 -1.7879  1.4661  0.1467
 4189TIP3   OH212511   1.422   7.148   0.779  0.4521  0.2525  0.3782
 4189TIP3    H112512   1.350   7.153   0.717  0.6816 -0.2160  0.0692
 4189TIP3    H212513   1.381   7.118   0.860  0.3355 -0.2368  0.1400
 4190TIP3   OH212514   7.190   3.167   5.063  0.1527  0.2959 -0.6142
 4190TIP3    H112515   7.192   3.073   5.081 -0.8183  0.1055 -1.4021
 4190TIP3    H212516   7.155   3.205   5.143  1.4099  0.0968  0.0513
 4191TIP3   OH212517   4.266   2.793   3.347 -0.0820 -0.6776  0.1421
 4191TIP3    H112518   4.322   2.835   3.412  0.2896 -0.5306 -0.2693
 4191TIP3    H212519   4.291   2.701   3.351 -0.4562 -0.7664  0.5995
 4192TIP3   OH212520   6.666   1.780   1.194 -0.5234 -0.1659 -0.1355
 4192TIP3    H112521   6.678   1.685   1.191  1.0542  0.0327 -1.1458
 4192TIP3    H212522   6.660   1.807   1.102  0.5088  0.8557  0.0666
 4193TIP3   OH212523   0.235   4.821   6.430  0.1728 -0.3443  0.4582
 4193TIP3    H112524   0.308   4.880   6.452  0.5863 -0.7833  0.2857
 4193TIP3    H212525   0.211   4.782   6.514 -0.0304 -0.0136  0.5557
 4194TIP3   OH212526   5.906   7.659   2.427 -0.5003 -0.8315  0.1883
 4194TIP3    H112527   5.845   7.663   2.501 -1.1304 -0.0942 -0.3504
 4194TIP3    H212528   5.850   7.645   2.351 -0.0733  0.4969 -0.4000
 4195TIP3   OH212529   1.530   2.510   6.722 -0.3326 -0.4728 -1.1296
 4195TIP3    H112530   1.539   2.596   6.680 -2.8146 -0.4615 -1.8236
 4195TIP3    H212531   1.477   2.527   6.800  0.3128 -1.1958 -0.5229
 4196TIP3   OH212532   7.466   1.285   0.140 -0.3300 -0.0498 -0.0298
 4196TIP3    H112533   7.395   1.258   0.083  0.3652 -1.0746 -0.4261
 4196TIP3    H212534   7.534   1.318   0.081  1.1044 -2.7014 -0.0192
 4197TIP3   OH212535   5.024   0.225   4.373  0.1777 -0.1697 -0.4488
 4197TIP3    H112536   5.034   0.161   4.444 -1.1332 -1.4180 -1.3181
 4197TIP3    H212537   4.936   0.260   4.385  1.2196  2.3079  0.6028
 4198TIP3   OH212538   4.050   7.251   1.663  0.3729  0.1730  0.3631
 4198TIP3    H112539   4.090   7.235   1.749  2.1435 -2.1425 -0.7959
 4198TIP3    H212540   3.984   7.183   1.654 -0.3881  0.9171  0.1977
 4199TIP3   OH212541   7.275   3.426   0.839 -0.0227  0.1884 -0.0198
 4199TIP3    H112542   7.274   3.456   0.930 -0.8921  1.3661 -0.3946
 4199TIP3    H212543   7.208   3.357   0.836 -0.5640  0.6965  0.0737
 4200TIP3   OH212544   7.256   6.713   5.645  0.0798  0.1329  0.6199
 4200TIP3    H112545   7.170   6.753   5.636 -0.5889 -1.5401 -0.9122
 4200TIP3    H212546   7.316   6.772   5.599 -0.3867  0.8087  0.8679
 4201TIP3   OH212547   4.885   3.480   4.254  0.1540  0.4556  0.4085
 4201TIP3    H112548   4.963   3.458   4.204 -0.1504 -0.9329  0.5239
 4201TIP3    H212549   4.845   3.553   4.206  0.7783  0.2701 -0.4063
 4202TIP3   OH212550   5.112   4.646   4.388  0.0582 -0.0728 -0.5523
 4202TIP3    H112551   5.171   4.650   4.312 -0.8374 -0.9767 -1.3201
 4202TIP3    H212552   5.054   4.572   4.369 -3.0141  2.2727 -1.1012
 4203TIP3   OH212553   3.730   3.765   5.844 -0.0621 -0.0768  0.6126
 4203TIP3    H112554   3.797   3.726   5.787  0.0656 -0.0550  0.7470
 4203TIP3    H212555   3.718   3.853   5.810 -0.5214 -0.3098  0.1608
 4204TIP3   OH212556   1.824   3.308   2.834  0.6238 -0.1345 -0.2021
 4204TIP3    H112557   1.863   3.297   2.921  0.3930  2.5068  0.3089
 4204TIP3    H212558   1.898   3.304   2.774  0.9457 -0.6823  0.2201
 4205TIP3   OH212559   4.838   4.939   4.644 -0.4884  0.4548  0.0654
 4205TIP3    H112560   4.889   4.858   4.633 -0.2214  0.6403 -0.1059
 4205TIP3    H212561   4.891   4.992   4.704 -0.9331  0.2827  0.6131
 4206TIP3   OH212562   6.930   3.327   5.840 -0.8386 -0.3254  0.4950
 4206TIP3    H112563   6.862   3.383   5.801 -0.6070  0.0970  0.6881
 4206TIP3    H212564   6.991   3.310   5.769  0.0194  1.1191  0.8468
 4207TIP3   OH212565   6.077   6.495   1.698  0.1454 -0.6115 -0.6164
 4207TIP3    H112566   6.129   6.554   1.644 -0.4302 -0.7568 -1.3518
 4207TIP3    H212567   6.039   6.433   1.636  0.4246 -1.5169  0.0995
 4208TIP3   OH212568   4.539   7.656   4.210 -0.0012  0.4213  0.7167
 4208TIP3    H112569   4.542   7.561   4.207 -0.0566  0.4074  1.0772
 4208TIP3    H212570   4.467   7.679   4.151 -0.4786  0.2025  1.2065
 4209TIP3   OH212571   1.286   6.082   5.305 -0.4186 -0.1786  0.0577
 4209TIP3    H112572   1.259   6.018   5.239 -1.0686 -0.6024  0.7280
 4209TIP3    H212573   1.231   6.064   5.381  0.9165 -0.2715  1.0343
 4210TIP3   OH212574   4.793   5.304   1.283  0.1653 -0.1032 -0.0013
 4210TIP3    H112575   4.865   5.326   1.224  0.6934  0.3987  0.8207
 4210TIP3    H212576   4.791   5.374   1.347 -0.6404 -0.4557  0.3791
 4211TIP3   OH212577   3.659   5.131   1.810  0.1620 -0.8967  0.4269
 4211TIP3    H112578   3.591   5.190   1.842 -1.1315 -1.0716 -1.8198
 4211TIP3    H212579   3.726   5.133   1.878 -1.8063 -0.2642  2.4586
 4212TIP3   OH212580   5.714   0.311   0.984  0.2264  0.1295  0.5382
 4212TIP3    H112581   5.807   0.332   0.978  0.2251  0.2562  0.9086
 4212TIP3    H212582   5.672   0.365   0.917  0.2362  1.2432  1.3919
 4213TIP3   OH212583   4.543   6.689   5.561  0.5647 -0.3334  0.0946
 4213TIP3    H112584   4.482   6.628   5.519  0.8604 -0.0804 -0.7320
 4213TIP3    H212585   4.628   6.645   5.557  0.9944  0.5537 -1.5050
 4214TIP3   OH212586   3.727   3.039   5.314  0.4314 -0.0018 -0.1398
 4214TIP3    H112587   3.786   3.093   5.366  1.0582 -0.8575  0.0751
 4214TIP3    H212588   3.643   3.084   5.318  0.8615  0.7799  0.2883
 4215TIP3   OH212589   1.492   0.252   4.506 -0.0983 -0.3908  0.0315
 4215TIP3    H112590   1.538   0.258   4.422  0.0197  0.1274  0.1281
 4215TIP3    H212591   1.502   0.339   4.545 -0.3799 -0.5486  0.4644
 4216TIP3   OH212592   3.216   1.134   0.186  0.2273 -0.7156 -0.1123
 4216TIP3    H112593   3.226   1.109   0.094  0.1121  1.8963 -0.9100
 4216TIP3    H212594   3.249   1.224   0.190 -2.5414  0.3497  1.7559
 4217TIP3   OH212595   3.959   4.692   6.103  0.4973 -0.7905  0.8451
 4217TIP3    H112596   4.042   4.669   6.060  0.6404  1.1825  0.0056
 4217TIP3    H212597   3.896   4.699   6.032  0.3527  0.8158  1.0971
 4218TIP3   OH212598   7.745   1.823   3.435  0.1247  0.0542 -0.1726
 4218TIP3    H112599   7.687   1.886   3.392  0.8648  0.7157 -0.2163
 4218TIP3    H212600   7.708   1.813   3.522 -1.4462 -1.3646 -0.9417
 4219TIP3   OH212601   1.750   1.040   5.015  0.7205 -0.3562  0.1196
 4219TIP3    H112602   1.797   1.049   5.099  0.9738 -1.7344  0.1513
 4219TIP3    H212603   1.733   0.947   5.007  1.4045 -0.3649 -1.7501
 4220TIP3   OH212604   6.353   0.258   6.275 -0.2106 -0.2699 -0.3153
 4220TIP3    H112605   6.278   0.206   6.304 -0.3308 -0.4640 -0.9548
 4220TIP3    H212606   6.401   0.279   6.355 -1.9195  1.4152  0.3347
 4221TIP3   OH212607   7.930   6.078   5.954  0.6140 -0.4294 -0.2406
 4221TIP3    H112608   7.987   6.008   5.922  3.0056  1.1990  0.2046
 4221TIP3    H212609   7.982   6.158   5.944 -1.9995  1.3528 -0.7592
 4222TIP3   OH212610   2.605   1.304   5.893  0.3217  0.2386  0.4842
 4222TIP3    H112611   2.513   1.278   5.900  0.4553 -0.0996  1.0121
 4222TIP3    H212612   2.602   1.394   5.861 -0.2510  1.0701  2.7463
 4223TIP3   OH212613   1.521   2.815   1.192 -0.2036  0.1613 -0.4548
 4223TIP3    H112614   1.539   2.896   1.145  0.1676  0.6037  0.4397
 4223TIP3    H212615   1.434   2.827   1.229 -0.6286 -0.3130 -1.2699
 4224TIP3   OH212616   3.878   7.777   6.446  0.0612  0.1649 -0.1021
 4224TIP3    H112617   3.817   7.707   6.423  0.2116  0.0120 -0.0416
 4224TIP3    H212618   3.940   7.780   6.374  0.8958 -0.7317  0.5596
 4225TIP3   OH212619   2.183   1.248   0.584  0.4847 -0.4166 -0.4140
 4225TIP3    H112620   2.120   1.176   0.573 -0.4275  0.3435 -0.3219
 4225TIP3    H212621   2.159   1.311   0.516 -0.4490  0.9785  1.1063
 4226TIP3   OH212622   6.039   5.786   5.494  0.4610 -0.2324 -0.5976
 4226TIP3    H112623   6.060   5.815   5.405  0.3309 -0.5666 -0.7416
 4226TIP3    H212624   5.943   5.781   5.495  0.3415  1.6871  0.1818
 4227TIP3   OH212625   6.406   6.100   4.672 -0.1262  0.0471 -0.0802
 4227TIP3    H112626   6.489   6.134   4.640  0.9670 -2.6536 -0.3655
 4227TIP3    H212627   6.379   6.161   4.740  1.4150  1.6854 -0.8683
 4228TIP3   OH212628   2.661   7.077   4.676  0.7723  0.0606  0.4886
 4228TIP3    H112629   2.680   7.000   4.730 -0.9252 -0.5896  0.2028
 4228TIP3    H212630   2.604   7.132   4.730  0.4829  0.2388  0.0089
 4229TIP3   OH212631   7.476   1.143   1.831  0.0694 -0.7048  0.1641
 4229TIP3    H112632   7.568   1.145   1.804 -0.2435 -0.6736 -0.9528
 4229TIP3    H212633   7.472   1.203   1.906  0.8905 -0.4346  0.0062
 4230TIP3   OH212634   2.658   5.787   4.883  0.0449  0.6181  0.4573
 4230TIP3    H112635   2.702   5.709   4.917  0.3507  0.6482  0.1316
 4230TIP3    H212636   2.684   5.858   4.942  1.3633  0.8690 -0.3903
 4231TIP3   OH212637   0.510   5.868   0.073 -0.0343  0.0062  0.4293
 4231TIP3    H112638   0.477   5.863  -0.016 -0.0912 -1.6345  0.5072
 4231TIP3    H212639   0.514   5.962   0.092 -2.5444  0.3437 -0.3345
 4232TIP3   OH212640   4.076   3.063   5.093 -0.0401 -0.0317 -0.1634
 4232TIP3    H112641   4.161   3.097   5.119  0.9100 -2.3031 -0.1178
 4232TIP3    H212642   4.082   3.056   4.997 -0.5634  0.7039 -0.2620
 4233TIP3   OH212643   3.073   0.575   1.914 -0.2977  0.0406  0.1392
 4233TIP3    H112644   3.076   0.499   1.856 -2.2943 -1.9954  2.4702
 4233TIP3    H212645   3.101   0.541   1.999  1.4818  2.6401  0.7252
 4234TIP3   OH212646   1.188   7.387   1.473 -0.1632 -0.5439  0.0935
 4234TIP3    H112647   1.261   7.357   1.527 -0.0323  1.1271  0.9116
 4234TIP3    H212648   1.122   7.416   1.536 -0.1320  1.1716 -0.5913
 4235TIP3   OH212649   7.857   4.430   5.853  0.0052 -0.1105 -0.8231
 4235TIP3    H112650   7.943   4.412   5.891 -1.5170 -1.4556  2.2977
 4235TIP3    H212651   7.846   4.524   5.861  0.1789 -0.2272  1.2137
 4236TIP3   OH212652   1.674   3.377   4.940  0.4773 -0.5617  0.0039
 4236TIP3    H112653   1.637   3.351   5.025  0.8765  1.0986  0.7202
 4236TIP3    H212654   1.719   3.460   4.957  2.1627 -1.1006 -1.4439
 4237TIP3   OH212655   5.833   2.886   6.519 -0.5724  0.3224  0.3532
 4237TIP3    H112656   5.849   2.807   6.572  0.9260 -0.7939 -1.6116
 4237TIP3    H212657   5.859   2.861   6.431 -0.0959  3.0314 -0.3689
 4238TIP3   OH212658   4.434   7.455   5.426  0.1362 -0.6069  0.2843
 4238TIP3    H112659   4.373   7.524   5.399  0.2299 -0.4481  0.4767
 4238TIP3    H212660   4.412   7.381   5.370  0.7179 -0.0988 -0.6364
 4239TIP3   OH212661   4.628   3.513   6.317  0.0196  0.7278  0.7006
 4239TIP3    H112662   4.632   3.424   6.282 -0.6786  1.1805 -0.5798
 4239TIP3    H212663   4.707   3.521   6.371 -0.7966 -1.2674  2.3591
 4240TIP3   OH212664   5.598   5.395   2.373 -0.2076 -0.4093  0.2622
 4240TIP3    H112665   5.642   5.434   2.298 -0.7020  0.2659  0.3055
 4240TIP3    H212666   5.514   5.440   2.377  0.3325  0.5669  2.0106
 4241TIP3   OH212667   3.603   1.784   1.854  0.1230  0.0089 -1.0043
 4241TIP3    H112668   3.662   1.787   1.779  0.2142 -0.7751 -0.9710
 4241TIP3    H212669   3.595   1.691   1.874  1.8672  0.2794  1.3497
 4242TIP3   OH212670   3.510   4.884   3.310  0.1552  0.3069 -0.3296
 4242TIP3    H112671   3.554   4.825   3.247 -0.9584 -0.0295 -0.8131
 4242TIP3    H212672   3.424   4.844   3.324  0.2600  0.5466  1.1926
 4243TIP3   OH212673   8.116   3.386   3.595 -0.1184  0.0060 -0.8752
 4243TIP3    H112674   8.202   3.428   3.589 -0.3009  0.6802  0.7506
 4243TIP3    H212675   8.064   3.446   3.649 -0.3719 -2.3310  1.6662
 4244TIP3   OH212676   6.212   6.994   2.528  0.4090 -0.2095  0.2576
 4244TIP3    H112677   6.271   6.938   2.478 -0.5449 -0.5248 -0.5501
 4244TIP3    H212678   6.207   7.075   2.478 -0.2869 -0.4018 -0.0003
 4245TIP3   OH212679   5.029   5.273   3.501  0.1277  0.3617 -0.3651
 4245TIP3    H112680   4.992   5.228   3.577  1.0224 -0.3264 -0.3223
 4245TIP3    H212681   4.959   5.331   3.471 -0.1415  0.8588  1.1502
 4246TIP3   OH212682   1.389   3.383   2.237  0.1020 -0.3986  0.5009
 4246TIP3    H112683   1.398   3.476   2.214 -0.4423 -0.0650  1.5458
 4246TIP3    H212684   1.297   3.363   2.220  0.0383 -0.5337  0.9877
 4247TIP3   OH212685   0.524   1.700   0.710  0.5237  0.1970  0.2350
 4247TIP3    H112686   0.535   1.615   0.751 -0.7952  0.1990  0.6455
 4247TIP3    H212687   0.574   1.760   0.765  3.1593 -0.5509 -1.1827
 4248TIP3   OH212688   5.349   2.370   5.085  0.5949 -0.0034  0.1159
 4248TIP3    H112689   5.427   2.317   5.099  1.0776  0.4857 -0.5887
 4248TIP3    H212690   5.383   2.454   5.052 -0.1343  0.7973  1.3378
 4249TIP3   OH212691   1.254   1.213   4.486  0.0727 -0.0870 -0.2716
 4249TIP3    H112692   1.306   1.203   4.566  0.5226  1.5565 -0.3211
 4249TIP3    H212693   1.300   1.161   4.420  0.3327 -0.5332  0.2601
 4250TIP3   OH212694   1.811   6.662   6.072 -0.4189 -0.1739 -0.1600
 4250TIP3    H112695   1.822   6.664   5.977  0.3869 -2.4778 -0.1838
 4250TIP3    H212696   1.880   6.719   6.106 -0.9998  1.0372 -0.9157
 4251TIP3   OH212697   6.620   1.750   4.139 -0.1962 -0.1959 -0.4083
 4251TIP3    H112698   6.571   1.815   4.188  1.8995  1.6896 -0.6426
 4251TIP3    H212699   6.708   1.753   4.177  0.0197 -2.9023 -0.4694
 4252TIP3   OH212700   5.895   5.547   1.711  0.0924  0.1799  0.1873
 4252TIP3    H112701   5.883   5.486   1.784  0.3854 -0.6468 -0.4458
 4252TIP3    H212702   5.980   5.523   1.673 -0.4770 -0.0369 -1.0031
 4253TIP3   OH212703   6.298   4.836   3.312  0.0050 -0.1363  0.0716
 4253TIP3    H112704   6.283   4.744   3.293 -0.6058  0.0510 -0.4293
 4253TIP3    H212705   6.212   4.877   3.300  0.9676  1.2338 -4.2643
 4254TIP3   OH212706   1.258   1.931   4.860 -0.1571  0.0086  0.0592
 4254TIP3    H112707   1.276   1.994   4.790  1.3493  0.0892  0.4837
 4254TIP3    H212708   1.196   1.869   4.821 -1.2998  1.4406 -0.5265
 4255TIP3   OH212709   4.748   6.015   6.570  0.4626 -0.6382  0.1398
 4255TIP3    H112710   4.819   6.008   6.506  3.3940 -2.4253  3.2138
 4255TIP3    H212711   4.759   6.103   6.608 -0.9975  0.2514 -1.3805
 4256TIP3   OH212712   5.654   4.384   0.996 -0.3202  0.3483  0.2166
 4256TIP3    H112713   5.726   4.440   1.025 -0.8125  1.7121 -1.0829
 4256TIP3    H212714   5.594   4.443   0.951 -0.8361 -1.2418 -1.2935
 4257TIP3   OH212715   3.888   1.740   5.588  0.5365  0.1885 -0.3273
 4257TIP3    H112716   3.981   1.746   5.565  0.7669 -2.5288 -0.4742
 4257TIP3    H212717   3.843   1.762   5.507  1.2092 -2.0999 -1.4288
 4258TIP3   OH212718   6.988   2.584   5.870  0.0396  0.3277 -0.0668
 4258TIP3    H112719   6.985   2.643   5.945  0.9145  1.5790 -0.9697
 4258TIP3    H212720   7.055   2.621   5.813 -0.1166 -0.9803 -1.1489
 4259TIP3   OH212721   7.595   4.969   4.125  0.2823 -0.0587  0.1390
 4259TIP3    H112722   7.635   5.033   4.066  0.1448 -0.3102 -0.2226
 4259TIP3    H212723   7.633   4.885   4.099 -0.6365 -0.3355 -0.3465
 4260TIP3   OH212724   1.497   2.569   0.968  0.2592  0.2143  0.3047
 4260TIP3    H112725   1.504   2.619   1.049  0.0518  2.0719 -0.7795
 4260TIP3    H212726   1.587   2.543   0.947  0.4818  0.9041  0.4114
 4261TIP3   OH212727   5.672   6.547   3.573  0.5225  0.4495  0.4853
 4261TIP3    H112728   5.706   6.599   3.500  0.5385 -1.1787 -0.7184
 4261TIP3    H212729   5.668   6.458   3.539  0.6432 -0.3828  2.5251
 4262TIP3   OH212730   2.034   4.711   3.815  0.1643 -0.5805  0.6902
 4262TIP3    H112731   2.000   4.675   3.732 -0.0081 -2.6596  1.5970
 4262TIP3    H212732   1.966   4.770   3.845 -0.0537 -0.2860 -0.3398
 4263TIP3   OH212733   2.966   1.242   3.653  0.7374 -0.2265  0.0198
 4263TIP3    H112734   2.943   1.155   3.686  0.9123  0.3152  1.6580
 4263TIP3    H212735   3.051   1.260   3.693  0.2226  1.1226  0.5593
 4264TIP3   OH212736   4.947   0.999   0.894 -0.2423 -0.4670  0.1050
 4264TIP3    H112737   4.877   1.002   0.958  0.2417  0.9408  0.6233
 4264TIP3    H212738   4.943   0.911   0.857 -0.2586 -1.4857  2.3771
 4265TIP3   OH212739   4.764   0.304   0.754  0.5762 -0.0141  0.3406
 4265TIP3    H112740   4.713   0.348   0.686  1.2567  1.3710  0.6859
 4265TIP3    H212741   4.716   0.223   0.772 -0.0897  0.0352 -1.1388
 4266TIP3   OH212742   7.302   5.295   4.972  0.2313 -0.1512 -0.0467
 4266TIP3    H112743   7.275   5.203   4.970 -0.5535  0.0812 -0.3737
 4266TIP3    H212744   7.334   5.309   5.062 -0.0176 -0.6388  0.1191
 4267TIP3   OH212745   5.774   0.646   3.402  0.0572  0.4061  0.0176
 4267TIP3    H112746   5.856   0.603   3.377 -0.1187 -0.5438  0.9885
 4267TIP3    H212747   5.737   0.676   3.320  0.9248  0.0106 -0.5379
 4268TIP3   OH212748   3.587   4.472   3.283  0.6440  0.3105 -0.0506
 4268TIP3    H112749   3.658   4.531   3.309 -1.8991  3.4853  0.3378
 4268TIP3    H212750   3.561   4.502   3.197 -1.9250  1.1126  0.9164
 4269TIP3   OH212751   1.016   5.577   5.313  0.4768 -0.3132  0.3079
 4269TIP3    H112752   1.057   5.503   5.357 -0.0396 -1.0584 -0.4316
 4269TIP3    H212753   1.075   5.599   5.241  0.8662  0.3137  0.8068
 4270TIP3   OH212754   2.901   2.147   5.182  0.3747 -0.4171  0.5826
 4270TIP3    H112755   2.925   2.066   5.228 -0.7629 -0.2626  1.5026
 4270TIP3    H212756   2.859   2.200   5.249 -1.0008 -0.0190 -0.5529
 4271TIP3   OH212757   0.702   2.259   3.674  0.5957 -0.0754  0.1339
 4271TIP3    H112758   0.754   2.339   3.686 -0.0280  0.0380  2.9564
 4271TIP3    H212759   0.750   2.192   3.723  0.2973 -1.0736 -0.8986
 4272TIP3   OH212760   4.114   2.938   0.421 -0.0592 -0.4202  0.1481
 4272TIP3    H112761   4.054   2.876   0.463 -0.6472  0.2674  0.3354
 4272TIP3    H212762   4.111   3.016   0.476 -0.5340  0.3556 -0.9235
 4273TIP3   OH212763   5.026   0.788   0.206 -0.2894 -0.2288  0.1025
 4273TIP3    H112764   5.096   0.738   0.166  2.0223  2.2323  0.7754
 4273TIP3    H212765   4.962   0.801   0.136  1.8541  0.8192 -1.7809
 4274TIP3   OH212766   2.218   5.512   0.612  0.3135 -0.2247 -0.2087
 4274TIP3    H112767   2.211   5.589   0.669  0.1352  0.1219 -0.6903
 4274TIP3    H212768   2.148   5.524   0.548 -1.8984 -2.4503  1.6241
 4275TIP3   OH212769   2.202   3.716   4.816  0.3646  0.5580 -0.4159
 4275TIP3    H112770   2.253   3.636   4.830 -0.9745 -0.1781  0.5429
 4275TIP3    H212771   2.253   3.785   4.857 -0.1696 -0.4371  2.1318
 4276TIP3   OH212772   0.819   1.245   0.648  0.0779 -0.2807  0.0509
 4276TIP3    H112773   0.804   1.269   0.556 -1.8188  0.5214  0.5286
 4276TIP3    H212774   0.816   1.149   0.648  0.8109 -0.3118 -0.8330
 4277TIP3   OH212775   1.837   0.077   5.101 -0.6098 -0.3145  0.1835
 4277TIP3    H112776   1.806   0.134   5.030 -2.0470  0.0592  1.0644
 4277TIP3    H212777   1.842  -0.010   5.062  1.0812  0.2823 -1.0414
 4278TIP3   OH212778   2.036   0.876   3.904 -0.1754  0.3633 -0.1632
 4278TIP3    H112779   1.968   0.834   3.957  1.6609  0.8793  2.8250
 4278TIP3    H212780   2.086   0.804   3.867 -1.6541 -0.0102 -1.5666
 4279TIP3   OH212781   3.330   6.107   4.648  0.0518 -0.1436  0.2416
 4279TIP3    H112782   3.264   6.098   4.716  0.7594  1.2849  1.1602
 4279TIP3    H212783   3.369   6.019   4.641 -0.0670 -0.3284  1.6525
 4280TIP3   OH212784   1.086   3.904   4.729 -0.0165 -0.0848 -0.3245
 4280TIP3    H112785   1.032   3.931   4.804 -0.7528  1.3526 -1.3293
 4280TIP3    H212786   1.152   3.973   4.722  1.5300 -1.4229  0.4043
 4281TIP3   OH212787   5.228   0.878   1.103 -0.0998  0.6811 -0.6685
 4281TIP3    H112788   5.202   0.822   1.177  1.1351  2.1760  0.9706
 4281TIP3    H212789   5.162   0.948   1.101  0.7076  1.4767  0.0138
 4282TIP3   OH212790   5.071   1.283   2.065 -0.3363 -0.3797 -0.2513
 4282TIP3    H112791   5.120   1.220   2.012  0.6410 -0.3703  0.6082
 4282TIP3    H212792   4.988   1.293   2.020 -0.3372 -1.9629 -0.6369
 4283TIP3   OH212793   2.774   4.675   1.645  0.0568 -0.0429  0.5015
 4283TIP3    H112794   2.727   4.677   1.562  2.4427  0.4595 -0.9410
 4283TIP3    H212795   2.805   4.584   1.652  0.6745  0.1487  0.3244
 4284TIP3   OH212796   2.365   5.073   6.598  0.1081  0.2600 -0.3811
 4284TIP3    H112797   2.422   5.120   6.659 -1.3442  1.0299  0.4202
 4284TIP3    H212798   2.326   5.142   6.544  1.0362 -0.3725 -1.9444
 4285TIP3   OH212799   7.808   1.760   0.674  0.1958 -0.0615 -0.1142
 4285TIP3    H112800   7.769   1.746   0.761  0.3853  0.0253 -0.0152
 4285TIP3    H212801   7.735   1.749   0.613 -0.0850  0.5391  0.0988
 4286TIP3   OH212802   3.661   1.128   3.908  0.4881  0.3105  0.3726
 4286TIP3    H112803   3.597   1.170   3.965  1.0918 -1.0669  2.1797
 4286TIP3    H212804   3.608   1.075   3.847 -0.1508  1.2953  0.0598
 4287TIP3   OH212805   3.525   4.410   5.447 -0.1991 -0.0139  0.1464
 4287TIP3    H112806   3.541   4.452   5.531  0.7476  0.5332 -0.2886
 4287TIP3    H212807   3.525   4.481   5.383 -0.5678 -0.4554 -0.3614
 4288TIP3   OH212808   7.871   6.123   5.675 -0.1077  0.9509 -0.0139
 4288TIP3    H112809   7.946   6.183   5.683  0.8278 -0.0642 -0.7747
 4288TIP3    H212810   7.911   6.036   5.677 -1.3566  0.3741  0.2614
 4289TIP3   OH212811   5.517   5.283   5.929 -0.3444 -0.2247 -0.2594
 4289TIP3    H112812   5.484   5.217   5.867  1.9363 -0.7039 -1.0788
 4289TIP3    H212813   5.556   5.232   6.000  0.2611  0.2493 -0.2423
 4290TIP3   OH212814   4.317   5.317   3.906 -0.4391 -0.1768  0.4717
 4290TIP3    H112815   4.254   5.330   3.835 -1.1664  1.4423  1.3558
 4290TIP3    H212816   4.316   5.223   3.923 -1.9953 -0.2916 -0.1146
 4291TIP3   OH212817   5.110   6.792   3.995 -0.2201 -0.7711  0.2502
 4291TIP3    H112818   5.076   6.715   4.040 -1.1164  0.0588  1.0384
 4291TIP3    H212819   5.164   6.837   4.060 -0.2150 -0.4111  0.0028
 4292TIP3   OH212820   4.960   5.155   6.720  0.3496  0.1676 -0.0553
 4292TIP3    H112821   4.876   5.187   6.754 -1.2790 -2.1662 -1.5925
 4292TIP3    H212822   4.995   5.103   6.792  0.6304  1.3175  0.6711
 4293TIP3   OH212823   5.993   1.945   4.410  0.4114 -0.0067 -0.3710
 4293TIP3    H112824   6.028   1.950   4.321 -3.8331  2.1846 -2.2171
 4293TIP3    H212825   5.920   1.884   4.404  1.6435 -1.9792  2.4455
 4294TIP3   OH212826   5.125   5.481   4.688 -0.4767  0.2943  0.0458
 4294TIP3    H112827   5.211   5.474   4.730 -0.7713 -2.9172  0.3269
 4294TIP3    H212828   5.143   5.463   4.596 -0.9097 -1.2182  0.2369
 4295TIP3   OH212829   6.490   2.835   3.615  0.0667  0.3983 -0.4563
 4295TIP3    H112830   6.563   2.785   3.651 -1.0515 -1.1573 -0.2614
 4295TIP3    H212831   6.465   2.896   3.685 -0.1253 -0.4874  0.2653
 4296TIP3   OH212832   7.253   4.995   3.164  0.0396 -0.1729  0.6059
 4296TIP3    H112833   7.292   4.908   3.156 -1.3774 -0.8359  0.4942
 4296TIP3    H212834   7.169   4.987   3.117  0.6542  1.7627 -0.9585
 4297TIP3   OH212835   3.995   2.990   2.270 -0.4153  0.6751  0.0182
 4297TIP3    H112836   4.079   2.969   2.231  0.3704 -0.1356  1.9881
 4297TIP3    H212837   3.935   2.922   2.237 -0.1935  0.9514 -0.9801
 4298TIP3   OH212838   5.119   7.771   2.960  0.2626 -0.5945 -0.0493
 4298TIP3    H112839   5.140   7.680   2.940  2.0033  0.1549 -1.8783
 4298TIP3    H212840   5.112   7.814   2.875  0.4435  1.1749  0.7822
 4299TIP3   OH212841   7.306   2.026   6.727 -0.0172 -0.0265  0.0513
 4299TIP3    H112842   7.233   1.990   6.676 -0.4802  2.1146 -0.8976
 4299TIP3    H212843   7.355   2.080   6.664  2.7091 -1.7187  0.5253
 4300TIP3   OH212844   3.729   5.621   5.716  0.3715  0.4152  0.1925
 4300TIP3    H112845   3.642   5.658   5.729 -0.2108 -1.3554  1.7844
 4300TIP3    H212846   3.775   5.638   5.798  1.0839  0.2207 -0.1571
 4301TIP3   OH212847   3.970   3.854   2.203 -0.3360  0.1025  0.4347
 4301TIP3    H112848   4.037   3.812   2.258  0.2410  0.4151 -0.0153
 4301TIP3    H212849   3.926   3.915   2.262 -0.1763 -0.0527  0.7221
 4302TIP3   OH212850   4.307   5.594   1.828  0.0545  0.0615  0.5471
 4302TIP3    H112851   4.271   5.665   1.776  0.7673 -0.1459 -0.2549
 4302TIP3    H212852   4.272   5.608   1.916  0.1930  1.4016  0.4106
 4303TIP3   OH212853   4.917   3.818   4.328 -0.0727 -0.2298  0.1564
 4303TIP3    H112854   4.895   3.796   4.419 -1.1287  0.8958  0.2016
 4303TIP3    H212855   4.842   3.789   4.277  0.4692 -0.7578 -0.3630
 4304TIP3   OH212856   4.436   1.877   5.688 -0.4420  0.2497  0.4471
 4304TIP3    H112857   4.529   1.862   5.703 -0.1789 -0.0490 -1.3032
 4304TIP3    H212858   4.415   1.954   5.741  1.7364  2.7644 -2.0622
 4305TIP3   OH212859   5.350   4.100   1.254 -1.0275  0.1026 -0.1476
 4305TIP3    H112860   5.308   4.090   1.168  2.1117 -1.3272 -1.6443
 4305TIP3    H212861   5.417   4.167   1.240  1.8974 -2.5834  0.0894
 4306TIP3   OH212862   5.760   5.514   0.391 -0.3049 -0.1397 -0.1933
 4306TIP3    H112863   5.811   5.578   0.441  0.4132  0.8718 -2.1200
 4306TIP3    H212864   5.742   5.443   0.453  3.8727 -0.8095  0.5141
 4307TIP3   OH212865   7.342   5.496   1.252  0.0698 -0.3082  0.0703
 4307TIP3    H112866   7.275   5.461   1.193  0.4269  2.1316 -1.9564
 4307TIP3    H212867   7.297   5.566   1.300  0.7446  0.2643 -0.1241
 4308TIP3   OH212868   4.254   5.633   3.701  0.5628  0.0519 -0.1901
 4308TIP3    H112869   4.186   5.634   3.768  0.1870  2.5810 -0.4894
 4308TIP3    H212870   4.206   5.624   3.618  0.6059  1.0460 -0.3442
 4309TIP3   OH212871   4.711   6.143   3.164  0.6026 -0.1483 -0.0842
 4309TIP3    H112872   4.778   6.146   3.095 -0.2528 -0.2674 -0.9531
 4309TIP3    H212873   4.685   6.051   3.168 -0.6899  0.1429 -0.9723
 4310TIP3   OH212874   3.275   2.642   5.331 -0.3516 -0.3415  0.2513
 4310TIP3    H112875   3.268   2.551   5.359 -0.3788 -0.2465  0.5657
 4310TIP3    H212876   3.234   2.645   5.245  1.7603 -1.1037 -0.8377
 4311TIP3   OH212877   0.128   0.544   4.301  0.7876 -0.4067 -0.1373
 4311TIP3    H112878   0.061   0.611   4.315  1.2662  0.0469  0.0104
 4311TIP3    H212879   0.113   0.480   4.371  2.2324  1.0912  1.6381
 4312TIP3   OH212880   4.213   3.097   4.608  0.0391 -0.1861  0.2766
 4312TIP3    H112881   4.192   3.187   4.581 -0.6273 -0.4118  0.0107
 4312TIP3    H212882   4.308   3.096   4.615  0.0625  0.5235  0.2102
 4313TIP3   OH212883   0.763   3.266   5.493  0.1219 -0.4244 -0.2281
 4313TIP3    H112884   0.797   3.279   5.404  1.7630 -1.9386  0.1324
 4313TIP3    H212885   0.838   3.285   5.550 -1.1826  1.6255  0.9709
 4314TIP3   OH212886   0.109   7.228   5.319 -0.1130  0.3333  0.3720
 4314TIP3    H112887   0.190   7.277   5.303 -0.0412  0.1862  0.2794
 4314TIP3    H212888   0.043   7.295   5.336  0.1696  0.4376  1.1038
 4315TIP3   OH212889   2.877   0.722   5.823  0.1332 -0.0205 -0.3170
 4315TIP3    H112890   2.824   0.754   5.895  0.5386 -0.3762  0.1513
 4315TIP3    H212891   2.951   0.782   5.818  0.6613 -0.6014  0.2713
 4316TIP3   OH212892   0.494   6.727   2.478  0.0215 -0.1895  0.0724
 4316TIP3    H112893   0.460   6.639   2.490  0.1419 -0.2186  0.1943
 4316TIP3    H212894   0.586   6.721   2.501  0.3749 -0.3603 -1.3144
 4317TIP3   OH212895   6.874   0.351   3.766 -0.2314 -0.1904 -0.0964
 4317TIP3    H112896   6.804   0.409   3.738 -0.7799 -1.2836 -1.0451
 4317TIP3    H212897   6.947   0.370   3.707  1.3392  2.8184  2.4604
 4318TIP3   OH212898   4.927   1.741   6.501  0.2886 -0.1211 -0.4168
 4318TIP3    H112899   4.904   1.678   6.569 -1.5697 -0.6142 -1.4580
 4318TIP3    H212900   5.022   1.753   6.511  0.2845 -1.2193  1.3448
 4319TIP3   OH212901   2.211   1.959   2.901  1.1129 -0.0672 -0.7658
 4319TIP3    H112902   2.162   1.936   2.979 -0.8216 -2.0657 -2.4268
 4319TIP3    H212903   2.300   1.974   2.932  0.1834  0.4755  1.9392
 4320TIP3   OH212904   3.641   6.917   4.349 -0.0722  1.0305  0.6001
 4320TIP3    H112905   3.649   6.824   4.329 -1.0613  1.4249 -2.0435
 4320TIP3    H212906   3.726   6.954   4.326  0.0218  0.9130  0.7596
 4321TIP3   OH212907   5.448   6.236   0.136  0.4069 -0.4130  0.7695
 4321TIP3    H112908   5.499   6.214   0.058  0.5158  1.7570  0.1745
 4321TIP3    H212909   5.501   6.204   0.209  2.5893  1.5724  0.1707
 4322TIP3   OH212910   0.468   7.503   2.320  0.1870  0.4701  0.0204
 4322TIP3    H112911   0.412   7.578   2.301 -1.0607  0.0514  1.7679
 4322TIP3    H212912   0.443   7.438   2.254 -1.0413  0.4874  0.4358
 4323TIP3   OH212913   7.943   5.922   1.079  0.2516  0.0417 -0.0058
 4323TIP3    H112914   8.022   5.975   1.084  1.6035 -1.9766  2.5967
 4323TIP3    H212915   7.873   5.979   1.113  1.1068  1.0083  0.1631
 4324TIP3   OH212916   4.279   2.502   5.880  0.0314  0.2532 -0.0268
 4324TIP3    H112917   4.364   2.530   5.912  1.6202 -1.4172 -2.4530
 4324TIP3    H212918   4.249   2.574   5.824  0.7846  0.0558 -0.6939
 4325TIP3   OH212919   3.517   5.854   5.901  0.3294  0.1830  0.2998
 4325TIP3    H112920   3.520   5.919   5.831 -1.0123 -1.6208 -1.5654
 4325TIP3    H212921   3.423   5.844   5.921  0.5360 -0.8208  0.8719
 4326TIP3   OH212922   1.734   3.448   6.259  0.2113 -0.1688  0.3056
 4326TIP3    H112923   1.697   3.488   6.180  2.2791  1.2318 -0.0352
 4326TIP3    H212924   1.754   3.358   6.233 -0.6251 -0.1969 -0.2631
 4327TIP3   OH212925   8.322   6.878   1.636 -0.3606 -0.6329  0.2913
 4327TIP3    H112926   8.270   6.877   1.556  1.3114  2.6751 -1.0513
 4327TIP3    H212927   8.257   6.878   1.707 -1.9593 -1.5411 -1.1074
 4328TIP3   OH212928   4.077   5.097   6.442  0.5878  0.6233 -0.7144
 4328TIP3    H112929   4.003   5.118   6.385  0.8982 -0.5788 -1.5962
 4328TIP3    H212930   4.076   5.002   6.449 -0.1052  0.7544  2.2420
 4329TIP3   OH212931   3.417   5.497   2.129  0.0790 -0.2060  0.2757
 4329TIP3    H112932   3.454   5.584   2.111 -0.3761  0.1808  1.1288
 4329TIP3    H212933   3.492   5.444   2.155  0.6955 -0.6781 -2.2377
 4330TIP3   OH212934   7.069   0.549   4.030 -0.3291  0.1237 -0.2390
 4330TIP3    H112935   6.999   0.614   4.026 -0.7837 -0.4236 -1.8021
 4330TIP3    H212936   7.026   0.468   4.055 -0.1035 -0.0110 -0.2854
 4331TIP3   OH212937   3.076   6.574   0.972 -0.4354 -0.1832 -0.0121
 4331TIP3    H112938   3.125   6.511   1.025 -1.7978 -2.0789 -0.8748
 4331TIP3    H212939   2.986   6.541   0.973 -0.5145 -0.4806 -3.5777
 4332TIP3   OH212940   1.620   1.645   3.281 -0.6974  0.0353 -0.1609
 4332TIP3    H112941   1.625   1.633   3.186  0.8403 -0.1166 -0.0905
 4332TIP3    H212942   1.586   1.734   3.292 -2.0577 -0.3792 -0.8170
 4333TIP3   OH212943   2.648   4.990   3.019  0.1766  0.5840 -0.1194
 4333TIP3    H112944   2.654   4.957   2.930 -2.9250 -0.8347  0.0779
 4333TIP3    H212945   2.729   4.962   3.061  1.2058  0.3472 -2.1637
 4334TIP3   OH212946   2.138   7.111   6.355  0.0811  0.1110 -0.2195
 4334TIP3    H112947   2.129   7.023   6.320  0.1433  0.0359 -0.0458
 4334TIP3    H212948   2.193   7.101   6.432  1.3921  0.5035 -1.0500
 4335TIP3   OH212949   1.493   3.886   0.132  0.4753  0.1106 -0.3137
 4335TIP3    H112950   1.481   3.841   0.215  2.4867 -1.6665 -0.8882
 4335TIP3    H212951   1.512   3.976   0.156 -0.2142 -0.0948  1.0839
 4336TIP3   OH212952   0.801   3.547   5.700 -0.1600  0.6688 -0.3472
 4336TIP3    H112953   0.839   3.574   5.784  1.9367  0.5070 -1.1994
 4336TIP3    H212954   0.854   3.473   5.672 -0.8112  0.7386 -1.8432
 4337TIP3   OH212955   4.737   2.207   4.924 -0.3966 -1.0312 -0.4680
 4337TIP3    H112956   4.659   2.186   4.873 -0.3959  0.4986 -1.1441
 4337TIP3    H212957   4.704   2.224   5.012 -0.9415  0.2699 -0.9030
 4338TIP3   OH212958   0.647   4.608   4.200 -0.0018 -0.1847 -0.3194
 4338TIP3    H112959   0.623   4.693   4.239  1.0492  0.0068 -0.0601
 4338TIP3    H212960   0.598   4.544   4.251 -1.4374  0.3009 -1.0349
 4339TIP3   OH212961   1.772   4.019   4.299  0.0208 -0.4098  0.1442
 4339TIP3    H112962   1.731   3.963   4.233 -1.7588  0.6590  0.3042
 4339TIP3    H212963   1.769   4.107   4.261  2.3086 -0.2730  0.1250
 4340TIP3   OH212964   1.550   6.839   3.917  0.2259  0.3334 -0.4742
 4340TIP3    H112965   1.588   6.821   4.003 -0.1101 -0.9173 -0.5688
 4340TIP3    H212966   1.625   6.842   3.858  0.3660  0.0636 -0.3111
 4341TIP3   OH212967   3.855   3.769   4.994 -0.1242 -0.0971  0.2784
 4341TIP3    H112968   3.779   3.727   4.955 -0.9842  2.1216 -0.5992
 4341TIP3    H212969   3.930   3.738   4.943 -0.9601  0.8407 -1.6079
 4342TIP3   OH212970   2.171   1.846   4.616  0.1985  0.3448  0.1616
 4342TIP3    H112971   2.131   1.920   4.662  0.7310 -1.0950  3.1889
 4342TIP3    H212972   2.262   1.846   4.646  0.3381 -1.2136 -0.1961
 4343TIP3   OH212973   0.120   5.572   4.281  0.2767  0.1769 -0.3419
 4343TIP3    H112974   0.053   5.598   4.345 -2.0190 -0.3064 -2.3835
 4343TIP3    H212975   0.186   5.641   4.287 -1.6628  2.1358  0.0594
 4344TIP3   OH212976   5.400   1.298   4.451 -0.2373  0.2215 -0.4295
 4344TIP3    H112977   5.367   1.265   4.534  0.3402 -0.4572 -0.4625
 4344TIP3    H212978   5.491   1.320   4.468  0.0946 -0.6153 -1.0610
 4345TIP3   OH212979   0.599   6.853   0.768  0.1926 -0.9520  0.5394
 4345TIP3    H112980   0.594   6.947   0.789  0.3840 -1.0533  1.0538
 4345TIP3    H212981   0.577   6.809   0.850  1.1266 -1.3558  0.5858
 4346TIP3   OH212982   0.834   0.562   2.301  0.3593  0.3341 -0.2212
 4346TIP3    H112983   0.806   0.516   2.221 -0.4414  1.3369 -0.5466
 4346TIP3    H212984   0.817   0.654   2.282  0.5483  0.6243  0.9637
 4347TIP3   OH212985   2.555   7.039   0.238  0.5544  0.2147 -0.2530
 4347TIP3    H112986   2.573   6.960   0.187  0.0355 -0.2655  0.2927
 4347TIP3    H212987   2.615   7.034   0.312 -0.1435 -0.1782  0.3013
 4348TIP3   OH212988   3.756   3.125   5.826 -0.1272 -0.3558  0.2392
 4348TIP3    H112989   3.813   3.149   5.753 -0.4746  0.6552  0.2875
 4348TIP3    H212990   3.668   3.123   5.788 -0.1232 -1.4668  0.2650
 4349TIP3   OH212991   3.984   2.263   6.456  0.1630  0.6929 -0.1359
 4349TIP3    H112992   4.040   2.224   6.523 -0.5452  0.9330  0.6035
 4349TIP3    H212993   3.976   2.194   6.389 -1.7350 -0.8098  1.5104
 4350TIP3   OH212994   4.420   6.770   1.173  0.4207  0.0208 -0.2341
 4350TIP3    H112995   4.425   6.771   1.268 -2.4358  0.3211 -0.0083
 4350TIP3    H212996   4.418   6.677   1.149  0.9000 -0.0523  0.0051
 4351TIP3   OH212997   2.247   5.981   1.255 -0.3135  0.0036  0.1923
 4351TIP3    H112998   2.300   5.929   1.194  0.2170  0.8491 -0.0805
 4351TIP3    H212999   2.196   6.040   1.199  0.2758  0.8812  0.5635
 4352TIP3   OH213000   4.008   1.678   4.914 -0.0324  0.2693 -0.1585
 4352TIP3    H113001   4.095   1.702   4.883 -0.0141  1.8747  1.0225
 4352TIP3    H213002   4.021   1.652   5.005 -0.9098  1.4582  0.3172
 4353TIP3   OH213003   6.723   5.923   5.015 -0.6875 -0.1259 -0.1662
 4353TIP3    H113004   6.683   6.002   5.052  0.3339  1.0538 -1.4862
 4353TIP3    H213005   6.697   5.924   4.923 -0.3842 -1.1575 -0.2698
 4354TIP3   OH213006   5.542   1.125   3.514  0.3717 -0.1772  0.2933
 4354TIP3    H113007   5.574   1.207   3.478  0.2255 -0.0776  0.3902
 4354TIP3    H213008   5.470   1.099   3.456 -0.0536  0.1305  0.6736
 4355TIP3   OH213009   4.503   3.409   0.308  0.1927 -1.2737  0.9823
 4355TIP3    H113010   4.493   3.314   0.308 -0.2690 -1.2719 -1.1528
 4355TIP3    H213011   4.571   3.426   0.242 -0.1958 -0.0951  0.8645
 4356TIP3   OH213012   4.327   2.008   4.565 -0.4032  0.0521 -0.4671
 4356TIP3    H113013   4.286   1.963   4.639 -1.6869  1.9126  0.0365
 4356TIP3    H213014   4.421   1.996   4.578 -0.6794 -1.8530 -0.0004
 4357TIP3   OH213015   2.352   1.091   6.417  0.2055  0.0399 -0.1015
 4357TIP3    H113016   2.298   1.035   6.473 -0.9383 -0.2631 -1.4513
 4357TIP3    H213017   2.358   1.174   6.464 -1.8260  0.2317 -0.0898
 4358TIP3   OH213018   7.312   5.214   1.406  0.0158  0.5872 -0.0802
 4358TIP3    H113019   7.309   5.288   1.467  0.3003 -0.0089  0.6815
 4358TIP3    H213020   7.405   5.195   1.395 -0.0599  0.1389 -0.0022
 4359TIP3   OH213021   6.123   6.864   1.445  0.7435  0.1112  0.5504
 4359TIP3    H113022   6.029   6.883   1.441  0.7116 -0.2717 -0.9803
 4359TIP3    H213023   6.138   6.837   1.536 -0.8114 -0.7145  0.5924
 4360TIP3   OH213024   6.653   2.907   0.513  0.0528 -0.5402 -0.0044
 4360TIP3    H113025   6.625   2.870   0.597  0.1669 -2.2247 -0.6626
 4360TIP3    H213026   6.592   2.870   0.449  1.4571 -1.3057 -0.9683
 4361TIP3   OH213027   1.326   6.659   3.910  0.1842  0.2103  0.1378
 4361TIP3    H113028   1.238   6.694   3.892 -0.0054 -0.2446  0.1469
 4361TIP3    H213029   1.375   6.733   3.943 -0.1408  0.5215 -0.0632
 4362TIP3   OH213030   1.123   7.052   4.825  0.4471  0.1881 -0.1407
 4362TIP3    H113031   1.100   6.974   4.875 -1.6121  1.3446  0.8194
 4362TIP3    H213032   1.191   7.095   4.877 -0.1370  0.2654  0.5650
 4363TIP3   OH213033   3.212   0.862   1.621  0.1760  0.8255  0.4698
 4363TIP3    H113034   3.302   0.882   1.595  1.0599 -1.0240  1.8289
 4363TIP3    H213035   3.220   0.828   1.710 -1.8366  0.2500  0.4805
 4364TIP3   OH213036   7.506   6.483   1.201  0.2957  0.1737 -0.4744
 4364TIP3    H113037   7.546   6.456   1.118  1.5105  0.5980 -0.0490
 4364TIP3    H213038   7.494   6.402   1.250 -0.4282 -0.0812 -1.0389
 4365TIP3   OH213039   3.585   6.476   1.145  0.0095 -0.4050 -0.1289
 4365TIP3    H113040   3.543   6.404   1.099  0.7671 -1.7430  1.2009
 4365TIP3    H213041   3.666   6.492   1.096 -0.0346 -0.6177 -0.2695
 4366TIP3   OH213042   7.026   3.900   5.993 -0.2110  0.8777 -0.0547
 4366TIP3    H113043   7.085   3.863   6.058 -0.2435  2.2843  0.8239
 4366TIP3    H213044   7.083   3.946   5.932 -0.1475 -0.7496 -1.2923
 4367TIP3   OH213045   4.985   5.678   1.204 -0.0315 -0.1281 -0.4192
 4367TIP3    H113046   5.074   5.712   1.191 -1.2535  3.0061 -1.5778
 4367TIP3    H213047   4.945   5.740   1.266 -1.8821 -0.5460 -1.1530
 4368TIP3   OH213048   2.621   3.310   3.149  0.0059 -0.7232  0.1574
 4368TIP3    H113049   2.680   3.336   3.219  1.0113 -1.2322 -0.4860
 4368TIP3    H213050   2.587   3.225   3.177 -2.1531  0.5104  1.5620
 4369TIP3   OH213051   7.465   7.707   6.216 -0.6728 -0.2668 -0.1088
 4369TIP3    H113052   7.476   7.615   6.192  0.4719  0.0527 -0.9230
 4369TIP3    H213053   7.532   7.752   6.165 -0.7836  0.9373  0.7893
 4370TIP3   OH213054   7.033   5.451   3.119  0.2667 -0.1525 -0.2627
 4370TIP3    H113055   6.990   5.425   3.038 -0.3417 -2.8149  0.7988
 4370TIP3    H213056   7.080   5.532   3.097 -1.4720  0.2963 -2.6826
 4371TIP3   OH213057   0.010   2.498   1.857  0.1073  0.2338 -0.1594
 4371TIP3    H113058   0.046   2.415   1.826 -0.5666 -0.0801 -0.1317
 4371TIP3    H213059   0.010   2.554   1.779  0.6405  0.2319 -0.1592
 4372TIP3   OH213060   0.720   6.954   4.476 -0.0428  0.2763 -0.1298
 4372TIP3    H113061   0.728   7.048   4.458  1.0706  0.2673  0.2646
 4372TIP3    H213062   0.715   6.948   4.571 -0.8918 -0.0224 -0.1839
 4373TIP3   OH213063  -0.008   1.269   4.227 -0.7702 -0.1267  0.2811
 4373TIP3    H113064   0.069   1.218   4.254  0.8735  2.2855  0.4699
 4373TIP3    H213065  -0.008   1.265   4.132 -0.1034  0.2198  0.2578
 4374TIP3   OH213066   6.413   0.852   0.828  0.6394 -0.1811 -0.0938
 4374TIP3    H113067   6.378   0.766   0.850 -1.1452 -0.2845 -2.9015
 4374TIP3    H213068   6.504   0.834   0.803  0.5695 -1.0976  0.2606
 4375TIP3   OH213069   0.876   5.259   6.723 -0.0843 -0.1727 -0.1006
 4375TIP3    H113070   0.875   5.224   6.812  2.3722 -1.2293 -0.4132
 4375TIP3    H213071   0.881   5.182   6.667 -1.8039  0.4682 -1.2250
 4376TIP3   OH213072   3.706   2.621   2.937  0.6355  0.4245  0.5993
 4376TIP3    H113073   3.783   2.600   2.990  0.0209 -1.0289  0.9515
 4376TIP3    H213074   3.632   2.608   2.996 -0.1410 -2.0890 -0.7786
 4377TIP3   OH213075   5.002   1.830   0.289  0.1567  0.3296 -0.3112
 4377TIP3    H113076   5.050   1.883   0.226 -0.0100  0.8924  0.0309
 4377TIP3    H213077   4.910   1.853   0.276 -0.0407 -0.7379 -0.9567
 4378TIP3   OH213078   0.977   7.654   1.031  0.1215 -0.7012  0.0230
 4378TIP3    H113079   1.052   7.602   1.002 -1.2677 -1.3989 -2.6824
 4378TIP3    H213080   0.982   7.734   0.977 -0.3535 -0.1536  0.7771
 4379TIP3   OH213081   5.480   7.300   2.085  0.1298 -0.3233 -0.3838
 4379TIP3    H113082   5.490   7.213   2.125 -0.0574  0.1628  0.7460
 4379TIP3    H213083   5.550   7.352   2.123 -0.2782  0.2553 -0.4103
 4380TIP3   OH213084   1.454   1.496   1.575  0.6944 -0.0572 -0.4605
 4380TIP3    H113085   1.509   1.557   1.624  0.1313 -0.5389  0.8088
 4380TIP3    H213086   1.366   1.535   1.578  0.4793 -0.5436 -0.2873
 4381TIP3   OH213087   0.805   2.555   2.256 -0.5260 -0.2955  0.3263
 4381TIP3    H113088   0.828   2.538   2.164  1.4612  0.9516  0.5508
 4381TIP3    H213089   0.709   2.564   2.254 -0.5236 -0.0772 -1.6565
 4382TIP3   OH213090   1.466   0.408   4.254  0.5344 -0.5761  0.1863
 4382TIP3    H113091   1.467   0.332   4.195  1.7092 -2.1169  2.0539
 4382TIP3    H213092   1.374   0.419   4.277 -0.1123  0.6935 -2.5827
 4383TIP3   OH213093   5.548   6.932   5.025 -0.2508  0.1770  0.0555
 4383TIP3    H113094   5.552   6.974   4.939 -0.7307 -0.1728 -0.1441
 4383TIP3    H213095   5.522   6.842   5.006  1.7259 -0.5140  0.3919
 4384TIP3   OH213096   6.731   1.661   5.582  0.0909 -0.2371  0.4888
 4384TIP3    H113097   6.793   1.631   5.516 -0.6275  0.0145 -0.3250
 4384TIP3    H213098   6.716   1.585   5.638  1.3641 -0.2056  0.9009
 4385TIP3   OH213099   4.616   0.109   4.169 -0.4331  0.7044  0.3601
 4385TIP3    H113100   4.549   0.053   4.210  0.0453 -0.0259  0.1575
 4385TIP3    H213101   4.618   0.081   4.078  0.4272  0.4510  0.4518
 4386TIP3   OH213102   7.568   5.503   1.955 -0.0699 -0.1557 -0.0717
 4386TIP3    H113103   7.650   5.507   1.907 -0.5265  1.2014 -0.7693
 4386TIP3    H213104   7.521   5.429   1.916  0.6266 -0.6968  0.0770
 4387TIP3   OH213105   1.430   1.104   4.311  1.0320 -0.4411 -0.2268
 4387TIP3    H113106   1.481   1.177   4.276  0.6617 -0.8067 -1.5904
 4387TIP3    H213107   1.477   1.026   4.285  0.8824 -0.7275  0.3383
 4388TIP3   OH213108   4.433   1.419   2.183  0.2684 -0.2138  0.0286
 4388TIP3    H113109   4.523   1.391   2.171  0.3902  0.4361 -0.6305
 4388TIP3    H213110   4.387   1.388   2.105  0.3288  1.0527 -0.5420
 4389TIP3   OH213111   4.392   4.099   3.813  0.3704 -0.1880 -0.7575
 4389TIP3    H113112   4.351   4.170   3.764  1.1248  0.3629 -0.6164
 4389TIP3    H213113   4.486   4.113   3.802  0.6583  0.9649  2.1382
 4390TIP3   OH213114   1.394   4.498   0.169  0.4161 -0.1947 -0.2546
 4390TIP3    H113115   1.299   4.507   0.162  0.4199  0.1975  0.1372
 4390TIP3    H213116   1.409   4.403   0.167  0.2187 -0.2216 -2.5559
 4391TIP3   OH213117   1.493   3.772   5.541  0.0871 -0.0348 -0.5076
 4391TIP3    H113118   1.476   3.824   5.462  0.3333 -1.1304 -1.3040
 4391TIP3    H213119   1.583   3.791   5.565 -0.8651  2.6891  1.3724
 4392TIP3   OH213120   4.846   1.914   2.740  0.5052  0.5337  0.0682
 4392TIP3    H113121   4.842   1.932   2.647 -2.0051  1.3982  0.2817
 4392TIP3    H213122   4.784   1.975   2.780  1.5523  0.2471  2.3260
 4393TIP3   OH213123   5.982   2.852   3.579 -0.4264  0.1997  0.5607
 4393TIP3    H113124   6.072   2.821   3.584 -0.0801  1.3541  2.0922
 4393TIP3    H213125   5.951   2.822   3.493  1.0181 -1.2148  0.4923
 4394TIP3   OH213126   8.071   5.383   3.176 -0.6481  0.3077  0.9115
 4394TIP3    H113127   8.058   5.475   3.151 -0.6623  0.0937  0.1160
 4394TIP3    H213128   8.166   5.373   3.179 -0.5913 -0.2377 -1.2955
 4395TIP3   OH213129   2.428   4.058   6.601  0.5090 -0.0098  0.1604
 4395TIP3    H113130   2.355   4.027   6.655 -0.0310  0.7117 -0.1532
 4395TIP3    H213131   2.481   4.112   6.661 -0.0117  0.6719  0.0127
 4396TIP3   OH213132   4.397   5.419   5.124 -0.4900 -0.1822 -0.3466
 4396TIP3    H113133   4.449   5.340   5.135  1.2464  0.9832  0.2084
 4396TIP3    H213134   4.407   5.443   5.032  0.6794  0.4876 -0.0618
 4397TIP3   OH213135   6.986   5.980   5.733  0.2351  0.3715  0.0655
 4397TIP3    H113136   6.991   6.075   5.742 -1.4864  0.8216 -2.6153
 4397TIP3    H213137   6.925   5.966   5.661 -0.9062 -2.8421  1.4524
 4398TIP3   OH213138   4.584   7.099   3.302  0.0696 -0.0002  0.3818
 4398TIP3    H113139   4.584   7.194   3.313 -0.4192  0.0352  0.1173
 4398TIP3    H213140   4.608   7.086   3.211 -1.9739 -0.0302 -0.1914
 4399TIP3   OH213141   1.496   1.466   3.429 -0.0683  0.1415 -0.3892
 4399TIP3    H113142   1.559   1.442   3.497  1.7768  0.1023 -2.0149
 4399TIP3    H213143   1.540   1.536   3.380 -0.5628 -1.0132 -2.5924
 4400TIP3   OH213144   3.952   7.753   2.540 -0.4085  0.1390  0.0717
 4400TIP3    H113145   3.919   7.835   2.576  0.5992  1.1032 -1.0712
 4400TIP3    H213146   3.954   7.692   2.614  0.5494  1.6921  1.3904
 4401TIP3   OH213147   6.193   3.956   4.908  0.2344  0.0089  0.0041
 4401TIP3    H113148   6.121   3.945   4.971 -1.8539 -0.7886 -2.3356
 4401TIP3    H213149   6.223   3.867   4.891 -0.9251 -0.0658 -1.8833
 4402TIP3   OH213150   4.298   2.677   4.452  0.3112  0.0170 -0.1457
 4402TIP3    H113151   4.375   2.732   4.439  0.4396  0.0982  0.9239
 4402TIP3    H213152   4.226   2.738   4.469 -0.0368 -0.0503 -1.2877
 4403TIP3   OH213153   4.591   1.045   1.353  0.4336  0.1512  0.0918
 4403TIP3    H113154   4.680   1.028   1.323  0.4489  0.1143  0.1586
 4403TIP3    H213155   4.548   1.088   1.278  0.3211 -0.3908 -0.1605
 4404TIP3   OH213156   4.690   6.968   3.701  0.2415 -0.2898  0.1226
 4404TIP3    H113157   4.721   6.961   3.791 -0.5644 -0.5642  0.3839
 4404TIP3    H213158   4.697   6.880   3.666 -1.0860 -0.5595  0.4766
 4405TIP3   OH213159   7.575   6.782   2.817  0.5965  0.5003  0.1286
 4405TIP3    H113160   7.482   6.797   2.834  0.8981  1.7192  0.7912
 4405TIP3    H213161   7.581   6.773   2.722 -0.1095  1.1390  0.0143
 4406TIP3   OH213162   3.549   0.052   1.873 -0.2035  0.3241  0.3764
 4406TIP3    H113163   3.469   0.018   1.913 -0.3541  0.4532  0.1901
 4406TIP3    H213164   3.540   0.028   1.780 -0.5836  1.3686  0.1270
 4407TIP3   OH213165   5.087   4.026   1.248 -0.1259 -1.0559  0.8517
 4407TIP3    H113166   5.093   3.931   1.247  1.2547 -0.9895  0.8708
 4407TIP3    H213167   5.176   4.056   1.269 -0.7196  0.2242  1.6909
 4408TIP3   OH213168   2.778   3.268   3.372  0.1419 -0.4176 -0.3078
 4408TIP3    H113169   2.754   3.183   3.410 -0.8490 -0.2834 -0.5914
 4408TIP3    H213170   2.870   3.279   3.394 -0.2252 -0.6440  1.4735
 4409TIP3   OH213171   0.908   1.286   4.497 -0.7435  0.3531  0.1095
 4409TIP3    H113172   0.853   1.267   4.573 -0.0301 -0.8901  0.3449
 4409TIP3    H213173   0.851   1.273   4.421 -0.6087 -1.7413  0.3106
 4410TIP3   OH213174   0.669   4.194   5.392  0.3553 -0.1802 -0.1009
 4410TIP3    H113175   0.684   4.111   5.345 -0.3858 -1.0880  1.1934
 4410TIP3    H213176   0.715   4.183   5.475  2.9894  2.0224 -1.1384
 4411TIP3   OH213177   2.689   2.511   6.249 -0.4301 -0.0895 -0.3017
 4411TIP3    H113178   2.618   2.572   6.266 -0.7348  0.3435 -2.6912
 4411TIP3    H213179   2.757   2.564   6.207  0.0896 -1.0141 -0.6660
 4412TIP3   OH213180   4.753   7.658   5.284 -0.1824  0.1196  0.3352
 4412TIP3    H113181   4.670   7.690   5.320  0.5947  0.6278  1.7782
 4412TIP3    H213182   4.784   7.729   5.228  0.2080  0.7778  1.3556
 4413TIP3   OH213183   1.989   4.461   6.113  0.8251 -0.5378 -0.3763
 4413TIP3    H113184   2.021   4.498   6.195 -1.2066 -2.1843  1.2646
 4413TIP3    H213185   1.962   4.538   6.062  1.9483  0.5076  0.5263
 4414TIP3   OH213186   0.148   5.798   4.950  0.0245  0.0275 -0.4931
 4414TIP3    H113187   0.074   5.835   4.998 -0.5713  0.1898 -1.4982
 4414TIP3    H213188   0.158   5.856   4.874 -0.3537 -1.3185 -1.6231
 4415TIP3   OH213189   3.592   4.795   2.331  0.3827  0.2974 -0.1204
 4415TIP3    H113190   3.557   4.731   2.392 -2.2281  2.4108  0.7917
 4415TIP3    H213191   3.662   4.839   2.379  1.0037 -0.6575 -0.1298
 4416TIP3   OH213192   5.548   6.410   2.332 -0.2507  0.1341 -0.1831
 4416TIP3    H113193   5.591   6.327   2.313  0.0791 -0.3962  2.4608
 4416TIP3    H213194   5.616   6.477   2.320  0.2249 -0.2732  0.2365
 4417TIP3   OH213195   6.692   7.213   4.897  0.2899  0.7943  0.1720
 4417TIP3    H113196   6.717   7.239   4.808 -0.4197 -0.2173 -0.3338
 4417TIP3    H213197   6.635   7.138   4.885 -0.4687  1.1403  1.4571
 4418TIP3   OH213198   3.146   0.209   5.019  0.1398 -0.1190 -0.0534
 4418TIP3    H113199   3.095   0.228   5.097 -0.2617  1.7590 -0.7016
 4418TIP3    H213200   3.102   0.258   4.949  0.6635 -1.4787 -1.4085
 4419TIP3   OH213201   2.298   1.291   2.729  0.2619  0.3710 -0.3153
 4419TIP3    H113202   2.379   1.258   2.768  0.2847  0.7744 -0.0055
 4419TIP3    H213203   2.324   1.375   2.690 -0.2571  1.1073  0.8631
 4420TIP3   OH213204   3.147   1.876   2.560 -0.0714  0.1851 -0.2235
 4420TIP3    H113205   3.134   1.855   2.467 -1.6698 -0.1246  0.0406
 4420TIP3    H213206   3.232   1.918   2.563  0.8293 -1.3948 -1.5761
 4421TIP3   OH213207   4.529   5.283   0.548 -0.4435 -0.0307  0.3517
 4421TIP3    H113208   4.532   5.324   0.462  2.1225 -1.5517 -0.3858
 4421TIP3    H213209   4.486   5.198   0.533  0.2736 -0.4263  0.4719
 4422TIP3   OH213210   4.210   3.680   6.648 -0.0826  0.8546  0.0450
 4422TIP3    H113211   4.148   3.700   6.719  1.1202  1.7636  0.8836
 4422TIP3    H213212   4.251   3.598   6.675 -1.5895 -0.2776 -1.0028
 4423TIP3   OH213213   5.832   4.335   1.514 -0.2983 -0.1449 -0.0151
 4423TIP3    H113214   5.856   4.365   1.426 -1.7095  0.8022 -0.1018
 4423TIP3    H213215   5.814   4.415   1.563 -0.8953 -0.7211  0.7339
 4424TIP3   OH213216   0.660   1.136   4.404  0.0738 -0.0846  0.2037
 4424TIP3    H113217   0.706   1.196   4.345 -1.4037  0.8454 -0.0315
 4424TIP3    H213218   0.645   1.187   4.484 -0.2497 -0.4894  0.4060
 4425TIP3   OH213219   8.046   2.327   2.731  0.7007 -0.4472 -0.3490
 4425TIP3    H113220   8.077   2.249   2.777  0.9644 -0.8501 -1.1810
 4425TIP3    H213221   8.125   2.364   2.691  0.5149  0.0264 -0.2812
 4426TIP3   OH213222   0.938   2.204   0.047 -0.5413 -0.0556  0.1757
 4426TIP3    H113223   0.877   2.245  -0.014  1.4033  1.1591 -1.0573
 4426TIP3    H213224   0.934   2.111   0.028 -2.5795 -0.1115  0.7078
 4427TIP3   OH213225   1.128   2.209   4.838 -0.1623 -0.8602 -0.2776
 4427TIP3    H113226   1.047   2.258   4.839 -0.4455 -1.1360 -2.6110
 4427TIP3    H213227   1.148   2.191   4.930 -0.6383  2.5494  0.6150
 4428TIP3   OH213228   1.743   0.066   2.529  1.0180  0.2554  0.4867
 4428TIP3    H113229   1.728   0.093   2.438  2.5677 -0.6738 -0.0874
 4428TIP3    H213230   1.803   0.133   2.564  0.1663  0.7914  0.9395
 4429TIP3   OH213231   1.748   1.934   6.701  0.5424  0.2153 -0.7125
 4429TIP3    H113232   1.752   1.911   6.793 -0.3085 -0.9718 -0.9564
 4429TIP3    H213233   1.813   1.878   6.658 -2.0660 -2.5333 -1.4161
 4430TIP3   OH213234   7.113   7.285   0.862 -0.1132  0.1674 -0.1763
 4430TIP3    H113235   7.178   7.271   0.932 -1.7671 -3.2776  0.9053
 4430TIP3    H213236   7.052   7.348   0.899 -1.4766 -2.2645  2.0978
 4431TIP3   OH213237   6.515   4.087   5.981  0.5083  0.4660 -0.0307
 4431TIP3    H113238   6.603   4.053   5.996  0.6332  0.5341 -0.5821
 4431TIP3    H213239   6.484   4.040   5.904 -0.4459 -0.4978  0.8897
 4432TIP3   OH213240   1.984   6.297   2.966 -0.2948  0.2818 -0.6753
 4432TIP3    H113241   1.918   6.295   2.897  0.0603 -0.0850 -1.0115
 4432TIP3    H213242   1.997   6.205   2.990 -1.0119  0.4594  0.4658
 4433TIP3   OH213243   5.040   6.962   6.132 -0.3530  0.0961 -0.0540
 4433TIP3    H113244   5.038   6.959   6.036  2.4190  1.9988 -0.2613
 4433TIP3    H213245   5.121   6.916   6.156  0.3603  1.8940  1.1738
 4434TIP3   OH213246   2.682   3.588   3.925 -0.4367 -0.4210 -0.0150
 4434TIP3    H113247   2.709   3.646   3.996 -0.4280 -1.1560  0.5895
 4434TIP3    H213248   2.763   3.565   3.880 -0.4644  0.2124 -0.4046
 4435TIP3   OH213249   0.709   7.810   0.663  0.9986 -0.4258 -0.0041
 4435TIP3    H113250   0.696   7.746   0.733 -0.2522  0.1755  0.3476
 4435TIP3    H213251   0.634   7.797   0.604  0.9925  0.3764 -0.1875
 4436TIP3   OH213252   7.772   1.417   1.206  0.4867 -0.7637 -0.5170
 4436TIP3    H113253   7.736   1.409   1.295  0.0992 -0.3938 -0.6356
 4436TIP3    H213254   7.698   1.397   1.149 -0.3907  2.6923 -0.8190
 4437TIP3   OH213255   6.533   0.680   4.096 -0.0778  0.2298  0.0462
 4437TIP3    H113256   6.532   0.733   4.016  1.6673  0.6837  0.2896
 4437TIP3    H213257   6.471   0.723   4.154 -0.0092  0.9629 -0.4067
 4438TIP3   OH213258   4.522   5.908   5.243 -0.6206  0.3862 -0.5694
 4438TIP3    H113259   4.479   5.835   5.287 -2.5671  1.4221 -0.6452
 4438TIP3    H213260   4.529   5.976   5.311 -0.8871  0.9137 -1.0627
 4439TIP3   OH213261   3.247   5.361   2.832 -0.0901 -0.4145 -0.1149
 4439TIP3    H113262   3.308   5.392   2.899  1.5022  0.0590 -1.7110
 4439TIP3    H213263   3.242   5.434   2.770  0.1827 -1.6245 -1.6105
 4440TIP3   OH213264   1.517   7.462   5.647  1.0469  0.0553 -0.0448
 4440TIP3    H113265   1.466   7.503   5.716 -0.5502 -1.4766 -0.2467
 4440TIP3    H213266   1.608   7.470   5.676  0.4279 -0.5320  2.2506
 4441TIP3   OH213267   6.977   0.962   4.404  0.5900  0.6580  0.6013
 4441TIP3    H113268   7.067   0.994   4.403  0.8194  0.0462  0.7819
 4441TIP3    H213269   6.933   1.012   4.336  0.8802  1.4771  1.0018
 4442TIP3   OH213270   3.083   0.279   3.445 -0.2274  0.8257  0.0367
 4442TIP3    H113271   3.167   0.306   3.408 -0.2092  1.0336  0.2236
 4442TIP3    H213272   3.033   0.361   3.452  0.0179  0.9030  1.1069
 4443TIP3   OH213273   7.585   1.124   6.313 -0.0764  0.4011  0.1768
 4443TIP3    H113274   7.564   1.079   6.231  2.6150  2.1990 -1.6899
 4443TIP3    H213275   7.564   1.061   6.381 -0.7214 -1.9029 -1.9941
 4444TIP3   OH213276   4.623   0.785   3.824 -0.5210 -0.1423  0.1555
 4444TIP3    H113277   4.597   0.811   3.736 -0.1766 -0.0399  0.0855
 4444TIP3    H213278   4.540   0.772   3.870 -0.7215 -1.1161 -0.4434
 4445TIP3   OH213279   3.324   5.532   6.765 -0.3922  0.2130 -0.0099
 4445TIP3    H113280   3.236   5.519   6.729  0.1109  1.0808 -1.6172
 4445TIP3    H213281   3.318   5.616   6.811  0.3940  2.0359 -2.9917
 4446TIP3   OH213282   3.965   3.766   0.055 -0.1260 -0.2299 -0.1387
 4446TIP3    H113283   3.940   3.858   0.052  0.5891 -0.0523 -0.7882
 4446TIP3    H213284   4.029   3.761   0.126  0.5353 -0.0475 -0.7171
 4447TIP3   OH213285   5.988   5.669   1.436  0.3903  0.0976 -0.1950
 4447TIP3    H113286   5.915   5.655   1.376 -0.2975  0.0079  0.6442
 4447TIP3    H213287   6.002   5.583   1.477  0.3160  0.3424  0.3545
 4448TIP3   OH213288   2.894   5.157   3.441  0.4485 -0.1635  0.5306
 4448TIP3    H113289   2.801   5.132   3.448  0.4347 -0.1954  0.2340
 4448TIP3    H213290   2.893   5.253   3.446  0.4705 -0.1966  1.3084
 4449TIP3   OH213291   3.764   6.631   3.103 -0.1764  0.2552 -0.2885
 4449TIP3    H113292   3.701   6.702   3.104  0.5813  0.9497 -0.6547
 4449TIP3    H213293   3.761   6.597   3.014 -1.2936 -0.8855  0.1569
 4450TIP3   OH213294   6.392   2.124   3.737 -0.2295  0.4364 -0.1312
 4450TIP3    H113295   6.431   2.065   3.672  2.0142  1.1771  0.4315
 4450TIP3    H213296   6.455   2.124   3.809 -1.0457  2.1660  0.6268
 4451TIP3   OH213297   8.126   0.281   1.797  0.0800  0.2861  0.7186
 4451TIP3    H113298   8.171   0.281   1.882  0.6135 -0.1685  0.4420
 4451TIP3    H213299   8.079   0.198   1.795  2.3238 -1.0438 -0.5804
 4452TIP3   OH213300   8.061   1.317   3.935 -0.1412  0.1122 -0.4984
 4452TIP3    H113301   8.153   1.304   3.914 -0.2098  0.1577 -0.8351
 4452TIP3    H213302   8.031   1.232   3.967  0.2307  0.3237  0.4573
 4453TIP3   OH213303   0.741   5.707   2.191 -0.0813  0.3047  0.4265
 4453TIP3    H113304   0.771   5.698   2.282  0.1141 -0.6189  0.2822
 4453TIP3    H213305   0.806   5.660   2.139  1.2330  3.0031 -0.5077
 4454TIP3   OH213306   7.801   7.430   4.295 -0.4170  0.5910  0.1439
 4454TIP3    H113307   7.818   7.515   4.337 -2.1673  1.0233  0.0886
 4454TIP3    H213308   7.726   7.447   4.237  1.2362 -0.2632 -2.3688
 4455TIP3   OH213309   8.107   7.026   5.370 -0.2602 -0.5153  0.0584
 4455TIP3    H113310   8.171   7.008   5.301  1.1754  0.5503  1.0533
 4455TIP3    H213311   8.132   6.968   5.442 -0.3072  0.0098  0.5082
 4456TIP3   OH213312   3.730   6.014   2.103  0.1153  0.0424 -0.5435
 4456TIP3    H113313   3.737   6.110   2.104 -1.5153  0.2576  2.5735
 4456TIP3    H213314   3.752   5.987   2.192  2.5969 -2.7955 -1.8230
 4457TIP3   OH213315   5.368   6.760   0.880 -0.1332 -0.1450 -0.2887
 4457TIP3    H113316   5.363   6.763   0.784 -0.6769 -1.6505 -0.3288
 4457TIP3    H213317   5.278   6.749   0.909 -0.2201  2.1070  0.5401
 4458TIP3   OH213318   2.682   1.237   3.634 -0.2824 -0.4715 -0.2175
 4458TIP3    H113319   2.740   1.312   3.646 -0.8766  0.0058 -0.2881
 4458TIP3    H213320   2.697   1.208   3.544 -0.3762 -0.1563 -0.3357
 4459TIP3   OH213321   1.953   0.041   4.496 -0.5356 -0.4054 -0.2324
 4459TIP3    H113322   1.917   0.086   4.420 -0.3500  1.1044  0.5430
 4459TIP3    H213323   1.972   0.111   4.559  1.1483 -1.4102  0.4502
 4460TIP3   OH213324   3.027   0.227   2.977  0.2036  0.0635  0.1841
 4460TIP3    H113325   3.110   0.221   2.930 -0.4490 -1.1521 -0.8824
 4460TIP3    H213326   3.047   0.198   3.066  0.8660 -0.5344 -0.1511
 4461TIP3   OH213327   0.952   6.379   3.209 -0.4143 -0.1754 -0.4409
 4461TIP3    H113328   0.905   6.344   3.134 -1.5374  0.0069  0.1565
 4461TIP3    H213329   0.944   6.474   3.201 -0.8304 -0.1610  0.0775
 4462TIP3   OH213330   0.745   0.221   5.297 -0.0363  0.3156 -0.4600
 4462TIP3    H113331   0.664   0.204   5.344 -0.2870 -0.7622 -1.2328
 4462TIP3    H213332   0.750   0.316   5.291 -1.1999  0.4024 -0.3340
 4463TIP3   OH213333   7.789   2.110   3.272 -0.8774  0.2183  0.1671
 4463TIP3    H113334   7.876   2.103   3.233 -0.8374 -1.9553  0.5467
 4463TIP3    H213335   7.806   2.138   3.362 -0.5719 -0.0876  0.2062
 4464TIP3   OH213336   0.270   4.763   1.935 -0.1641 -0.4067  0.8184
 4464TIP3    H113337   0.218   4.844   1.930 -0.7340 -0.8102 -0.0440
 4464TIP3    H213338   0.361   4.792   1.928 -0.3902  0.1167 -0.1519
 4465TIP3   OH213339   1.630   3.326   3.631 -0.3822 -0.1029  0.0090
 4465TIP3    H113340   1.542   3.316   3.668 -0.2153 -2.8029 -0.1213
 4465TIP3    H213341   1.614   3.340   3.537 -0.6708 -0.4210  0.0086
 4466TIP3   OH213342   5.241   6.937   4.941 -0.5518  0.1893 -0.3781
 4466TIP3    H113343   5.281   7.024   4.937  1.5010 -0.6593  0.3314
 4466TIP3    H213344   5.260   6.898   4.855 -0.1941 -0.0598 -0.1903
 4467TIP3   OH213345   4.401   6.693   0.720 -0.1334 -0.1891 -0.1237
 4467TIP3    H113346   4.431   6.735   0.801  2.4756 -0.1345 -1.0228
 4467TIP3    H213347   4.308   6.676   0.735  0.2765 -0.3347  2.9433
 4468TIP3   OH213348   4.137   4.323   4.458 -0.4235  0.3162  0.1496
 4468TIP3    H113349   4.077   4.256   4.492 -1.2946  1.0573  0.1175
 4468TIP3    H213350   4.133   4.311   4.363  0.9057 -0.8182  0.2091
 4469TIP3   OH213351   4.070   3.660   1.064  0.1117  0.6445  0.2022
 4469TIP3    H113352   4.121   3.727   1.019  0.3288 -0.7226 -1.6991
 4469TIP3    H213353   3.980   3.694   1.064  0.0816  0.6309 -1.4569
 4470TIP3   OH213354   0.233   0.896   4.312  0.0890 -0.3610 -0.1707
 4470TIP3    H113355   0.174   0.878   4.239  0.4501  0.7541 -0.7524
 4470TIP3    H213356   0.202   0.979   4.348 -0.4355 -1.1531  1.3355
 4471TIP3   OH213357   0.577   5.098   1.132 -0.8251 -0.1071 -0.3427
 4471TIP3    H113358   0.588   5.111   1.226 -0.9911 -0.0230 -0.3346
 4471TIP3    H213359   0.490   5.132   1.113 -0.0844  1.6763 -0.8513
 4472TIP3   OH213360   1.219   6.203   6.611 -0.1209 -0.4374  0.3465
 4472TIP3    H113361   1.301   6.158   6.595 -0.3687 -1.4062  1.6426
 4472TIP3    H213362   1.190   6.171   6.697 -1.2036  0.8514  0.5007
 4473TIP3   OH213363   4.701   4.936   5.058 -0.6337  0.4263 -0.1689
 4473TIP3    H113364   4.787   4.976   5.062  0.8180 -2.4805  0.4846
 4473TIP3    H213365   4.687   4.918   4.965  0.1018 -0.3027 -0.1453
 4474TIP3   OH213366   1.348   2.885   2.500 -0.3588  0.1548 -0.2823
 4474TIP3    H113367   1.301   2.926   2.573  1.5799  0.5992  0.7879
 4474TIP3    H213368   1.396   2.958   2.459  0.2877 -0.4476 -0.6171
 4475TIP3   OH213369   8.253   5.819   3.637 -0.3170 -0.1788  0.1389
 4475TIP3    H113370   8.296   5.812   3.722 -1.0851 -0.6951  0.4953
 4475TIP3    H213371   8.184   5.754   3.640  0.3265 -0.9717 -1.3019
 4476TIP3   OH213372   0.471   4.446   5.826  0.0604  0.9498 -0.2510
 4476TIP3    H113373   0.514   4.432   5.910  0.0338 -0.2719 -0.4178
 4476TIP3    H213374   0.543   4.456   5.763  0.0883  2.8036  0.0281
 4477TIP3   OH213375   4.813   4.029   5.289 -0.8918  0.1397 -0.1152
 4477TIP3    H113376   4.871   4.053   5.216 -0.7959  1.2677  0.3045
 4477TIP3    H213377   4.756   4.106   5.299 -0.8766  0.0114  1.0178
 4478TIP3   OH213378   0.622   3.813   5.827  0.8026 -0.3320  0.1362
 4478TIP3    H113379   0.699   3.850   5.784  0.1101 -0.1738 -1.0239
 4478TIP3    H213380   0.556   3.882   5.823 -0.0075 -1.1092 -0.6673
 4479TIP3   OH213381   6.546   2.663   6.079 -0.2088 -0.0914 -0.1356
 4479TIP3    H113382   6.616   2.650   6.143 -0.1546  0.9018  0.0212
 4479TIP3    H213383   6.586   2.716   6.010 -0.0237 -1.8476 -1.4326
 4480TIP3   OH213384   8.227   1.272   3.097  0.2640 -0.5886  0.1010
 4480TIP3    H113385   8.299   1.335   3.101  0.0940 -0.4550  1.1975
 4480TIP3    H213386   8.163   1.312   3.037 -0.0900  0.5474  1.2091
 4481TIP3   OH213387   2.890   6.855   0.616  1.0970  0.3163  0.3752
 4481TIP3    H113388   2.978   6.825   0.639  0.7543  0.1383  1.5193
 4481TIP3    H213389   2.831   6.800   0.667  0.3982  1.9048  1.3733
 4482TIP3   OH213390   1.825   0.710   2.505 -0.0486  0.3861 -0.0118
 4482TIP3    H113391   1.731   0.726   2.512 -0.2463 -0.8913  0.6489
 4482TIP3    H213392   1.854   0.699   2.596  0.5784 -0.0254 -0.2581
 4483TIP3   OH213393   7.607   5.222   3.986  0.6905  0.4308  0.0090
 4483TIP3    H113394   7.549   5.265   4.049 -0.1167 -0.6398  0.0234
 4483TIP3    H213395   7.548   5.184   3.921  1.3573 -0.6217 -0.0139
 4484TIP3   OH213396   6.139   5.347   4.736  0.0034  0.4153 -0.5354
 4484TIP3    H113397   6.224   5.392   4.734 -0.0878  0.7358  1.1355
 4484TIP3    H213398   6.075   5.418   4.748 -0.3210  0.0201  0.1146
 4485TIP3   OH213399   5.214   5.454   4.147 -0.4139  0.0067  0.7704
 4485TIP3    H113400   5.160   5.499   4.082 -0.5256  0.0315  0.8801
 4485TIP3    H213401   5.300   5.444   4.105 -1.3595 -2.9374 -0.7181
 4486TIP3   OH213402   3.562   6.261   6.634 -0.2199  0.0770 -0.0510
 4486TIP3    H113403   3.482   6.258   6.685 -1.6291  0.6069 -2.0854
 4486TIP3    H213404   3.532   6.265   6.543  2.0584  2.7114 -0.8257
 4487TIP3   OH213405   3.134   1.201   5.468 -0.6268  0.3873 -0.3168
 4487TIP3    H113406   3.104   1.292   5.473 -1.0732  0.1778  2.4155
 4487TIP3    H213407   3.218   1.201   5.513 -0.2661 -0.4417 -0.9629
 4488TIP3   OH213408   3.412   2.470   1.092  0.3650  0.4546  0.1745
 4488TIP3    H113409   3.458   2.532   1.036  2.0395 -0.8058  0.0658
 4488TIP3    H213410   3.346   2.431   1.034  2.1779 -0.9551 -1.0817
 4489TIP3   OH213411   0.962   3.691   0.416 -0.6389  0.1851 -0.3980
 4489TIP3    H113412   1.043   3.662   0.374 -0.0645  1.0942  0.0499
 4489TIP3    H213413   0.893   3.655   0.361  0.0456 -1.2412 -0.3626
 4490TIP3   OH213414   3.971   2.147   2.532 -0.1444  0.5714  0.9400
 4490TIP3    H113415   3.951   2.165   2.440  2.8298 -0.1074  0.0645
 4490TIP3    H213416   3.892   2.173   2.579 -1.6214  1.3077 -1.7488
 4491TIP3   OH213417   3.151   3.767   5.989 -0.1103 -0.1086 -0.2672
 4491TIP3    H113418   3.056   3.766   6.003 -0.1955 -0.1384 -0.8331
 4491TIP3    H213419   3.177   3.675   5.997 -0.1539 -0.1222 -0.2801
 4492TIP3   OH213420   1.828   0.366   0.960 -0.3197  0.7419 -0.3633
 4492TIP3    H113421   1.777   0.344   0.882 -1.2243 -2.6425  1.0050
 4492TIP3    H213422   1.782   0.322   1.031  1.6346  1.9803  1.7904
 4493TIP3   OH213423   3.589   5.907   6.628  0.6751  0.1586 -0.0263
 4493TIP3    H113424   3.597   5.901   6.533  0.2485  0.9247 -0.1139
 4493TIP3    H213425   3.530   5.981   6.643  1.6355  0.7740  0.8584
 4494TIP3   OH213426   5.062   4.666   4.066 -0.2618  0.6703  0.2767
 4494TIP3    H113427   4.988   4.726   4.070 -0.6438  0.3284 -1.1455
 4494TIP3    H213428   5.026   4.586   4.028  0.7690  0.4184 -0.2053
 4495TIP3   OH213429   2.985   7.512   0.630 -0.5708 -0.5378 -0.2367
 4495TIP3    H113430   2.967   7.558   0.548 -1.2584 -1.3019 -0.5334
 4495TIP3    H213431   3.080   7.517   0.640 -0.5837  0.4512 -0.5456
 4496TIP3   OH213432   1.595   4.207   5.657  0.1961  0.1557  0.2067
 4496TIP3    H113433   1.524   4.163   5.610  0.2019  1.0249 -0.6443
 4496TIP3    H213434   1.576   4.300   5.647 -0.2760  0.3794  2.7018
 4497TIP3   OH213435   4.716   0.176   6.278 -0.1043  0.0001 -0.2278
 4497TIP3    H113436   4.630   0.200   6.243 -0.3911 -0.7343 -0.0408
 4497TIP3    H213437   4.755   0.259   6.304 -0.3082  0.4654 -1.3232
 4498TIP3   OH213438   4.186   6.338   6.690 -0.0606 -0.4243 -0.6569
 4498TIP3    H113439   4.243   6.307   6.761 -0.7065  0.5153  0.2982
 4498TIP3    H213440   4.100   6.301   6.710 -0.3011  0.0431 -0.8082
 4499TIP3   OH213441   7.991   7.106   0.713  0.0431  0.5995 -0.2741
 4499TIP3    H113442   7.913   7.159   0.695  0.2276  0.4881 -1.4636
 4499TIP3    H213443   8.061   7.170   0.725 -0.1311  0.6833  0.3311
 4500TIP3   OH213444   7.301   3.943   1.506 -0.1736  0.2954 -0.0392
 4500TIP3    H113445   7.265   3.944   1.595 -3.3121  2.4579 -1.1690
 4500TIP3    H213446   7.281   3.856   1.473 -0.5074  0.0364  0.8150
 4501TIP3   OH213447   6.684   3.185   3.636  0.0266  0.3997  0.3852
 4501TIP3    H113448   6.768   3.145   3.617 -0.0041  0.5153 -0.0056
 4501TIP3    H213449   6.694   3.220   3.725 -0.1988 -1.1173  1.0424
 4502TIP3   OH213450   3.333   7.546   1.185 -0.0841 -0.2050  0.3281
 4502TIP3    H113451   3.353   7.459   1.218  1.4858  0.2075  0.5766
 4502TIP3    H213452   3.418   7.582   1.158 -0.6006  1.4521  0.7483
 4503TIP3   OH213453   3.803   3.734   3.583 -0.2804 -0.2841 -0.1851
 4503TIP3    H113454   3.764   3.649   3.562  0.0886 -0.1162 -1.6120
 4503TIP3    H213455   3.824   3.727   3.676 -2.3965 -0.8960  0.3251
 4504TIP3   OH213456   3.983   2.216   4.307 -0.0872 -0.1224 -0.7484
 4504TIP3    H113457   4.007   2.125   4.292  0.0567 -0.3357  0.6579
 4504TIP3    H213458   3.952   2.219   4.398 -0.4320  1.1545 -0.8796
 4505TIP3   OH213459   1.197   5.333   6.014 -0.4750 -0.3748  0.5434
 4505TIP3    H113460   1.205   5.415   6.064  0.3809 -0.4909  0.6018
 4505TIP3    H213461   1.258   5.344   5.941 -2.0199 -0.0270 -0.7535
 4506TIP3   OH213462   5.148   7.076   5.158 -0.3771 -0.3426  0.5652
 4506TIP3    H113463   5.203   7.022   5.102  1.7387 -0.8135  2.9258
 4506TIP3    H213464   5.084   7.014   5.194 -0.4277 -0.4631  0.2717
 4507TIP3   OH213465   7.536   3.444   0.714 -0.1398  1.0078  0.2080
 4507TIP3    H113466   7.510   3.433   0.805 -1.2141  0.0933 -0.1949
 4507TIP3    H213467   7.454   3.456   0.666  0.3963  1.2745 -0.6724
 4508TIP3   OH213468   4.431   6.211   2.484 -0.1513  0.5092 -0.3377
 4508TIP3    H113469   4.454   6.158   2.407 -0.4821  0.9067 -0.7164
 4508TIP3    H213470   4.502   6.274   2.492  0.0394  0.2715 -0.1267
 4509TIP3   OH213471   1.465   4.016   0.411 -0.1193 -0.0969 -0.1661
 4509TIP3    H113472   1.498   3.936   0.452  0.4430 -0.1535 -0.7087
 4509TIP3    H213473   1.505   4.087   0.460 -0.0587 -0.1587 -0.1255
 4510TIP3   OH213474   6.256   4.506   2.414  0.4906  0.0491 -0.0586
 4510TIP3    H113475   6.189   4.566   2.383  1.1258  0.5953 -0.4066
 4510TIP3    H213476   6.333   4.527   2.362  1.1265 -0.1005  0.7968
 4511TIP3   OH213477   8.208   3.097   2.651 -0.2895  0.6991  0.3759
 4511TIP3    H113478   8.164   3.179   2.628  0.8390  0.9376 -1.1215
 4511TIP3    H213479   8.300   3.121   2.658 -0.0566 -0.2851  0.8209
 4512TIP3   OH213480   0.364   0.227   5.071  0.7448  0.3702  0.6153
 4512TIP3    H113481   0.422   0.223   4.996  1.2791  2.4454  0.8620
 4512TIP3    H213482   0.380   0.313   5.110 -2.0538  0.8105  1.0417
 4513TIP3   OH213483   6.876   4.677   0.546 -0.4155  0.4596 -0.1393
 4513TIP3    H113484   6.818   4.635   0.610 -0.8523  0.9652 -0.1948
 4513TIP3    H213485   6.948   4.615   0.534 -1.8618 -1.0448 -1.4479
 4514TIP3   OH213486   4.468   5.663   4.663  0.5048 -0.0088 -0.1689
 4514TIP3    H113487   4.562   5.668   4.677  0.5078  1.1107 -0.5423
 4514TIP3    H213488   4.434   5.749   4.689 -0.1500  0.3167 -1.9561
 4515TIP3   OH213489   3.710   5.357   4.233 -0.6429  0.6171 -0.3654
 4515TIP3    H113490   3.795   5.401   4.237  0.7251 -1.9173  1.7783
 4515TIP3    H213491   3.704   5.324   4.144  1.2094 -0.0883 -0.2792
 4516TIP3   OH213492   1.569   2.790   5.335  0.5704 -0.6663  0.2361
 4516TIP3    H113493   1.575   2.742   5.418 -0.9267  0.1635  0.8631
 4516TIP3    H213494   1.527   2.728   5.275  0.7691 -0.9390  0.3739
 4517TIP3   OH213495   7.498   6.107   1.200  0.2395  0.1444  0.1974
 4517TIP3    H113496   7.470   6.016   1.205  0.4193 -0.0055 -1.2384
 4517TIP3    H213497   7.418   6.158   1.217  0.1269 -0.2578  0.9303
 4518TIP3   OH213498   3.712   7.270   4.571  0.3842  0.2422  0.4180
 4518TIP3    H113499   3.634   7.278   4.517  0.1186  0.0160  0.7661
 4518TIP3    H213500   3.684   7.217   4.646  0.2752  2.0691  1.7117
 4519TIP3   OH213501   6.196   3.499   0.074 -0.0187 -0.5465 -0.0098
 4519TIP3    H113502   6.289   3.476   0.082  0.7009  1.2733 -2.0475
 4519TIP3    H213503   6.192   3.590   0.103 -1.1939 -0.6289  0.1061
 4520TIP3   OH213504   5.673   1.704   4.916 -0.1103 -0.8443 -0.7392
 4520TIP3    H113505   5.741   1.704   4.984  0.4445 -0.2077 -1.2874
 4520TIP3    H213506   5.620   1.626   4.936  2.5052 -3.1307 -2.0410
 4521TIP3   OH213507   0.452   3.070   5.255 -0.5251 -0.3659 -0.1971
 4521TIP3    H113508   0.423   3.026   5.335 -0.7014 -0.3375 -0.2440
 4521TIP3    H213509   0.374   3.073   5.200 -0.3385 -0.6192 -0.4782
 4522TIP3   OH213510   2.027   1.641   1.389  0.9748  0.3936  0.5614
 4522TIP3    H113511   2.092   1.588   1.435 -0.4126 -0.1285  1.9987
 4522TIP3    H213512   1.962   1.578   1.359  0.7165  0.9929 -0.1706
 4523TIP3   OH213513   3.192   3.872   3.435  0.1169 -0.1159  0.6423
 4523TIP3    H113514   3.179   3.960   3.399  1.1273 -0.3815 -0.4714
 4523TIP3    H213515   3.184   3.883   3.530 -2.2871  0.6856  0.4090
 4524TIP3   OH213516   6.252   7.660   3.218 -0.2621  0.3574  0.1294
 4524TIP3    H113517   6.331   7.663   3.272 -0.3557 -0.1743  0.3001
 4524TIP3    H213518   6.180   7.671   3.280 -0.4956 -2.3615  0.4600
 4525TIP3   OH213519   7.144   2.194   6.108 -0.7532  0.0407  0.5757
 4525TIP3    H113520   7.231   2.232   6.094  0.0212 -2.3887 -2.0077
 4525TIP3    H213521   7.086   2.249   6.056 -0.4982  0.6036  0.8692
 4526TIP3   OH213522   1.520   7.581   2.618  0.1212 -0.0100 -0.8090
 4526TIP3    H113523   1.569   7.557   2.696  0.6254 -3.7133 -2.0783
 4526TIP3    H213524   1.434   7.542   2.630 -0.4294  0.9782 -1.3494
 4527TIP3   OH213525   5.061   3.366   6.458 -0.0236 -0.4451  0.0787
 4527TIP3    H113526   5.076   3.310   6.382  0.0371 -0.4845  0.1192
 4527TIP3    H213527   5.149   3.393   6.486 -0.0921  0.5984 -0.6304
 4528TIP3   OH213528   5.190   1.609   4.603  0.7571  0.7114  0.3612
 4528TIP3    H113529   5.217   1.517   4.597 -0.8432  0.1692  1.0701
 4528TIP3    H213530   5.141   1.625   4.522  0.7761  0.8602  0.3784
 4529TIP3   OH213531   1.625   4.730   6.509 -0.3361 -0.2327  0.0083
 4529TIP3    H113532   1.687   4.671   6.552 -1.1097  0.7572  2.6847
 4529TIP3    H213533   1.678   4.805   6.481 -0.0448 -0.1530  0.7554
 4530TIP3   OH213534   3.272   6.867   4.757 -0.1752 -0.6442 -0.6225
 4530TIP3    H113535   3.347   6.813   4.733  1.1733  0.8874 -0.0590
 4530TIP3    H213536   3.197   6.825   4.713  1.1036 -1.7990 -1.8137
 4531TIP3   OH213537   0.084   6.752   4.467  0.6223  0.3239  0.0120
 4531TIP3    H113538   0.167   6.799   4.472  0.5832  0.3034  0.9890
 4531TIP3    H213539   0.023   6.803   4.521  0.2267 -0.1250  0.0044
 4532TIP3   OH213540   6.886   2.988   3.172 -0.0901  0.6566 -0.0723
 4532TIP3    H113541   6.976   2.993   3.207 -0.3388  2.3409  0.4372
 4532TIP3    H213542   6.835   2.950   3.243  0.1572  0.0109 -0.2357
 4533TIP3   OH213543   4.724   1.893   0.677  0.0486 -0.7543  0.6781
 4533TIP3    H113544   4.669   1.968   0.657  1.1264 -0.3513 -1.0165
 4533TIP3    H213545   4.690   1.822   0.623  0.6292 -0.7348  0.2689
 4534TIP3   OH213546   7.737   5.340   1.049 -0.0328  0.3649 -0.1354
 4534TIP3    H113547   7.700   5.300   0.970 -0.3599 -0.5641  0.4758
 4534TIP3    H213548   7.671   5.403   1.077  0.1415  0.7966 -0.6628
 4535TIP3   OH213549   0.025   7.428   5.034  0.1345 -0.2027 -0.1464
 4535TIP3    H113550   0.066   7.366   4.973 -0.6628 -0.0077 -0.9123
 4535TIP3    H213551   0.096   7.455   5.092  0.3013 -2.5885  0.8726
 4536TIP3   OH213552   2.078   2.817   6.672 -0.0562  0.0381 -0.0276
 4536TIP3    H113553   2.076   2.745   6.734  1.2773 -0.9024 -1.0282
 4536TIP3    H213554   1.993   2.813   6.628 -0.2870 -0.4237  0.4393
 4537TIP3   OH213555   4.523   1.449   0.244 -0.2172 -0.7668  0.1527
 4537TIP3    H113556   4.457   1.517   0.235  0.3127 -0.2200  0.3825
 4537TIP3    H213557   4.607   1.495   0.240  0.1407 -1.2504  1.4028
 4538TIP3   OH213558   4.449   5.374   0.879 -0.2325 -0.2310  0.1009
 4538TIP3    H113559   4.475   5.283   0.870  2.5240  0.4204  0.5626
 4538TIP3    H213560   4.467   5.396   0.971  0.9074  1.1970 -0.4115
 4539TIP3   OH213561   7.762   3.390   6.049 -0.4865 -0.1574  0.4489
 4539TIP3    H113562   7.681   3.341   6.040 -1.1250  0.9756 -0.2111
 4539TIP3    H213563   7.791   3.406   5.959  0.0208  0.1534  0.6603
 4540TIP3   OH213564   6.457   7.470   2.865  0.0311 -0.1642 -0.0035
 4540TIP3    H113565   6.552   7.473   2.854  0.4471 -0.7867  2.6818
 4540TIP3    H213566   6.443   7.410   2.938 -2.4646 -0.2138 -0.4346
 4541TIP3   OH213567   5.155   7.394   4.848 -0.6742 -0.0520  0.0370
 4541TIP3    H113568   5.198   7.478   4.836 -0.2841 -0.3868 -0.9404
 4541TIP3    H213569   5.218   7.329   4.816 -0.8999 -0.7408  0.9328
 4542TIP3   OH213570   1.692   0.321   0.694 -0.0723  0.1455 -0.3498
 4542TIP3    H113571   1.743   0.303   0.615 -1.5226 -0.1790 -1.2628
 4542TIP3    H213572   1.665   0.412   0.686  1.1099  0.6090  0.6048
 4543TIP3   OH213573   7.214   1.492   4.321  0.0674 -0.3272 -0.3323
 4543TIP3    H113574   7.136   1.500   4.267 -0.6969  3.2022  1.0028
 4543TIP3    H213575   7.286   1.518   4.264 -0.3510  0.6320 -0.4416
 4544TIP3   OH213576   2.660   1.128   0.437  0.3414 -0.0638  0.6593
 4544TIP3    H113577   2.573   1.141   0.475 -0.7112 -2.4906 -0.6843
 4544TIP3    H213578   2.646   1.134   0.342  1.9076  0.7237  0.4424
 4545TIP3   OH213579   2.319   5.258   0.363  0.3273  0.4102  0.0347
 4545TIP3    H113580   2.321   5.172   0.405 -1.1477  1.1562  1.8003
 4545TIP3    H213581   2.328   5.320   0.435 -2.0730  1.7610 -0.7104
 4546TIP3   OH213582   7.941   0.691   2.994 -0.3113  0.2600  0.0649
 4546TIP3    H113583   8.029   0.692   2.957 -0.2163  0.0582  0.2832
 4546TIP3    H213584   7.936   0.609   3.042 -1.0886 -0.3527 -1.0416
 4547TIP3   OH213585   4.716   5.815   4.756  0.3611  0.0978  0.0207
 4547TIP3    H113586   4.726   5.877   4.829  1.8850  0.1226 -0.1941
 4547TIP3    H213587   4.804   5.781   4.741  0.6230  1.8930 -3.4198
 4548TIP3   OH213588   7.770   0.794   0.966 -0.0621  0.2513  0.5746
 4548TIP3    H113589   7.742   0.866   1.023  0.8039  0.9564  0.1419
 4548TIP3    H213590   7.689   0.757   0.933 -0.5396  0.7019  1.2060
 4549TIP3   OH213591   6.936   7.668   5.282  0.0479  0.0226 -0.0234
 4549TIP3    H113592   6.988   7.724   5.340 -0.1677 -0.0233  0.2134
 4549TIP3    H213593   6.994   7.594   5.263  0.4776  0.5022 -0.6420
 4550TIP3   OH213594   1.324   2.955   3.911 -0.5438 -0.3925 -0.4119
 4550TIP3    H113595   1.394   2.952   3.847 -0.8511  0.3246 -0.7962
 4550TIP3    H213596   1.336   3.039   3.956 -1.4683  0.0069 -0.8689
 4551TIP3   OH213597   5.573   4.597   1.368 -0.3230  0.4918  0.3272
 4551TIP3    H113598   5.615   4.639   1.293 -2.3002  1.4169 -0.3235
 4551TIP3    H213599   5.582   4.503   1.351 -0.4828  0.6946 -0.9461
 4552TIP3   OH213600   4.508   2.442   6.260 -0.2797 -0.0174 -0.8167
 4552TIP3    H113601   4.473   2.528   6.236 -1.0258 -0.7779 -2.5930
 4552TIP3    H213602   4.460   2.417   6.339  0.8173  1.6835  0.4795
 4553TIP3   OH213603   1.042   1.160   3.285 -0.2909  0.1420  0.1228
 4553TIP3    H113604   1.068   1.084   3.337 -3.0376  0.0274  1.5546
 4553TIP3    H213605   1.069   1.235   3.337  2.3924  0.2583 -1.2761
 4554TIP3   OH213606   5.955   7.352   6.081  0.6894  0.2761  0.2648
 4554TIP3    H113607   5.865   7.345   6.113  1.0930  0.0144  1.3921
 4554TIP3    H213608   5.946   7.363   5.986 -0.5669  1.7888  0.5236
 4555TIP3   OH213609   1.935   0.611   0.301  0.1707 -0.0882  0.4512
 4555TIP3    H113610   1.852   0.644   0.266  0.9997  0.9424 -0.6549
 4555TIP3    H213611   1.964   0.547   0.235  0.6842  0.2313  0.3661
 4556TIP3   OH213612   4.037   5.168   5.201 -0.3796  0.3990 -0.2655
 4556TIP3    H113613   4.069   5.136   5.116 -0.2336 -0.6492  0.1680
 4556TIP3    H213614   4.082   5.113   5.265 -1.2788  0.4957  0.4533
 4557TIP3   OH213615   4.058   4.239   4.884  0.1171  0.2983 -0.6697
 4557TIP3    H113616   3.969   4.221   4.914  0.0013  0.4861 -0.9043
 4557TIP3    H213617   4.062   4.334   4.874  0.4718  0.3301 -0.2583
 4558TIP3   OH213618   3.547   2.275   5.208 -0.0692  0.2436  0.3346
 4558TIP3    H113619   3.588   2.193   5.179  2.3704  0.9792  1.4734
 4558TIP3    H213620   3.603   2.344   5.173 -0.1003  1.3052  2.2533
 4559TIP3   OH213621   5.256   4.264   5.792  0.3397 -0.1707 -0.3454
 4559TIP3    H113622   5.164   4.279   5.812  0.0714 -0.0219 -1.6321
 4559TIP3    H213623   5.270   4.172   5.814 -0.1820 -0.2700 -0.4128
 4560TIP3   OH213624   4.243   4.632   1.560  0.3068  0.2153  0.1445
 4560TIP3    H113625   4.210   4.718   1.584  0.2113  0.3519 -0.4678
 4560TIP3    H213626   4.202   4.572   1.623 -1.0321  0.3911 -0.5219
 4561TIP3   OH213627   1.146   2.189   6.776 -0.2302  0.4774  0.3499
 4561TIP3    H113628   1.069   2.226   6.820 -1.1618 -1.2647  0.2550
 4561TIP3    H213629   1.164   2.251   6.705 -2.2905  0.3405 -0.3648
 4562TIP3   OH213630   4.132   2.410   1.916 -0.4063  0.4712 -0.2102
 4562TIP3    H113631   4.083   2.447   1.989  1.1199  0.1498  1.0460
 4562TIP3    H213632   4.131   2.478   1.849  2.0055  2.7775  1.8621
 4563TIP3   OH213633   2.693   0.129   5.617  0.5441  0.1036  0.2649
 4563TIP3    H113634   2.696   0.126   5.712 -0.9462 -0.1423  0.3223
 4563TIP3    H213635   2.612   0.084   5.594 -0.4183  2.3725 -1.0032
 4564TIP3   OH213636   5.442   0.620   3.864  0.3936 -0.0958  0.2364
 4564TIP3    H113637   5.485   0.659   3.788 -0.7958 -0.1060 -0.4504
 4564TIP3    H213638   5.418   0.694   3.919  0.8238 -0.0623  0.3873
 4565TIP3   OH213639   4.383   4.991   6.455  0.4849  0.0522 -0.7074
 4565TIP3    H113640   4.390   4.933   6.380 -0.2703 -0.7246 -0.1977
 4565TIP3    H213641   4.315   5.054   6.432  0.2019 -0.2322 -0.6444
 4566TIP3   OH213642   0.924   7.590   2.206  0.3824 -0.4778  0.0950
 4566TIP3    H113643   0.984   7.559   2.274 -0.2866 -2.0920 -0.0045
 4566TIP3    H213644   0.839   7.596   2.250 -0.2037 -2.1934 -0.6870
 4567TIP3   OH213645   1.488   6.633   6.527  0.3498  0.1533  0.2527
 4567TIP3    H113646   1.433   6.570   6.480 -1.2460  0.8140  1.1795
 4567TIP3    H213647   1.568   6.638   6.474 -0.8149 -0.1552 -1.6496
 4568TIP3   OH213648   2.360   3.121   6.335  0.0446  0.1868  0.2648
 4568TIP3    H113649   2.308   3.162   6.266  0.6640  0.0590 -0.2886
 4568TIP3    H213650   2.295   3.076   6.390 -0.7114  2.3663  1.2485
 4569TIP3   OH213651   3.016   2.298   0.499 -0.7046  0.0666  0.1873
 4569TIP3    H113652   3.008   2.264   0.588  0.8776  0.2081  0.4155
 4569TIP3    H213653   3.035   2.391   0.509 -1.3492  0.2644 -0.3336
 4570TIP3   OH213654   2.214   7.699   0.431 -0.4545 -0.1487 -0.1232
 4570TIP3    H113655   2.193   7.759   0.503 -0.5200  1.2071 -1.2326
 4570TIP3    H213656   2.188   7.613   0.463 -0.5975  0.4422  1.4214
 4571TIP3   OH213657   5.405   1.765   1.637  0.1983  0.1854  0.0350
 4571TIP3    H113658   5.317   1.771   1.674  0.0671 -1.3523  0.0157
 4571TIP3    H213659   5.408   1.837   1.573 -0.7183  0.8021  0.6486
 4572TIP3   OH213660   4.809   2.336   0.106  1.1015  0.1703  0.2052
 4572TIP3    H113661   4.769   2.404   0.160  0.1626 -0.5786  0.4668
 4572TIP3    H213662   4.748   2.324   0.033  0.6828 -1.1692  0.7482
 4573TIP3   OH213663   1.313   2.307   1.517 -0.1222 -0.6793  0.1944
 4573TIP3    H113664   1.236   2.278   1.468  0.8240 -2.3409 -0.3668
 4573TIP3    H213665   1.319   2.246   1.590 -0.0157  0.1944  0.9369
 4574TIP3   OH213666   0.463   5.464   2.680  0.1272  0.1442  0.0397
 4574TIP3    H113667   0.398   5.532   2.697 -1.0234 -1.2308  1.4558
 4574TIP3    H213668   0.413   5.390   2.646  1.3326 -0.0771 -1.3713
 4575TIP3   OH213669   5.226   3.454   5.699  0.2755  0.0074 -0.0262
 4575TIP3    H113670   5.260   3.524   5.754 -0.9982 -0.0442  0.8617
 4575TIP3    H213671   5.276   3.463   5.617  0.9717  1.1847  0.4863
 4576TIP3   OH213672   5.582   5.294   1.236 -0.1368  0.2130  0.0377
 4576TIP3    H113673   5.548   5.383   1.232 -1.0126 -0.1120  0.0730
 4576TIP3    H213674   5.534   5.247   1.168  1.2834  0.0672 -0.9034
 4577TIP3   OH213675   4.440   1.750   4.281  0.7469  0.0024  0.0487
 4577TIP3    H113676   4.431   1.684   4.350 -0.8433 -1.2988 -1.3365
 4577TIP3    H213677   4.382   1.821   4.308 -1.6315 -1.4457 -0.9275
 4578TIP3   OH213678   6.493   4.406   5.726  0.1762 -0.2315  0.1590
 4578TIP3    H113679   6.577   4.409   5.680  0.3452 -1.7571  0.3447
 4578TIP3    H213680   6.451   4.489   5.703  0.4381 -0.7340 -2.3954
 4579TIP3   OH213681   4.925   0.527   1.774  0.4823 -0.0812  0.3325
 4579TIP3    H113682   5.010   0.488   1.796  0.7395  0.4432  0.2972
 4579TIP3    H213683   4.943   0.622   1.770 -0.4191  0.1723  1.7582
 4580TIP3   OH213684   0.027   6.076   6.773 -0.3182 -0.2958  0.4742
 4580TIP3    H113685   0.020   6.104   6.682  0.7595 -1.2843  0.0565
 4580TIP3    H213686   0.035   5.980   6.768  1.2924 -0.2554  1.4866
 4581TIP3   OH213687   6.640   0.853   3.846  0.3263 -0.4861  0.2473
 4581TIP3    H113688   6.641   0.908   3.768  0.6043 -0.6639  0.1240
 4581TIP3    H213689   6.684   0.772   3.819  1.2460 -0.2016  0.8320
 4582TIP3   OH213690   1.033   1.280   1.318 -0.0476  0.0481  0.2788
 4582TIP3    H113691   1.083   1.200   1.299 -2.5428 -1.9429  1.4517
 4582TIP3    H213692   1.034   1.287   1.413 -0.8861  0.7053  0.2524
 4583TIP3   OH213693   3.234   3.674   5.253  0.3480 -0.1921  0.3590
 4583TIP3    H113694   3.216   3.679   5.346  1.9874 -0.2071  0.7018
 4583TIP3    H213695   3.297   3.744   5.236 -2.7207  2.4283 -1.5217
 4584TIP3   OH213696   2.198   3.819   3.512  0.2063 -0.0597  0.6245
 4584TIP3    H113697   2.256   3.743   3.522 -1.1330 -0.9153  2.5844
 4584TIP3    H213698   2.141   3.815   3.589 -2.8056  0.4507 -1.4454
 4585TIP3   OH213699   4.731   2.582   5.309 -0.2582  0.1839 -0.0851
 4585TIP3    H113700   4.750   2.597   5.217  1.1703 -0.6596  0.0217
 4585TIP3    H213701   4.816   2.592   5.353 -0.4576 -1.5320  0.8162
 4586TIP3   OH213702   0.430   6.912   4.190  0.1729 -0.2195  0.2507
 4586TIP3    H113703   0.501   6.976   4.197 -0.8784  0.9516  0.6355
 4586TIP3    H213704   0.425   6.891   4.097  0.1760  0.7180  0.0223
 4587TIP3   OH213705   7.568   7.488   3.525  0.0418  0.0244  0.2995
 4587TIP3    H113706   7.521   7.542   3.588 -0.3335 -0.5256  0.5033
 4587TIP3    H213707   7.512   7.411   3.513 -1.7254  1.6367 -3.3777
 4588TIP3   OH213708   0.702   1.557   4.481 -0.6269 -0.0847 -0.5128
 4588TIP3    H113709   0.733   1.478   4.527  1.2501  0.2353 -1.1437
 4588TIP3    H213710   0.609   1.540   4.466 -1.1193 -0.6576  2.4401
 4589TIP3   OH213711   3.831   5.080   2.824 -0.3019 -0.2448  0.9320
 4589TIP3    H113712   3.782   5.039   2.896 -0.3761 -0.7948  0.5730
 4589TIP3    H213713   3.915   5.104   2.863  0.1083 -1.5866  0.9243
 4590TIP3   OH213714   4.780   1.463   0.978 -0.3483  0.3048  0.3604
 4590TIP3    H113715   4.834   1.408   1.034  0.2345 -0.6268 -1.0613
 4590TIP3    H213716   4.806   1.440   0.889 -1.1600  1.8136 -0.3107
 4591TIP3   OH213717   6.251   2.972   2.760  0.4430 -0.3502 -0.0468
 4591TIP3    H113718   6.316   2.927   2.814 -0.4433 -0.4632  0.9657
 4591TIP3    H213719   6.168   2.955   2.805 -0.2624 -0.0754 -1.2260
 4592TIP3   OH213720   1.326   6.341   1.018 -0.0084 -0.1125 -0.4616
 4592TIP3    H113721   1.241   6.379   0.994  0.6067  2.2759  0.8114
 4592TIP3    H213722   1.310   6.298   1.102 -0.3092 -1.2512 -1.0744
 4593TIP3   OH213723   0.959   0.117   6.590  0.0345  0.0011 -0.5045
 4593TIP3    H113724   0.937   0.130   6.497  2.0705  2.3848 -0.7534
 4593TIP3    H213725   0.941   0.201   6.631  1.6427 -0.2054  0.7031
 4594TIP3   OH213726   8.206   4.524   2.363  0.2403  0.2184 -0.7594
 4594TIP3    H113727   8.193   4.444   2.415 -1.3892  0.7376 -0.3067
 4594TIP3    H213728   8.126   4.533   2.312  0.2099  1.7922 -0.4770
 4595TIP3   OH213729   6.473   7.087   5.884  0.7100 -0.0989 -0.1225
 4595TIP3    H113730   6.484   7.180   5.865  0.0841 -0.2110 -1.0840
 4595TIP3    H213731   6.480   7.044   5.799  0.2852 -0.8642  0.2175
 4596TIP3   OH213732   4.402   0.144   0.806 -0.0502 -0.5528  0.1144
 4596TIP3    H113733   4.464   0.172   0.875 -0.9292 -0.8157  1.0347
 4596TIP3    H213734   4.458   0.110   0.736  1.0001  1.7487 -0.2816
 4597TIP3   OH213735   6.526   4.514   6.114  0.3795 -0.6514 -0.0632
 4597TIP3    H113736   6.455   4.579   6.111 -1.0308 -1.9567  2.0921
 4597TIP3    H213737   6.579   4.540   6.189  1.0086 -0.8347 -0.4383
 4598TIP3   OH213738   1.469   5.708   1.342 -0.2884 -0.5847 -0.0458
 4598TIP3    H113739   1.394   5.748   1.385 -0.6413  0.0020 -1.1879
 4598TIP3    H213740   1.483   5.760   1.263  0.7005 -1.2903 -0.3562
 4599TIP3   OH213741   8.171   4.738   0.017  0.2914 -0.2330  0.7938
 4599TIP3    H113742   8.204   4.789   0.091  0.4202 -0.9664  1.2545
 4599TIP3    H213743   8.076   4.750   0.021  0.4224  1.3698 -0.1576
 4600TIP3   OH213744   7.143   2.945   3.890 -0.2122 -0.0198 -0.7331
 4600TIP3    H113745   7.194   2.965   3.969  0.4045  0.6243 -1.2762
 4600TIP3    H213746   7.168   3.013   3.828 -1.6276  0.2044 -1.0809
 4601TIP3   OH213747   0.444   1.892   0.507  0.1557  0.2784  0.1408
 4601TIP3    H113748   0.478   1.822   0.563  1.9811  0.9322 -0.1106
 4601TIP3    H213749   0.516   1.954   0.497 -0.0587  0.2251 -2.9066
 4602TIP3   OH213750   1.257   7.029   1.353 -0.2996 -0.2364 -0.4175
 4602TIP3    H113751   1.213   7.113   1.364 -1.5569 -1.0534  1.1421
 4602TIP3    H213752   1.243   7.006   1.261  1.0997  1.7628 -1.2007
 4603TIP3   OH213753   6.949   6.993   6.031 -0.1089  0.4023  0.3352
 4603TIP3    H113754   6.964   7.012   6.124  0.1000  1.8704  0.0289
 4603TIP3    H213755   6.860   6.959   6.027  0.3423 -0.9873  1.2175
 4604TIP3   OH213756   2.672   7.594   3.973 -0.6255 -0.5066  0.2536
 4604TIP3    H113757   2.621   7.619   3.896  0.0770  0.2096 -0.0012
 4604TIP3    H213758   2.620   7.526   4.016 -1.3906 -0.3736 -0.4362
 4605TIP3   OH213759   4.961   3.896   6.634 -0.6866  0.1343 -0.3037
 4605TIP3    H113760   5.034   3.933   6.585 -0.3916 -1.7650 -1.3963
 4605TIP3    H213761   4.907   3.852   6.567 -2.0916  0.3057  0.6621
 4606TIP3   OH213762   0.417   6.898   3.004 -0.4535 -0.1706 -0.0644
 4606TIP3    H113763   0.334   6.873   3.046 -0.0005 -0.1675  0.8595
 4606TIP3    H213764   0.425   6.992   3.021 -0.0928 -0.2412  0.1598
 4607TIP3   OH213765   7.362   0.072   3.248  0.6331 -0.0797  0.0870
 4607TIP3    H113766   7.356   0.143   3.312  0.9489 -0.3768  0.4439
 4607TIP3    H213767   7.349   0.116   3.164 -0.7778  0.1739  0.4081
 4608TIP3   OH213768   4.416   2.002   3.292  0.0174 -0.2256  0.1246
 4608TIP3    H113769   4.420   1.925   3.236 -0.7183 -0.2942  0.1599
 4608TIP3    H213770   4.503   2.008   3.331  0.2930 -0.6347 -0.4105
 4609TIP3   OH213771   0.429   4.454   2.708  0.6580  0.0375  0.3186
 4609TIP3    H113772   0.375   4.511   2.654 -0.1190 -0.7662  0.2338
 4609TIP3    H213773   0.401   4.365   2.686  0.3452 -0.3131  2.0142
 4610TIP3   OH213774   1.739   2.497   0.812 -0.0205 -0.0962 -0.2049
 4610TIP3    H113775   1.681   2.540   0.750 -0.1938 -1.4026 -0.9936
 4610TIP3    H213776   1.826   2.505   0.773 -0.1286 -0.9114 -0.6479
 4611TIP3   OH213777   5.310   5.682   4.016  0.0854  0.4290 -0.1900
 4611TIP3    H113778   5.319   5.633   3.935  0.3959  1.3922 -0.7586
 4611TIP3    H213779   5.229   5.732   4.005 -0.0654  0.2825  0.2447
 4612TIP3   OH213780   7.525   2.995   1.957 -0.3154 -0.2785  0.1767
 4612TIP3    H113781   7.543   2.966   1.868  1.1858  0.1108  0.3253
 4612TIP3    H213782   7.531   3.090   1.954 -1.1627 -0.2019  0.5206
 4613TIP3   OH213783   5.932   3.748   0.871  0.1894  0.1679 -0.0813
 4613TIP3    H113784   5.875   3.680   0.905 -0.0616  0.6554  0.4988
 4613TIP3    H213785   5.995   3.764   0.941 -1.2670  2.2704  0.8667
 4614TIP3   OH213786   6.057   1.022   0.085  0.3858  0.1151 -0.4693
 4614TIP3    H113787   6.057   0.951   0.020 -0.6583  1.2415 -1.7473
 4614TIP3    H213788   6.095   1.097   0.040  2.5042  0.1613  1.2075
 4615TIP3   OH213789   8.117   0.579   5.983  0.5213 -0.1034  0.6080
 4615TIP3    H113790   8.024   0.592   5.965 -0.1598 -2.5574  1.7785
 4615TIP3    H213791   8.138   0.643   6.051 -0.8686 -0.7116  1.6661
 4616TIP3   OH213792   0.075   1.175   3.367 -1.1558 -0.4539  0.0571
 4616TIP3    H113793   0.025   1.198   3.289 -1.0822  3.0253  0.8827
 4616TIP3    H213794   0.053   1.243   3.431  1.7355 -0.9414  1.7640
 4617TIP3   OH213795   3.504   1.758   5.467 -0.1949 -0.5093 -0.5215
 4617TIP3    H113796   3.461   1.724   5.388 -2.0379 -1.4169  0.7806
 4617TIP3    H213797   3.451   1.833   5.493  0.0116 -0.6096  0.2041
 4618TIP3   OH213798   7.120   3.846   1.718 -0.6511 -0.3224  0.1153
 4618TIP3    H113799   7.108   3.820   1.809 -2.1406 -0.1387  0.0029
 4618TIP3    H213800   7.101   3.767   1.668 -0.6437 -0.2162 -0.0543
 4619TIP3   OH213801   2.123   4.112   0.243  0.2681  0.4232 -0.2949
 4619TIP3    H113802   2.206   4.069   0.222 -0.6447 -0.6893 -1.8013
 4619TIP3    H213803   2.063   4.040   0.262 -0.7753  1.1289 -0.8662
 4620TIP3   OH213804   3.402   0.286   5.119  0.2506 -0.1681  0.2875
 4620TIP3    H113805   3.444   0.200   5.132 -0.3978 -0.2462  2.1219
 4620TIP3    H213806   3.319   0.265   5.076  1.8246 -0.0246 -3.2277
 4621TIP3   OH213807   1.368   7.372   4.574  0.2641  0.4846  0.4098
 4621TIP3    H113808   1.449   7.325   4.594  0.2413  1.2994  2.8234
 4621TIP3    H213809   1.313   7.309   4.529  0.8323 -1.2978  2.0938
 4622TIP3   OH213810   2.030   6.152   1.486 -0.0298  0.4055 -0.0705
 4622TIP3    H113811   2.060   6.183   1.401 -1.1589  2.1656  0.1220
 4622TIP3    H213812   1.934   6.155   1.480 -0.1537 -1.1057  0.6957
 4623TIP3   OH213813   1.969   4.435   3.888 -0.2751  0.5743  0.2515
 4623TIP3    H113814   1.956   4.524   3.857 -0.8476 -0.0667 -1.4482
 4623TIP3    H213815   1.962   4.381   3.810  0.7792 -0.9126  1.1449
 4624TIP3   OH213816   7.356   2.603   4.007 -0.0613  0.1704 -0.1922
 4624TIP3    H113817   7.376   2.697   4.010  2.3032 -0.0265 -4.0793
 4624TIP3    H213818   7.263   2.600   3.986 -0.0646  1.6432 -0.5346
 4625TIP3   OH213819   7.982   0.427   6.230  0.0668 -0.3343 -0.3104
 4625TIP3    H113820   8.060   0.478   6.209 -1.2606  1.2454 -1.7105
 4625TIP3    H213821   7.912   0.492   6.235 -1.6718 -1.9581 -1.8866
 4626TIP3   OH213822   0.143   3.212   1.026 -0.3748  0.2648 -0.2356
 4626TIP3    H113823   0.089   3.232   1.102 -0.8785  0.5891 -0.6764
 4626TIP3    H213824   0.081   3.182   0.960  0.0244  0.3262 -0.6404
 4627TIP3   OH213825   0.395   6.140   4.741 -0.3489  0.2197  0.2485
 4627TIP3    H113826   0.377   6.231   4.719 -0.2974 -0.3730 -2.7144
 4627TIP3    H213827   0.490   6.136   4.752 -0.3485  0.5048  0.3599
 4628TIP3   OH213828   4.900   1.424   4.827  0.6255 -0.0298  0.4513
 4628TIP3    H113829   4.880   1.400   4.918  0.2417 -3.1260 -0.3628
 4628TIP3    H213830   4.817   1.415   4.781  1.4737 -1.9696 -0.8205
 4629TIP3   OH213831   4.279   7.620   0.940 -0.0225  0.3415  0.3864
 4629TIP3    H113832   4.220   7.577   1.002 -0.7125  1.8428  0.8104
 4629TIP3    H213833   4.228   7.693   0.904  0.9153  0.4725 -0.7435
 4630TIP3   OH213834   0.365   7.031   6.580  0.1684 -0.1818 -0.5205
 4630TIP3    H113835   0.281   7.057   6.542  0.2931 -0.1371 -0.7628
 4630TIP3    H213836   0.384   6.946   6.542 -1.7297 -2.1486  2.5416
 4631TIP3   OH213837   4.728   0.962   6.444 -0.3216  0.0103 -0.4189
 4631TIP3    H113838   4.646   0.929   6.407 -0.3456 -1.6448  0.9659
 4631TIP3    H213839   4.718   1.057   6.445 -1.0325  0.0365 -2.9076
 4632TIP3   OH213840   3.879   5.450   3.549  0.5994 -0.0944  0.0956
 4632TIP3    H113841   3.789   5.478   3.533  0.0629 -1.1092  1.1955
 4632TIP3    H213842   3.878   5.412   3.636  1.3565 -3.1286 -1.0893
 4633TIP3   OH213843   5.065   6.715   2.810  0.0791 -0.3711  0.1317
 4633TIP3    H113844   5.005   6.688   2.741  0.8436 -2.9496  0.3620
 4633TIP3    H213845   5.051   6.810   2.819 -2.6485 -0.5829 -0.9860
 4634TIP3   OH213846   5.659   7.008   1.786  0.0804  0.6255  0.5690
 4634TIP3    H113847   5.698   6.981   1.869 -2.4211  0.6938  1.8628
 4634TIP3    H213848   5.613   7.090   1.807  0.4933  1.3727 -1.2355
 4635TIP3   OH213849   5.289   6.291   1.275  0.1437  0.6197  0.4146
 4635TIP3    H113850   5.221   6.226   1.292  0.3273  0.7054  1.6084
 4635TIP3    H213851   5.264   6.332   1.192 -0.4729 -0.3309  0.1168
 4636TIP3   OH213852   6.323   0.837   1.244  0.0888 -0.3955  0.6379
 4636TIP3    H113853   6.269   0.839   1.165 -0.2029  0.7352  0.8424
 4636TIP3    H213854   6.262   0.853   1.316  0.4810 -0.5560  1.0117
 4637TIP3   OH213855   0.450   5.937   5.040  0.4987  0.4827 -0.2424
 4637TIP3    H113856   0.503   5.911   4.964  0.1440  1.0100 -0.6756
 4637TIP3    H213857   0.370   5.884   5.032  0.2480  0.8976 -0.5162
 4638TIP3   OH213858   1.766   6.468   0.359  0.4959  0.2566 -0.8188
 4638TIP3    H113859   1.725   6.382   0.348  0.0576  0.5519 -1.5875
 4638TIP3    H213860   1.717   6.509   0.430 -0.5590  0.5890 -1.6983
 4639TIP3   OH213861   4.552   5.866   6.329  0.0654  0.0303  0.1331
 4639TIP3    H113862   4.518   5.874   6.240  1.3449  1.8490 -0.2638
 4639TIP3    H213863   4.634   5.817   6.318  0.5474  0.8024  0.1833
 4640TIP3   OH213864   1.581   4.440   5.178  0.4295  0.0479 -0.1707
 4640TIP3    H113865   1.495   4.429   5.138  0.8751 -0.1310 -1.1120
 4640TIP3    H213866   1.617   4.518   5.137  0.9184 -0.1645 -0.1569
 4641TIP3   OH213867   6.909   6.152   3.206  0.3536  0.1786 -0.3930
 4641TIP3    H113868   6.921   6.083   3.271  0.2605 -2.0827 -2.6451
 4641TIP3    H213869   6.816   6.148   3.184  0.4820  0.5480 -1.0313
 4642TIP3   OH213870   8.170   7.572   0.896  0.7625 -0.2962 -0.2699
 4642TIP3    H113871   8.258   7.578   0.933  1.3670 -0.3007 -1.6452
 4642TIP3    H213872   8.133   7.660   0.909  2.1547  0.6865 -2.4510
 4643TIP3   OH213873   5.363   0.001   6.500 -0.7157 -0.2009 -0.6112
 4643TIP3    H113874   5.386   0.094   6.503  0.4781 -0.4410  3.0079
 4643TIP3    H213875   5.440  -0.041   6.462  0.5248  0.0322  1.4612
 4644TIP3   OH213876   2.820   2.004   4.907  0.0361 -0.0810  0.1585
 4644TIP3    H113877   2.851   1.914   4.896  1.9131  0.5902 -0.5919
 4644TIP3    H213878   2.874   2.039   4.978  1.4710  1.2699 -1.4878
 4645TIP3   OH213879   6.386   6.462   2.147 -0.1890 -0.1645  0.4238
 4645TIP3    H113880   6.337   6.417   2.077 -0.1141  0.1204  0.1857
 4645TIP3    H213881   6.331   6.537   2.170  1.0033  1.3189 -1.2312
 4646TIP3   OH213882   6.111   0.284   0.585 -0.6167 -0.5950 -0.8614
 4646TIP3    H113883   6.042   0.263   0.648 -1.0223  0.5696 -0.8892
 4646TIP3    H213884   6.192   0.255   0.626 -0.9285 -0.2861 -0.0122
 4647TIP3   OH213885   2.482   1.010   0.937 -0.4515 -0.0622  0.0416
 4647TIP3    H113886   2.516   1.089   0.894 -1.4744 -0.2275 -1.1259
 4647TIP3    H213887   2.491   1.028   1.031  0.1344  1.0754 -0.2092
 4648TIP3   OH213888   7.237   7.736   5.746  0.1351 -0.2355  0.5042
 4648TIP3    H113889   7.326   7.701   5.754  0.9629  1.3039 -1.3316
 4648TIP3    H213890   7.196   7.683   5.678 -1.5710 -3.0208  3.3719
 4649TIP3   OH213891   5.773   6.600   3.824  0.5030 -0.4069 -0.2256
 4649TIP3    H113892   5.714   6.674   3.842  0.2540 -1.0435  1.8117
 4649TIP3    H213893   5.781   6.599   3.729 -0.2381  1.6599 -0.3645
 4650TIP3   OH213894   7.694   3.160   3.787 -0.3800 -0.3389  0.4540
 4650TIP3    H113895   7.781   3.182   3.821 -0.3348  0.1379  0.0530
 4650TIP3    H213896   7.712   3.110   3.707 -0.4675 -0.0906  0.2762
 4651TIP3   OH213897   3.503   6.193   4.943 -0.1473  0.0667  0.2509
 4651TIP3    H113898   3.408   6.202   4.939 -0.0185  1.9006  0.6787
 4651TIP3    H213899   3.527   6.220   5.032  0.7026 -1.4473  0.5335
 4652TIP3   OH213900   4.824   6.452   2.605 -0.1092 -0.5470 -0.3585
 4652TIP3    H113901   4.861   6.404   2.679  2.0250  1.0515 -0.2882
 4652TIP3    H213902   4.830   6.544   2.631  0.8999  0.0751 -2.5866
 4653TIP3   OH213903   6.057   3.457   5.787  0.4087 -0.4980  0.3183
 4653TIP3    H113904   6.127   3.517   5.762  0.3660 -0.4365  0.3469
 4653TIP3    H213905   5.983   3.513   5.809  0.1798 -0.5867 -0.2283
 4654TIP3   OH213906   0.350   0.441   2.221  0.0034 -0.0111 -0.0972
 4654TIP3    H113907   0.332   0.387   2.298  0.7167  2.6141  2.0693
 4654TIP3    H213908   0.441   0.422   2.200  0.5816  0.9450  1.3073
 4655TIP3   OH213909   4.108   2.866   4.496  0.8249  0.2733 -0.2408
 4655TIP3    H113910   4.014   2.850   4.488  1.0484 -0.4674 -1.6810
 4655TIP3    H213911   4.115   2.940   4.555 -0.6887  0.5679 -0.4049
 4656TIP3   OH213912   6.600   1.689   5.867 -0.1547 -0.4729  0.4826
 4656TIP3    H113913   6.567   1.646   5.946 -1.2432  0.7597  0.7358
 4656TIP3    H213914   6.571   1.632   5.795  0.3076 -1.2785  0.9184
 4657TIP3   OH213915   3.891   4.672   0.760 -0.1832 -0.4189  0.0962
 4657TIP3    H113916   3.978   4.633   0.758  0.1631 -0.1623  3.4224
 4657TIP3    H213917   3.906   4.766   0.761 -0.4002 -0.3774  1.3323
 4658TIP3   OH213918   0.811   4.648   3.963 -0.4975  0.0533  0.0154
 4658TIP3    H113919   0.768   4.649   4.048 -0.7942 -0.8340 -0.1114
 4658TIP3    H213920   0.814   4.555   3.939  1.3063  0.0986 -0.0790
 4659TIP3   OH213921   3.686   4.790   5.504  0.1721 -0.3555 -0.0011
 4659TIP3    H113922   3.619   4.814   5.568  1.2332  0.6506  0.7943
 4659TIP3    H213923   3.661   4.837   5.424  0.5396  0.9629  0.6366
 4660TIP3   OH213924   7.327   4.747   4.450  0.0545 -0.3649 -0.4634
 4660TIP3    H113925   7.294   4.706   4.529 -0.3568  1.0592  0.1299
 4660TIP3    H213926   7.407   4.698   4.429  0.0629 -0.8825  0.7166
 4661TIP3   OH213927   5.520   7.688   5.362 -0.0839 -0.1980  0.0923
 4661TIP3    H113928   5.543   7.597   5.343 -1.7234 -0.1986 -2.3993
 4661TIP3    H213929   5.568   7.709   5.442  1.4229 -2.8030 -0.0206
 4662TIP3   OH213930   5.625   7.766   2.480 -0.1155  0.0945 -0.4936
 4662TIP3    H113931   5.588   7.683   2.509  1.2131 -0.2768  0.2090
 4662TIP3    H213932   5.612   7.766   2.385 -0.4612 -0.7526 -0.4569
 4663TIP3   OH213933   3.236   5.574   0.853 -0.1907 -0.0359  0.0093
 4663TIP3    H113934   3.320   5.573   0.806 -0.5284  0.1574 -0.6146
 4663TIP3    H213935   3.232   5.490   0.897  0.2978 -0.0795 -0.0211
 4664TIP3   OH213936   0.220   1.686   5.388 -0.0874 -0.2012 -0.3014
 4664TIP3    H113937   0.240   1.775   5.362 -1.9478  0.0868 -0.9328
 4664TIP3    H213938   0.256   1.632   5.318  0.8354  0.0470 -0.0342
 4665TIP3   OH213939   5.604   3.969   6.005 -0.1276 -0.3227  0.4725
 4665TIP3    H113940   5.560   4.038   6.055  0.0345  0.9420 -1.0693
 4665TIP3    H213941   5.567   3.888   6.040 -0.7359  0.5478  1.9471
 4666TIP3   OH213942   4.282   3.131   5.452 -0.1691  0.4338 -0.1834
 4666TIP3    H113943   4.282   3.044   5.411  1.5174  1.4372 -2.5435
 4666TIP3    H213944   4.341   3.122   5.527  1.1360 -0.1810 -1.2317
 4667TIP3   OH213945   5.037   6.184   5.728  0.6462  0.3085 -0.4562
 4667TIP3    H113946   5.050   6.240   5.804 -0.4278  0.0673 -0.0691
 4667TIP3    H213947   5.119   6.136   5.718  0.6291 -0.0282  0.8648
 4668TIP3   OH213948   7.918   1.786   3.713  0.5036 -0.3962  0.2753
 4668TIP3    H113949   7.827   1.816   3.714  0.5966 -0.1232  0.7026
 4668TIP3    H213950   7.963   1.848   3.656  0.5955 -0.0089  0.7628
 4669TIP3   OH213951   6.393   7.579   0.940  0.0360  0.4163  0.2187
 4669TIP3    H113952   6.343   7.615   1.013  0.0354 -0.0695  0.4539
 4669TIP3    H213953   6.326   7.554   0.876 -0.0009  0.0945  0.3854
 4670TIP3   OH213954   4.213   0.692   0.175  0.3636 -0.3313  0.2705
 4670TIP3    H113955   4.254   0.606   0.185 -1.7214 -1.4906 -0.5575
 4670TIP3    H213956   4.202   0.723   0.265  2.2559 -0.3402  0.5347
 4671TIP3   OH213957   5.661   5.012   3.672 -0.8504  0.3151  0.3002
 4671TIP3    H113958   5.663   4.926   3.630 -0.5257  0.1379  0.6666
 4671TIP3    H213959   5.752   5.042   3.668 -0.8692  0.4187  0.6226
 4672TIP3   OH213960   5.338   7.401   4.648  0.2741  0.0340 -0.0971
 4672TIP3    H113961   5.424   7.371   4.619  0.2151  1.1843 -1.6121
 4672TIP3    H213962   5.353   7.489   4.683 -0.0085 -0.5152  1.4713
 4673TIP3   OH213963   7.253   4.933   2.817 -0.0734 -0.3688  0.3842
 4673TIP3    H113964   7.232   4.888   2.899 -0.8770  0.0060  0.3942
 4673TIP3    H213965   7.345   4.957   2.826 -0.5701  1.1342  1.9115
 4674TIP3   OH213966   6.318   0.173   1.262 -0.5714 -0.0412  0.3118
 4674TIP3    H113967   6.329   0.153   1.169 -1.0302  0.1431  0.2184
 4674TIP3    H213968   6.308   0.087   1.304 -0.2120 -0.1335  0.2175
 4675TIP3   OH213969   0.629   7.030   1.875 -0.2864 -0.6552  0.4191
 4675TIP3    H113970   0.548   7.056   1.919 -1.0078 -1.5054 -0.3789
 4675TIP3    H213971   0.633   7.085   1.797  1.8723  2.1058  2.2603
 4676TIP3   OH213972   1.904   1.129   1.964 -0.1141  0.2184  0.2179
 4676TIP3    H113973   1.812   1.138   1.989 -0.8528 -2.8785 -0.9719
 4676TIP3    H213974   1.946   1.093   2.042 -0.4384 -0.6075  0.0197
 4677TIP3   OH213975   2.276   3.373   2.195 -0.7566 -0.0894  0.7998
 4677TIP3    H113976   2.193   3.334   2.165 -1.1871  1.2792  0.1113
 4677TIP3    H213977   2.322   3.395   2.114  0.9471 -2.0924  1.1531
 4678TIP3   OH213978   2.799   0.738   4.688 -0.0106  0.3662 -0.0882
 4678TIP3    H113979   2.866   0.674   4.712 -2.2655 -2.1087  0.0509
 4678TIP3    H213980   2.730   0.686   4.646 -3.2973  2.1828  2.5909
 4679TIP3   OH213981   2.877   4.376   4.313  0.3686  0.5955 -0.3517
 4679TIP3    H113982   2.856   4.458   4.357  0.6954  0.2782  0.4199
 4679TIP3    H213983   2.962   4.391   4.271  1.2033  0.1767  1.1169
 4680TIP3   OH213984   7.344   0.049   5.010  0.0520 -0.4283 -0.6528
 4680TIP3    H113985   7.383  -0.013   4.948  0.6136 -0.1390 -0.5958
 4680TIP3    H213986   7.274  -0.000   5.052  2.1869 -1.9717  1.3829
 4681TIP3   OH213987   7.210   5.715   1.468 -0.1688 -0.1528 -0.2503
 4681TIP3    H113988   7.271   5.767   1.520 -2.1389  1.1097  0.9256
 4681TIP3    H213989   7.216   5.627   1.506 -0.8622  0.5275  1.5700
 4682TIP3   OH213990   1.475   2.911   5.014 -0.2404 -0.7465  0.4004
 4682TIP3    H113991   1.494   2.822   5.044  2.5389 -1.5194 -2.9904
 4682TIP3    H213992   1.560   2.948   4.993 -1.5136  1.8291 -0.6118
 4683TIP3   OH213993   5.362   6.774   1.988 -0.4352  0.1599  0.3276
 4683TIP3    H113994   5.372   6.773   2.083  0.4848  0.8869  0.2519
 4683TIP3    H213995   5.452   6.783   1.954 -0.7581  0.0161 -0.6059
 4684TIP3   OH213996   4.036   0.653   4.276 -0.3250  0.0692 -0.0100
 4684TIP3    H113997   4.091   0.585   4.237  0.6964 -0.2340  1.8184
 4684TIP3    H213998   3.990   0.693   4.202  2.4234  0.4001 -1.7008
 4685TIP3   OH213999   0.808   3.871   1.252  0.4285 -0.0720  0.1365
 4685TIP3    H114000   0.723   3.916   1.246  1.3539  1.9516  1.1660
 4685TIP3    H214001   0.814   3.842   1.343  1.2251  0.6838  0.3424
 4686TIP3   OH214002   1.533   6.649   4.442 -0.5964  0.0301  0.3051
 4686TIP3    H114003   1.520   6.554   4.443 -0.6456  0.0152 -0.9612
 4686TIP3    H214004   1.561   6.669   4.353  0.2914  1.1015  0.7914
 4687TIP3   OH214005   7.428   2.605   0.598 -0.3498 -0.5353  0.1204
 4687TIP3    H114006   7.399   2.614   0.689  0.4123 -0.0599  0.3289
 4687TIP3    H214007   7.349   2.582   0.550 -0.7311 -0.9803  0.9348
 4688TIP3   OH214008   6.655   6.296   0.792 -0.3209 -0.0149 -1.0481
 4688TIP3    H114009   6.580   6.356   0.786  1.1582  2.3828  1.9894
 4688TIP3    H214010   6.630   6.233   0.859  0.5652  1.2565  0.5421
 4689TIP3   OH214011   8.086   3.804   2.784 -0.0185 -0.5073  0.6758
 4689TIP3    H114012   8.140   3.837   2.712 -0.4753  1.6597  1.2709
 4689TIP3    H214013   8.145   3.747   2.833 -0.0774 -3.2823 -2.1193
 4690TIP3   OH214014   7.551   0.373   4.336  0.1211  0.2687  0.3591
 4690TIP3    H114015   7.528   0.395   4.246  1.8016 -0.8263 -0.3700
 4690TIP3    H214016   7.536   0.279   4.343 -0.7393  0.4624  1.4890
 4691TIP3   OH214017   2.731   2.458   4.401 -0.0325 -0.2308 -0.6156
 4691TIP3    H114018   2.788   2.501   4.337  1.7124 -2.9521 -1.0634
 4691TIP3    H214019   2.776   2.469   4.485  1.5302 -2.6691 -1.0169
 4692TIP3   OH214020   6.584   1.303   6.067 -0.2409  0.0619  0.0151
 4692TIP3    H114021   6.641   1.372   6.101 -0.8168  0.0963  0.9229
 4692TIP3    H214022   6.558   1.253   6.144 -0.4217 -0.7284 -0.5509
 4693TIP3   OH214023   7.588   5.715   2.836 -0.1343  0.2451 -0.7637
 4693TIP3    H114024   7.637   5.633   2.842  0.0319  0.3818 -0.2909
 4693TIP3    H214025   7.499   5.688   2.812 -0.1146 -0.0811 -0.4668
 4694TIP3   OH214026   4.329   2.590   6.666 -0.4780  0.1713 -0.5200
 4694TIP3    H114027   4.249   2.639   6.646 -1.3712 -0.8204  0.5085
 4694TIP3    H214028   4.353   2.618   6.754 -0.4911 -0.5736 -0.2752
 4695TIP3   OH214029   2.665   1.396   2.301 -0.3981  0.7718  0.2444
 4695TIP3    H114030   2.675   1.436   2.387  2.2504  0.4511  0.1565
 4695TIP3    H214031   2.658   1.470   2.240 -1.4250  0.9943  0.6040
 4696TIP3   OH214032   6.381   5.591   5.404 -0.5481 -0.0941  0.7123
 4696TIP3    H114033   6.430   5.564   5.482  1.8490  3.1815  0.5167
 4696TIP3    H214034   6.396   5.685   5.397 -1.4873 -0.0719 -3.1990
 4697TIP3   OH214035   2.459   7.649   4.850  0.0077  0.2319  0.7994
 4697TIP3    H114036   2.502   7.720   4.802 -0.5653  0.1397  0.1402
 4697TIP3    H214037   2.410   7.693   4.920 -1.9431  0.7119 -0.7736
 4698TIP3   OH214038   2.703   0.893   0.603  0.3024  0.0104 -0.0467
 4698TIP3    H114039   2.701   0.949   0.526 -0.2578  0.4124  0.2478
 4698TIP3    H214040   2.783   0.919   0.650  1.4718 -1.2893 -1.2330
 4699TIP3   OH214041   3.102   0.415   0.093 -0.2884 -0.0676 -0.5987
 4699TIP3    H114042   3.122   0.359   0.018 -2.2028 -0.1048 -1.1435
 4699TIP3    H214043   3.113   0.504   0.060  1.3721 -0.0681 -0.1398
 4700TIP3   OH214044   8.305   5.049   4.791 -0.1147 -0.2512 -0.3391
 4700TIP3    H114045   8.217   5.087   4.798  0.4186  0.9551  0.0639
 4700TIP3    H214046   8.324   5.049   4.697 -0.2109  0.2739 -0.3592
 4701TIP3   OH214047   5.397   6.541   6.031  0.1844  0.2836  0.0869
 4701TIP3    H114048   5.385   6.544   5.936 -1.5826 -0.1233  0.2669
 4701TIP3    H214049   5.468   6.478   6.044 -1.8234 -2.4172 -0.8682
 4702TIP3   OH214050   8.204   7.488   1.269 -0.1574 -0.5660  0.0693
 4702TIP3    H114051   8.251   7.406   1.283  0.3988 -0.3337 -0.3926
 4702TIP3    H214052   8.262   7.540   1.212 -0.8177 -0.1417 -0.2338
 4703TIP3   OH214053   2.972   4.026   2.642  0.1708  0.2252 -0.4605
 4703TIP3    H114054   2.880   4.053   2.643 -0.0647 -0.5369  1.3152
 4703TIP3    H214055   2.970   3.932   2.626  0.7321  0.3885 -1.6121
 4704TIP3   OH214056   5.155   1.009   6.076 -0.1761  0.0344  0.4057
 4704TIP3    H114057   5.231   1.034   6.129 -1.2656  1.0502  1.5263
 4704TIP3    H214058   5.124   1.091   6.038 -0.0491 -0.5358 -0.9849
 4705TIP3   OH214059   4.157   3.223   5.811  0.1901 -0.8423 -0.2767
 4705TIP3    H114060   4.155   3.127   5.816  0.6859 -0.9011 -1.0541
 4705TIP3    H214061   4.249   3.244   5.801  0.3008 -0.1552  1.8268
 4706TIP3   OH214062   6.604   4.618   5.162 -0.0012  0.0710 -0.3580
 4706TIP3    H114063   6.525   4.669   5.179 -0.6031 -0.4482 -1.4985
 4706TIP3    H214064   6.573   4.531   5.140  0.9055 -0.2084 -0.5878
 4707TIP3   OH214065   5.518   6.702   4.633 -0.4503  0.1251  0.9775
 4707TIP3    H114066   5.601   6.702   4.586 -0.4713  3.0741  0.7717
 4707TIP3    H214067   5.469   6.629   4.596  1.2604 -0.3912 -0.3638
 4708TIP3   OH214068   7.262   3.730   4.183  0.3539 -0.1036 -0.1585
 4708TIP3    H114069   7.316   3.663   4.224  0.6602  0.5140  0.4613
 4708TIP3    H214070   7.324   3.799   4.158  0.0038  0.0953 -0.4885
 4709TIP3   OH214071   0.250   7.625   4.338 -0.3355 -0.1187  0.2111
 4709TIP3    H114072   0.231   7.679   4.414 -0.4813 -2.9316  2.3415
 4709TIP3    H214073   0.344   7.607   4.343 -0.1608  0.4171 -0.8345
 4710TIP3   OH214074   4.247   4.430   5.556  0.1311  0.6993 -0.6155
 4710TIP3    H114075   4.232   4.449   5.649  0.2933 -1.2397 -0.1569
 4710TIP3    H214076   4.161   4.441   5.515  0.0032  1.2871 -0.2063
 4711TIP3   OH214077   3.949   1.787   0.219 -0.0974 -0.5178 -0.3672
 4711TIP3    H114078   3.915   1.699   0.239  0.1146 -0.7692 -1.0857
 4711TIP3    H214079   3.903   1.813   0.139  1.6796 -1.0560 -1.6263
 4712TIP3   OH214080   3.060   4.138   2.906 -0.1841 -0.0092  0.1416
 4712TIP3    H114081   3.076   4.060   2.960 -0.0759  0.5571  0.9360
 4712TIP3    H214082   3.074   4.108   2.817 -1.8074 -1.3609  0.2761
 4713TIP3   OH214083   8.095   4.734   0.786  0.2674 -0.1361 -0.5947
 4713TIP3    H114084   8.046   4.684   0.851 -0.4664  1.5784  0.2598
 4713TIP3    H214085   8.041   4.730   0.707 -0.1917 -0.0227 -0.2911
 4714TIP3   OH214086   1.998   5.246   5.499  0.1206 -0.2890 -0.3777
 4714TIP3    H114087   2.052   5.175   5.464  2.6292  2.0307 -1.6260
 4714TIP3    H214088   2.061   5.306   5.540 -1.9857  0.7388  1.5940
 4715TIP3   OH214089   0.404   0.608   3.565 -0.0667  0.1911  0.4265
 4715TIP3    H114090   0.431   0.700   3.572 -0.8476  0.4329  0.2953
 4715TIP3    H214091   0.322   0.610   3.516  0.4645 -0.6745 -0.5344
 4716TIP3   OH214092   6.277   2.014   4.178 -1.2894 -0.6793 -0.2651
 4716TIP3    H114093   6.278   2.090   4.237  2.4490  1.3097 -2.4966
 4716TIP3    H214094   6.320   1.945   4.228  1.5441  0.8813 -0.3321
 4717TIP3   OH214095   2.503   3.414   4.033 -0.1769 -0.6291 -0.1241
 4717TIP3    H114096   2.549   3.483   3.984 -1.2836 -0.1317 -0.4946
 4717TIP3    H214097   2.557   3.401   4.111  0.2412  0.4132 -0.2099
 4718TIP3   OH214098   0.131   5.487   5.292 -0.1109  0.0483 -0.6039
 4718TIP3    H114099   0.217   5.510   5.327 -0.5867  1.3584 -0.2464
 4718TIP3    H214100   0.074   5.482   5.368 -0.1754 -1.8633 -0.7144
 4719TIP3   OH214101   1.028   3.578   5.023 -0.0819 -0.2427 -0.2629
 4719TIP3    H114102   0.940   3.615   5.012 -1.2745 -2.5112  0.9492
 4719TIP3    H214103   1.027   3.540   5.111  2.4212  0.3564  0.0899
 4720TIP3   OH214104   6.468   3.068   3.801  0.1338 -0.3042 -0.3234
 4720TIP3    H114105   6.524   3.113   3.737 -1.0158  1.5538 -0.0820
 4720TIP3    H214106   6.385   3.115   3.798 -0.1645 -0.5629  2.0850
 4721TIP3   OH214107   0.928   4.486   3.450  0.2225 -0.6165  0.2367
 4721TIP3    H114108   0.934   4.411   3.392 -0.2585 -0.2016 -0.3556
 4721TIP3    H214109   1.006   4.480   3.505  0.9738 -0.7253 -0.8080
 4722TIP3   OH214110   4.064   5.831   2.104  0.4906 -0.0926  0.3937
 4722TIP3    H114111   4.009   5.847   2.027  0.2252  2.8268  1.0861
 4722TIP3    H214112   4.124   5.762   2.076  0.1131  0.5579 -2.2966
 4723TIP3   OH214113   4.129   2.342   4.847 -0.1718  0.4137 -0.2274
 4723TIP3    H114114   4.178   2.399   4.906  0.8619 -1.6431  1.0234
 4723TIP3    H214115   4.194   2.311   4.783 -0.8270  0.9867 -1.2028
 4724TIP3   OH214116   0.482   5.825   3.850 -0.5177  0.4765 -0.3388
 4724TIP3    H114117   0.536   5.747   3.858 -0.1674  0.3652 -2.8034
 4724TIP3    H214118   0.414   5.816   3.916  0.7094 -0.8847  0.7811
 4725TIP3   OH214119   4.542   5.912   6.012  0.1259 -0.6280  0.0041
 4725TIP3    H114120   4.621   5.936   5.963 -1.0691  3.1741 -0.2954
 4725TIP3    H214121   4.519   5.825   5.979  2.3101 -0.4332 -2.2973
 4726TIP3   OH214122   2.902   4.906   3.054  0.4774  0.6181  0.1713
 4726TIP3    H114123   2.947   4.891   3.137  0.1256  2.1798  0.6679
 4726TIP3    H214124   2.949   4.850   2.992  0.7170 -0.6077  1.4099
 4727TIP3   OH214125   4.222   1.710   3.206  0.2792 -0.0919 -0.4642
 4727TIP3    H114126   4.201   1.617   3.217 -1.0234 -0.0762 -2.3349
 4727TIP3    H214127   4.313   1.712   3.178  0.7354 -0.6900  0.9135
 4728TIP3   OH214128   0.599   7.146   3.318  0.0447  0.5620 -0.5767
 4728TIP3    H114129   0.638   7.119   3.401  1.1427  2.0044 -0.5854
 4728TIP3    H214130   0.652   7.102   3.251 -2.0080 -2.1669 -0.5944
 4729TIP3   OH214131   5.905   0.161   5.846 -0.8358 -0.0779  0.6385
 4729TIP3    H114132   5.928   0.129   5.759 -0.7621 -0.9487  0.9637
 4729TIP3    H214133   5.809   0.168   5.844 -0.7475  1.3504  0.0236
 4730TIP3   OH214134   3.550   1.561   4.859  0.1167  0.6263 -0.0846
 4730TIP3    H114135   3.542   1.470   4.887  0.7453  0.6223  0.1074
 4730TIP3    H214136   3.641   1.569   4.830  0.1578  1.2719  0.2069
 4731TIP3   OH214137   6.503   0.839   6.246  0.0552 -0.0345 -0.4174
 4731TIP3    H114138   6.556   0.869   6.320 -0.7927  1.4282 -0.3483
 4731TIP3    H214139   6.555   0.771   6.204  1.0453 -0.1008  0.8633
 4732TIP3   OH214140   3.883   3.290   2.732 -0.0460 -0.5264  0.2018
 4732TIP3    H114141   3.931   3.215   2.767 -0.5073 -0.5338  0.8411
 4732TIP3    H214142   3.800   3.252   2.702  0.6782 -0.6747 -1.7474
 4733TIP3   OH214143   3.159   3.046   0.165  0.5302  0.2023 -0.2605
 4733TIP3    H114144   3.183   2.954   0.179  0.4194  0.3348  0.9095
 4733TIP3    H214145   3.218   3.075   0.095  2.2463 -0.1190  0.9808
 4734TIP3   OH214146   4.000   5.351   1.568 -0.8225 -0.0096  0.5198
 4734TIP3    H114147   3.933   5.380   1.506 -0.8111  0.3151  0.6527
 4734TIP3    H214148   4.059   5.296   1.517 -0.7532  0.3447  0.2159
 4735TIP3   OH214149   4.009   0.248   6.157 -0.0502  0.1251  0.2422
 4735TIP3    H114150   3.916   0.267   6.148  0.1238  1.5615  1.1170
 4735TIP3    H214151   4.016   0.154   6.139 -1.5894  0.0770 -0.2649
 4736TIP3   OH214152   6.642   5.300   1.454  0.1498 -0.1747  0.7514
 4736TIP3    H114153   6.696   5.371   1.420  0.0633 -0.0696  0.8341
 4736TIP3    H214154   6.611   5.254   1.376 -1.6435  1.2313  0.5772
 4737TIP3   OH214155   0.098   7.401   3.960 -0.3518  0.2669 -0.0066
 4737TIP3    H114156   0.049   7.357   3.890  0.1717  0.4819 -0.5230
 4737TIP3    H214157   0.157   7.334   3.994 -0.3353  0.2672 -0.0344
 4738TIP3   OH214158   2.320   7.521   3.608  0.5821  0.1430  0.0215
 4738TIP3    H114159   2.388   7.585   3.631  0.2047  0.4317  0.3633
 4738TIP3    H214160   2.241   7.554   3.653  0.8522 -1.7090  2.0115
 4739TIP3   OH214161   0.616   1.209   2.031 -0.1032  0.0033 -0.2248
 4739TIP3    H114162   0.596   1.245   1.944  0.3171  0.8035  0.0030
 4739TIP3    H214163   0.545   1.147   2.048 -0.5554  0.3409 -0.8477
 4740TIP3   OH214164   0.433   4.903   2.176  0.1199 -0.7268  0.6515
 4740TIP3    H114165   0.408   4.868   2.262 -0.5168 -0.9713  0.3711
 4740TIP3    H214166   0.438   4.997   2.189  1.1251 -0.8460  1.2321
 4741TIP3   OH214167   1.230   2.647   5.460 -0.1841  0.0127  0.1169
 4741TIP3    H114168   1.167   2.657   5.389 -1.1400  0.0073  0.9484
 4741TIP3    H214169   1.201   2.568   5.506 -1.5571  1.7799  2.4566
 4742TIP3   OH214170   7.032   2.158   3.026  0.3528 -0.1098 -0.2487
 4742TIP3    H114171   7.060   2.153   3.118  1.5846 -2.7054 -0.6759
 4742TIP3    H214172   6.942   2.190   3.031  0.5731  0.3780  1.8248
 4743TIP3   OH214173   5.797   1.423   3.844  0.1196 -0.1712  0.3053
 4743TIP3    H114174   5.767   1.503   3.887 -1.4202 -0.2827 -0.4691
 4743TIP3    H214175   5.865   1.452   3.783  2.9886 -0.1320  3.2944
 4744TIP3   OH214176   4.650   5.654   0.842  0.2487  0.4033  0.6078
 4744TIP3    H114177   4.596   5.586   0.884  0.8881 -0.6756 -0.2480
 4744TIP3    H214178   4.648   5.727   0.903 -1.7493  0.2082  0.8465
 4745TIP3   OH214179   3.642   7.582   1.129  0.9551 -0.1363 -0.1525
 4745TIP3    H114180   3.681   7.495   1.116  0.0727 -0.2839 -2.3052
 4745TIP3    H214181   3.695   7.640   1.074  0.6510  0.4180  0.1366
 4746TIP3   OH214182   7.457   1.968   6.450 -0.2002  0.3223 -0.2278
 4746TIP3    H114183   7.469   2.054   6.490 -0.9143 -0.3115  1.4641
 4746TIP3    H214184   7.367   1.969   6.416 -0.7868 -0.2546  1.2210
 4747TIP3   OH214185   7.169   1.926   6.372  0.4066  0.2886  0.1627
 4747TIP3    H114186   7.097   1.877   6.333  0.8201  0.5044 -0.8993
 4747TIP3    H214187   7.149   1.926   6.466 -0.9412  0.3006 -0.0992
 4748TIP3   OH214188   2.596   6.073   1.118 -0.2631 -0.1800  0.0487
 4748TIP3    H114189   2.559   6.020   1.047 -0.5730  0.8971 -0.6197
 4748TIP3    H214190   2.680   6.102   1.085 -0.1508 -0.1457  0.3618
 4749TIP3   OH214191   2.898   6.820   1.747 -0.6754  0.6146 -0.4044
 4749TIP3    H114192   2.881   6.888   1.812  0.4234  0.0561  0.5052
 4749TIP3    H214193   2.965   6.764   1.788 -0.4264 -0.1159 -1.7594
 4750TIP3   OH214194   8.138   0.084   6.017 -0.6267 -0.1847 -0.0011
 4750TIP3    H114195   8.215   0.133   6.045  0.3444 -0.2550 -2.3219
 4750TIP3    H214196   8.135   0.095   5.922 -2.1785 -2.0710 -0.2493
 4751TIP3   OH214197   4.680   5.495   5.335  0.9081  0.4650  0.2974
 4751TIP3    H114198   4.731   5.435   5.281  1.1611 -0.0640  1.1026
 4751TIP3    H214199   4.723   5.580   5.323  0.7094  0.4387 -0.6446
 4752TIP3   OH214200   0.401   4.389   1.860 -0.2328  0.8475  0.1047
 4752TIP3    H114201   0.453   4.384   1.940  0.3070  0.6774 -0.2557
 4752TIP3    H214202   0.375   4.299   1.842  1.4377  0.5651 -1.0785
 4753TIP3   OH214203   2.101   1.856   6.545  0.4796  0.0914 -0.1437
 4753TIP3    H114204   2.085   1.764   6.564  0.4183  0.2139  0.4140
 4753TIP3    H214205   2.151   1.888   6.620  1.0706  0.3535 -0.6389
 4754TIP3   OH214206   1.627   1.770   5.666 -0.3340  0.1909 -0.2227
 4754TIP3    H114207   1.650   1.858   5.695 -1.3969  0.8522 -1.3321
 4754TIP3    H214208   1.692   1.749   5.598 -0.0343  0.0666  0.0948
 4755TIP3   OH214209   4.428   1.716   2.511 -0.3008 -0.1255  0.1568
 4755TIP3    H114210   4.506   1.741   2.562  0.9839  0.4650 -1.9921
 4755TIP3    H214211   4.408   1.792   2.457 -0.2604 -1.4351 -1.8089
 4756TIP3   OH214212   6.724   4.300   5.889 -0.2811  0.5369 -0.3345
 4756TIP3    H114213   6.762   4.246   5.820 -0.0998  0.9851 -0.5888
 4756TIP3    H214214   6.631   4.275   5.891 -0.1775  0.1477 -0.3795
 4757TIP3   OH214215   3.777   0.774   6.083 -0.0106  0.3627 -0.1042
 4757TIP3    H114216   3.803   0.697   6.133  2.3887  1.2538  0.1609
 4757TIP3    H214217   3.802   0.753   5.993  0.1027  0.5716 -0.1242
 4758TIP3   OH214218   3.019   5.095   4.530 -0.8843  0.0119 -0.3817
 4758TIP3    H114219   3.008   5.007   4.494  1.6536  0.0160 -1.3697
 4758TIP3    H214220   3.040   5.081   4.622 -0.6695 -0.3977 -0.4922
 4759TIP3   OH214221   4.130   6.569   1.103  0.3350  0.4744  0.3145
 4759TIP3    H114222   4.121   6.612   1.018 -0.1091 -1.7458 -0.8271
 4759TIP3    H214223   4.224   6.570   1.121  0.7481 -1.2061 -1.4473
 4760TIP3   OH214224   1.086   6.253   5.167  0.2545 -0.2195  0.1567
 4760TIP3    H114225   1.142   6.184   5.202 -0.4530 -0.9779 -0.1763
 4760TIP3    H214226   1.137   6.291   5.096  0.2168 -1.1510 -0.3833
 4761TIP3   OH214227   1.699   7.626   4.019  0.2100 -0.0299  0.0250
 4761TIP3    H114228   1.705   7.537   4.052 -2.1045  0.2576  1.4158
 4761TIP3    H214229   1.683   7.680   4.096 -0.4454  1.3298 -1.0017
 4762TIP3   OH214230   6.424   6.451   0.742 -0.3234  0.4552 -0.1600
 4762TIP3    H114231   6.445   6.530   0.793  2.3698 -0.7353  0.7645
 4762TIP3    H214232   6.422   6.482   0.652 -0.3837  1.7643  0.2559
 4763TIP3   OH214233   7.574   3.622   6.363  0.2536 -0.2448  0.0884
 4763TIP3    H114234   7.528   3.654   6.440 -0.4003 -0.1891 -0.3151
 4763TIP3    H214235   7.557   3.528   6.363  1.0054 -0.3821  0.5050
 4764TIP3   OH214236   4.719   3.965   3.399 -0.4141  0.1982 -0.1080
 4764TIP3    H114237   4.645   3.904   3.394  1.0608 -1.6482 -0.8248
 4764TIP3    H214238   4.719   4.009   3.314  0.5007 -1.3293 -0.9372
 4765TIP3   OH214239   7.733   4.103   6.565 -0.3505  0.1501  0.8559
 4765TIP3    H114240   7.776   4.024   6.531 -1.0360 -0.3473  1.1093
 4765TIP3    H214241   7.796   4.173   6.551  1.1642 -0.7881  2.5180
 4766TIP3   OH214242   0.067   4.710   0.795 -0.9111  0.4344  0.4314
 4766TIP3    H114243   0.078   4.618   0.818 -1.4812  1.2139  4.4511
 4766TIP3    H214244  -0.026   4.727   0.803 -0.8159  1.4046 -0.2383
 4767TIP3   OH214245   1.357   1.104   0.683 -0.2922 -0.3671 -0.2152
 4767TIP3    H114246   1.276   1.153   0.670  0.5501  1.1002 -0.0262
 4767TIP3    H214247   1.391   1.133   0.767  1.9619  1.3415 -1.5962
 4768TIP3   OH214248   6.441   4.569   3.002 -0.8584  0.7290 -0.0176
 4768TIP3    H114249   6.527   4.593   3.037 -0.3423 -0.6902 -0.2799
 4768TIP3    H214250   6.458   4.494   2.946 -2.1980  0.7888 -0.5234
 4769TIP3   OH214251   4.464   0.387   3.202 -0.0176 -0.2139 -0.0471
 4769TIP3    H114252   4.484   0.359   3.291  0.9311 -0.3776 -0.2913
 4769TIP3    H214253   4.398   0.325   3.172 -0.5873  0.0468  0.6520
 4770TIP3   OH214254   1.308   1.633   5.151  0.1181  0.3411  0.0249
 4770TIP3    H114255   1.348   1.621   5.236  1.1037  0.9077 -0.3448
 4770TIP3    H214256   1.221   1.593   5.159 -0.1224  1.1377  1.5368
 4771TIP3   OH214257   5.096   3.135   0.252 -0.0849 -0.4380 -0.1448
 4771TIP3    H114258   5.077   3.047   0.220  1.7382 -0.6590 -0.7483
 4771TIP3    H214259   5.151   3.174   0.184  1.7733  0.0075  1.5159
 4772TIP3   OH214260   6.595   1.271   2.272  0.7127 -0.0156  0.3537
 4772TIP3    H114261   6.609   1.312   2.187  1.7531  1.2822  1.1031
 4772TIP3    H214262   6.565   1.183   2.252 -0.6247  0.7576 -1.3403
 4773TIP3   OH214263   3.661   3.270   6.389  0.4037  0.0106  0.4841
 4773TIP3    H114264   3.713   3.301   6.463  1.6205  0.6237 -0.5864
 4773TIP3    H214265   3.573   3.303   6.406  1.0535  1.7248  0.7898
 4774TIP3   OH214266   3.597   4.725   3.090  0.0734  0.1291  0.4307
 4774TIP3    H114267   3.663   4.666   3.051  2.0673  1.7233  1.1946
 4774TIP3    H214268   3.513   4.685   3.067  1.2698 -1.8245 -0.9234
 4775TIP3   OH214269   2.454   7.130   4.374  0.4811  0.8889  0.4519
 4775TIP3    H114270   2.460   7.154   4.467  0.0240 -1.7908  1.2751
 4775TIP3    H214271   2.390   7.190   4.337 -1.5681  0.2016  2.6305
 4776TIP3   OH214272   0.636   0.813   0.106  0.1707 -0.5933  0.1888
 4776TIP3    H114273   0.586   0.877   0.056  2.5487  0.0544 -1.5541
 4776TIP3    H214274   0.656   0.743   0.044  1.5347 -0.7294  0.7304
 4777TIP3   OH214275   1.807   4.785   4.174 -0.2394 -0.4104  0.0495
 4777TIP3    H114276   1.800   4.695   4.144 -0.4226  0.0908 -1.4771
 4777TIP3    H214277   1.889   4.788   4.224 -0.1823 -1.3951  0.0174
 4778TIP3   OH214278   3.415   7.701   4.056 -0.2417  0.1349  0.3842
 4778TIP3    H114279   3.394   7.794   4.060  1.1811  0.4690  0.7975
 4778TIP3    H214280   3.483   7.689   4.123  1.7231 -0.5804 -1.6175
 4779TIP3   OH214281   3.345   0.179   2.203 -0.7545  0.0691  0.6879
 4779TIP3    H114282   3.276   0.155   2.141 -0.3374 -1.3777  0.7483
 4779TIP3    H214283   3.323   0.130   2.282  1.2567 -1.8320  0.1571
 4780TIP3   OH214284   7.275   0.063   5.696 -0.1032  0.4407 -0.8562
 4780TIP3    H114285   7.221   0.138   5.673 -1.0725 -0.4704 -1.6320
 4780TIP3    H214286   7.221  -0.013   5.675  0.6333 -0.4779  0.4537
 4781TIP3   OH214287   0.071   5.567   1.112  0.1238 -0.0687 -0.6448
 4781TIP3    H114288   0.068   5.580   1.207 -0.3015 -2.4933 -0.2728
 4781TIP3    H214289   0.160   5.537   1.095 -0.4235 -1.8192 -0.6344
 4782TIP3   OH214290   1.127   4.575   0.053 -0.3568  0.5331 -0.0951
 4782TIP3    H114291   1.083   4.658   0.071 -1.0177 -0.3134  2.7683
 4782TIP3    H214292   1.056   4.512   0.041  0.1376  0.2248 -1.6036
 4783TIP3   OH214293   3.875   1.373   5.483  0.2962  0.0657  0.3881
 4783TIP3    H114294   3.797   1.428   5.472  1.0160  1.0992  0.3025
 4783TIP3    H214295   3.905   1.391   5.572  0.5265 -0.1988  0.3656
 4784TIP3   OH214296   4.078   6.255   5.022  0.3486 -0.2408 -0.0800
 4784TIP3    H114297   4.154   6.221   5.069  0.3103  0.2527  0.3478
 4784TIP3    H214298   4.104   6.252   4.930 -0.3236 -3.1527 -0.2696
 4785TIP3   OH214299   8.150   3.286   5.880 -0.5225 -0.4775 -0.7824
 4785TIP3    H114300   8.243   3.307   5.891  0.4026 -4.3240 -0.0821
 4785TIP3    H214301   8.107   3.331   5.953  1.0569 -0.1983  0.0080
 4786TIP3   OH214302   5.570   0.059   5.857 -0.4049  0.4344  0.2942
 4786TIP3    H114303   5.586  -0.018   5.911 -0.0715  0.3227  0.0408
 4786TIP3    H214304   5.491   0.098   5.893 -0.7338 -0.1830  0.2490
 4787TIP3   OH214305   0.876   6.629   2.062  0.0987  0.1623 -0.1255
 4787TIP3    H114306   0.868   6.543   2.104 -0.7251 -0.2113 -0.9858
 4787TIP3    H214307   0.964   6.630   2.026 -0.2624 -0.8304 -1.1085
 4788TIP3   OH214308   5.573   3.306   5.561  0.4669  0.2275  0.2094
 4788TIP3    H114309   5.657   3.352   5.564  0.8677 -0.4096 -0.7171
 4788TIP3    H214310   5.596   3.213   5.567 -0.0028 -0.0605 -1.6370
 4789TIP3   OH214311   6.219   1.564   1.422 -0.2017  0.1636  0.5545
 4789TIP3    H114312   6.292   1.549   1.482  0.7957 -0.9733 -0.8901
 4789TIP3    H214313   6.177   1.479   1.413  0.0928  0.1501 -0.8834
 4790TIP3   OH214314   5.825   7.345   2.431  0.2275  0.3316 -0.1136
 4790TIP3    H114315   5.894   7.387   2.482 -0.8039 -1.1138  2.7270
 4790TIP3    H214316   5.871   7.294   2.365  1.8625 -0.0997  1.2874
 4791TIP3   OH214317   7.459   6.696   0.690 -0.6393  0.2671  0.5149
 4791TIP3    H114318   7.534   6.749   0.662 -1.5121  1.0684 -0.3625
 4791TIP3    H214319   7.421   6.746   0.762 -0.4324 -0.0522  0.8448
 4792TIP3   OH214320   4.479   4.751   6.293  0.3786  0.2965 -0.4971
 4792TIP3    H114321   4.557   4.764   6.348 -0.4553  3.0201  0.1795
 4792TIP3    H214322   4.504   4.787   6.208  0.5450 -0.8358 -0.9431
 4793TIP3   OH214323   0.440   0.233   1.929  0.1366 -0.0582  0.2715
 4793TIP3    H114324   0.399   0.284   1.859 -1.1893  0.6994  1.5506
 4793TIP3    H214325   0.533   0.232   1.906  0.6396  4.7257  1.1281
 4794TIP3   OH214326   7.571   0.448   0.884 -0.0300  0.0026  0.3053
 4794TIP3    H114327   7.655   0.425   0.922 -0.0578 -1.9124 -0.6470
 4794TIP3    H214328   7.576   0.417   0.793 -1.1451  1.4350 -0.2901
 4795TIP3   OH214329   1.484   6.511   3.714 -0.5720  0.0076  0.0757
 4795TIP3    H114330   1.428   6.443   3.677 -0.4667  0.8952 -1.8365
 4795TIP3    H214331   1.423   6.572   3.755 -0.7818 -0.3764  0.3462
 4796TIP3   OH214332   2.769   6.171   5.649  0.0575 -0.5731  0.1641
 4796TIP3    H114333   2.692   6.200   5.601 -0.1646 -1.2879  0.0694
 4796TIP3    H214334   2.843   6.197   5.594 -0.2099 -5.6228 -3.3220
 4797TIP3   OH214335   7.180   4.408   2.108 -0.1166 -0.2292  0.4326
 4797TIP3    H114336   7.106   4.349   2.117 -2.1337  1.7970 -1.5092
 4797TIP3    H214337   7.149   4.491   2.143  1.8768  0.2565  1.1591
 4798TIP3   OH214338   2.633   3.353   2.371  0.3435  0.2480  0.0406
 4798TIP3    H114339   2.551   3.384   2.409 -0.3649 -1.1305 -0.2903
 4798TIP3    H214340   2.676   3.306   2.443 -0.4498 -1.3499 -0.4837
 4799TIP3   OH214341   3.880   4.930   0.473  0.2333 -0.2227  0.1956
 4799TIP3    H114342   3.865   4.942   0.567  0.9801  0.3045  0.2611
 4799TIP3    H214343   3.831   5.000   0.432  1.0750  0.4469  0.2986
 4800TIP3   OH214344   4.246   0.166   0.316 -0.0509  0.1781  0.2074
 4800TIP3    H114345   4.243   0.251   0.361  1.0212  0.1258  0.3999
 4800TIP3    H214346   4.299   0.111   0.373  0.5624 -0.1614 -0.6776
 4801TIP3   OH214347   4.150   4.883   1.699  0.4907  0.2603  0.2985
 4801TIP3    H114348   4.179   4.970   1.674 -0.6122  0.4673 -0.3600
 4801TIP3    H214349   4.200   4.862   1.778  1.3945  1.1184 -0.0271
 4802TIP3   OH214350   3.089   4.003   0.877 -0.4797  0.6702  0.0819
 4802TIP3    H114351   3.069   4.035   0.789  0.9926  0.7780 -0.2287
 4802TIP3    H214352   3.146   3.927   0.863 -1.1216  0.0135  0.9224
 4803TIP3   OH214353   5.001   5.948   6.712 -0.2828  0.7881  0.0981
 4803TIP3    H114354   4.906   5.946   6.725 -0.1770 -0.7750  0.9506
 4803TIP3    H214355   5.033   6.010   6.778 -0.3933 -1.9851  3.0622
 4804TIP3   OH214356   6.805   2.730   2.551 -0.7737  0.1730  0.1726
 4804TIP3    H114357   6.754   2.798   2.593  0.7972  1.7630 -0.3763
 4804TIP3    H214358   6.863   2.777   2.491  0.2718 -1.6538 -0.3235
 4805TIP3   OH214359   2.734   3.407   0.542 -0.3523 -0.0807 -0.0482
 4805TIP3    H114360   2.809   3.390   0.485  1.0718  0.7477  1.5115
 4805TIP3    H214361   2.771   3.423   0.628 -2.2160  1.6701  0.5245
 4806TIP3   OH214362   2.295   6.363   0.287  0.2725  0.5481  0.3426
 4806TIP3    H114363   2.358   6.387   0.354  0.5472  1.4815 -0.2331
 4806TIP3    H214364   2.212   6.355   0.334  0.4548  1.2151  0.7857
 4807TIP3   OH214365   0.071   6.880   5.553  0.4411  0.4898 -0.8296
 4807TIP3    H114366   0.068   6.975   5.550  2.5304  0.5905 -2.9277
 4807TIP3    H214367   0.123   6.855   5.476  0.4677 -2.3135 -0.0291
 4808TIP3   OH214368   4.795   5.649   6.582 -0.0890 -0.2057  0.2850
 4808TIP3    H114369   4.786   5.675   6.490 -1.0082  1.5876  0.8274
 4808TIP3    H214370   4.714   5.681   6.624  0.6437 -0.3109  1.8477
 4809TIP3   OH214371   1.322   0.895   1.849 -0.2152  0.1959 -0.4337
 4809TIP3    H114372   1.314   0.868   1.758  1.6438 -1.3052 -0.2262
 4809TIP3    H214373   1.233   0.887   1.885 -0.8502  0.2159 -1.9301
 4810TIP3   OH214374   0.479   6.457   0.415 -0.1837 -0.1583 -0.0326
 4810TIP3    H114375   0.526   6.540   0.418 -0.9039  0.2393  2.2625
 4810TIP3    H214376   0.521   6.404   0.483 -1.0400 -0.9247 -0.0912
 4811TIP3   OH214377   4.557   0.954   2.266 -0.3821  0.0700 -0.5216
 4811TIP3    H114378   4.511   1.006   2.331 -1.1223 -2.0025  0.6984
 4811TIP3    H214379   4.647   0.987   2.267 -0.7963  1.2079  0.3122
 4812TIP3   OH214380   8.143   7.761   4.192  0.9241 -0.0059  0.3892
 4812TIP3    H114381   8.209   7.709   4.145  2.3149  0.9061  1.2519
 4812TIP3    H214382   8.190   7.797   4.266 -0.4772  1.0189  0.8155
 4813TIP3   OH214383   5.308   1.015   5.742  0.2819  0.0399  0.2429
 4813TIP3    H114384   5.340   1.096   5.782  0.5534 -0.7227  1.6534
 4813TIP3    H214385   5.387   0.968   5.716  0.1132  0.3898 -0.9563
 4814TIP3   OH214386   2.374   2.078   1.942 -0.3990 -0.6459  0.0282
 4814TIP3    H114387   2.371   2.167   1.978 -1.1066 -0.6342 -0.0415
 4814TIP3    H214388   2.337   2.087   1.854 -0.3565 -0.9859 -0.0250
 4815TIP3   OH214389   3.375   5.367   0.297  0.1727 -0.0230  0.8570
 4815TIP3    H114390   3.284   5.338   0.291  1.3693 -3.9401 -2.5597
 4815TIP3    H214391   3.396   5.400   0.210  2.0766  0.7757  1.5626
 4816TIP3   OH214392   2.639   7.818   2.931 -0.8750 -0.6346  0.2540
 4816TIP3    H114393   2.589   7.740   2.954  0.2996 -1.2379  0.8111
 4816TIP3    H214394   2.713   7.786   2.880 -0.5397  0.1357  0.2406
 4817TIP3   OH214395   2.835   0.246   1.992 -0.0975 -0.4101  0.4360
 4817TIP3    H114396   2.758   0.302   1.982 -1.6617 -2.2944  1.3079
 4817TIP3    H214397   2.897   0.299   2.043 -1.1601  0.8294  0.4833
 4818TIP3   OH214398   3.476   6.694   4.730 -0.2114  0.6622  0.2422
 4818TIP3    H114399   3.551   6.640   4.753 -0.1792  0.4039 -0.4428
 4818TIP3    H214400   3.438   6.651   4.654  1.1547  2.8241 -1.7918
 4819TIP3   OH214401   0.144   3.649   1.743  0.2357 -0.1808  0.2301
 4819TIP3    H114402   0.119   3.585   1.676  0.8519  0.8192 -0.9921
 4819TIP3    H214403   0.062   3.691   1.768 -0.0444 -0.7924  0.3452
 4820TIP3   OH214404   5.007   2.927   0.915 -0.3051  0.3686  0.0543
 4820TIP3    H114405   5.057   2.870   0.972  1.8506  2.0071 -0.0895
 4820TIP3    H214406   4.996   2.878   0.834  0.2762 -0.3599  0.4135
 4821TIP3   OH214407   3.142   3.397   4.488  0.0332 -0.2718  0.2683
 4821TIP3    H114408   3.210   3.338   4.520  0.4083  0.5222  0.9681
 4821TIP3    H214409   3.061   3.346   4.495  0.7135 -1.8822 -2.2493
 4822TIP3   OH214410   2.308   7.737   5.602 -0.1998  0.1771 -0.0068
 4822TIP3    H114411   2.213   7.750   5.598 -0.2120 -0.1999 -2.1784
 4822TIP3    H214412   2.326   7.719   5.694 -2.2938 -0.1691  0.3869
 4823TIP3   OH214413   5.298   3.003   4.046  0.4518 -0.1295  0.1458
 4823TIP3    H114414   5.326   2.978   4.134  1.6832  0.2216 -0.1264
 4823TIP3    H214415   5.275   3.096   4.054  0.0986 -0.2199  0.1973
 4824TIP3   OH214416   2.136   4.336   1.302  0.4122 -0.3096 -0.5027
 4824TIP3    H114417   2.106   4.245   1.309 -1.1727  0.2243  0.1748
 4824TIP3    H214418   2.085   4.372   1.229  1.7414 -0.2038 -1.4043
 4825TIP3   OH214419   4.158   2.974   4.849 -0.4193 -0.0265  0.1723
 4825TIP3    H114420   4.220   2.902   4.837 -0.0632  0.4167 -0.6287
 4825TIP3    H214421   4.158   3.021   4.766  1.1704  2.3540  1.4150
 4826TIP3   OH214422   7.804   0.862   2.823  0.2660 -0.0874 -0.0366
 4826TIP3    H114423   7.850   0.801   2.881  0.6784  0.2757  0.0206
 4826TIP3    H214424   7.873   0.905   2.774  0.1704  1.9199  1.4548
 4827TIP3   OH214425   4.369   7.410   1.886  0.2506  0.0395  0.1916
 4827TIP3    H114426   4.416   7.361   1.820 -0.5328 -0.4148 -0.0471
 4827TIP3    H214427   4.329   7.482   1.838 -0.6248 -0.5006  0.0837
 4828TIP3   OH214428   6.656   1.012   6.634 -0.2432  0.1826  0.6244
 4828TIP3    H114429   6.615   0.989   6.717 -1.0248  0.9303  0.4599
 4828TIP3    H214430   6.657   0.931   6.584 -2.4966  0.3352  0.2347
 4829TIP3   OH214431   6.978   0.500   0.552 -0.5219  0.0048 -0.1277
 4829TIP3    H114432   7.001   0.510   0.459  0.5852 -0.1041  0.1173
 4829TIP3    H214433   7.052   0.453   0.590 -0.1706  1.4982  1.1342
 4830TIP3   OH214434   5.407   0.339   1.876  0.0500 -0.0034  0.1108
 4830TIP3    H114435   5.499   0.325   1.900  0.1473  0.5126  0.0689
 4830TIP3    H214436   5.391   0.280   1.802  0.5773  0.4588 -0.3859
 4831TIP3   OH214437   3.838   6.306   4.651 -0.3453 -0.3235  0.1895
 4831TIP3    H114438   3.774   6.374   4.670 -0.1510  0.3288 -1.3580
 4831TIP3    H214439   3.787   6.225   4.645 -0.8533 -0.0011  0.1355
 4832TIP3   OH214440   7.901   0.166   4.424  0.3058 -0.0897 -0.0555
 4832TIP3    H114441   7.848   0.087   4.424 -1.7806  1.2237 -0.6382
 4832TIP3    H214442   7.850   0.230   4.474  1.8444  0.9493  0.2608
 4833TIP3   OH214443   3.287   4.139   6.249  0.0992  0.8078  0.2242
 4833TIP3    H114444   3.372   4.166   6.283 -1.0146  2.5641  1.8132
 4833TIP3    H214445   3.267   4.059   6.298  1.2423 -0.2130 -0.9104
 4834TIP3   OH214446   2.367   1.574   2.158  0.2676 -0.4632 -0.0971
 4834TIP3    H114447   2.348   1.481   2.173 -0.0606 -0.0662  2.2989
 4834TIP3    H214448   2.462   1.578   2.147  0.5162 -0.9222  1.5980
 4835TIP3   OH214449   0.147   2.300   1.742  0.2646 -0.2793  0.8799
 4835TIP3    H114450   0.167   2.263   1.656 -1.5313 -0.9070  0.6823
 4835TIP3    H214451   0.222   2.277   1.796  1.0470 -0.6060 -0.3070
 4836TIP3   OH214452   8.136   2.467   4.914 -0.4044 -0.1190 -0.9346
 4836TIP3    H114453   8.143   2.560   4.936 -0.2632  0.0572 -1.7083
 4836TIP3    H214454   8.052   2.441   4.951 -0.7071  0.4596 -1.1916
 4837TIP3   OH214455   2.991   0.903   1.298  0.0694 -0.3974  0.1737
 4837TIP3    H114456   2.987   0.961   1.222  2.3574 -2.4496 -1.6765
 4837TIP3    H214457   2.899   0.884   1.318 -0.6149 -0.0949 -2.3526
 4838TIP3   OH214458   3.301   3.918   4.060 -0.1166  0.6622  0.0021
 4838TIP3    H114459   3.321   4.000   4.105  0.9858  0.3241  0.1475
 4838TIP3    H214460   3.329   3.932   3.970 -0.0904  0.5026 -0.0153
 4839TIP3   OH214461   6.382   0.900   2.671 -0.2841  0.4892 -0.4399
 4839TIP3    H114462   6.393   0.805   2.681  0.0125  0.4755 -0.8945
 4839TIP3    H214463   6.340   0.927   2.753  0.4918  0.1075  0.1006
 4840TIP3   OH214464   2.126   0.554   6.181 -0.6288 -0.6464 -0.1833
 4840TIP3    H114465   2.042   0.594   6.161 -0.4093 -0.6763 -1.2287
 4840TIP3    H214466   2.175   0.557   6.098  1.0209  0.8282  0.7825
 4841TIP3   OH214467   1.190   4.213   0.729 -0.4594  0.0805  0.0403
 4841TIP3    H114468   1.155   4.159   0.800 -1.1153 -0.8810 -0.9751
 4841TIP3    H214469   1.113   4.256   0.692 -0.1866  0.1806 -0.4110
 4842TIP3   OH214470   2.974   2.615   1.851  0.2101 -0.0579 -0.1787
 4842TIP3    H114471   2.947   2.684   1.790 -0.1513  0.6368  0.7322
 4842TIP3    H214472   3.067   2.629   1.864  0.1249  0.3213  0.0542
 4843TIP3   OH214473   0.478   5.254   4.558  0.1973  0.1530  0.1936
 4843TIP3    H114474   0.567   5.223   4.574 -0.5019 -0.7783  2.7185
 4843TIP3    H214475   0.464   5.322   4.625 -1.4259 -0.6878  0.7571
 4844TIP3   OH214476   6.390   4.214   6.759 -0.1164 -0.0102 -0.7819
 4844TIP3    H114477   6.435   4.259   6.687  1.1173 -1.2535 -0.8228
 4844TIP3    H214478   6.460   4.182   6.815 -1.0469  0.2430  0.5639
 4845TIP3   OH214479   0.732   0.015   3.989  0.1277 -0.0562  0.5508
 4845TIP3    H114480   0.808  -0.024   3.946  0.4785  1.5865 -0.4320
 4845TIP3    H214481   0.766   0.047   4.073 -0.1808 -1.8248  1.3974
 4846TIP3   OH214482   7.026   4.688   1.190 -0.0586  0.5316  0.2143
 4846TIP3    H114483   6.992   4.698   1.102  0.8405 -0.4984 -0.2672
 4846TIP3    H214484   6.960   4.729   1.246 -2.4046 -1.8683 -0.6008
 4847TIP3   OH214485   7.192   6.000   0.290  0.6626 -0.1967  0.1016
 4847TIP3    H114486   7.148   5.924   0.253 -0.4424  0.5140 -0.0662
 4847TIP3    H214487   7.265   6.017   0.230  0.6705 -0.8610 -0.0858
 4848TIP3   OH214488   2.426   1.308   6.563  0.3750 -0.0934 -0.2044
 4848TIP3    H114489   2.433   1.387   6.509 -1.7158  0.2534 -0.0536
 4848TIP3    H214490   2.389   1.339   6.645 -1.8360 -1.3780 -0.6383
 4849TIP3   OH214491   6.058   6.401   1.107 -0.2084  0.1351 -0.1476
 4849TIP3    H114492   6.099   6.430   1.189  0.2148  0.6695 -0.5455
 4849TIP3    H214493   6.131   6.372   1.052 -0.6364 -2.5422  0.5183
 4850TIP3   OH214494   7.648   0.586   4.680 -0.3902  0.1805 -0.2262
 4850TIP3    H114495   7.690   0.659   4.727  0.2223 -0.5564  0.3993
 4850TIP3    H214496   7.668   0.509   4.734 -2.2591 -0.2478 -0.0977
 4851TIP3   OH214497   3.471   4.763   2.074 -0.5542 -0.3540 -0.3618
 4851TIP3    H114498   3.516   4.820   2.136  0.3256 -0.6392 -0.7352
 4851TIP3    H214499   3.444   4.687   2.126 -0.7355 -0.1223 -0.1130
 4852TIP3   OH214500   5.511   1.416   1.237  0.8213 -0.3812 -0.6077
 4852TIP3    H114501   5.529   1.458   1.321 -0.7194  0.1591 -0.5108
 4852TIP3    H214502   5.597   1.403   1.197  1.5728 -0.6292  1.0337
 4853TIP3   OH214503   3.194   6.730   0.086 -0.3048 -0.0458 -0.8439
 4853TIP3    H114504   3.110   6.722   0.130 -0.5753  1.4884 -1.0194
 4853TIP3    H214505   3.172   6.747  -0.005  0.2337 -1.4835 -1.2580
 4854TIP3   OH214506   2.751   6.283   1.360 -0.1275  0.0199  0.4155
 4854TIP3    H114507   2.678   6.244   1.408  0.2316  0.5117  1.4037
 4854TIP3    H214508   2.813   6.211   1.347 -0.4863 -0.2472  0.1724
 4855TIP3   OH214509   4.782   1.422   3.844  0.0397 -0.3188 -0.2232
 4855TIP3    H114510   4.712   1.443   3.905  1.0613 -0.0389  0.8891
 4855TIP3    H214511   4.808   1.333   3.866 -0.5818 -0.7700 -1.2600
 4856TIP3   OH214512   6.795   1.558   3.472  0.4909  0.5854  0.0309
 4856TIP3    H114513   6.863   1.495   3.496  0.2323  0.8501  1.5540
 4856TIP3    H214514   6.816   1.637   3.522 -0.0004  1.2345 -0.7570
 4857TIP3   OH214515   2.699   2.292   5.333  0.2122 -0.1406 -0.2338
 4857TIP3    H114516   2.676   2.347   5.258 -2.2074 -3.5581 -2.2991
 4857TIP3    H214517   2.630   2.310   5.398 -0.5952 -0.6771 -0.9203
 4858TIP3   OH214518   8.021   0.035   4.131  0.1985  0.4100  0.6284
 4858TIP3    H114519   7.929   0.014   4.144  0.3734 -0.5608  0.3648
 4858TIP3    H214520   8.064   0.005   4.211  0.6801 -1.7761 -0.3969
 4859TIP3   OH214521   6.498   4.205   3.938 -0.0791 -0.0855 -0.3290
 4859TIP3    H114522   6.493   4.198   4.034  2.2085  0.8904 -0.0803
 4859TIP3    H214523   6.485   4.298   3.921  2.0118  0.1726 -0.7162
 4860TIP3   OH214524   3.107   5.691   3.654 -0.1604 -0.8042  0.9928
 4860TIP3    H114525   3.118   5.601   3.684  2.8726 -0.3260  1.6471
 4860TIP3    H214526   3.150   5.694   3.569 -2.1431 -0.3983 -0.0549
 4861TIP3   OH214527   4.534   0.265   0.080  0.4368 -0.0486 -0.2054
 4861TIP3    H114528   4.597   0.218   0.025 -0.3187 -0.2350 -0.9389
 4861TIP3    H214529   4.455   0.270   0.026 -0.3441 -0.2628  0.8844
 4862TIP3   OH214530   7.814   5.009   2.017  0.2729  0.0789 -0.5298
 4862TIP3    H114531   7.777   5.030   2.103  0.6124 -0.9520 -0.1133
 4862TIP3    H214532   7.908   5.026   2.027  0.1876  0.8536 -0.9922
 4863TIP3   OH214533   6.563   4.350   6.558  0.1394 -0.3281  0.2221
 4863TIP3    H114534   6.560   4.444   6.539  0.9000 -0.1051  1.1407
 4863TIP3    H214535   6.653   4.334   6.586  0.0125 -1.3337  0.0853
 4864TIP3   OH214536   3.651   2.050   4.035  0.2937  0.7953 -0.1945
 4864TIP3    H114537   3.638   2.041   3.941  0.9597  0.7871 -0.2905
 4864TIP3    H214538   3.734   2.098   4.044  0.1638  0.9303  0.3846
 4865TIP3   OH214539   4.395   0.965   3.327  0.0725 -0.0348  0.6794
 4865TIP3    H114540   4.378   0.935   3.238  1.4063 -0.9190  0.7028
 4865TIP3    H214541   4.432   1.052   3.316 -1.6844  0.7348  0.5007
 4866TIP3   OH214542   4.462   6.709   3.278  0.5609 -0.0887 -0.1384
 4866TIP3    H114543   4.531   6.776   3.271  0.3203  0.2469  0.6250
 4866TIP3    H214544   4.385   6.757   3.308  0.2232 -0.6172 -0.1515
 4867TIP3   OH214545   2.898   7.625   0.374  0.0873  0.0873 -0.4784
 4867TIP3    H114546   2.879   7.542   0.331 -0.5943 -0.0594  0.0956
 4867TIP3    H214547   2.975   7.658   0.328  0.8167 -1.2118 -0.2505
 4868TIP3   OH214548   3.596   4.290   6.065  0.1583 -0.5034 -0.2755
 4868TIP3    H114549   3.564   4.378   6.044  0.8227 -0.4221 -1.0105
 4868TIP3    H214550   3.593   4.286   6.161 -0.8766 -0.0710 -0.2781
 4869TIP3   OH214551   4.226   2.165   3.968  0.5161  0.2155  0.3743
 4869TIP3    H114552   4.294   2.233   3.972 -0.7011  1.6180 -1.3119
 4869TIP3    H214553   4.266   2.092   3.921  1.0993  0.7228  0.0816
 4870TIP3   OH214554   5.018   3.828   5.853 -0.2582 -0.0223 -0.4356
 4870TIP3    H114555   4.931   3.851   5.886 -0.2019  0.8305 -0.8444
 4870TIP3    H214556   5.003   3.794   5.765 -0.3062 -1.2949  0.0442
 4871TIP3   OH214557   0.161   1.439   3.131 -0.1169 -0.2941  0.0981
 4871TIP3    H114558   0.228   1.506   3.147 -1.4812  0.8420  1.3948
 4871TIP3    H214559   0.211   1.358   3.119  1.4825  0.2927  2.0804
 4872TIP3   OH214560   6.122   4.736   0.935  0.5353 -1.2131 -0.1746
 4872TIP3    H114561   6.097   4.763   1.024 -0.9222 -1.6267 -0.4214
 4872TIP3    H214562   6.101   4.643   0.932 -2.6392 -0.6082 -1.9002
 4873TIP3   OH214563   5.462   6.083   4.883  0.0154 -0.0258 -0.6647
 4873TIP3    H114564   5.384   6.114   4.837 -0.5412 -1.0853 -0.4841
 4873TIP3    H214565   5.525   6.065   4.814 -0.5404 -0.8658 -0.9743
 4874TIP3   OH214566   5.601   3.796   6.445  0.0894 -0.4789 -0.6387
 4874TIP3    H114567   5.536   3.793   6.376 -2.1664 -1.0944  1.3740
 4874TIP3    H214568   5.648   3.879   6.431 -0.4968 -0.4630 -2.6745
 4875TIP3   OH214569   5.819   2.318   6.331 -0.3050 -0.9797 -0.6113
 4875TIP3    H114570   5.861   2.293   6.413  1.4525 -0.7909 -1.4040
 4875TIP3    H214571   5.850   2.254   6.267  0.5278  0.4130 -1.6728
 4876TIP3   OH214572   7.411   4.410   5.373  0.3067  0.9612 -0.1018
 4876TIP3    H114573   7.367   4.326   5.360 -0.5024  0.9493  2.2162
 4876TIP3    H214574   7.502   4.387   5.393  0.0290  0.6061  0.7785
 4877TIP3   OH214575   7.579   1.510   4.862 -0.5800 -0.1118 -0.3737
 4877TIP3    H114576   7.628   1.486   4.784 -0.4817  0.8077 -0.6074
 4877TIP3    H214577   7.605   1.601   4.880  1.9161 -1.2100  2.5889
 4878TIP3   OH214578   6.633   0.882   4.713  0.2039  0.3446  0.0532
 4878TIP3    H114579   6.617   0.787   4.715 -0.1362  0.4026  0.1096
 4878TIP3    H214580   6.578   0.916   4.784  2.0188  0.3279  1.5443
 4879TIP3   OH214581   0.724   5.138   4.629 -0.3822  0.3037 -0.0303
 4879TIP3    H114582   0.772   5.056   4.617 -0.0585  0.4925 -0.0380
 4879TIP3    H214583   0.710   5.144   4.723  0.5002  0.7454  0.0810
 4880TIP3   OH214584   1.775   1.545   6.009 -0.5645  0.0296 -0.3971
 4880TIP3    H114585   1.808   1.632   6.028 -1.0425  0.2232 -0.4387
 4880TIP3    H214586   1.730   1.518   6.089 -1.9574  0.5545 -0.9762
 4881TIP3   OH214587   7.978   7.696   3.301 -0.1591 -0.1748 -0.1845
 4881TIP3    H114588   7.941   7.765   3.246  1.2568  0.4894 -0.3278
 4881TIP3    H214589   7.902   7.648   3.333 -1.1711  1.5145  0.0226
 4882TIP3   OH214590   5.695   6.408   6.703 -0.4634 -0.1335  0.3046
 4882TIP3    H114591   5.611   6.452   6.688 -0.6211 -0.6942 -0.5252
 4882TIP3    H214592   5.744   6.421   6.621  0.6306  0.9733  1.1053
 4883TIP3   OH214593   3.171   4.113   5.217  0.1801 -0.0899 -0.4284
 4883TIP3    H114594   3.250   4.060   5.201 -0.8650 -1.6151 -0.7973
 4883TIP3    H214595   3.104   4.049   5.241 -0.5136  1.3474  1.7605
 4884TIP3   OH214596   0.870   1.500   0.134  0.3519 -0.0123  0.6273
 4884TIP3    H114597   0.917   1.432   0.181  0.9312 -0.7703 -0.9465
 4884TIP3    H214598   0.812   1.453   0.075 -2.9019  0.9026  2.8738
 4885TIP3   OH214599   5.836   2.832   0.096 -0.3988 -0.2795  0.2198
 4885TIP3    H114600   5.792   2.762   0.046 -0.8695 -2.2223  3.1098
 4885TIP3    H214601   5.903   2.786   0.147  0.6324  1.7240  0.7468
 4886TIP3   OH214602   0.997   4.851   5.998  0.5016  0.0434  0.1708
 4886TIP3    H114603   0.939   4.804   6.057  0.8756  0.1556  0.6365
 4886TIP3    H214604   1.037   4.919   6.053  2.4909 -1.1984  0.3403
 4887TIP3   OH214605   6.728   4.128   0.949  0.4914 -0.0458  0.0021
 4887TIP3    H114606   6.794   4.068   0.982  1.6151  1.9918  1.7063
 4887TIP3    H214607   6.713   4.190   1.021 -1.6113  0.9168 -1.1600
 4888TIP3   OH214608   4.288   5.054   4.033 -0.6577 -0.1503 -0.3843
 4888TIP3    H114609   4.295   4.981   4.093 -0.5326  1.0453  1.1234
 4888TIP3    H214610   4.198   5.086   4.044 -0.4447  0.4635 -0.3548
 4889TIP3   OH214611   1.668   7.763   6.088  0.3306 -0.6054  0.1693
 4889TIP3    H114612   1.675   7.676   6.126  1.5634  0.0717  1.6404
 4889TIP3    H214613   1.662   7.822   6.164 -0.2584  0.6013 -0.7761
 4890TIP3   OH214614   6.698   6.108   4.596 -0.3163  0.0550  0.9495
 4890TIP3    H114615   6.681   6.130   4.504  1.2470  0.3909  0.7201
 4890TIP3    H214616   6.741   6.186   4.632  2.4806 -1.3993  0.9642
 4891TIP3   OH214617   5.010   4.222   3.672  0.5544  0.1506 -0.6448
 4891TIP3    H114618   5.003   4.222   3.577  0.1750  2.6940 -0.6843
 4891TIP3    H214619   5.054   4.304   3.693  2.1169 -1.0928  1.3198
 4892TIP3   OH214620   3.950   7.570   3.341 -0.2285  0.4042 -0.3748
 4892TIP3    H114621   3.957   7.634   3.270  3.4015  1.4845  0.7147
 4892TIP3    H214622   3.972   7.487   3.300  0.8000  0.8457 -0.7626
 4893TIP3   OH214623   1.935   1.326   2.505  0.0714  0.1392 -0.4565
 4893TIP3    H114624   2.019   1.287   2.482 -0.3169 -1.2293  0.3369
 4893TIP3    H214625   1.880   1.311   2.428  0.0115 -0.6355 -0.2646
 4894TIP3   OH214626   8.206   0.585   1.868  0.6738 -0.5739 -0.1514
 4894TIP3    H114627   8.178   0.503   1.826 -0.6157 -0.2642  0.0478
 4894TIP3    H214628   8.181   0.573   1.960  0.7073 -0.0537 -0.0750
 4895TIP3   OH214629   6.130   3.327   5.552  0.6924 -0.3081 -0.4286
 4895TIP3    H114630   6.112   3.374   5.634  0.3499  0.4892 -0.9535
 4895TIP3    H214631   6.180   3.250   5.580 -2.1212 -1.8107  0.9399
 4896TIP3   OH214632   6.840   0.366   3.275 -0.1317 -0.2295 -0.3732
 4896TIP3    H114633   6.883   0.289   3.311 -0.5485 -0.0400  0.5640
 4896TIP3    H214634   6.889   0.386   3.195  0.5609 -0.9111 -0.1298
 4897TIP3   OH214635   1.417   7.244   3.755  0.0700 -0.3762 -0.6261
 4897TIP3    H114636   1.494   7.186   3.752  0.5211  0.1306  0.4101
 4897TIP3    H214637   1.360   7.204   3.820 -0.5471 -0.7414 -1.3853
 4898TIP3   OH214638   2.259   7.300   1.699  0.3561 -0.0027 -0.1559
 4898TIP3    H114639   2.257   7.243   1.776  0.3228 -0.5947 -0.5854
 4898TIP3    H214640   2.173   7.288   1.659  1.1573 -1.5076 -1.5577
 4899TIP3   OH214641   6.643   2.440   4.955 -0.2597 -0.1588  0.6059
 4899TIP3    H114642   6.650   2.489   4.872  1.9387 -0.9188  0.2681
 4899TIP3    H214643   6.714   2.475   5.009 -1.4545  0.0775  2.0691
 4900TIP3   OH214644   1.146   0.378   3.202  0.5147 -0.2350  0.2385
 4900TIP3    H114645   1.075   0.315   3.215  0.5322 -0.2049  0.4813
 4900TIP3    H214646   1.190   0.382   3.286  0.5239  0.0895  0.2197
 4901TIP3   OH214647   5.626   4.841   3.995 -0.0317  0.0016  0.0752
 4901TIP3    H114648   5.605   4.765   3.941  0.6379  0.4729 -0.8771
 4901TIP3    H214649   5.598   4.916   3.943  1.3872  0.5031 -0.0231
 4902TIP3   OH214650   1.194   3.475   5.530  0.5963  0.2108  0.7499
 4902TIP3    H114651   1.283   3.451   5.503 -0.2326 -0.8263 -1.2815
 4902TIP3    H214652   1.171   3.549   5.473 -0.1835 -0.1662  0.5648
 4903TIP3   OH214653   5.154   0.858   2.905  0.6243 -0.2476  0.2295
 4903TIP3    H114654   5.196   0.944   2.894  0.0732 -0.0629 -0.5595
 4903TIP3    H214655   5.083   0.874   2.966  0.7329 -0.2233  0.3513
 4904TIP3   OH214656   6.923   6.088   0.850 -0.0591  0.3597 -0.0937
 4904TIP3    H114657   6.982   6.052   0.784  3.1132 -1.3306  3.2842
 4904TIP3    H214658   6.846   6.030   0.847  1.2663 -1.4829 -0.4340
 4905TIP3   OH214659   7.184   5.414   4.063  0.0143  0.2921  0.8671
 4905TIP3    H114660   7.121   5.343   4.053  1.0169 -0.7126  1.3762
 4905TIP3    H214661   7.154   5.461   4.141 -0.0495 -0.2573  1.1846
 4906TIP3   OH214662   1.722   7.528   3.502 -0.1585 -0.1925  0.1834
 4906TIP3    H114663   1.792   7.472   3.468  0.1135  0.5148 -0.4427
 4906TIP3    H214664   1.641   7.485   3.474  0.0526 -0.0152 -0.7064
 4907TIP3   OH214665   4.842   3.622   0.279  0.6660  0.2471  0.8866
 4907TIP3    H114666   4.761   3.587   0.242  0.9898 -0.0746  0.4762
 4907TIP3    H214667   4.841   3.594   0.370  0.4052  0.0887  0.8371
 4908TIP3   OH214668   2.267   1.339   3.365 -0.1887 -0.5449  0.1095
 4908TIP3    H114669   2.277   1.419   3.313 -2.1346 -0.3077  0.0252
 4908TIP3    H214670   2.326   1.351   3.440 -1.0177  1.3627  0.5212
 4909TIP3   OH214671   5.713   7.802   5.542 -0.1243 -0.6088 -0.4975
 4909TIP3    H114672   5.798   7.798   5.499 -0.9255 -2.1990 -2.0916
 4909TIP3    H214673   5.730   7.777   5.633  1.2981  0.5677 -0.4133
 4910TIP3   OH214674   2.432   2.687   1.226 -0.2356 -0.6912  0.1285
 4910TIP3    H114675   2.525   2.665   1.223 -0.0606 -0.2801  1.6600
 4910TIP3    H214676   2.419   2.747   1.153  0.5883 -1.1177 -0.3907
 4911TIP3   OH214677   0.332   0.832   1.003  0.0161 -0.4286 -0.3627
 4911TIP3    H114678   0.246   0.834   0.961  0.1370 -0.6670 -0.6232
 4911TIP3    H214679   0.347   0.740   1.021  0.8207 -0.5415 -1.5643
 4912TIP3   OH214680   1.812   7.410   5.511 -0.2042 -0.0963  0.0592
 4912TIP3    H114681   1.750   7.339   5.497  0.0066  0.1177 -2.4161
 4912TIP3    H214682   1.773   7.485   5.466 -0.1533  1.2534  2.1286
 4913TIP3   OH214683   0.783   0.033   6.797 -0.2526 -0.1377  0.3221
 4913TIP3    H114684   0.709   0.090   6.777 -0.6471 -1.1558 -1.2790
 4913TIP3    H214685   0.848   0.052   6.729  0.4712 -0.1339  0.9944
 4914TIP3   OH214686   4.935   5.140   0.655 -0.0435  0.2475 -0.2146
 4914TIP3    H114687   4.967   5.154   0.566 -0.3306  0.1732 -0.3322
 4914TIP3    H214688   4.974   5.211   0.706  0.6360 -0.0790 -0.2663
 4915TIP3   OH214689   7.530   2.719   5.577 -0.0223  0.2872  0.4560
 4915TIP3    H114690   7.604   2.768   5.614 -0.0817 -0.1994  1.2181
 4915TIP3    H214691   7.484   2.784   5.523  1.5207  0.3496 -0.8550
 4916TIP3   OH214692   4.558   5.291   1.106 -0.3215 -0.5870 -0.6691
 4916TIP3    H114693   4.509   5.212   1.130 -0.0010 -0.5208  0.2403
 4916TIP3    H214694   4.643   5.280   1.149 -0.9807  1.1906  1.2626
 4917TIP3   OH214695   0.576   3.512   4.817 -0.3606 -0.6779  0.0988
 4917TIP3    H114696   0.615   3.447   4.759  2.1318  0.0438  0.8431
 4917TIP3    H214697   0.581   3.594   4.769 -2.5635 -0.7761 -0.4278
 4918TIP3   OH214698   4.578   3.972   0.358 -0.0036  0.3488 -0.4053
 4918TIP3    H114699   4.634   3.927   0.295 -0.0807  0.9062 -0.8792
 4918TIP3    H214700   4.534   4.040   0.307  0.7848  1.5439  0.4744
 4919TIP3   OH214701   4.154   4.873   0.487 -0.4181 -0.3529  0.2721
 4919TIP3    H114702   4.115   4.786   0.476 -1.2809  0.1253 -0.7099
 4919TIP3    H214703   4.079   4.933   0.481  0.4194  0.5899 -1.4644
 4920TIP3   OH214704   0.511   5.523   3.243  0.5019 -0.1643  0.8826
 4920TIP3    H114705   0.560   5.456   3.195 -0.2233 -0.3193  0.3364
 4920TIP3    H214706   0.557   5.605   3.224 -0.3491 -0.0604 -0.9572
 4921TIP3   OH214707   3.646   5.071   0.543  0.1271  0.5173 -0.3775
 4921TIP3    H114708   3.720   5.040   0.594 -0.2597  0.2824  0.0489
 4921TIP3    H214709   3.590   4.994   0.533 -0.9228  1.0940  0.8363
 4922TIP3   OH214710   6.459   2.569   5.431 -0.0010  0.2962  0.4181
 4922TIP3    H114711   6.369   2.591   5.409  0.1070  0.8698  0.5308
 4922TIP3    H214712   6.463   2.473   5.426 -0.2882  0.3364 -0.8484
 4923TIP3   OH214713   5.031   0.997   5.778 -0.0449 -0.1096 -0.0622
 4923TIP3    H114714   5.017   1.056   5.851  2.7947 -0.5791  1.0150
 4923TIP3    H214715   5.126   1.000   5.762 -0.0964 -2.5998 -1.4646
 4924TIP3   OH214716   3.711   6.884   2.178 -0.0293 -0.0329  0.1002
 4924TIP3    H114717   3.764   6.869   2.100 -0.8964 -0.6015 -0.3963
 4924TIP3    H214718   3.684   6.975   2.172 -0.7584 -0.2916 -0.6994
 4925TIP3   OH214719   4.861   4.852   4.073 -0.6276 -0.3514  0.4102
 4925TIP3    H114720   4.848   4.857   4.168 -0.5792  2.0272  0.3472
 4925TIP3    H214721   4.774   4.833   4.037 -0.8576 -0.1966  0.8793
 4926TIP3   OH214722   3.286   3.987   0.516 -0.4979  0.1323  0.0794
 4926TIP3    H114723   3.203   3.959   0.556 -1.3936  1.3580 -0.8364
 4926TIP3    H214724   3.301   3.924   0.446 -1.1943  0.4830 -0.3919
 4927TIP3   OH214725   0.557   3.145   5.651  0.5941 -0.4208 -0.2031
 4927TIP3    H114726   0.613   3.146   5.729  1.2390 -1.3288 -0.6374
 4927TIP3    H214727   0.617   3.161   5.578  0.2085 -0.8740 -0.6260
 4928TIP3   OH214728   2.557   6.828   1.713 -0.6707  0.1091 -0.3897
 4928TIP3    H114729   2.605   6.747   1.698  0.1778  0.5266  0.0298
 4928TIP3    H214730   2.607   6.895   1.667  0.4810  0.9504  1.9250
 4929TIP3   OH214731   4.541   2.873   4.454 -0.1007  0.0964 -0.7894
 4929TIP3    H114732   4.635   2.853   4.456 -0.3621 -1.6834  3.5994
 4929TIP3    H214733   4.537   2.967   4.471  0.9159 -0.1030  0.7338
 4930TIP3   OH214734   3.110   5.927   5.176 -0.0813 -0.4879 -0.2304
 4930TIP3    H114735   3.200   5.899   5.158  1.0005  1.6907  1.3402
 4930TIP3    H214736   3.115   5.974   5.259 -2.6328 -0.0110 -0.2621
 4931TIP3   OH214737   1.634   3.083   6.499 -0.0849  0.2042 -0.3892
 4931TIP3    H114738   1.639   3.041   6.585 -0.3820  0.1767 -0.3852
 4931TIP3    H214739   1.717   3.061   6.458  0.4460  0.9769  0.2336
 4932TIP3   OH214740   4.863   0.059   3.515 -0.2213  0.4821 -0.8151
 4932TIP3    H114741   4.849   0.027   3.426 -0.6220  2.5704 -1.5390
 4932TIP3    H214742   4.843  -0.017   3.570  0.0441 -0.8530 -2.4775
 4933TIP3   OH214743   3.240   5.193   6.577  0.1113  0.2817 -0.4963
 4933TIP3    H114744   3.148   5.181   6.553  0.0259  1.0567 -0.6020
 4933TIP3    H214745   3.265   5.276   6.535  1.0381 -0.2289 -0.9765
 4934TIP3   OH214746   2.780   2.976   6.539  0.6114 -0.4097 -0.0766
 4934TIP3    H114747   2.717   2.992   6.469  0.5042  0.0139  0.1126
 4934TIP3    H214748   2.759   3.042   6.605  0.6444 -0.8737  0.3985
 4935TIP3   OH214749   5.361   6.875   6.642 -0.2578 -0.1226  0.2606
 4935TIP3    H114750   5.398   6.957   6.674  1.5920 -1.5909  2.1289
 4935TIP3    H214751   5.407   6.858   6.560  0.2364  0.1050  0.4880
 4936TIP3   OH214752   0.091   4.180   2.698  0.5489  0.4531  0.3267
 4936TIP3    H114753   0.105   4.273   2.715  1.5754  0.1967  0.9476
 4936TIP3    H214754   0.098   4.172   2.603 -0.4557  1.1444  0.1818
 4937TIP3   OH214755   7.648   6.904   4.672 -0.1316  0.1567 -0.4750
 4937TIP3    H114756   7.653   6.986   4.623 -2.3491 -0.9576 -2.7682
 4937TIP3    H214757   7.634   6.837   4.606 -3.5898 -1.4563  1.5963
 4938TIP3   OH214758   6.750   0.154   5.916 -0.5167 -0.5486  0.1365
 4938TIP3    H114759   6.672   0.141   5.969 -0.7666  0.1948 -0.0343
 4938TIP3    H214760   6.763   0.249   5.916  1.3649 -0.7475  1.5611
 4939TIP3   OH214761   5.324   6.722   0.620  0.1090 -0.2002  0.1023
 4939TIP3    H114762   5.234   6.727   0.587 -0.6344  0.8976  2.1205
 4939TIP3    H214763   5.373   6.784   0.566 -0.0691 -1.5276 -1.6744
 4940TIP3   OH214764   8.160   2.737   3.890  0.1936  0.1316 -0.2591
 4940TIP3    H114765   8.126   2.734   3.979  1.1524  0.9984  0.1549
 4940TIP3    H214766   8.093   2.784   3.840 -0.2063 -0.0929  0.0579
 4941TIP3   OH214767   4.318   4.763   3.225  0.4099  0.4585 -0.1724
 4941TIP3    H114768   4.406   4.727   3.225  0.7544  1.2786  0.5123
 4941TIP3    H214769   4.268   4.705   3.167  1.3556 -0.0962 -0.4437
 4942TIP3   OH214770   1.680   6.848   2.296  0.4043  0.3435 -0.1227
 4942TIP3    H114771   1.661   6.941   2.302  0.3155  0.2487  1.2147
 4942TIP3    H214772   1.691   6.832   2.202  1.3641  1.8667 -0.2905
 4943TIP3   OH214773   2.182   0.974   2.652  0.0610 -0.2754 -0.1024
 4943TIP3    H114774   2.139   1.011   2.729 -1.0959  0.1454 -0.9316
 4943TIP3    H214775   2.169   0.879   2.661 -1.0096 -0.1559 -0.3186
 4944TIP3   OH214776   5.803   2.842   5.080  0.4604 -0.1026  0.2062
 4944TIP3    H114777   5.749   2.843   5.159  0.8537  2.6765  0.5185
 4944TIP3    H214778   5.764   2.908   5.023  1.5198 -0.4838 -1.0172
 4945TIP3   OH214779   4.932   0.727   1.013  0.1304  0.4464  0.8382
 4945TIP3    H114780   4.910   0.639   0.983 -1.5720  0.5851  1.5462
 4945TIP3    H214781   5.024   0.738   0.990 -0.0294 -0.9362 -0.6459
 4946TIP3   OH214782   7.687   3.087   5.815  0.4204 -0.5335  0.1488
 4946TIP3    H114783   7.623   3.061   5.881 -0.3524  0.5252 -0.1518
 4946TIP3    H214784   7.711   3.005   5.771 -0.0913 -1.0570  0.8304
 4947TIP3   OH214785   3.196   7.396   0.111 -0.0392 -0.1459  0.0958
 4947TIP3    H114786   3.291   7.402   0.118  0.1670 -2.2498 -0.2274
 4947TIP3    H214787   3.168   7.357   0.194 -0.4625 -0.6874 -0.2920
 4948TIP3   OH214788   4.689   5.637   0.301 -0.7951 -0.3386 -0.1521
 4948TIP3    H114789   4.737   5.695   0.361  0.1496 -1.7001  0.4433
 4948TIP3    H214790   4.716   5.549   0.325 -1.5919 -1.0108 -1.5758
 4949TIP3   OH214791   0.433   3.960   4.812  0.1135  0.5823  0.5469
 4949TIP3    H114792   0.497   4.032   4.807  0.2925  0.4046  0.1994
 4949TIP3    H214793   0.366   3.992   4.872  0.1905  1.0412  0.3978
 4950TIP3   OH214794   3.281   1.209   2.558  0.1983  0.0026  0.4543
 4950TIP3    H114795   3.315   1.287   2.601 -1.1686  0.7466  0.2407
 4950TIP3    H214796   3.189   1.206   2.584  0.1267 -1.2955  0.0986
 4951TIP3   OH214797   1.449   6.017   0.853 -0.2459  0.0288  0.1807
 4951TIP3    H114798   1.501   6.089   0.888 -1.4859  0.3655  1.4365
 4951TIP3    H214799   1.380   6.060   0.802 -0.7184 -0.2744  0.5511
 4952TIP3   OH214800   6.840   7.038   6.531 -0.0324  0.3149  0.4904
 4952TIP3    H114801   6.825   7.092   6.608 -0.2886 -0.1309  0.7584
 4952TIP3    H214802   6.752   7.021   6.496 -0.0591 -0.9290  1.1094
 4953TIP3   OH214803   5.737   0.239   4.678 -0.5500 -0.4782 -0.1585
 4953TIP3    H114804   5.698   0.241   4.590 -2.1008 -0.8156  0.4927
 4953TIP3    H214805   5.788   0.157   4.679  0.5460  0.1621 -1.1520
 4954TIP3   OH214806   3.332   7.693   4.597  0.6196 -0.0641  0.0938
 4954TIP3    H114807   3.408   7.634   4.602  0.9157  0.2785 -0.3545
 4954TIP3    H214808   3.298   7.681   4.509 -1.3873 -2.1021  1.0542
 4955TIP3   OH214809   2.649   0.711   1.109 -0.3112  0.4414  1.0765
 4955TIP3    H114810   2.734   0.673   1.132 -0.2213  0.4830  0.8193
 4955TIP3    H214811   2.603   0.641   1.062  0.6799  1.2808 -1.3166
 4956TIP3   OH214812   4.319   6.531   5.431  0.5071 -0.5367 -0.0788
 4956TIP3    H114813   4.232   6.506   5.464  0.0906  1.5337  0.4989
 4956TIP3    H214814   4.373   6.453   5.446 -0.7287 -1.1459  1.5505
 4957TIP3   OH214815   1.864   4.670   5.968  0.2405  0.5631  0.2404
 4957TIP3    H114816   1.790   4.702   6.019  0.2657 -0.5078  0.9841
 4957TIP3    H214817   1.825   4.620   5.897  0.2018 -1.0827  1.3443
 4958TIP3   OH214818   5.634   3.239   1.894 -0.3762  0.4062  0.2425
 4958TIP3    H114819   5.628   3.323   1.939  1.6457  0.9573 -0.3953
 4958TIP3    H214820   5.669   3.260   1.808 -1.1718 -0.9604 -0.4479
 4959TIP3   OH214821   3.993   4.303   0.713  0.9222  0.6112  0.0686
 4959TIP3    H114822   3.898   4.314   0.707  0.9610  0.9602  0.1039
 4959TIP3    H214823   4.027   4.342   0.632  1.0213  0.2680 -0.0602
 4960TIP3   OH214824   0.601   0.277   2.836  0.2188  0.0289  0.1490
 4960TIP3    H114825   0.634   0.359   2.872 -0.1267 -0.3469  1.3644
 4960TIP3    H214826   0.564   0.301   2.751 -0.2989  1.2276  0.6869
 4961TIP3   OH214827   5.571   5.773   4.073  0.2082 -0.3136 -0.0392
 4961TIP3    H114828   5.621   5.823   4.009 -0.5977  2.6043  1.4718
 4961TIP3    H214829   5.487   5.755   4.030  0.0893  0.6231 -0.2082
 4962TIP3   OH214830   3.656   4.554   6.092  0.5458 -0.3433 -0.2829
 4962TIP3    H114831   3.681   4.595   6.175  1.0678 -1.4133  0.1094
 4962TIP3    H214832   3.711   4.476   6.087  0.8410 -0.0573 -1.8682
 4963TIP3   OH214833   6.404   5.931   0.563 -0.4912  0.2656 -0.3035
 4963TIP3    H114834   6.354   5.878   0.500 -1.9252  1.9499 -0.6673
 4963TIP3    H214835   6.341   5.952   0.631 -0.4189  2.6869 -0.9045
 4964TIP3   OH214836   2.497   5.427   0.540 -0.2916 -0.2667  0.1116
 4964TIP3    H114837   2.433   5.489   0.575 -1.1927 -0.7103 -0.7023
 4964TIP3    H214838   2.570   5.431   0.602 -0.8731  0.6461  0.7741
 4965TIP3   OH214839   7.507   2.917   1.208 -0.3419  0.6317  0.2012
 4965TIP3    H114840   7.581   2.967   1.241  0.0812  0.4548 -0.4608
 4965TIP3    H214841   7.528   2.900   1.117 -1.2493  0.6636 -0.0235
 4966TIP3   OH214842   5.791   0.579   5.104 -0.2434  0.1068  0.3102
 4966TIP3    H114843   5.718   0.520   5.125 -0.9426  0.5301 -0.8099
 4966TIP3    H214844   5.802   0.633   5.182  0.1925 -1.2625  1.2297
 4967TIP3   OH214845   4.691   1.350   2.111  0.0883 -0.3075 -0.1209
 4967TIP3    H114846   4.714   1.426   2.059  0.1030 -0.0005  0.3315
 4967TIP3    H214847   4.742   1.278   2.072  1.7170  0.3192  0.7684
 4968TIP3   OH214848   2.361   3.525   0.930  0.1109 -0.1227 -0.1066
 4968TIP3    H114849   2.417   3.484   0.864  1.6328 -1.2516  1.7683
 4968TIP3    H214850   2.275   3.486   0.917  0.3077 -0.1358 -1.5478
 4969TIP3   OH214851   6.505   0.363   3.280 -0.3697 -0.4450 -0.0280
 4969TIP3    H114852   6.480   0.374   3.371 -0.6932  1.7486 -0.3296
 4969TIP3    H214853   6.600   0.377   3.279 -0.5533  0.8876 -0.1863
 4970TIP3   OH214854   3.253   4.835   5.891  0.4941 -0.3125 -0.5864
 4970TIP3    H114855   3.167   4.873   5.873  0.1390 -1.0996 -0.5895
 4970TIP3    H214856   3.271   4.780   5.815  0.7060 -0.6584 -0.2883
 4971TIP3   OH214857   6.909   7.042   5.450 -0.4264  0.0309  0.0033
 4971TIP3    H114858   6.926   7.043   5.356  0.8903 -2.2980  0.1438
 4971TIP3    H214859   6.956   7.118   5.484 -0.3862  0.5320 -1.1440
 4972TIP3   OH214860   5.391   6.314   0.471  0.0615  0.5485 -0.2186
 4972TIP3    H114861   5.455   6.245   0.454  0.1426  0.8539 -1.2298
 4972TIP3    H214862   5.443   6.386   0.507 -0.0973 -0.0701  1.3323
 4973TIP3   OH214863   1.153   6.200   0.418 -0.3001  0.0580 -0.0840
 4973TIP3    H114864   1.103   6.130   0.377  0.3675 -0.6388  0.2742
 4973TIP3    H214865   1.245   6.179   0.399 -0.0035 -0.0266  1.3472
 4974TIP3   OH214866   0.988   1.400   0.802 -0.1096  0.0092 -0.5086
 4974TIP3    H114867   0.931   1.348   0.745 -0.7999 -0.3996  0.5282
 4974TIP3    H214868   0.980   1.359   0.887  2.9469 -1.0127 -0.6167
 4975TIP3   OH214869   2.291   5.752   5.512 -0.2107  0.5721 -0.0114
 4975TIP3    H114870   2.349   5.799   5.573  1.9816 -0.4524 -1.1713
 4975TIP3    H214871   2.243   5.821   5.466  1.9332  1.6860 -0.7183
 4976TIP3   OH214872   7.500   7.190   4.329 -0.1611  0.1997 -0.6580
 4976TIP3    H114873   7.568   7.196   4.396 -2.5537  0.7545  1.9337
 4976TIP3    H214874   7.522   7.259   4.266  1.7629  0.2001 -0.0423
 4977TIP3   OH214875   3.772   1.800   5.358 -0.3101 -0.2975  0.3323
 4977TIP3    H114876   3.775   1.896   5.357  1.4317 -0.3252 -0.5352
 4977TIP3    H214877   3.679   1.779   5.352 -0.6849  1.3318 -0.0562
 4978TIP3   OH214878   6.754   5.109   0.455  0.0459 -0.7659 -0.0297
 4978TIP3    H114879   6.670   5.114   0.500  0.1773 -1.3543  0.2994
 4978TIP3    H214880   6.743   5.162   0.376  0.0414  0.9301  1.0454
 4979TIP3   OH214881   6.523   1.462   5.378 -0.0313  0.4297  0.3735
 4979TIP3    H114882   6.436   1.491   5.351 -0.3990  0.3186  1.4205
 4979TIP3    H214883   6.528   1.372   5.345 -0.5394  0.2368  0.8104
 4980TIP3   OH214884   5.840   7.810   1.549 -0.1129 -0.1278  0.0594
 4980TIP3    H114885   5.842   7.745   1.479 -2.1577  0.1054 -0.3006
 4980TIP3    H214886   5.889   7.885   1.514 -0.2870 -0.3814 -0.7470
 4981TIP3   OH214887   3.312   5.411   6.448  0.4820  0.5598 -0.1895
 4981TIP3    H114888   3.334   5.372   6.364  1.6094 -1.7327  1.0783
 4981TIP3    H214889   3.372   5.485   6.457  0.0976  1.0481 -1.5357
 4982TIP3   OH214890   6.730   3.691   6.730 -0.1065 -0.5764 -0.3312
 4982TIP3    H114891   6.658   3.750   6.751 -0.8084 -1.3324 -0.5455
 4982TIP3    H214892   6.737   3.635   6.808  0.5258 -0.2493 -0.1451
 4983TIP3   OH214893   7.659   0.248   1.286  0.3568 -0.3071 -0.1810
 4983TIP3    H114894   7.599   0.178   1.313 -1.9993  1.0361 -1.6039
 4983TIP3    H214895   7.610   0.328   1.301  0.2187  0.7267 -4.8375
 4984TIP3   OH214896   2.838   7.404   5.391  0.1672  0.4996  0.4301
 4984TIP3    H114897   2.799   7.393   5.478 -1.4014  0.5983 -0.2335
 4984TIP3    H214898   2.859   7.497   5.386 -3.3172  1.3982 -0.6443
 4985TIP3   OH214899   1.102   5.089   6.429  0.3559  0.0375  0.5160
 4985TIP3    H114900   1.193   5.075   6.455  0.1358  0.8609  1.8422
 4985TIP3    H214901   1.104   5.089   6.333  1.9353  1.1428  0.5103
 4986TIP3   OH214902   1.119   2.548   3.911  1.1286 -0.3242 -0.6886
 4986TIP3    H114903   1.121   2.636   3.872 -1.0942  0.5215  0.8754
 4986TIP3    H214904   1.115   2.564   4.006 -0.7886 -2.0108 -0.4100
 4987TIP3   OH214905   2.142   0.444   1.277 -0.0549  0.1418 -0.3683
 4987TIP3    H114906   2.064   0.481   1.236 -0.5901  0.1825  0.6350
 4987TIP3    H214907   2.147   0.488   1.362  0.8169 -0.1745 -0.2453
 4988TIP3   OH214908   1.436   3.157   1.648 -0.2743  0.0296 -1.0828
 4988TIP3    H114909   1.446   3.173   1.554  0.5011  1.2774 -0.7948
 4988TIP3    H214910   1.371   3.221   1.677 -0.7863 -0.5903 -0.8147
 4989TIP3   OH214911   1.540   7.721   1.606  0.4534  0.3823  0.1846
 4989TIP3    H114912   1.508   7.794   1.659  0.5288  0.2244  0.4481
 4989TIP3    H214913   1.503   7.737   1.519 -0.7368 -0.0431  0.5912
 4990TIP3   OH214914   0.056   1.944   6.269  0.2239 -0.2153 -0.5598
 4990TIP3    H114915  -0.039   1.932   6.269  0.3220 -1.0734 -0.1124
 4990TIP3    H214916   0.069   2.037   6.249 -0.6984 -0.1466 -0.8641
 4991TIP3   OH214917   2.345   1.266   5.865  0.0880 -0.1011  0.2677
 4991TIP3    H114918   2.278   1.269   5.797 -0.4340  1.3806  0.7972
 4991TIP3    H214919   2.295   1.256   5.947  0.7164 -2.0892  0.4488
 4992TIP3   OH214920   5.886   6.659   3.345  0.0511  0.1891 -0.1660
 4992TIP3    H114921   5.955   6.632   3.406 -0.5479 -1.6265 -0.2188
 4992TIP3    H214922   5.915   6.628   3.260 -0.0685  0.8854 -0.4647
 4993TIP3   OH214923   6.048   0.220   4.298 -0.3057 -0.1491 -0.0178
 4993TIP3    H114924   6.104   0.265   4.362 -2.1773  1.0791  0.8454
 4993TIP3    H214925   6.056   0.127   4.321 -0.9452  0.2554  2.0952
 4994TIP3   OH214926   0.980   1.671   4.498 -0.1071 -0.0476  0.3029
 4994TIP3    H114927   0.887   1.656   4.481 -0.6138  2.6513  0.3672
 4994TIP3    H214928   1.007   1.735   4.432  1.1984  0.7064  1.5193
 4995TIP3   OH214929   0.502   2.238   5.445  0.2777 -0.3641  0.5983
 4995TIP3    H114930   0.557   2.301   5.492  2.6418 -1.7805 -0.0978
 4995TIP3    H214931   0.507   2.158   5.497  0.1256 -0.9657 -0.2895
 4996TIP3   OH214932   6.948   1.244   1.094  0.0041 -0.5571  0.2392
 4996TIP3    H114933   6.874   1.271   1.039  0.7623 -0.5067 -0.8030
 4996TIP3    H214934   7.008   1.200   1.033  0.7751 -0.7060  1.0790
 4997TIP3   OH214935   3.028   2.224   0.981  0.2019 -0.2046 -0.2325
 4997TIP3    H114936   3.054   2.138   1.013  2.0366  0.6945  0.8934
 4997TIP3    H214937   2.938   2.235   1.012 -0.2902 -1.9156 -0.9207
 4998TIP3   OH214938   1.151   2.124   1.387 -0.1068  0.3828  0.4654
 4998TIP3    H114939   1.138   2.031   1.369 -0.6478  0.1251  2.0430
 4998TIP3    H214940   1.102   2.169   1.318 -0.6726 -0.5112  0.2670
 4999TIP3   OH214941   6.304   2.585   4.701 -0.6854 -0.3567  0.2143
 4999TIP3    H114942   6.223   2.598   4.750 -1.0082 -0.4364 -0.2920
 4999TIP3    H214943   6.340   2.674   4.691 -1.3162 -0.1762 -0.5713
 5000TIP3   OH214944   2.562   6.261   4.486  0.4696  0.0608 -0.3333
 5000TIP3    H114945   2.529   6.350   4.499  0.8805  0.2675 -0.6636
 5000TIP3    H214946   2.557   6.221   4.573 -0.5562  0.1078 -0.3638
 5001TIP3   OH214947   7.354   6.866   5.106  0.7047 -0.2751 -0.5152
 5001TIP3    H114948   7.355   6.954   5.067  0.1113  0.5096  1.1179
 5001TIP3    H214949   7.415   6.815   5.053 -1.0532  0.2903 -3.3034
 5002TIP3   OH214950   0.036   1.766   1.889  0.1416 -0.1967 -0.4318
 5002TIP3    H114951   0.070   1.769   1.799  3.4427 -0.8408  0.6297
 5002TIP3    H214952   0.008   1.855   1.907 -1.0699 -0.1723 -2.2375
 5003TIP3   OH214953   0.997   0.775   1.131 -0.0385  0.1196  0.3031
 5003TIP3    H114954   0.941   0.851   1.116 -0.5297 -0.6678 -2.4671
 5003TIP3    H214955   1.082   0.801   1.096  0.2120 -0.1041  0.7407
 5004TIP3   OH214956   7.849   3.893   1.706  0.2461 -0.1366  0.2840
 5004TIP3    H114957   7.886   3.869   1.791 -1.7235  0.0734  1.2504
 5004TIP3    H214958   7.791   3.967   1.725  0.5829  0.6145 -1.4375
 5005TIP3   OH214959   1.773   2.394   1.914  0.4673 -0.3394  0.1569
 5005TIP3    H114960   1.814   2.433   1.991 -1.1760  0.0387  0.8863
 5005TIP3    H214961   1.723   2.466   1.874 -0.4996 -1.0498  0.0398
 5006TIP3   OH214962   7.070   5.595   6.542  0.0120 -0.0231 -0.1261
 5006TIP3    H114963   7.165   5.586   6.538  0.1749 -0.0023  2.2653
 5006TIP3    H214964   7.037   5.506   6.552 -0.2665 -0.0682 -1.3636
 5007TIP3   OH214965   0.147   5.947   5.573  0.1634 -0.3736  0.1339
 5007TIP3    H114966   0.158   5.877   5.510 -0.0844  0.3772 -0.7666
 5007TIP3    H214967   0.200   5.921   5.649 -0.2001 -1.6804 -0.0448
 5008TIP3   OH214968   3.473   3.233   3.309  0.2356 -0.2230 -0.3551
 5008TIP3    H114969   3.417   3.182   3.367  0.0711  0.6664  0.2959
 5008TIP3    H214970   3.485   3.178   3.232  0.3310 -1.3604  0.4606
 5009TIP3   OH214971   3.282   2.773   3.250 -0.4223  0.0688  0.1980
 5009TIP3    H114972   3.259   2.746   3.339 -1.3913 -0.4162 -0.1818
 5009TIP3    H214973   3.377   2.766   3.246 -0.4989 -1.9110  0.5819
 5010TIP3   OH214974   6.584   6.779   4.545  0.3347 -0.0433  0.1834
 5010TIP3    H114975   6.504   6.742   4.581  1.9305 -3.1926  0.8919
 5010TIP3    H214976   6.645   6.780   4.620  1.4523  0.5718 -0.7105
 5011TIP3   OH214977   4.762   3.439   3.418  0.5706  0.4158 -0.1846
 5011TIP3    H114978   4.832   3.414   3.479 -0.5441 -0.3254  0.8509
 5011TIP3    H214979   4.712   3.506   3.465 -0.9122 -0.8967  0.2084
 5012TIP3   OH214980   7.197   0.884   0.716  0.4712  0.1349 -0.2802
 5012TIP3    H114981   7.145   0.954   0.676  0.0883 -0.7449 -1.3587
 5012TIP3    H214982   7.134   0.836   0.770  0.2380 -0.6468 -1.2174
 5013TIP3   OH214983   4.903   3.811   2.372 -0.2036  0.7860  0.1522
 5013TIP3    H114984   4.920   3.765   2.290 -0.8516 -1.4156  1.1870
 5013TIP3    H214985   4.951   3.761   2.438 -1.8084  0.9453  1.4937
 5014TIP3   OH214986   2.036   4.671   5.083  0.5138 -0.0950 -0.0552
 5014TIP3    H114987   2.086   4.619   5.146  1.0808  0.8927  0.3349
 5014TIP3    H214988   2.103   4.720   5.034 -0.0016  0.2716 -0.3982
 5015TIP3   OH214989   7.656   1.915   0.127 -0.8581 -0.1202  0.0206
 5015TIP3    H114990   7.675   1.948   0.040  2.4770 -0.5198  0.4881
 5015TIP3    H214991   7.637   1.993   0.179 -1.1386  0.2677 -0.6513
 5016TIP3   OH214992   7.356   7.254   6.692  0.2917  0.6849 -0.5304
 5016TIP3    H114993   7.356   7.159   6.683 -3.4032  0.6222 -1.6857
 5016TIP3    H214994   7.393   7.270   6.779 -2.5310 -2.2290  1.4596
 5017TIP3   OH214995   6.357   5.861   1.732  0.9153  0.3929 -0.2317
 5017TIP3    H114996   6.299   5.927   1.693  2.3459 -0.0425 -3.3836
 5017TIP3    H214997   6.323   5.777   1.701  1.0105 -0.1529  1.0856
 5018TIP3   OH214998   5.855   4.191   5.419  0.0931  0.4218  0.0227
 5018TIP3    H114999   5.811   4.274   5.435  0.0741  0.1818  1.2937
 5018TIP3    H215000   5.948   4.212   5.416  0.2586  0.2543  2.3074
 5019TIP3   OH215001   7.159   5.935   3.671  0.8712  0.1802  0.0852
 5019TIP3    H115002   7.093   5.962   3.607  2.4509 -1.0387 -2.1699
 5019TIP3    H215003   7.198   6.017   3.701 -0.3048  0.7946  0.0128
 5020TIP3   OH215004   0.360   6.170   2.480  0.4152 -0.8204 -0.6434
 5020TIP3    H115005   0.353   6.092   2.424 -1.3060 -1.2912  0.1767
 5020TIP3    H215006   0.345   6.137   2.569 -0.6929  0.4846 -0.3155
 5021TIP3   OH215007   6.115   3.675   1.951 -0.3907  0.0973 -0.7651
 5021TIP3    H115008   6.085   3.612   1.886 -0.0371 -0.1839 -0.6579
 5021TIP3    H215009   6.149   3.748   1.899  0.8804 -0.5787 -0.9296
 5022TIP3   OH215010   4.758   1.093   3.269 -0.5686  0.8170 -0.0820
 5022TIP3    H115011   4.733   1.009   3.231  0.9559  0.9991 -1.6142
 5022TIP3    H215012   4.844   1.076   3.308 -0.7474  1.4045  0.5799
 5023TIP3   OH215013   0.800   5.504   1.082 -0.3406  0.2495 -0.3797
 5023TIP3    H115014   0.718   5.467   1.115  0.0478  0.1263  0.4905
 5023TIP3    H215015   0.778   5.593   1.056 -0.2800  1.1181  2.2154
 5024TIP3   OH215016   4.056   7.580   2.745  0.4969 -0.3699 -0.5323
 5024TIP3    H115017   4.101   7.495   2.738 -0.6743 -1.1489  0.9256
 5024TIP3    H215018   4.089   7.617   2.827  0.0463 -0.0079 -0.5166
 5025TIP3   OH215019   1.095   2.649   0.400 -0.2082 -0.5917 -0.4023
 5025TIP3    H115020   1.164   2.608   0.453  3.0970  2.8377 -1.5867
 5025TIP3    H215021   1.041   2.697   0.463 -0.4011 -1.7864  0.3789
 5026TIP3   OH215022   0.536   2.722   3.293 -0.2591  0.1128 -0.1230
 5026TIP3    H115023   0.496   2.685   3.372 -0.8658  1.5508  0.2657
 5026TIP3    H215024   0.463   2.732   3.233  0.3565 -2.0064 -1.3413
 5027TIP3   OH215025   2.799   4.790   6.397 -0.2197  0.3155 -0.6861
 5027TIP3    H115026   2.779   4.841   6.475 -1.0735  0.9377 -1.2973
 5027TIP3    H215027   2.837   4.852   6.336  0.7855 -0.2422 -0.6610
 5028TIP3   OH215028   3.877   3.674   3.056  0.2482  0.2227 -0.2832
 5028TIP3    H115029   3.954   3.731   3.043  0.2684  0.4813  0.8326
 5028TIP3    H215030   3.826   3.684   2.976  0.3547  1.6774 -0.2041
 5029TIP3   OH215031   3.239   2.960   1.593  0.1801 -0.5909 -0.0500
 5029TIP3    H115032   3.314   2.998   1.547 -1.7538  1.6550 -1.5965
 5029TIP3    H215033   3.205   3.032   1.646 -0.3737 -1.8491  1.4018
 5030TIP3   OH215034   5.870   6.254   2.753  0.0769  0.1177  0.0716
 5030TIP3    H115035   5.799   6.319   2.750 -1.3722 -1.4059 -0.6154
 5030TIP3    H215036   5.846   6.196   2.827 -0.3240 -1.3493 -1.1514
 5031TIP3   OH215037   7.056   1.609   4.124  0.1127 -0.5258 -0.7826
 5031TIP3    H115038   7.108   1.551   4.069  3.2281  2.6332 -1.4650
 5031TIP3    H215039   6.990   1.645   4.065  0.2855 -0.8346 -1.1695
 5032TIP3   OH215040   6.406   0.165   1.856  0.3203 -0.3001 -0.6658
 5032TIP3    H115041   6.362   0.122   1.930  1.2888  0.7133  0.5286
 5032TIP3    H215042   6.488   0.117   1.846  0.7216  0.3050 -0.3086
 5033TIP3   OH215043   2.308   3.961   0.692 -0.3362 -0.2115  0.8906
 5033TIP3    H115044   2.400   3.934   0.691 -0.1177  0.5248  0.3030
 5033TIP3    H215045   2.264   3.898   0.635 -0.1432 -0.3714  0.9161
 5034TIP3   OH215046   2.137   1.767   0.641  0.2286 -0.5771 -0.0158
 5034TIP3    H115047   2.076   1.743   0.710  0.8788 -1.2974  0.3184
 5034TIP3    H215048   2.171   1.852   0.668  1.8257 -1.6325  1.5165
 5035TIP3   OH215049   0.090   5.950   2.578  0.1784 -0.3075 -0.4161
 5035TIP3    H115050   0.165   5.967   2.634  0.2635 -0.9932 -0.3075
 5035TIP3    H215051   0.020   5.927   2.638  0.6316 -2.4063 -0.6001
 5036TIP3   OH215052   1.406   2.474   6.227  0.8014 -0.0663  0.7264
 5036TIP3    H115053   1.368   2.552   6.267 -0.3975 -0.3267  0.1238
 5036TIP3    H215054   1.446   2.427   6.300 -0.8122 -0.2294  1.5534
 5037TIP3   OH215055   4.578   2.481   3.319  0.2107  0.4074  0.0188
 5037TIP3    H115056   4.515   2.477   3.391  0.6662  0.4932  0.4255
 5037TIP3    H215057   4.651   2.532   3.354  1.0277 -0.6919 -0.0528
 5038TIP3   OH215058   6.379   0.228   0.626 -0.3661 -0.2207  0.2082
 5038TIP3    H115059   6.422   0.287   0.687 -0.2302  1.2869 -1.2793
 5038TIP3    H215060   6.434   0.150   0.625 -1.1104 -0.8896  2.9954
 5039TIP3   OH215061   4.518   7.120   6.523  0.0296  0.5024  0.3745
 5039TIP3    H115062   4.481   7.075   6.446 -0.4460  0.8723  0.3821
 5039TIP3    H215063   4.587   7.175   6.488  2.6004 -2.2893  0.6533
 5040TIP3   OH215064   2.610   3.856   5.138  0.0847  0.5926 -0.2947
 5040TIP3    H115065   2.657   3.781   5.175  0.5440  0.9565 -0.1341
 5040TIP3    H215066   2.673   3.928   5.141 -1.3209  1.8767  2.5962
 5041TIP3   OH215067   1.473   2.245   3.348  0.2794  0.2735 -0.5869
 5041TIP3    H115068   1.451   2.168   3.297  1.3310 -0.5809  0.2158
 5041TIP3    H215069   1.412   2.243   3.422  0.8190 -0.2443 -0.1447
 5042TIP3   OH215070   4.126   4.727   6.735 -0.1127 -0.1896  0.2735
 5042TIP3    H115071   4.059   4.783   6.697  2.1050  1.0382 -2.0832
 5042TIP3    H215072   4.142   4.660   6.669 -0.4489 -1.7515  1.7092
 5043TIP3   OH215073   5.292   7.631   2.153  0.5026  0.2424 -0.1299
 5043TIP3    H115074   5.213   7.651   2.101 -0.3731 -0.6791  0.8159
 5043TIP3    H215075   5.312   7.540   2.132  0.0091 -0.2107  1.2940
 5044TIP3   OH215076   7.657   2.111   2.065 -0.4540 -0.4212  0.2767
 5044TIP3    H115077   7.702   2.093   1.982  1.6132 -1.1049  1.4781
 5044TIP3    H215078   7.600   2.035   2.077  1.5369 -1.8909  0.9209
 5045TIP3   OH215079   5.007   1.250   3.457 -0.4292  0.6981  0.2446
 5045TIP3    H115080   5.083   1.219   3.408 -1.3578  1.1078 -1.5101
 5045TIP3    H215081   5.042   1.318   3.514  0.5343  0.8499 -0.5004
 5046TIP3   OH215082   7.392   7.083   1.370  0.0698 -0.0514 -0.1095
 5046TIP3    H115083   7.443   7.150   1.324  1.3924 -2.0779 -1.7878
 5046TIP3    H215084   7.450   7.006   1.372 -0.8696 -0.7953  2.9368
 5047TIP3   OH215085   4.898   2.572   6.075  0.3555  0.0909  0.5197
 5047TIP3    H115086   4.915   2.628   5.999 -0.4596  1.4454  1.2924
 5047TIP3    H215087   4.885   2.633   6.147  0.8077 -1.1635  1.7002
 5048TIP3   OH215088   3.142   4.077   3.838  0.3013  0.1114 -0.0233
 5048TIP3    H115089   3.054   4.041   3.827 -0.0527  1.1119 -0.5783
 5048TIP3    H215090   3.147   4.098   3.932  0.0829 -0.2735  0.0775
 5049TIP3   OH215091   6.097   0.159   2.889 -0.5303 -0.4132 -0.2512
 5049TIP3    H115092   6.078   0.249   2.915  0.8406  0.1880 -1.1984
 5049TIP3    H215093   6.192   0.151   2.897 -0.6511 -1.8805  0.0781
 5050TIP3   OH215094   1.420   4.974   3.249  0.0045 -0.4476 -0.0387
 5050TIP3    H115095   1.452   5.048   3.300  0.6715  0.1888 -1.3057
 5050TIP3    H215096   1.348   4.938   3.300 -1.2867  1.9579 -0.0235
 5051TIP3   OH215097   6.153   5.089   0.578 -0.7922  0.2053  0.0279
 5051TIP3    H115098   6.120   5.113   0.492 -1.5339 -0.9237 -0.0270
 5051TIP3    H215099   6.177   5.172   0.619 -0.2504  0.7420 -1.3235
 5052TIP3   OH215100   2.772   6.738   0.893 -0.4760  0.2685  0.1593
 5052TIP3    H115101   2.769   6.688   0.975  0.9452 -2.2771 -1.2210
 5052TIP3    H215102   2.682   6.735   0.861 -0.2213 -2.7522 -0.5374
 5053TIP3   OH215103   0.234   2.315   0.450 -0.3017 -0.3963 -0.0300
 5053TIP3    H115104   0.231   2.369   0.529 -0.4008 -1.1554  0.5038
 5053TIP3    H215105   0.145   2.281   0.441 -1.8579  3.7140 -3.4273
 5054TIP3   OH215106   3.042   0.225   6.208  0.0177  0.2295  1.0567
 5054TIP3    H115107   3.130   0.196   6.231 -0.6849 -0.7903  2.6587
 5054TIP3    H215108   3.054   0.309   6.165  1.7747  0.0169  1.0878
 5055TIP3   OH215109   7.737   6.624   2.997  0.3844  0.1290 -0.2846
 5055TIP3    H115110   7.688   6.662   2.924 -0.2281 -1.4211 -0.7299
 5055TIP3    H215111   7.689   6.544   3.018  1.4005 -0.2024  0.8560
 5056TIP3   OH215112   0.508   0.860   3.433 -0.6140  0.3348  0.0038
 5056TIP3    H115113   0.554   0.841   3.351 -0.4808  1.2803 -0.1489
 5056TIP3    H215114   0.428   0.904   3.405 -1.0580 -0.2561  0.3319
 5057TIP3   OH215115   2.478   1.212   5.381 -0.1953  0.1302 -0.2213
 5057TIP3    H115116   2.399   1.175   5.342 -0.6153  0.8356 -0.0503
 5057TIP3    H215117   2.549   1.178   5.326 -0.7499  0.9112 -1.4816
 5058TIP3   OH215118   4.470   7.326   5.147  0.3651  0.3862 -0.7254
 5058TIP3    H115119   4.557   7.365   5.146  0.5603 -0.0586 -1.7961
 5058TIP3    H215120   4.413   7.394   5.109  0.5494 -0.0055 -1.7130
 5059TIP3   OH215121   6.760   1.272   4.727 -0.2989 -0.0422 -0.0449
 5059TIP3    H115122   6.783   1.187   4.690  0.5496 -0.1997  0.8160
 5059TIP3    H215123   6.688   1.253   4.788 -0.6330 -0.0202 -0.4289
 5060TIP3   OH215124   7.738   2.056   4.307 -0.3473  0.0359  0.0370
 5060TIP3    H115125   7.663   2.115   4.305 -1.1637 -1.0066 -0.5709
 5060TIP3    H215126   7.807   2.104   4.260 -0.6351  0.9672  0.5429
 5061TIP3   OH215127   4.948   4.696   4.612  0.2882 -0.4550 -0.3502
 5061TIP3    H115128   4.979   4.662   4.527  1.6069 -1.3220  0.4438
 5061TIP3    H215129   4.998   4.647   4.677  0.5662  1.4141  0.9145
 5062TIP3   OH215130   5.482   4.186   4.494  0.3063 -0.1032 -0.6995
 5062TIP3    H115131   5.529   4.137   4.562  2.2371  0.0032 -1.8890
 5062TIP3    H215132   5.509   4.277   4.507 -1.0143  0.2570 -0.3039
 5063TIP3   OH215133   6.155   7.736   1.427  0.8974  0.1722 -0.1012
 5063TIP3    H115134   6.185   7.696   1.508  1.1100 -2.9233 -1.5779
 5063TIP3    H215135   6.117   7.664   1.376 -4.1574  2.7960 -0.6839
 5064TIP3   OH215136   2.222   3.897   1.284 -0.0698 -0.1907  0.3462
 5064TIP3    H115137   2.292   3.955   1.313 -0.5498  1.1679 -1.0777
 5064TIP3    H215138   2.258   3.855   1.206 -1.2906  1.6537 -1.3011
 5065TIP3   OH215139   2.057   4.219   6.606 -0.4005  0.1392 -0.0241
 5065TIP3    H115140   2.096   4.185   6.525 -1.0801  1.1105 -0.7776
 5065TIP3    H215141   2.089   4.160   6.674 -0.9319 -1.5524 -1.1703
 5066TIP3   OH215142   6.527   5.534   1.674 -0.0479  0.0764  0.2843
 5066TIP3    H115143   6.432   5.532   1.684  0.0294  0.6865  1.3531
 5066TIP3    H215144   6.542   5.536   1.580 -1.1111  0.4868  0.1144
 5067TIP3   OH215145   0.045   2.867   4.702 -0.1557 -0.3183  0.9924
 5067TIP3    H115146   0.019   2.813   4.777 -0.0823 -0.5036  0.8855
 5067TIP3    H215147   0.129   2.830   4.675 -0.1988 -0.2722  0.7979
 5068TIP3   OH215148   6.487   5.375   4.478  1.0506  1.2397  0.0934
 5068TIP3    H115149   6.569   5.420   4.500  1.2798  1.2607 -0.7651
 5068TIP3    H215150   6.488   5.370   4.383  1.8556 -2.0633  0.1656
 5069TIP3   OH215151   1.547   2.224   1.077 -0.4967  0.0343  0.5074
 5069TIP3    H115152   1.545   2.314   1.112 -0.0393 -0.1741  1.0854
 5069TIP3    H215153   1.522   2.169   1.151  1.7627 -0.5272  0.9457
 5070TIP3   OH215154   6.936   7.437   0.239 -0.3575 -0.1114 -0.7472
 5070TIP3    H115155   6.851   7.402   0.212  0.0370 -0.1630 -2.0016
 5070TIP3    H215156   6.939   7.525   0.200  0.0900 -0.0417 -0.5629
 5071TIP3   OH215157   3.064   1.510   5.524  0.0630 -0.3931 -0.0065
 5071TIP3    H115158   3.011   1.518   5.445 -1.5080  1.6800  1.1805
 5071TIP3    H215159   3.065   1.597   5.562  1.5870 -1.1146  1.7919
 5072TIP3   OH215160   5.846   5.341   1.390  0.7622 -0.2404 -1.1544
 5072TIP3    H115161   5.851   5.308   1.480  3.1530  0.1024 -1.1009
 5072TIP3    H215162   5.754   5.329   1.366 -0.1319  0.3343  1.5617
 5073TIP3   OH215163   1.712   5.891   2.360  0.1779 -0.6642 -0.2016
 5073TIP3    H115164   1.642   5.932   2.411  1.4686  1.1691  0.1910
 5073TIP3    H215165   1.788   5.949   2.372  1.5476 -2.1487 -1.2572
 5074TIP3   OH215166   3.417   5.861   5.021 -0.1667 -0.4176 -0.0660
 5074TIP3    H115167   3.395   5.777   4.980 -1.0166  0.6351 -1.9275
 5074TIP3    H215168   3.474   5.905   4.957 -0.1147  0.6152  0.6554
 5075TIP3   OH215169   0.996   6.512   5.083 -0.5011  0.0658  0.0132
 5075TIP3    H115170   0.905   6.536   5.100 -0.2277  1.1016  0.0935
 5075TIP3    H215171   1.005   6.424   5.120 -0.7363  1.0511  2.6489
 5076TIP3   OH215172   5.496   3.380   6.186 -0.2838 -0.7428  0.3961
 5076TIP3    H115173   5.496   3.286   6.172  0.0236 -0.9108  1.4006
 5076TIP3    H215174   5.546   3.416   6.113 -2.0079 -1.1614 -1.0516
 5077TIP3   OH215175   7.505   7.656   1.553  1.0850 -0.0193  0.0609
 5077TIP3    H115176   7.478   7.581   1.500 -0.6956  1.7644 -1.7336
 5077TIP3    H215177   7.533   7.722   1.489  0.2191  1.7275  1.3852
 5078TIP3   OH215178   5.942   6.497   4.406  0.0591 -0.1900 -0.3950
 5078TIP3    H115179   6.033   6.481   4.381  0.0816 -0.1579 -0.3343
 5078TIP3    H215180   5.892   6.431   4.358  0.2033 -0.7837  0.2522
 5079TIP3   OH215181   1.215   3.107   0.452  0.0438  0.1476  0.1393
 5079TIP3    H115182   1.289   3.049   0.435  0.6785  1.0206 -0.1302
 5079TIP3    H215183   1.142   3.048   0.471  0.4023 -0.7792 -1.1924
 5080TIP3   OH215184   0.309   6.372   4.635 -0.4456  0.1678  0.2526
 5080TIP3    H115185   0.347   6.460   4.630 -2.4512  1.0789  0.1453
 5080TIP3    H215186   0.326   6.334   4.548 -1.2512  1.2118 -0.3824
 5081TIP3   OH215187   2.161   3.776   0.518 -0.1122 -0.0996  0.1429
 5081TIP3    H115188   2.193   3.699   0.565 -0.6664 -0.2159  0.3385
 5081TIP3    H215189   2.188   3.762   0.428  0.0687 -0.3704  0.2373
 5082TIP3   OH215190   2.360   7.515   6.262 -0.1130  0.1629 -1.3524
 5082TIP3    H115191   2.275   7.476   6.242 -0.2866 -1.3224  1.6905
 5082TIP3    H215192   2.421   7.442   6.256  0.6062  0.7594 -1.3789
 5083TIP3   OH215193   6.123   5.813   5.194 -0.4897  0.0591  0.0909
 5083TIP3    H115194   6.059   5.749   5.160  0.6726 -1.0993  0.0259
 5083TIP3    H215195   6.108   5.891   5.140 -0.8017 -0.7160 -0.9974
 5084TIP3   OH215196   4.359   2.007   5.106 -0.0807 -0.0704  0.3281
 5084TIP3    H115197   4.295   2.078   5.102 -2.6163 -2.1669  1.1415
 5084TIP3    H215198   4.344   1.957   5.026 -0.5153 -1.3869  1.1989
 5085TIP3   OH215199   0.919   6.137   1.913 -0.2143  0.5463 -0.1069
 5085TIP3    H115200   0.995   6.176   1.958  0.4359 -0.0308 -0.6799
 5085TIP3    H215201   0.893   6.204   1.850  0.3530  0.4178 -0.4875
 5086TIP3   OH215202   1.250   0.144   5.807  0.1269 -0.1867 -0.1496
 5086TIP3    H115203   1.260   0.224   5.755  2.8352  0.6657  1.4910
 5086TIP3    H215204   1.184   0.165   5.872 -0.1785  0.2169 -0.5834
 5087TIP3   OH215205   2.030   4.705   5.422  0.4419  0.3064  1.0982
 5087TIP3    H115206   2.086   4.652   5.365  0.1538 -0.3568  1.4232
 5087TIP3    H215207   2.016   4.651   5.500 -0.3136  0.6281  1.1975
 5088TIP3   OH215208   8.080   5.330   2.721 -0.2043  0.3959 -0.4672
 5088TIP3    H115209   8.060   5.264   2.787  0.9105 -1.1951 -1.6489
 5088TIP3    H215210   8.080   5.413   2.769 -2.0356 -0.3756  0.9904
 5089TIP3   OH215211   4.257   6.730   1.940  0.3237 -0.2593  0.3834
 5089TIP3    H115212   4.257   6.700   1.849  0.7514 -0.9885  0.6188
 5089TIP3    H215213   4.314   6.807   1.939  0.8396 -0.6328  0.1440
 5090TIP3   OH215214   0.927   4.093   2.315  0.9878  0.2004 -0.3530
 5090TIP3    H115215   0.960   4.120   2.401  1.9489  2.4258 -1.3528
 5090TIP3    H215216   0.835   4.072   2.330  1.4489 -0.7881  1.4501
 5091TIP3   OH215217   0.905   7.265   1.819 -0.0921  0.2406 -0.1690
 5091TIP3    H115218   0.841   7.275   1.890  0.0688  1.1464 -0.1410
 5091TIP3    H215219   0.891   7.175   1.788 -2.4851  0.8928 -1.2200
 5092TIP3   OH215220   0.361   7.638   0.828 -0.0921  0.1956  0.5426
 5092TIP3    H115221   0.448   7.639   0.789  0.3026 -2.0456  1.2138
 5092TIP3    H215222   0.369   7.579   0.903 -1.7725  1.3239  1.6858
 5093TIP3   OH215223   2.066   5.059   2.113  0.1175  0.4184 -0.5313
 5093TIP3    H115224   2.013   5.099   2.181 -0.7424 -2.0198  0.3173
 5093TIP3    H215225   2.004   5.039   2.043  0.3606 -0.2066 -0.5736
 5094TIP3   OH215226   6.118   1.423   3.401  0.2171 -0.1019  0.0168
 5094TIP3    H115227   6.115   1.366   3.324 -1.0514  0.6374 -0.5009
 5094TIP3    H215228   6.192   1.389   3.452  0.6329 -1.0575 -1.1605
 5095TIP3   OH215229   7.181   6.373   5.529  0.3484  0.1921 -0.6958
 5095TIP3    H115230   7.165   6.427   5.451 -2.5065 -0.0990 -0.4032
 5095TIP3    H215231   7.189   6.437   5.600  0.1517  0.3637 -0.8250
 5096TIP3   OH215232   0.278   5.721   2.697 -0.4555  0.2404 -0.0682
 5096TIP3    H115233   0.215   5.712   2.626  0.6092  0.4020 -1.0611
 5096TIP3    H215234   0.311   5.811   2.689 -0.4221  0.3106  0.7259
 5097TIP3   OH215235   1.582   7.628   5.851 -0.0724 -0.4582 -0.1703
 5097TIP3    H115236   1.539   7.572   5.916  2.3540 -1.5704  0.6050
 5097TIP3    H215237   1.643   7.681   5.902 -0.4408  1.0582 -1.2241
 5098TIP3   OH215238   4.153   6.010   5.474  0.5196 -0.2890 -0.6281
 5098TIP3    H115239   4.171   5.932   5.422  1.3712 -0.4862 -0.0611
 5098TIP3    H215240   4.058   6.023   5.467  0.4082 -1.2150 -0.9462
 5099TIP3   OH215241   1.503   2.651   2.995 -0.2203 -0.2727  0.5039
 5099TIP3    H115242   1.497   2.652   2.899  0.9115 -0.3007  0.4163
 5099TIP3    H215243   1.426   2.602   3.023 -0.4062 -0.5360 -0.4077
 5100TIP3   OH215244   1.932   6.265   3.952 -0.3123 -0.1397  0.1442
 5100TIP3    H115245   1.966   6.306   4.032  0.3888 -1.2513  0.4335
 5100TIP3    H215246   1.885   6.336   3.907 -0.3063  0.6272  1.2972
 5101TIP3   OH215247   2.878   5.376   2.098  0.0737  0.2740  0.1562
 5101TIP3    H115248   2.904   5.314   2.167 -0.5392 -0.9044 -0.6283
 5101TIP3    H215249   2.784   5.387   2.110  0.1206  0.7891  0.0688
 5102TIP3   OH215250   3.688   3.199   3.825 -0.2561 -0.0684 -0.6186
 5102TIP3    H115251   3.690   3.137   3.752  0.6168 -1.1918  0.3140
 5102TIP3    H215252   3.656   3.147   3.900  1.3596  0.3352  0.3968
 5103TIP3   OH215253   1.379   6.009   0.432 -0.0622 -0.4365 -0.3517
 5103TIP3    H115254   1.429   5.928   0.443  0.5098 -0.2924 -1.6235
 5103TIP3    H215255   1.383   6.027   0.338  0.1676  1.2835 -0.0524
 5104TIP3   OH215256   5.987   4.608   0.634 -0.4523 -0.1619 -0.3659
 5104TIP3    H115257   6.079   4.583   0.646 -0.1089  0.5707 -1.2929
 5104TIP3    H215258   5.952   4.615   0.722  0.5122 -0.0009  0.0189
 5105TIP3   OH215259   3.370   4.109   0.773 -0.0111 -0.0229 -0.0168
 5105TIP3    H115260   3.338   4.162   0.700 -0.9177  0.9911  1.0799
 5105TIP3    H215261   3.465   4.123   0.773 -0.3331  2.5036  0.9039
 5106TIP3   OH215262   0.261   4.613   2.538  0.1841  0.7118 -0.0295
 5106TIP3    H115263   0.321   4.687   2.537  0.9460  0.1202  0.7749
 5106TIP3    H215264   0.248   4.591   2.446  1.4080  0.6797 -0.2027
 5107TIP3   OH215265   3.239   6.124   6.028 -0.1605  0.5745  0.5924
 5107TIP3    H115266   3.303   6.182   5.987 -0.6627  1.2601  0.7504
 5107TIP3    H215267   3.247   6.041   5.982  0.9046  0.6244  0.6760
 5108TIP3   OH215268   1.802   5.133   2.570  0.0202 -0.1552  0.1468
 5108TIP3    H115269   1.741   5.150   2.498  0.1361  1.9771  0.4796
 5108TIP3    H215270   1.767   5.186   2.643  1.2325 -0.3805  0.9075
 5109TIP3   OH215271   2.033   5.182   3.564 -0.4939 -0.1730  0.2519
 5109TIP3    H115272   2.049   5.227   3.480 -0.7817  0.4231  0.5073
 5109TIP3    H215273   2.079   5.099   3.556  0.5652  0.4200 -0.0033
 5110TIP3   OH215274   7.587   3.766   2.591 -0.1267  0.0913 -0.1073
 5110TIP3    H115275   7.680   3.766   2.615 -0.1949  0.4355  0.1708
 5110TIP3    H215276   7.568   3.676   2.567 -0.4842 -0.7356  2.8921
 5111TIP3   OH215277   2.506   3.951   1.580  0.2484  0.4596 -0.1636
 5111TIP3    H115278   2.540   3.930   1.493  1.7137  0.8275  0.3017
 5111TIP3    H215279   2.421   3.993   1.562 -0.3366 -1.1250 -1.3063
 5112TIP3   OH215280   5.461   1.441   5.990  0.3690  0.0802 -0.0618
 5112TIP3    H115281   5.546   1.447   6.034  0.1877 -1.5721  0.5707
 5112TIP3    H215282   5.402   1.408   6.057 -0.3901 -0.4426 -0.9776
 5113TIP3   OH215283   5.319   3.056   3.006  0.2470 -0.0923  0.1546
 5113TIP3    H115284   5.304   3.028   2.915 -2.4105 -2.3268  1.1229
 5113TIP3    H215285   5.339   2.974   3.052 -1.6659  0.4660  2.0969
 5114TIP3   OH215286   6.299   2.946   1.453  0.2055 -0.0529 -0.5515
 5114TIP3    H115287   6.294   2.928   1.359  0.9117 -1.4465 -0.3559
 5114TIP3    H215288   6.249   2.875   1.494 -0.4762  0.7955  0.1180
 5115TIP3   OH215289   4.673   6.218   4.254  0.2652 -0.3975  0.0840
 5115TIP3    H115290   4.646   6.134   4.219  1.3168  0.3052 -2.6817
 5115TIP3    H215291   4.595   6.253   4.296 -0.1181 -2.8030  1.5832
 5116TIP3   OH215292   5.971   1.067   0.930 -0.8905  0.4613  0.5324
 5116TIP3    H115293   5.993   1.156   0.902 -1.6427  1.4961  2.9632
 5116TIP3    H215294   5.889   1.047   0.885 -0.7957  1.0578  0.0772
 5117TIP3   OH215295   0.716   3.636   3.040  0.7552 -0.2793  0.3581
 5117TIP3    H115296   0.720   3.719   2.993  1.0274  1.7549  3.6473
 5117TIP3    H215297   0.642   3.590   3.001  0.1719  1.7845 -1.1424
 5118TIP3   OH215298   8.151   4.494   3.547 -0.4635  0.0856 -0.1525
 5118TIP3    H115299   8.172   4.420   3.490 -0.9733  0.7288 -1.2124
 5118TIP3    H215300   8.186   4.469   3.633  1.3872 -0.4074 -1.0049
 5119TIP3   OH215301   6.679   1.057  -0.003 -0.4271  0.1958 -0.0408
 5119TIP3    H115302   6.756   1.050  -0.059 -0.5671  0.1431 -0.2255
 5119TIP3    H215303   6.715   1.070   0.085 -0.2206  1.8987 -0.3517
 5120TIP3   OH215304   7.201   7.166   3.072 -0.2518  0.1861  0.1941
 5120TIP3    H115305   7.237   7.088   3.113 -0.7750 -0.8381 -1.2276
 5120TIP3    H215306   7.215   7.153   2.978 -3.2966  0.1949 -0.3694
 5121TIP3   OH215307   5.594   7.518   2.589  0.2142  0.7100 -0.2390
 5121TIP3    H115308   5.647   7.441   2.612 -1.7352 -0.4942  0.4518
 5121TIP3    H215309   5.577   7.561   2.673 -1.0852  0.2561 -0.2502
 5122TIP3   OH215310   5.826   1.523   3.381  0.0473 -0.2672 -0.4494
 5122TIP3    H115311   5.861   1.588   3.442 -1.8979  0.1789  0.2780
 5122TIP3    H215312   5.902   1.492   3.332  1.2595  1.3981  0.2798
 5123TIP3   OH215313   3.724   7.334   4.267  0.3442 -0.4031 -0.0446
 5123TIP3    H115314   3.638   7.375   4.266  0.0150 -1.0819  0.2063
 5123TIP3    H215315   3.707   7.242   4.285  1.0340 -0.7589 -1.1021
 5124TIP3   OH215316   6.745   0.702   3.120  0.0536  0.3328  0.2981
 5124TIP3    H115317   6.753   0.793   3.150 -0.3341  0.2404  0.6931
 5124TIP3    H215318   6.836   0.673   3.108  0.2654  0.1975  1.9540
 5125TIP3   OH215319   1.210   0.637   0.159  0.7538  0.2902  0.0850
 5125TIP3    H115320   1.169   0.663   0.241  1.9940 -0.5967  1.0181
 5125TIP3    H215321   1.216   0.718   0.108  1.0018  1.0718  1.3243
 5126TIP3   OH215322   0.095   7.112   3.828  0.4087 -0.4956 -0.7176
 5126TIP3    H115323   0.175   7.161   3.810 -1.1692  1.8799 -1.8489
 5126TIP3    H215324   0.089   7.048   3.757  0.3302  0.6853 -1.8110
 5127TIP3   OH215325   3.581   5.629   6.711 -0.0331 -0.0466 -0.2043
 5127TIP3    H115326   3.597   5.687   6.636 -1.8513  1.2798  0.3584
 5127TIP3    H215327   3.486   5.616   6.712  0.1582 -1.7352  0.6796
 5128TIP3   OH215328   5.178   3.451   0.324 -0.8578 -0.0872 -0.1307
 5128TIP3    H115329   5.134   3.504   0.389 -1.4844  0.4810 -0.9958
 5128TIP3    H215330   5.271   3.472   0.334 -0.6825 -1.5476  1.9323
 5129TIP3   OH215331   5.300   0.616   3.013 -0.0208  0.2767  0.2745
 5129TIP3    H115332   5.276   0.702   3.048  0.9350 -0.1619  2.1358
 5129TIP3    H215333   5.383   0.631   2.968 -1.3875  0.8986 -2.2258
 5130TIP3   OH215334   0.670   6.784   2.150  0.1111  0.0274  0.0220
 5130TIP3    H115335   0.745   6.727   2.130 -1.5800 -2.5486  0.5441
 5130TIP3    H215336   0.594   6.726   2.147 -2.0337  2.6607 -1.1880
 5131TIP3   OH215337   6.201   0.622   1.469  0.4073 -0.6596 -0.1126
 5131TIP3    H115338   6.119   0.578   1.492 -1.5738  1.9520 -1.6200
 5131TIP3    H215339   6.260   0.603   1.542 -1.5481 -2.5532  1.0961
 5132TIP3   OH215340   4.252   1.900   1.620  0.2250 -0.4556 -0.2758
 5132TIP3    H115341   4.219   1.909   1.709  1.2632  1.1322 -0.0077
 5132TIP3    H215342   4.173   1.890   1.566 -0.5003  0.0042  0.6653
 5133TIP3   OH215343   5.034   2.680   1.184 -0.1864  0.4545 -0.3689
 5133TIP3    H115344   4.994   2.766   1.198 -2.3819 -0.8131  2.1466
 5133TIP3    H215345   4.961   2.625   1.154  0.8277 -0.8677 -0.4849
 5134TIP3   OH215346   5.465   3.887   1.031 -0.5264 -0.7608 -0.0192
 5134TIP3    H115347   5.526   3.893   1.105  1.0111 -2.9057 -0.9878
 5134TIP3    H215348   5.517   3.910   0.955 -1.1683 -1.7170 -0.7703
 5135TIP3   OH215349   5.046   3.520   4.880 -0.3713 -0.4286  0.7996
 5135TIP3    H115350   5.072   3.429   4.889 -1.1462 -0.5758  1.7863
 5135TIP3    H215351   4.963   3.518   4.831  0.2435 -0.1468 -0.2807
 5136TIP3   OH215352   7.914   1.193   0.692 -0.3553 -0.4199 -0.2330
 5136TIP3    H115353   7.881   1.206   0.781 -0.3017  2.2637 -0.5048
 5136TIP3    H215354   7.915   1.098   0.680  0.0474 -0.8912  2.7632
 5137TIP3   OH215355   3.722   0.450   3.228 -0.3447  0.0426  0.0218
 5137TIP3    H115356   3.800   0.477   3.179 -0.6930  2.6874  0.8169
 5137TIP3    H215357   3.675   0.392   3.167  0.3457  1.4514 -1.9749
 5138TIP3   OH215358   7.130   4.874   4.709 -0.4834 -0.3728 -0.1373
 5138TIP3    H115359   7.212   4.922   4.696 -0.5994  0.5318  1.9472
 5138TIP3    H215360   7.158   4.786   4.736 -0.2078 -0.4092 -0.5454
 5139TIP3   OH215361   7.567   3.427   3.772  0.1145  0.5953  0.5667
 5139TIP3    H115362   7.639   3.463   3.823  0.1828  1.5735 -0.1959
 5139TIP3    H215363   7.578   3.332   3.778  1.0579  0.7257  1.0296
 5140TIP3   OH215364   2.788   6.969   5.517 -0.1605 -0.0052  0.7543
 5140TIP3    H115365   2.824   6.935   5.599 -1.5400 -2.0966  0.5607
 5140TIP3    H215366   2.694   6.978   5.534 -0.3580  0.1515 -0.3766
 5141TIP3   OH215367   7.385   1.214   4.751 -0.0615 -0.4378 -0.3260
 5141TIP3    H115368   7.465   1.166   4.729  0.3891  0.7868 -1.4278
 5141TIP3    H215369   7.359   1.257   4.670  0.4302  2.4443  0.9254
 5142TIP3   OH215370   2.284   2.350   0.037  0.0162  0.3195 -0.0465
 5142TIP3    H115371   2.234   2.294   0.096  0.1682 -0.7489 -0.8883
 5142TIP3    H215372   2.291   2.433   0.083 -0.0111 -0.4184  1.3669
 5143TIP3   OH215373   1.450   3.532   4.491  0.1742 -0.2120 -0.6707
 5143TIP3    H115374   1.361   3.565   4.503  0.6610  1.7993 -2.0506
 5143TIP3    H215375   1.495   3.551   4.573 -0.8708 -2.2411  0.4612
 5144TIP3   OH215376   1.127   5.071   2.479 -0.3875 -0.6354  0.0506
 5144TIP3    H115377   1.041   5.110   2.489 -0.5296 -1.1457  0.9972
 5144TIP3    H215378   1.143   5.028   2.563  1.1945  0.2679  0.2572
 5145TIP3   OH215379   7.336   6.493   2.383  0.8185 -0.2305  0.2966
 5145TIP3    H115380   7.293   6.465   2.463 -0.1508 -1.6434 -0.6808
 5145TIP3    H215381   7.427   6.466   2.394  0.6561 -0.5563  0.8456
 5146TIP3   OH215382   0.279   6.907   1.517  0.2543 -0.1483 -0.2506
 5146TIP3    H115383   0.311   6.825   1.555  0.1231  0.4213  1.1631
 5146TIP3    H215384   0.187   6.910   1.542 -0.3161 -0.5624 -2.1363
 5147TIP3   OH215385   3.257   2.054   2.899 -0.4057  0.0355  0.0044
 5147TIP3    H115386   3.321   1.997   2.940 -1.7812 -0.0168  2.2312
 5147TIP3    H215387   3.273   2.045   2.805  3.4116  0.7557  0.4538
 5148TIP3   OH215388   0.538   4.241   1.645 -0.0798 -0.0694  0.2857
 5148TIP3    H115389   0.553   4.335   1.636  0.0936 -0.0973  0.2837
 5148TIP3    H215390   0.561   4.204   1.559 -0.9721 -0.0114  0.0070
 5149TIP3   OH215391   3.262   6.802   1.324  0.4571 -0.4405  0.2549
 5149TIP3    H115392   3.197   6.795   1.394 -0.8049 -1.3242 -0.9670
 5149TIP3    H215393   3.252   6.892   1.291 -0.4064 -0.6777 -0.1543
 5150TIP3   OH215394   1.952   5.051   3.278  0.1125  0.0153  0.4656
 5150TIP3    H115395   2.001   5.006   3.346  1.1863  3.1566  1.9894
 5150TIP3    H215396   1.860   5.044   3.305  0.5280  1.3228  2.4285
 5151TIP3   OH215397   2.710   4.291   5.856 -0.2401 -0.0376 -0.0568
 5151TIP3    H115398   2.699   4.202   5.820 -2.3804 -0.9447  2.4953
 5151TIP3    H215399   2.738   4.277   5.946 -0.3699  1.9006  0.3179
 5152TIP3   OH215400   5.351   2.553   5.494  0.3053  0.2712 -0.2064
 5152TIP3    H115401   5.375   2.572   5.585  1.6873 -0.1157 -0.4581
 5152TIP3    H215402   5.391   2.468   5.477 -1.8334 -0.7117 -0.5108
 5153TIP3   OH215403   1.173   5.289   1.491  0.1107 -0.1809 -0.3567
 5153TIP3    H115404   1.078   5.274   1.490 -0.2883  1.9750 -1.5927
 5153TIP3    H215405   1.204   5.243   1.568 -2.1201 -0.0350  0.7040
 5154TIP3   OH215406   2.507   3.775   3.754 -0.1181 -0.9715 -0.4137
 5154TIP3    H115407   2.554   3.793   3.673 -0.0968 -0.9555 -0.3977
 5154TIP3    H215408   2.557   3.705   3.795 -1.4641 -2.6976 -1.5796
 5155TIP3   OH215409   3.553   2.359   4.360  0.1790 -0.3067  0.2783
 5155TIP3    H115410   3.465   2.378   4.393 -0.5654  2.0144 -2.5444
 5155TIP3    H215411   3.548   2.268   4.330 -1.6148  0.0105 -0.5847
 5156TIP3   OH215412   4.611   6.374   1.708  0.0078 -0.3290  0.5842
 5156TIP3    H115413   4.532   6.321   1.717 -1.5473  1.7810  0.1989
 5156TIP3    H215414   4.580   6.465   1.710  2.3799  0.5878 -0.0023
 5157TIP3   OH215415   7.448   5.487   0.024 -0.4142 -0.2409  0.8642
 5157TIP3    H115416   7.404   5.408   0.053  0.3891 -1.3338 -0.7608
 5157TIP3    H215417   7.384   5.531  -0.032 -0.3698 -0.4654  0.6372
 5158TIP3   OH215418   0.686   7.508   4.821  0.1351  0.0120 -0.2394
 5158TIP3    H115419   0.716   7.597   4.802 -0.2916  0.2700  0.2601
 5158TIP3    H215420   0.764   7.462   4.851  0.0736  0.6702  1.0245
 5159TIP3   OH215421   2.186   3.079   1.566  0.1657  0.0626 -0.2651
 5159TIP3    H115422   2.196   3.167   1.602 -0.3148  0.9275 -2.1537
 5159TIP3    H215423   2.118   3.039   1.620  0.3355  0.8499  0.5616
 5160TIP3   OH215424   0.167   2.994   5.373  0.7569  0.1351 -0.0070
 5160TIP3    H115425   0.192   3.086   5.365  1.9912 -0.1035  0.8085
 5160TIP3    H215426   0.225   2.960   5.441 -0.5342 -0.9456  0.5806
 5161TIP3   OH215427   1.208   7.676   1.194 -0.0116  0.2135 -0.1501
 5161TIP3    H115428   1.229   7.742   1.127 -0.7999  0.0503 -0.5701
 5161TIP3    H215429   1.126   7.706   1.233 -0.8644 -0.9657 -0.9643
 5162TIP3   OH215430   2.703   6.562   5.918  0.4547  0.5399  0.2090
 5162TIP3    H115431   2.691   6.636   5.858 -0.5290 -0.3921 -0.7921
 5162TIP3    H215432   2.771   6.509   5.876 -2.4868 -1.8274 -1.9328
 5163TIP3   OH215433   1.621   5.020   1.232  0.8075  0.3790 -0.1308
 5163TIP3    H115434   1.627   4.996   1.140  1.9372  0.2045 -0.0169
 5163TIP3    H215435   1.613   4.937   1.279  0.4396  0.4567 -0.0503
 5164TIP3   OH215436   5.173   0.957   5.162 -0.2280  0.1772 -0.1471
 5164TIP3    H115437   5.153   0.885   5.102 -0.1366 -0.6474  0.7924
 5164TIP3    H215438   5.268   0.954   5.173 -0.2700  0.1551  0.2415
 5165TIP3   OH215439   4.579   5.288   4.509  0.6174  0.0809 -0.1854
 5165TIP3    H115440   4.661   5.280   4.559  1.5837 -2.0341 -1.9700
 5165TIP3    H215441   4.604   5.333   4.429 -0.0112 -0.3829 -0.6508
 5166TIP3   OH215442   5.380   2.002   4.613  0.0182 -0.6110 -0.0054
 5166TIP3    H115443   5.333   2.069   4.564 -1.0809 -0.3585  1.3408
 5166TIP3    H215444   5.380   1.926   4.555 -0.6314 -0.1243 -0.6738
 5167TIP3   OH215445   7.764   5.090   1.160  0.2705  0.1963 -0.0357
 5167TIP3    H115446   7.770   5.172   1.111  0.7370 -0.1815 -0.6332
 5167TIP3    H215447   7.671   5.071   1.164  0.2131  0.2896 -0.7046
 5168TIP3   OH215448   0.388   5.668   5.155 -0.1700  0.0331  0.3406
 5168TIP3    H115449   0.462   5.612   5.129 -1.0989 -0.1485 -2.1932
 5168TIP3    H215450   0.316   5.639   5.099 -1.8583  1.0278  1.8994
 5169TIP3   OH215451   0.829   2.977   6.372 -0.0579 -0.2205 -0.0428
 5169TIP3    H115452   0.900   3.013   6.319 -1.4233  0.1236 -1.7189
 5169TIP3    H215453   0.759   3.042   6.366 -1.1130 -1.2995  0.1957
 5170TIP3   OH215454   3.351   0.556   4.720  0.3214  0.3339  1.1624
 5170TIP3    H115455   3.397   0.474   4.738  0.3661  0.2404  0.6507
 5170TIP3    H215456   3.401   0.623   4.767  2.2597  0.5652 -1.0293
 5171TIP3   OH215457   6.115   3.347   0.689  0.3093 -0.4534 -0.3102
 5171TIP3    H115458   6.191   3.304   0.648 -0.3429 -1.0646 -0.9082
 5171TIP3    H215459   6.063   3.274   0.723  2.1441  0.0316  4.2021
 5172TIP3   OH215460   6.531   7.049   2.310  0.1149 -0.4796 -0.0799
 5172TIP3    H115461   6.622   7.050   2.281  0.2863 -0.9632  0.4097
 5172TIP3    H215462   6.532   7.094   2.395 -0.2294  0.1642 -0.4143
 5173TIP3   OH215463   4.130   0.546   1.881 -0.9006 -0.0706  0.1893
 5173TIP3    H115464   4.200   0.496   1.923  0.1116  1.4992  0.4135
 5173TIP3    H215465   4.052   0.524   1.932 -0.0985  0.1054  1.5353
 5174TIP3   OH215466   2.709   4.909   6.634 -0.1785  0.3004 -0.1512
 5174TIP3    H115467   2.724   5.003   6.626 -1.3201  0.3838 -2.2799
 5174TIP3    H215468   2.645   4.901   6.704 -0.0329  1.1095  0.0900
 5175TIP3   OH215469   3.503   1.448   2.486  0.5098 -0.3381  0.0825
 5175TIP3    H115470   3.519   1.399   2.567  1.3314  0.1874  0.2481
 5175TIP3    H215471   3.439   1.515   2.511 -0.5461 -1.2354 -0.1222
 5176TIP3   OH215472   2.506   2.454   0.577  0.3547  0.4242  0.4991
 5176TIP3    H115473   2.581   2.465   0.518 -0.0541  2.0723  0.2248
 5176TIP3    H215474   2.430   2.461   0.520 -0.0663 -2.3224  0.6063
 5177TIP3   OH215475   1.558   0.947   5.841 -0.1751 -0.0993 -0.0631
 5177TIP3    H115476   1.497   0.910   5.904 -0.3499  1.0572  0.4719
 5177TIP3    H215477   1.571   1.037   5.870  0.6192  0.1201 -1.0367
 5178TIP3   OH215478   0.622   4.664   6.257  0.6640 -0.3773 -0.4241
 5178TIP3    H115479   0.677   4.646   6.333  0.5589  0.1117 -0.2287
 5178TIP3    H215480   0.587   4.578   6.233  1.5107 -0.6971 -0.5581
 5179TIP3   OH215481   0.576   5.134   2.194  0.2422 -0.4212  0.0253
 5179TIP3    H115482   0.634   5.082   2.250 -0.2768 -0.3876  0.6044
 5179TIP3    H215483   0.574   5.221   2.235  0.4634 -0.1700 -0.4811
 5180TIP3   OH215484   0.598   5.519   5.123  0.0550  0.0181  0.1877
 5180TIP3    H115485   0.680   5.484   5.088  0.6554  1.6619 -0.1241
 5180TIP3    H215486   0.623   5.558   5.207 -0.6422 -0.4756  0.6322
 5181TIP3   OH215487   0.502   0.265   2.437 -0.1591 -0.0852  0.5136
 5181TIP3    H115488   0.502   0.218   2.353 -0.8369 -0.3576  0.6578
 5181TIP3    H215489   0.581   0.319   2.434  0.5300 -1.0723  0.2457
 5182TIP3   OH215490   4.132   7.205   2.426  0.9729  0.3788 -0.2648
 5182TIP3    H115491   4.055   7.160   2.461  1.6945 -2.2534 -1.7779
 5182TIP3    H215492   4.096   7.282   2.380 -0.8231 -0.8971 -1.1048
 5183TIP3   OH215493   4.291   2.149   0.587  0.0309 -0.3838 -0.7995
 5183TIP3    H115494   4.225   2.084   0.565  0.6910 -0.9739 -1.1055
 5183TIP3    H215495   4.271   2.225   0.532 -1.5523  0.2119  0.5345
 5184TIP3   OH215496   5.189   6.503   3.727 -0.2334  0.5086 -0.1299
 5184TIP3    H115497   5.153   6.561   3.660  2.3419  0.5160 -1.6469
 5184TIP3    H215498   5.274   6.541   3.749 -0.6265  0.0406  2.6235
 5185TIP3   OH215499   3.233   4.375   2.974  0.1405 -0.7317  0.2324
 5185TIP3    H115500   3.216   4.282   2.991  0.9021 -0.7050  1.2448
 5185TIP3    H215501   3.218   4.385   2.880  0.7732 -2.0486 -0.0399
 5186TIP3   OH215502   4.129   3.352   1.860 -0.4992  0.1590 -0.1296
 5186TIP3    H115503   4.075   3.370   1.937  1.2683  0.8175  1.0176
 5186TIP3    H215504   4.196   3.292   1.891  1.5284  2.0786 -0.5520
 5187TIP3   OH215505   6.779   2.521   1.207 -0.5925 -0.2710  0.3642
 5187TIP3    H115506   6.742   2.474   1.133 -2.9873 -2.2028  2.5953
 5187TIP3    H215507   6.832   2.456   1.253  0.2376  0.6702  0.7632
 5188TIP3   OH215508   7.808   6.071   6.649  0.2782 -0.8314  0.2289
 5188TIP3    H115509   7.855   5.996   6.612 -1.2388 -1.6483 -0.1420
 5188TIP3    H215510   7.873   6.115   6.704  1.6247 -1.5596 -0.7052
 5189TIP3   OH215511   3.646   5.775   1.789 -0.6851  1.0071 -0.5745
 5189TIP3    H115512   3.581   5.755   1.857  0.6395 -1.5354  0.0803
 5189TIP3    H215513   3.673   5.865   1.808 -1.2506  0.7978  1.5264
 5190TIP3   OH215514   7.204   3.486   0.107  0.4537 -0.3463  0.1049
 5190TIP3    H115515   7.269   3.416   0.099 -0.1702 -1.2063  2.0830
 5190TIP3    H215516   7.217   3.522   0.194 -0.7061  0.5188 -0.0503
 5191TIP3   OH215517   5.352   0.850   0.642 -0.0840  0.8150 -0.4488
 5191TIP3    H115518   5.377   0.877   0.731  1.7773 -1.7063 -0.0953
 5191TIP3    H215519   5.428   0.872   0.588  0.1607 -0.6175 -0.7355
 5192TIP3   OH215520   1.528   1.534   3.828 -0.0264  0.1591  0.4474
 5192TIP3    H115521   1.588   1.494   3.765 -1.1864 -2.0058  0.6609
 5192TIP3    H215522   1.474   1.593   3.776 -0.0183 -0.5189 -0.3408
 5193TIP3   OH215523   6.241   0.957   6.240  0.0339  0.2070 -0.3137
 5193TIP3    H115524   6.166   0.905   6.269 -0.0963  1.9952  3.0154
 5193TIP3    H215525   6.317   0.904   6.265 -0.1070  0.0037 -0.3058
 5194TIP3   OH215526   5.346   4.870   0.292 -0.2153 -0.2431 -0.2859
 5194TIP3    H115527   5.313   4.833   0.375 -0.0732  0.3231  0.0276
 5194TIP3    H215528   5.385   4.953   0.317  1.1033 -0.7082 -0.7117
 5195TIP3   OH215529   5.635   2.120   2.736 -0.2688 -0.3288 -0.0070
 5195TIP3    H115530   5.674   2.036   2.760 -0.9460 -0.6517  0.0076
 5195TIP3    H215531   5.697   2.185   2.768  1.1581 -0.8345 -1.6073
 5196TIP3   OH215532   1.856   5.716   2.179 -0.5057 -0.0682 -0.4664
 5196TIP3    H115533   1.815   5.778   2.239  0.3449 -0.7136  0.8249
 5196TIP3    H215534   1.932   5.763   2.144 -0.4853  0.0010 -0.3283
 5197TIP3   OH215535   7.412   5.420   4.480 -0.5697  0.1303 -0.0291
 5197TIP3    H115536   7.439   5.502   4.522  0.5077 -0.9075  1.3866
 5197TIP3    H215537   7.316   5.420   4.488 -0.6453  1.5385 -0.6479
 5198TIP3   OH215538   6.870   0.565   6.619 -0.3549 -0.0283 -0.2658
 5198TIP3    H115539   6.819   0.616   6.681 -0.9104  1.1327 -1.6155
 5198TIP3    H215540   6.808   0.501   6.584 -0.2049 -0.2870 -0.0588
 5199TIP3   OH215541   4.682   3.694   6.657  0.1850  0.4920 -0.6617
 5199TIP3    H115542   4.697   3.604   6.628  0.3012 -0.4387  1.9369
 5199TIP3    H215543   4.620   3.685   6.730  1.5822  2.2740  0.8657
 5200TIP3   OH215544   7.601   6.004   1.489 -0.0790 -0.0876  0.0861
 5200TIP3    H115545   7.547   6.028   1.414 -0.3461 -1.2693 -0.1081
 5200TIP3    H215546   7.651   6.083   1.508  0.2043  0.1442 -1.5091
 5201TIP3   OH215547   0.588   6.871   4.701 -0.0012  0.2242  0.3598
 5201TIP3    H115548   0.544   6.795   4.740 -1.3974  1.0880  0.5498
 5201TIP3    H215549   0.627   6.916   4.776 -0.0992  0.2589  0.3912
 5202TIP3   OH215550   1.017   0.619   0.797 -0.0415  0.2097 -0.0855
 5202TIP3    H115551   1.088   0.563   0.828  0.0115  0.3153 -0.0147
 5202TIP3    H215552   1.057   0.706   0.790 -0.1898  0.2891  0.0482
 5203TIP3   OH215553   8.226   0.718   4.395 -0.2501  0.0820 -0.2014
 5203TIP3    H115554   8.192   0.801   4.428  1.0957  0.3357  0.5675
 5203TIP3    H215555   8.214   0.657   4.467 -2.2441 -0.7311 -1.1185
 5204TIP3   OH215556   3.480   0.870   2.600  0.2272 -0.8325 -0.4266
 5204TIP3    H115557   3.424   0.931   2.552  0.8802 -0.9464 -1.3639
 5204TIP3    H215558   3.563   0.872   2.552  0.7698 -1.2447  0.4836
 5205TIP3   OH215559   6.304   1.583   4.926  0.5146  0.3199 -0.7100
 5205TIP3    H115560   6.315   1.512   4.989  1.5260  2.6223  1.9325
 5205TIP3    H215561   6.333   1.546   4.842  1.5367 -2.1821  0.6471
 5206TIP3   OH215562   5.436   4.049   2.070 -0.4665 -0.0856 -0.0494
 5206TIP3    H115563   5.413   4.137   2.040 -0.6002  0.3691  1.3240
 5206TIP3    H215564   5.435   4.055   2.165  0.7562 -1.2612  0.0686
 5207TIP3   OH215565   1.681   5.250   4.008 -0.0217 -0.2034  0.8390
 5207TIP3    H115566   1.626   5.261   3.931 -1.3238 -0.7447  1.6442
 5207TIP3    H215567   1.767   5.283   3.982 -0.7567  0.8056 -0.4198
 5208TIP3   OH215568   5.735   6.886   2.297  0.4249  0.2303  0.0946
 5208TIP3    H115569   5.728   6.878   2.392 -2.0539 -3.3514 -0.1791
 5208TIP3    H215570   5.790   6.812   2.271  0.7005  0.8962 -1.3086
 5209TIP3   OH215571   0.335   5.464   6.061  0.0176  0.4819  0.6651
 5209TIP3    H115572   0.372   5.381   6.092 -0.1137  0.2381  0.1782
 5209TIP3    H215573   0.337   5.456   5.965 -1.5671  0.3504  0.6273
 5210TIP3   OH215574   1.266   2.374   0.760 -0.1677  0.2459  0.0937
 5210TIP3    H115575   1.209   2.302   0.731  0.3654 -0.2492  0.2582
 5210TIP3    H215576   1.350   2.332   0.780  0.1056  0.8931  0.3395
 5211TIP3   OH215577   5.874   5.603   3.274  0.3226 -0.0750  0.1570
 5211TIP3    H115578   5.848   5.562   3.191  0.4530  1.3544 -0.6069
 5211TIP3    H215579   5.809   5.572   3.337 -1.9241  1.5795 -1.2240
 5212TIP3   OH215580   6.781   6.429   3.393 -0.3111  0.2637  0.3690
 5212TIP3    H115581   6.698   6.478   3.397  0.1469  0.9612  2.9928
 5212TIP3    H215582   6.848   6.497   3.383  0.0079 -0.3179 -2.1624
 5213TIP3   OH215583   1.617   2.095   0.250  0.0752 -0.1994 -0.0733
 5213TIP3    H115584   1.531   2.088   0.208 -0.3245  0.5620  0.5975
 5213TIP3    H215585   1.670   2.027   0.207 -1.1197 -1.3135  0.1542
 5214TIP3   OH215586   7.001   0.135   3.348  0.5293  0.1369  0.1800
 5214TIP3    H115587   7.016   0.117   3.440 -0.5348 -2.7614 -0.0986
 5214TIP3    H215588   7.032   0.056   3.303 -0.8447  0.6118 -1.7408
 5215TIP3   OH215589   2.374   4.837   1.639  0.5426  0.2022 -0.5696
 5215TIP3    H115590   2.325   4.903   1.591  0.3630 -0.4863 -1.3418
 5215TIP3    H215591   2.364   4.863   1.731  0.7978  1.4602 -0.8675
 5216TIP3   OH215592   6.504   5.045   0.165 -0.5027 -0.0009  0.0773
 5216TIP3    H115593   6.476   4.988   0.093  1.9143 -1.1861 -0.0282
 5216TIP3    H215594   6.500   4.989   0.243  1.1182 -0.1414  0.1022
 5217TIP3   OH215595   3.901   5.492   4.423  0.1475 -0.0438 -0.0641
 5217TIP3    H115596   3.996   5.482   4.420  0.0103 -1.7539  0.2416
 5217TIP3    H215597   3.885   5.544   4.502  0.8013 -0.1378  0.1365
 5218TIP3   OH215598   0.009   3.769   4.885  0.6526  1.0226  0.0176
 5218TIP3    H115599   0.016   3.818   4.803 -1.2160  0.6757 -0.3792
 5218TIP3    H215600   0.027   3.678   4.860 -0.0612  0.8951 -0.0446
 5219TIP3   OH215601   7.713   0.560   3.160 -0.6135  0.3928 -0.1307
 5219TIP3    H115602   7.664   0.635   3.127 -1.8813  0.2827  1.3714
 5219TIP3    H215603   7.656   0.521   3.227  0.1290 -1.7278 -0.6273
 5220TIP3   OH215604   0.019   6.809   6.458 -0.3138 -0.1122 -0.2572
 5220TIP3    H115605   0.033   6.819   6.553  0.5470  0.7674 -0.4507
 5220TIP3    H215606   0.025   6.715   6.442 -0.1303 -0.2408  0.5234
 5221TIP3   OH215607   2.161   7.002   0.326  0.5496 -0.4428  0.1418
 5221TIP3    H115608   2.107   6.939   0.278 -0.6492  0.9747 -0.5008
 5221TIP3    H215609   2.249   6.991   0.291 -0.0120 -0.5001 -1.3302
 5222TIP3   OH215610   7.846   2.981   0.631  0.0027 -0.2360  0.0938
 5222TIP3    H115611   7.836   2.944   0.719 -1.6552  0.8295  0.4037
 5222TIP3    H215612   7.806   3.067   0.637  1.4288  0.5750 -1.2823
 5223TIP3   OH215613   1.473   1.331   5.687 -0.2911 -0.2214 -0.5092
 5223TIP3    H115614   1.384   1.303   5.710 -0.2493  1.0548  1.4563
 5223TIP3    H215615   1.479   1.421   5.719  1.6558 -0.2218 -0.7470
 5224TIP3   OH215616   3.375   5.677   2.928 -0.5608  0.0269  0.0976
 5224TIP3    H115617   3.355   5.591   2.965 -1.2699 -0.2669 -0.9182
 5224TIP3    H215618   3.441   5.659   2.861  0.3380  0.4821  0.8352
 5225TIP3   OH215619   2.830   0.586   1.514  0.7090  0.0550 -0.0476
 5225TIP3    H115620   2.750   0.635   1.532  0.4041 -0.8711  1.2848
 5225TIP3    H215621   2.820   0.505   1.565  2.2753 -0.2878 -0.2430
 5226TIP3   OH215622   5.872   6.984   1.969 -0.4070  0.2444 -0.5219
 5226TIP3    H115623   5.931   6.949   2.036 -0.5708 -0.2410 -0.6348
 5226TIP3    H215624   5.923   7.053   1.926  0.0138 -0.0466 -0.4952
 5227TIP3   OH215625   4.533   6.977   5.553 -0.3635  0.2491 -0.2345
 5227TIP3    H115626   4.440   6.991   5.539 -0.1926  0.7498 -0.8737
 5227TIP3    H215627   4.545   6.882   5.542 -0.9272  0.0607  0.6753
 5228TIP3   OH215628   3.121   2.693   2.409 -0.4479 -0.2512  0.0831
 5228TIP3    H115629   3.216   2.681   2.405 -0.2451  0.6844  1.3057
 5228TIP3    H215630   3.094   2.647   2.489 -0.7500  0.8697  0.6583
 5229TIP3   OH215631   4.941   1.926   4.344 -0.1287  0.2997  0.6038
 5229TIP3    H115632   4.891   2.008   4.344 -3.0406 -1.3184  0.5033
 5229TIP3    H215633   4.921   1.886   4.260  1.3261 -0.4765  0.6075
 5230TIP3   OH215634   7.446   4.157   5.917 -0.4072  1.0191 -0.5734
 5230TIP3    H115635   7.491   4.232   5.879 -1.3320  1.3467 -1.0632
 5230TIP3    H215636   7.491   4.081   5.881  1.1582  1.3051  0.6728
 5231TIP3   OH215637   7.256   0.558   3.488  0.1730  0.0060  0.4606
 5231TIP3    H115638   7.262   0.631   3.427  1.4679  0.2869  0.8928
 5231TIP3    H215639   7.345   0.545   3.519  0.1932 -2.4632 -0.3951
 5232TIP3   OH215640   2.263   6.330   5.066 -0.1054  0.2587  0.2705
 5232TIP3    H115641   2.175   6.300   5.048  0.8277 -2.5807 -0.0236
 5232TIP3    H215642   2.285   6.386   4.991 -1.0461 -0.4367 -0.5558
 5233TIP3   OH215643   1.002   2.658   1.870 -0.3844  0.2347 -0.1069
 5233TIP3    H115644   0.993   2.728   1.936  1.2260 -0.2820  0.7244
 5233TIP3    H215645   0.968   2.580   1.913  0.7761 -0.1287  0.2026
 5234TIP3   OH215646   3.132   4.207   4.075 -0.0958  0.0614  0.6977
 5234TIP3    H115647   3.177   4.185   4.157  1.6342  1.7408  0.2754
 5234TIP3    H215648   3.139   4.303   4.069 -1.4537  0.1021 -0.7135
 5235TIP3   OH215649   0.019   1.657   3.335 -0.0791 -0.4777  0.3580
 5235TIP3    H115650   0.096   1.634   3.282  1.0350  1.6860  0.9145
 5235TIP3    H215651  -0.047   1.683   3.271  0.5357  0.0737 -0.0732
 5236TIP3   OH215652   6.100   6.583   1.373  0.2205 -0.7323 -0.2673
 5236TIP3    H115653   6.054   6.664   1.352  1.2111 -0.4329 -1.3630
 5236TIP3    H215654   6.193   6.608   1.378  0.6068 -1.8759 -1.1401
 5237TIP3   OH215655   1.566   1.560   5.810  0.2104 -0.0441 -0.6212
 5237TIP3    H115656   1.591   1.638   5.760  0.7969  0.5596  0.5613
 5237TIP3    H215657   1.635   1.552   5.876 -1.2890  0.0322  1.0056
 5238TIP3   OH215658   2.987   1.846   5.306 -0.1608 -0.3249  0.2400
 5238TIP3    H115659   3.077   1.816   5.314  0.2444  0.6411 -0.4989
 5238TIP3    H215660   2.952   1.797   5.231 -0.4626 -1.1406  0.8886
 5239TIP3   OH215661   3.635   3.435   6.043  0.2533 -0.2136  0.3405
 5239TIP3    H115662   3.714   3.422   6.096 -0.8457 -1.4582  1.7855
 5239TIP3    H215663   3.664   3.422   5.953  1.8549  0.2332  0.7522
 5240TIP3   OH215664   4.160   5.822   0.360  0.0839 -0.2937 -0.2898
 5240TIP3    H115665   4.149   5.793   0.269 -0.8880 -2.0178  0.3328
 5240TIP3    H215666   4.142   5.744   0.412 -0.2712  0.8899  1.4282
 5241TIP3   OH215667   5.671   5.907   2.727 -0.0297 -0.8399 -0.0262
 5241TIP3    H115668   5.686   5.923   2.820 -1.8512 -0.6876  0.2745
 5241TIP3    H215669   5.720   5.827   2.708 -1.4190 -2.1785  1.6428
 5242TIP3   OH215670   2.581   4.074   0.529  0.3043  0.2962 -0.4679
 5242TIP3    H115671   2.542   4.012   0.467  0.5018 -0.3328  0.0304
 5242TIP3    H215672   2.515   4.143   0.538 -1.4842 -1.5360  1.6001
 5243TIP3   OH215673   0.688   6.788   1.453  0.2235  0.3162 -0.2435
 5243TIP3    H115674   0.698   6.863   1.511  0.3784 -1.2599  1.8833
 5243TIP3    H215675   0.759   6.729   1.477 -0.3528 -0.8717 -1.3107
 5244TIP3   OH215676   0.561   4.644   2.378 -0.1067  0.1209  0.8122
 5244TIP3    H115677   0.540   4.726   2.422  1.0410 -0.7174  3.0937
 5244TIP3    H215678   0.529   4.655   2.289 -0.4527  2.8278  1.2061
 5245TIP3   OH215679   6.569   2.156   4.151 -0.0743  0.0428 -0.4794
 5245TIP3    H115680   6.572   2.103   4.231  2.0888  1.9534  0.8626
 5245TIP3    H215681   6.481   2.193   4.151 -1.0530 -2.1676 -0.5557
 5246TIP3   OH215682   3.974   3.249   3.102  0.1282 -0.0023  0.3654
 5246TIP3    H115683   3.993   3.188   3.031 -0.2848 -1.1521  1.2056
 5246TIP3    H215684   3.894   3.294   3.074  0.4210  0.1413 -0.2511
 5247TIP3   OH215685   4.604   1.306   1.160  0.2653 -0.2532  0.2558
 5247TIP3    H115686   4.692   1.344   1.164 -0.0913  0.5726  0.2247
 5247TIP3    H215687   4.571   1.333   1.075  0.4694 -1.6655 -0.3032
 5248TIP3   OH215688   0.442   0.576   3.249 -0.7156  0.0115 -0.4921
 5248TIP3    H115689   0.447   0.503   3.311  0.6831  0.4746 -0.0290
 5248TIP3    H215690   0.374   0.633   3.284 -0.6150 -0.2175  0.0850
 5249TIP3   OH215691   7.949   7.259   4.782 -0.2775 -0.1630  0.3071
 5249TIP3    H115692   7.973   7.259   4.689 -0.3739 -0.6369  0.2760
 5249TIP3    H215693   7.893   7.335   4.793  1.9900  1.5720  0.5940
 5250TIP3   OH215694   6.996   4.689   5.499  0.2920 -0.3642 -0.0890
 5250TIP3    H115695   6.955   4.743   5.432  0.0155  0.0571  0.4170
 5250TIP3    H215696   6.933   4.619   5.516  0.1320 -0.1680  0.1177
 5251TIP3   OH215697   5.240   2.984   5.849  0.2691 -0.7232 -0.2012
 5251TIP3    H115698   5.243   2.980   5.754  0.3165 -2.6312 -0.1575
 5251TIP3    H215699   5.287   2.906   5.878 -2.3050 -1.8542  1.3035
 5252TIP3   OH215700   6.105   5.459   2.568 -0.5769 -0.0375  0.6594
 5252TIP3    H115701   6.080   5.374   2.605  0.7219 -0.9102 -0.3790
 5252TIP3    H215702   6.103   5.519   2.643  1.4672 -1.6269  2.1177
 5253TIP3   OH215703   7.805   1.338   1.789  0.6054 -0.1196 -0.3455
 5253TIP3    H115704   7.741   1.409   1.802  0.8761  0.0771 -0.0684
 5253TIP3    H215705   7.883   1.382   1.756  0.8070 -0.2756 -0.0797
 5254TIP3   OH215706   3.025   0.070   3.234  0.0152 -0.4044 -0.0403
 5254TIP3    H115707   3.084   0.145   3.227  0.7658 -0.9996 -0.2336
 5254TIP3    H215708   3.074   0.006   3.286 -0.2517 -1.1084 -0.6369
 5255TIP3   OH215709   5.550   3.494   1.014  0.7543 -0.2049  0.1696
 5255TIP3    H115710   5.476   3.451   1.057  0.6120  1.7083  2.0222
 5255TIP3    H215711   5.596   3.538   1.085  2.3276  0.5918 -1.2720
 5256TIP3   OH215712   1.662   4.325   1.246  0.4638 -0.0566  0.3497
 5256TIP3    H115713   1.585   4.347   1.298  0.0352  0.9210 -0.6527
 5256TIP3    H215714   1.715   4.405   1.246 -0.7149  0.8489 -2.6649
 5257TIP3   OH215715   4.387   2.857   3.702 -0.5322 -0.3028 -0.4619
 5257TIP3    H115716   4.420   2.938   3.741 -0.6195 -1.2405  1.6607
 5257TIP3    H215717   4.294   2.873   3.689 -0.0339  1.0410 -3.1035
 5258TIP3   OH215718   5.700   4.669   0.239  0.3034  0.0669 -0.4170
 5258TIP3    H115719   5.782   4.690   0.195  0.5552  1.2936  0.5655
 5258TIP3    H215720   5.725   4.625   0.319 -0.0326 -0.0534 -0.3739
 5259TIP3   OH215721   0.406   2.397   2.273 -0.0354 -0.3135 -0.0143
 5259TIP3    H115722   0.355   2.406   2.193  0.2239  0.4666 -0.1063
 5259TIP3    H215723   0.429   2.304   2.278 -2.1001 -0.8464  0.4313
 5260TIP3   OH215724   8.183   2.441   5.771 -0.1942 -0.3633 -0.5169
 5260TIP3    H115725   8.253   2.493   5.730  0.2091 -0.6954 -0.2655
 5260TIP3    H215726   8.179   2.361   5.719 -0.9084 -0.0321 -0.9843
 5261TIP3   OH215727   3.300   6.427   0.156  0.3005 -0.2447 -0.0130
 5261TIP3    H115728   3.299   6.432   0.060 -0.1661 -0.6852 -0.0365
 5261TIP3    H215729   3.389   6.452   0.180  0.6391 -0.8142 -0.6109
 5262TIP3   OH215730   3.935   5.480   5.496 -0.7443 -0.1021 -0.1148
 5262TIP3    H115731   3.931   5.575   5.507  0.9313 -0.0242  0.0328
 5262TIP3    H215732   4.000   5.451   5.560 -1.2413 -1.3570 -0.1525
 5263TIP3   OH215733   0.105   5.576   1.749 -0.1755 -0.4065  0.2998
 5263TIP3    H115734   0.079   5.664   1.723  0.2105 -0.6751 -1.1061
 5263TIP3    H215735   0.187   5.588   1.797  0.9060 -0.1043 -1.5175
 5264TIP3   OH215736   1.767   7.824   5.525  0.6083 -0.3428  0.8049
 5264TIP3    H115737   1.760   7.871   5.442 -2.4157 -0.2380  0.9930
 5264TIP3    H215738   1.708   7.749   5.515 -0.0364 -0.1928  2.8962
 5265TIP3   OH215739   0.071   5.916   2.308 -0.8700  0.0136 -0.3062
 5265TIP3    H115740   0.043   6.004   2.330  0.6522  0.2879  0.7318
 5265TIP3    H215741   0.063   5.867   2.390  4.4063  0.9048  1.1071
 5266TIP3   OH215742   2.647   1.683   6.555  0.3639  0.1053  0.1193
 5266TIP3    H115743   2.563   1.648   6.527  0.5208 -0.1065 -0.0874
 5266TIP3    H215744   2.710   1.649   6.491  0.2975  2.0538 -1.0646
 5267TIP3   OH215745   3.599   4.949   5.290  0.0168  0.2595 -0.6807
 5267TIP3    H115746   3.508   4.978   5.300  0.2702  1.1049 -0.7279
 5267TIP3    H215747   3.638   5.014   5.231  0.5184 -0.3886 -1.0736
 5268TIP3   OH215748   7.516   4.273   4.652 -0.0861 -0.4896 -0.2585
 5268TIP3    H115749   7.454   4.320   4.597  1.8977 -0.9883 -3.1341
 5268TIP3    H215750   7.551   4.340   4.711 -0.5776  0.6295 -1.1906
 5269TIP3   OH215751   1.522   0.896   2.478  0.1149  0.3363  0.3111
 5269TIP3    H115752   1.483   0.868   2.561  2.4278 -0.7977  1.1083
 5269TIP3    H215753   1.523   0.818   2.424  0.4934  0.5548 -0.0034
 5270TIP3   OH215754   1.200   4.613   5.831  0.7050  0.1277  0.0995
 5270TIP3    H115755   1.254   4.536   5.816  0.8697  0.1121  0.7718
 5270TIP3    H215756   1.182   4.647   5.743  0.1274 -1.0154 -0.2449
 5271TIP3   OH215757   8.056   3.328   2.612  0.4971  0.4543 -0.2153
 5271TIP3    H115758   8.069   3.392   2.543 -3.2206  0.0462 -1.5511
 5271TIP3    H215759   8.081   3.373   2.692 -1.1122  3.3492 -1.1972
 5272TIP3   OH215760   7.657   4.353   2.009  0.1451 -0.3980 -0.0239
 5272TIP3    H115761   7.709   4.433   2.015 -1.1410  0.4560  0.0574
 5272TIP3    H215762   7.570   4.383   1.982 -0.2440 -1.8146 -0.4128
 5273TIP3   OH215763   7.194   6.833   0.258  0.2658  0.1106 -0.2390
 5273TIP3    H115764   7.117   6.882   0.231  0.7069  1.2533  0.4832
 5273TIP3    H215765   7.260   6.900   0.275  0.1302 -0.4451  3.3578
 5274TIP3   OH215766   6.254   5.141   4.306 -0.3217  0.0117  0.4642
 5274TIP3    H115767   6.274   5.048   4.311 -0.6703 -0.0647  0.4875
 5274TIP3    H215768   6.265   5.163   4.213 -0.5578 -0.1251  0.4047
 5275TIP3   OH215769   3.075   2.056   1.227  0.2246  0.3605 -0.2337
 5275TIP3    H115770   3.169   2.065   1.246 -0.0051 -0.2638  1.4104
 5275TIP3    H215771   3.032   2.112   1.292 -0.5630 -0.1699 -0.2791
 5276TIP3   OH215772   3.834   6.023   0.723  0.1032  0.2575 -0.1099
 5276TIP3    H115773   3.868   5.935   0.737  0.9906  0.6482  0.2635
 5276TIP3    H215774   3.870   6.049   0.638  0.3221  0.4684  0.0432
 5277TIP3   OH215775   6.165   1.297   5.597  0.3182 -0.2406 -0.3154
 5277TIP3    H115776   6.247   1.313   5.644  0.6730 -1.6945 -0.3939
 5277TIP3    H215777   6.186   1.317   5.506  0.7138 -0.9968 -0.3954
 5278TIP3   OH215778   4.124   0.260   2.438 -0.5968  0.2160 -0.5923
 5278TIP3    H115779   4.104   0.276   2.346 -0.4542 -0.5625 -0.7628
 5278TIP3    H215780   4.083   0.176   2.458  1.5010 -0.9025 -0.6652
 5279TIP3   OH215781   6.678   4.319   0.718  0.3014  0.1545  0.0384
 5279TIP3    H115782   6.680   4.226   0.693  0.8131  0.7592 -2.4672
 5279TIP3    H215783   6.739   4.325   0.792 -0.4285 -1.6344  0.8313
 5280TIP3   OH215784   4.260   6.653   2.777 -0.2576  0.2264 -0.3710
 5280TIP3    H115785   4.185   6.708   2.754 -0.4231 -0.1762 -0.8052
 5280TIP3    H215786   4.323   6.668   2.706 -0.1900  0.0704 -0.3441
 5281TIP3   OH215787   5.727   3.174   1.225  0.2254  0.1762 -0.5354
 5281TIP3    H115788   5.790   3.199   1.292 -0.8025  2.8825 -0.4608
 5281TIP3    H215789   5.775   3.181   1.143  1.2088 -2.1893 -0.2423
 5282TIP3   OH215790   8.196   6.896   2.174  0.3784  0.1622 -0.3359
 5282TIP3    H115791   8.226   6.910   2.264 -0.3287 -0.0634 -0.0536
 5282TIP3    H215792   8.224   6.807   2.153 -1.5693 -0.7515  0.5813
 5283TIP3   OH215793   8.027   2.311   5.943 -0.4905  0.1608 -0.4430
 5283TIP3    H115794   8.078   2.336   5.866  0.5883  0.0432  0.2094
 5283TIP3    H215795   8.059   2.368   6.012 -0.3024 -0.8058  0.2901
 5284TIP3   OH215796   0.983   3.079   3.444 -0.1932 -0.2304  0.9253
 5284TIP3    H115797   0.973   3.163   3.489 -0.8804 -0.5408  1.3650
 5284TIP3    H215798   0.894   3.052   3.422  0.0896 -0.4182 -0.0226
 5285TIP3   OH215799   5.188   7.088   0.737  0.0644  0.3653 -0.3395
 5285TIP3    H115800   5.210   7.174   0.773 -1.6570  0.8483 -0.3507
 5285TIP3    H215801   5.265   7.034   0.756  0.8268  1.6613  0.4509
 5286TIP3   OH215802   6.354   6.565   6.083  0.0656  0.0518 -0.3872
 5286TIP3    H115803   6.378   6.478   6.052  0.3156  0.3901 -1.1555
 5286TIP3    H215804   6.276   6.550   6.137 -0.4976 -0.5287 -1.3412
 5287TIP3   OH215805   6.803   4.886   2.529  0.7857  0.6575  0.2452
 5287TIP3    H115806   6.802   4.824   2.601 -0.7613 -1.0598 -1.1626
 5287TIP3    H215807   6.711   4.891   2.501  1.3723  1.0692 -1.7522
 5288TIP3   OH215808   7.864   3.659   4.710 -0.2103  0.2035 -0.3566
 5288TIP3    H115809   7.904   3.707   4.638 -1.5084  2.5040  0.3722
 5288TIP3    H215810   7.916   3.683   4.786 -1.0089  0.6535  0.0557
 5289TIP3   OH215811   7.587   1.438   2.439  0.4330 -0.3700 -0.1248
 5289TIP3    H115812   7.616   1.448   2.349 -0.6389 -0.9740 -0.5517
 5289TIP3    H215813   7.658   1.390   2.482  0.5416 -0.9175 -0.8903
 5290TIP3   OH215814   4.826   1.670   1.353  0.0537  0.2661  0.4583
 5290TIP3    H115815   4.827   1.594   1.412  1.5438  1.2567  1.8014
 5290TIP3    H215816   4.815   1.745   1.411 -0.8484  1.1353 -0.7941
 5291TIP3   OH215817   8.150   3.590   3.983 -0.9745 -0.4149 -0.2824
 5291TIP3    H115818   8.187   3.512   4.024  1.7101  0.8775 -0.0239
 5291TIP3    H215819   8.209   3.609   3.910  0.1177  2.7642  1.2035
 5292TIP3   OH215820   3.296   1.386   6.407  0.2673 -0.3079  0.0824
 5292TIP3    H115821   3.385   1.361   6.381 -0.7949 -2.1100 -2.1448
 5292TIP3    H215822   3.246   1.385   6.326 -2.2747 -1.5790  1.5541
 5293TIP3   OH215823   4.206   1.331   0.540  0.2546 -0.6735 -0.1156
 5293TIP3    H115824   4.191   1.350   0.447 -1.3098 -2.0020 -0.1662
 5293TIP3    H215825   4.197   1.236   0.548  1.8616 -0.7697  1.1690
 5294TIP3   OH215826   3.944   2.202   5.038  0.4295 -0.3491  0.2591
 5294TIP3    H115827   3.991   2.222   4.957 -0.7738 -0.0927 -0.3885
 5294TIP3    H215828   3.889   2.279   5.054 -1.1335 -1.3648 -0.0029
 5295TIP3   OH215829   5.195   1.226   4.223 -0.2046  0.1455  0.2411
 5295TIP3    H115830   5.251   1.248   4.297 -1.9676  1.9998  1.0981
 5295TIP3    H215831   5.172   1.134   4.237  0.0795  0.2694  1.6053
 5296TIP3   OH215832   2.412   5.560   5.007  0.1285  0.1345  0.6700
 5296TIP3    H115833   2.469   5.632   5.034 -0.4646  0.9678 -0.2458
 5296TIP3    H215834   2.326   5.600   4.997 -0.2279 -0.7254  0.2192
 5297TIP3   OH215835   1.639   7.107   3.707  0.3656 -0.0278  0.2816
 5297TIP3    H115836   1.717   7.163   3.705  0.4439 -0.1465 -0.0451
 5297TIP3    H215837   1.674   7.018   3.698  0.1676 -0.0617 -0.1332
 5298TIP3   OH215838   4.346   2.045   1.331  0.0412  0.2117  0.6253
 5298TIP3    H115839   4.347   2.065   1.237 -0.2470 -0.7840  0.3949
 5298TIP3    H215840   4.392   1.962   1.338 -1.5108 -0.6459  1.1284
 5299TIP3   OH215841   4.869   3.145   4.978 -0.2827 -0.2354 -0.2681
 5299TIP3    H115842   4.848   3.234   5.005  2.2336  0.7831 -1.3558
 5299TIP3    H215843   4.878   3.096   5.060 -1.4616  0.5621  0.3491
 5300TIP3   OH215844   7.138   5.875   5.385 -0.1441  0.0331  0.0770
 5300TIP3    H115845   7.204   5.810   5.412  0.3940  1.0075  1.2281
 5300TIP3    H215846   7.143   5.943   5.453 -2.1601  0.2733  0.0432
 5301TIP3   OH215847   4.178   2.747   5.095 -0.2954 -0.3579  0.0459
 5301TIP3    H115848   4.251   2.774   5.039 -0.5637 -1.2012 -0.7352
 5301TIP3    H215849   4.103   2.794   5.059 -0.7785 -2.0858 -1.3649
 5302TIP3   OH215850   2.604   1.327   1.146  0.2675 -0.8014 -0.3880
 5302TIP3    H115851   2.523   1.296   1.106  0.4013  0.6254 -1.9048
 5302TIP3    H215852   2.629   1.259   1.208 -2.2835 -1.0964  0.4085
 5303TIP3   OH215853   6.920   3.684   3.321  0.0904 -0.5233  0.0798
 5303TIP3    H115854   6.984   3.697   3.391 -0.1844  1.0508  0.0709
 5303TIP3    H215855   6.920   3.589   3.306  0.1620 -0.9112  2.1874
 5304TIP3   OH215856   1.586   5.400   0.783 -0.1768 -0.3437  0.0328
 5304TIP3    H115857   1.554   5.465   0.720  0.0040 -0.6266 -0.3519
 5304TIP3    H215858   1.629   5.334   0.729  0.6055 -0.2313  0.5043
 5305TIP3   OH215859   4.432   1.125   3.763 -0.4446 -0.1182  0.2583
 5305TIP3    H115860   4.430   1.060   3.694 -1.0539 -1.9906  1.9389
 5305TIP3    H215861   4.521   1.160   3.761 -0.8477  0.9953 -2.3560
 5306TIP3   OH215862   4.884   5.697   0.704 -0.0206  0.6892 -0.0251
 5306TIP3    H115863   4.804   5.674   0.751 -0.4971  0.4882 -0.9030
 5306TIP3    H215864   4.920   5.772   0.751  0.3085 -0.3915  1.5103
 5307TIP3   OH215865   1.094   3.673   6.680  0.0557 -0.0515  0.3414
 5307TIP3    H115866   1.117   3.588   6.717 -1.3543 -1.0208 -0.8867
 5307TIP3    H215867   1.000   3.669   6.666 -0.2039  2.0684  1.0442
 5308TIP3   OH215868   1.795   1.857   5.178 -0.1450 -0.5734  0.1099
 5308TIP3    H115869   1.712   1.825   5.142 -1.4785 -0.6379  3.0074
 5308TIP3    H215870   1.855   1.783   5.167 -1.6605 -2.1231  1.7035
 5309TIP3   OH215871   5.917   0.620   3.709 -0.6431 -0.3018 -0.0082
 5309TIP3    H115872   5.969   0.699   3.722  0.3148 -1.0412  0.8007
 5309TIP3    H215873   5.871   0.635   3.627 -0.4863  1.0977  0.1425
 5310TIP3   OH215874   1.269   5.564   2.857  0.1613 -0.2264 -0.2959
 5310TIP3    H115875   1.283   5.599   2.945  0.2250 -1.2315  0.1100
 5310TIP3    H215876   1.257   5.642   2.802 -0.2598  0.4089  0.6591
 5311TIP3   OH215877   5.996   6.236   0.689 -0.1149 -0.0315  0.3230
 5311TIP3    H115878   5.948   6.260   0.768 -1.4214 -0.7842 -0.2025
 5311TIP3    H215879   5.952   6.285   0.619 -0.5434 -1.2034 -0.2521
 5312TIP3   OH215880   7.680   4.244   6.121  0.8317  0.2103 -0.4835
 5312TIP3    H115881   7.634   4.175   6.168  0.8930  0.2821 -0.3173
 5312TIP3    H215882   7.732   4.198   6.055  3.0779 -0.1645  1.4195
 5313TIP3   OH215883   3.887   0.325   4.487  0.2908  0.7369  0.1171
 5313TIP3    H115884   3.947   0.320   4.562 -0.2422 -1.3837  0.4487
 5313TIP3    H215885   3.885   0.236   4.451 -2.4473  0.7848 -0.0575
 5314TIP3   OH215886   0.526   7.757   1.988  0.1957 -0.2600  0.4020
 5314TIP3    H115887   0.472   7.825   2.028  1.2867  1.0447 -0.2421
 5314TIP3    H215888   0.466   7.706   1.934 -1.1685 -1.5805  2.9869
 5315TIP3   OH215889   7.922   3.369   1.880 -0.0631 -0.5073 -0.1574
 5315TIP3    H115890   7.830   3.390   1.864  0.2384 -0.9777 -3.2928
 5315TIP3    H215891   7.970   3.422   1.815  1.5714 -2.5509 -0.7214
 5316TIP3   OH215892   5.025   4.490   4.821 -0.0018 -0.1085 -0.2312
 5316TIP3    H115893   4.935   4.484   4.852  0.8870 -2.4214  2.3173
 5316TIP3    H215894   5.074   4.524   4.896  1.4599 -0.2834 -1.0616
 5317TIP3   OH215895   4.406   0.509   3.941  0.1674 -0.1113 -0.1258
 5317TIP3    H115896   4.434   0.599   3.956 -0.1617 -0.2684  1.6913
 5317TIP3    H215897   4.487   0.458   3.938  0.2961  0.0836  0.0439
 5318TIP3   OH215898   1.803   2.487   2.170  0.1727 -0.5193  0.0301
 5318TIP3    H115899   1.818   2.524   2.257  0.4494  0.1899 -0.3092
 5318TIP3    H215900   1.761   2.403   2.186 -0.3544 -0.1137  0.8266
 5319TIP3   OH215901   6.054   4.451   1.153  0.7951 -0.4091  0.4178
 5319TIP3    H115902   6.007   4.375   1.186  1.5695 -0.8574  0.4933
 5319TIP3    H215903   6.138   4.449   1.198  2.0561 -1.2729 -1.8255
 5320TIP3   OH215904   3.715   3.183   1.448  0.3027 -0.0630 -0.2503
 5320TIP3    H115905   3.802   3.221   1.442  0.1063  0.2743 -1.2077
 5320TIP3    H215906   3.657   3.253   1.417 -0.1771 -0.7216 -0.8726
 5321TIP3   OH215907   4.452   7.512   1.511 -0.5251 -0.1918 -0.3436
 5321TIP3    H115908   4.444   7.604   1.485  0.5673  0.9494  2.8652
 5321TIP3    H215909   4.363   7.485   1.531 -0.6336  0.9465  0.8698
 5322TIP3   OH215910   7.248   2.850   0.742  0.0555  0.1196 -0.1855
 5322TIP3    H115911   7.169   2.904   0.731 -0.1459  0.0454  0.8262
 5322TIP3    H215912   7.271   2.823   0.653 -0.0880  1.5163 -0.6721
 5323TIP3   OH215913   3.399   6.110   0.061 -0.0223  0.0726  0.2555
 5323TIP3    H115914   3.484   6.155   0.066  0.2750 -0.5077  0.6018
 5323TIP3    H215915   3.410   6.034   0.118 -1.0953  0.4891  1.0400
 5324TIP3   OH215916   2.773   1.290   3.944  0.0954 -0.4815  0.1465
 5324TIP3    H115917   2.699   1.287   4.004 -0.6169 -1.4655 -0.7292
 5324TIP3    H215918   2.790   1.383   3.930  1.3068 -0.1574  3.0305
 5325TIP3   OH215919   0.657   6.218   2.551  0.0410  0.8480 -0.5386
 5325TIP3    H115920   0.666   6.125   2.532 -0.6659  1.1995 -2.8597
 5325TIP3    H215921   0.577   6.245   2.505  0.4639  2.6908 -0.2864
 5326TIP3   OH215922   0.040   1.082   1.569 -0.4143 -0.0068 -0.2713
 5326TIP3    H115923   0.080   1.059   1.485 -1.3325  0.6097 -0.9006
 5326TIP3    H215924   0.020   0.998   1.610 -1.8763 -0.3721 -1.6246
 5327TIP3   OH215925   3.557   1.138   4.637 -0.2976  0.0064 -0.2882
 5327TIP3    H115926   3.462   1.130   4.633 -0.2824 -1.5148  1.0073
 5327TIP3    H215927   3.588   1.114   4.550 -0.9795 -3.5369  0.2959
 5328TIP3   OH215928   7.956   6.792   2.922  0.5462  0.5400 -0.1496
 5328TIP3    H115929   7.915   6.878   2.932  1.2035  0.6579  2.3949
 5328TIP3    H215930   7.892   6.730   2.956  1.2461  0.4223  1.0495
 5329TIP3   OH215931   0.140   5.345   0.893 -0.2749 -0.2561  0.1426
 5329TIP3    H115932   0.156   5.258   0.858 -0.4796 -0.6230  0.9269
 5329TIP3    H215933   0.052   5.340   0.931  0.2181 -0.1264  1.3775
 5330TIP3   OH215934   3.914   2.521   0.670 -0.3200 -0.7807 -0.4154
 5330TIP3    H115935   3.821   2.509   0.652 -0.7064 -0.2488  1.0559
 5330TIP3    H215936   3.927   2.478   0.755  0.6004 -0.1690 -0.2357
 5331TIP3   OH215937   3.116   4.395   1.987 -0.2666 -0.1559 -0.7790
 5331TIP3    H115938   3.101   4.326   1.922 -2.0270 -0.7576  0.2116
 5331TIP3    H215939   3.093   4.355   2.071  0.0784  1.2018  0.0022
 5332TIP3   OH215940   2.949   6.932   3.200 -0.8151  0.1689 -0.0875
 5332TIP3    H115941   2.915   6.940   3.110 -1.5750  0.9830  0.2592
 5332TIP3    H215942   2.884   6.878   3.245  1.2001 -3.1524 -0.8177
 5333TIP3   OH215943   0.666   4.208   1.425 -0.1763  0.6644  0.0346
 5333TIP3    H115944   0.689   4.283   1.371 -1.2783  1.0933  0.1402
 5333TIP3    H215945   0.636   4.142   1.363 -1.0699  1.0198  0.0689
 5334TIP3   OH215946   1.712   2.767   3.986  0.1376 -0.4567  0.4508
 5334TIP3    H115947   1.672   2.823   4.053 -0.1744 -0.3591  0.1841
 5334TIP3    H215948   1.672   2.795   3.904 -1.6885 -2.5057  0.5401
 5335TIP3   OH215949   3.103   7.634   5.768  0.0747 -0.0804 -0.1151
 5335TIP3    H115950   3.032   7.687   5.731  0.1866 -0.4857 -0.9257
 5335TIP3    H215951   3.182   7.686   5.752  0.1776 -0.4648 -0.8569
 5336TIP3   OH215952   1.542   1.063   6.342  0.1282 -0.0393  0.1276
 5336TIP3    H115953   1.547   0.974   6.306  1.8346 -0.1776  0.6198
 5336TIP3    H215954   1.512   1.050   6.432  0.9085 -0.1849  0.3742
 5337TIP3   OH215955   5.374   0.372   3.738 -0.4103 -0.1029  0.3627
 5337TIP3    H115956   5.403   0.447   3.792 -1.2905 -0.3167  1.1558
 5337TIP3    H215957   5.448   0.311   3.741  0.4181  0.8324 -0.4987
 5338TIP3   OH215958   5.289   5.183   4.616  0.0444  0.1722  0.3357
 5338TIP3    H115959   5.316   5.263   4.662  0.9214  0.4598 -0.6320
 5338TIP3    H215960   5.371   5.141   4.591 -0.4162 -0.7641  0.3479
 5339TIP3   OH215961   7.603   0.873   3.176  0.2781 -0.0602 -0.1106
 5339TIP3    H115962   7.632   0.964   3.165 -2.5005  0.8097 -1.3079
 5339TIP3    H215963   7.611   0.856   3.269  4.2428  0.0495 -0.2392
 5340TIP3   OH215964   5.689   3.762   5.130 -0.1105  0.5880  0.1220
 5340TIP3    H115965   5.677   3.687   5.189  0.8120 -0.2004 -0.6589
 5340TIP3    H215966   5.690   3.837   5.189  1.4988 -0.2353  1.2422
 5341TIP3   OH215967   4.347   6.901   3.652 -0.0424  0.2562  0.0835
 5341TIP3    H115968   4.263   6.928   3.689 -1.1264 -1.6981 -0.8254
 5341TIP3    H215969   4.407   6.902   3.727 -1.0391  0.9391  0.9109
 5342TIP3   OH215970   6.482   3.974   1.569 -0.1209  0.1883 -0.1896
 5342TIP3    H115971   6.547   3.958   1.638 -1.6128 -2.0882  0.8519
 5342TIP3    H215972   6.435   4.052   1.598  0.8266  0.6545  0.1160
 5343TIP3   OH215973   6.087   4.421   4.798  0.0831  0.2294 -0.0257
 5343TIP3    H115974   6.115   4.487   4.734 -0.9199  0.1626 -0.5516
 5343TIP3    H215975   6.095   4.338   4.752 -1.8340  0.2799 -0.5331
 5344TIP3   OH215976   6.411   6.309   1.622  0.4027 -0.1462 -0.2012
 5344TIP3    H115977   6.338   6.248   1.624 -0.8548  1.1280 -2.6421
 5344TIP3    H215978   6.482   6.264   1.667 -1.2010 -2.3544  0.2398
 5345TIP3   OH215979   2.438   0.151   4.121 -0.0354 -0.1904  0.0915
 5345TIP3    H115980   2.511   0.098   4.152 -1.0972 -1.5056  0.4559
 5345TIP3    H215981   2.399   0.188   4.200 -1.2467 -1.5331  0.1629
 5346TIP3   OH215982   2.537   0.474   6.294 -1.0577  0.1596  0.6499
 5346TIP3    H115983   2.575   0.562   6.291 -3.3894  1.2462  0.5957
 5346TIP3    H215984   2.484   0.473   6.373 -1.6913 -0.9202  0.2404
 5347TIP3   OH215985   3.143   4.581   4.374  0.1880  0.9258 -0.2624
 5347TIP3    H115986   3.159   4.557   4.466  1.5137 -0.3769 -0.7957
 5347TIP3    H215987   3.052   4.612   4.374  0.1411  0.9292  1.4769
 5348TIP3   OH215988   0.601   4.760   2.701 -0.1982 -0.7185 -0.0351
 5348TIP3    H115989   0.581   4.667   2.707  1.0204 -0.9220  1.3465
 5348TIP3    H215990   0.681   4.771   2.751 -0.8474  1.2366  0.6739
 5349TIP3   OH215991   6.934   4.307   2.888 -0.4230  0.5631  0.4327
 5349TIP3    H115992   6.935   4.212   2.898 -1.4304  0.4975  0.0892
 5349TIP3    H215993   6.914   4.321   2.795 -1.4304  1.0908  0.7084
 5350TIP3   OH215994   0.251   5.313   2.544  0.0626  0.3505 -0.0111
 5350TIP3    H115995   0.239   5.267   2.627  0.1365  1.2980  0.5445
 5350TIP3    H215996   0.191   5.388   2.550 -0.9122 -0.2872 -1.3799
 5351TIP3   OH215997   2.068   2.065   1.298  0.1457  0.2958  0.1578
 5351TIP3    H115998   1.975   2.075   1.321 -0.2387  1.2837 -1.6628
 5351TIP3    H215999   2.106   2.152   1.314  0.2946  0.4534 -1.0034
 5352TIP3   OH216000   2.528   7.096   3.314  0.0865 -0.0259  0.0948
 5352TIP3    H116001   2.460   7.067   3.252  0.5573  0.3346 -0.6104
 5352TIP3    H216002   2.485   7.163   3.367 -0.7268 -1.3004  1.0867
 5353TIP3   OH216003   7.565   6.662   6.379  0.0549 -0.2040 -0.2261
 5353TIP3    H116004   7.623   6.618   6.318 -3.1679 -1.5928 -2.6212
 5353TIP3    H216005   7.499   6.704   6.324 -1.6854  0.5845  2.2325
 5354TIP3   OH216006   1.287   5.190   5.431 -0.4212 -0.3067 -0.0330
 5354TIP3    H116007   1.352   5.254   5.458  0.0090 -0.5073 -0.5722
 5354TIP3    H216008   1.260   5.218   5.344 -1.0584 -0.2283  0.1819
 5355TIP3   OH216009   7.911   1.809   2.979  0.7560 -0.2689  0.0035
 5355TIP3    H116010   7.966   1.789   2.904 -0.0900 -1.1475 -0.4043
 5355TIP3    H216011   7.921   1.734   3.038 -0.7197 -0.9196 -0.5197
 5356TIP3   OH216012   3.057   4.750   0.678 -0.1938  0.2971 -0.1726
 5356TIP3    H116013   3.035   4.820   0.740 -1.3552 -1.0690  1.0446
 5356TIP3    H216014   3.130   4.703   0.719  0.9875  1.1352 -1.2747
 5357TIP3   OH216015   1.188   5.773   1.388 -0.1057  0.0002 -0.1331
 5357TIP3    H116016   1.160   5.834   1.456 -2.3905 -1.8074  0.7015
 5357TIP3    H216017   1.133   5.794   1.312 -0.2203 -0.3662 -0.1583
 5358TIP3   OH216018   7.359   1.749   3.718 -0.0110  0.2267  0.2220
 5358TIP3    H116019   7.271   1.730   3.751 -0.6259  1.5105 -0.5873
 5358TIP3    H216020   7.356   1.723   3.626 -0.0498  1.6831 -0.2122
 5359TIP3   OH216021   1.423   1.618   4.216 -0.0610  0.1643 -0.6173
 5359TIP3    H116022   1.510   1.591   4.246 -1.0595 -0.9536  1.5110
 5359TIP3    H216023   1.398   1.551   4.152  0.4904  0.3084 -0.9933
 5360TIP3   OH216024   6.449   5.484   4.205 -0.1563  0.4544  0.2297
 5360TIP3    H116025   6.359   5.473   4.176 -0.3667  0.4736  0.8468
 5360TIP3    H216026   6.485   5.552   4.149 -0.3421  0.0288 -0.4158
 5361TIP3   OH216027   0.550   0.241   3.442  0.7164 -0.2248 -0.5708
 5361TIP3    H116028   0.467   0.215   3.403  0.7050  0.9016 -1.3512
 5361TIP3    H216029   0.600   0.160   3.450 -0.6144 -0.9946  0.3406
 5362TIP3   OH216030   8.019   1.962   6.353 -0.5275  0.1572 -0.7663
 5362TIP3    H116031   8.056   1.911   6.281  1.8979  0.3894  0.2146
 5362TIP3    H216032   7.964   1.899   6.400  0.1504 -0.8067 -1.2044
 5363TIP3   OH216033   0.077   4.545   5.945  0.4252  0.6312 -0.8354
 5363TIP3    H116034   0.006   4.547   6.008  0.2666  0.2116 -0.9942
 5363TIP3    H216035   0.156   4.535   5.999  0.2646 -0.0544 -0.7092
 5364TIP3   OH216036   0.655   0.215   6.344 -0.4146 -0.2073 -0.1616
 5364TIP3    H116037   0.645   0.121   6.331  1.6884 -0.6573  0.9684
 5364TIP3    H216038   0.681   0.249   6.258  1.9977 -1.2298  0.0993
 5365TIP3   OH216039   3.720   1.953   1.408  0.0734 -0.0548  0.4879
 5365TIP3    H116040   3.674   1.876   1.375 -0.1560 -0.0290  0.7381
 5365TIP3    H216041   3.800   1.958   1.357  0.6677 -1.1516  1.2783
 5366TIP3   OH216042   0.453   3.169   1.030 -0.0474 -0.0776  0.4244
 5366TIP3    H116043   0.489   3.215   1.106 -1.8675 -0.1405  1.3780
 5366TIP3    H216044   0.360   3.193   1.029 -0.4023 -1.3737 -0.8219
 5367TIP3   OH216045   0.412   2.551   0.020  0.8673  0.0555 -0.4804
 5367TIP3    H116046   0.484   2.517   0.073 -0.3354 -0.4752  0.8798
 5367TIP3    H216047   0.334   2.504   0.052 -0.2601  1.3969 -1.1460
 5368TIP3   OH216048   4.937   5.094   5.058  0.1543  0.8122 -0.2340
 5368TIP3    H116049   4.907   5.173   5.103 -0.1764  1.1732 -1.0783
 5368TIP3    H216050   5.008   5.123   5.002 -0.5610  0.6819 -1.2270
 5369TIP3   OH216051   5.531   5.857   4.443 -0.2580  0.0311 -0.3194
 5369TIP3    H116052   5.481   5.829   4.366 -0.3619  1.0608 -0.6442
 5369TIP3    H216053   5.486   5.816   4.517 -1.7571  1.0930 -0.5810
 5370TIP3   OH216054   6.886   7.192   3.146  0.0535 -0.3070 -0.4148
 5370TIP3    H116055   6.948   7.200   3.074  0.3144 -1.7739 -0.3896
 5370TIP3    H216056   6.928   7.237   3.219  1.0085 -1.1165 -0.4549
 5371TIP3   OH216057   5.919   2.700   5.836  0.2735 -0.4186  0.0011
 5371TIP3    H116058   5.913   2.606   5.853  0.8051 -0.4064  0.3158
 5371TIP3    H216059   5.916   2.740   5.924 -1.0858 -0.0625 -0.1912
 5372TIP3   OH216060   1.849   1.341   0.025 -0.1807  0.3901  0.2771
 5372TIP3    H116061   1.802   1.281  -0.032  1.2800  0.2304 -0.8054
 5372TIP3    H216062   1.831   1.309   0.114 -2.4144  0.5963 -0.0479
 5373TIP3   OH216063   5.078   5.150   4.370 -0.2768 -0.0500 -0.0698
 5373TIP3    H116064   5.145   5.087   4.396 -0.0925  0.4245  0.6258
 5373TIP3    H216065   5.115   5.235   4.394 -0.9371  0.2501 -0.1009
 5374TIP3   OH216066   5.425   5.270   6.689 -0.5873  0.0783 -0.3651
 5374TIP3    H116067   5.340   5.314   6.683 -1.6615 -2.0435 -2.0156
 5374TIP3    H216068   5.479   5.314   6.623 -0.9310  0.3672 -0.4562
 5375TIP3   OH216069   4.447   3.572   1.285 -0.6046 -0.0005  0.5978
 5375TIP3    H116070   4.470   3.563   1.377  0.1572 -1.4532  0.2944
 5375TIP3    H216071   4.461   3.485   1.248  2.0372  1.1882 -1.5158
 5376TIP3   OH216072   0.889   4.572   2.018  0.1828 -0.0972  0.6717
 5376TIP3    H116073   0.819   4.516   1.984 -1.6398  2.4461 -0.0277
 5376TIP3    H216074   0.883   4.563   2.113  0.8115 -2.0178  0.5737
 5377TIP3   OH216075   3.928   6.264   6.770 -0.2599  0.0908 -0.0636
 5377TIP3    H116076   3.882   6.278   6.687  0.1266  3.1226  0.0909
 5377TIP3    H216077   3.867   6.215   6.824 -1.4143 -0.0017 -1.3999
 5378TIP3   OH216078   2.275   6.892   4.472 -0.4798 -0.1988 -0.0429
 5378TIP3    H116079   2.331   6.969   4.462 -1.4320  0.4561 -0.5314
 5378TIP3    H216080   2.300   6.854   4.556  2.0616 -1.0803 -1.1222
 5379TIP3   OH216081   1.241   3.886   4.395  0.6056 -0.0349 -0.6403
 5379TIP3    H116082   1.299   3.850   4.463  0.4995 -2.3263 -1.6732
 5379TIP3    H216083   1.153   3.863   4.424  0.3517  1.2754 -0.3047
 5380TIP3   OH216084   6.321   6.835   0.082 -0.3033  0.4638  0.1015
 5380TIP3    H116085   6.356   6.756   0.041 -2.2098 -0.9279  1.0142
 5380TIP3    H216086   6.286   6.887   0.010  1.2911  0.7135 -0.5442
 5381TIP3   OH216087   2.151   1.438   0.347 -0.6046 -0.1434  0.4557
 5381TIP3    H116088   2.209   1.377   0.302 -2.1184 -0.7156 -0.8054
 5381TIP3    H216089   2.205   1.515   0.363  0.5075 -0.6604 -0.6392
 5382TIP3   OH216090   7.066   0.760   6.614  0.0741 -0.2429 -0.0737
 5382TIP3    H116091   7.010   0.683   6.606 -1.0516  0.5846 -0.3128
 5382TIP3    H216092   7.142   0.740   6.559 -0.5705 -0.8662 -0.7629
 5383TIP3   OH216093   3.000   6.297   5.562 -0.0639  0.1537  0.0411
 5383TIP3    H116094   3.011   6.307   5.468 -0.3018  0.3995  0.0384
 5383TIP3    H216095   3.059   6.363   5.600  0.0066  0.0774  0.0639
 5384TIP3   OH216096   3.011   1.782   5.596 -0.6095 -0.3609 -0.3733
 5384TIP3    H116097   3.010   1.802   5.503  0.5320  1.9917  0.0310
 5384TIP3    H216098   2.927   1.814   5.629 -2.0929 -3.3622 -0.8624
 5385TIP3   OH216099   8.291   1.940   1.312 -0.3447 -0.0246  0.5696
 5385TIP3    H116100   8.354   1.889   1.260 -0.5360  0.4522 -0.1445
 5385TIP3    H216101   8.206   1.904   1.288 -0.2971 -1.6453  2.6119
 5386TIP3   OH216102   4.810   3.122   0.685 -0.1985 -0.1719 -0.1394
 5386TIP3    H116103   4.766   3.205   0.701  0.3055  0.4342 -1.6369
 5386TIP3    H216104   4.898   3.147   0.657 -0.2010 -1.1587 -1.1220
 5387TIP3   OH216105   0.577   4.590   1.749 -0.2284 -0.1274 -0.0962
 5387TIP3    H116106   0.662   4.558   1.779 -0.7175  1.6370  3.6491
 5387TIP3    H216107   0.513   4.535   1.794 -1.0527  0.6235 -0.3175
 5388TIP3   OH216108   6.229   3.579   1.453 -0.0470  0.3449  0.3392
 5388TIP3    H116109   6.282   3.658   1.439  1.3152 -0.4829  0.6077
 5388TIP3    H216110   6.197   3.587   1.542  1.4826 -0.1509  0.9763
 5389TIP3   OH216111   4.725   2.140   3.980  0.1933  0.3761 -0.2187
 5389TIP3    H116112   4.734   2.056   3.935 -1.2381 -1.4852  2.6433
 5389TIP3    H216113   4.638   2.171   3.956  0.4200  0.6704 -0.6728
 5390TIP3   OH216114   6.961   4.596   2.948  0.5797  0.3972 -0.5610
 5390TIP3    H116115   6.956   4.613   3.043  0.7110  2.9510 -0.9392
 5390TIP3    H216116   6.973   4.502   2.942 -1.8341 -0.2011  1.8851
 5391TIP3   OH216117   6.266   2.371   3.994  0.6610  0.1227 -0.9939
 5391TIP3    H116118   6.357   2.395   3.981  0.5054  1.2918 -0.1110
 5391TIP3    H216119   6.223   2.452   4.021 -0.0746 -0.9575  1.3319
 5392TIP3   OH216120   4.387   2.547   1.568  0.2376 -0.6018  0.1791
 5392TIP3    H116121   4.463   2.516   1.518 -0.3788 -0.3029 -0.9937
 5392TIP3    H216122   4.315   2.543   1.505 -0.3388  0.8830  0.7046
 5393TIP3   OH216123   2.051   6.356   2.223  0.1283  0.0011 -0.1794
 5393TIP3    H116124   2.014   6.275   2.259  1.5816  0.0291  1.4737
 5393TIP3    H216125   2.121   6.326   2.165  0.1192  0.0635 -0.2226
 5394TIP3   OH216126   1.394   7.577   5.446  0.3124 -0.5131  0.0346
 5394TIP3    H116127   1.376   7.485   5.426 -0.4243 -1.0357  2.7744
 5394TIP3    H216128   1.444   7.575   5.528 -0.2703  1.5398  0.5077
 5395TIP3   OH216129   4.801   1.315   5.338  0.9691 -0.0878  0.4825
 5395TIP3    H116130   4.879   1.260   5.325  0.9635  0.2505 -1.1955
 5395TIP3    H216131   4.815   1.356   5.423  1.5674 -1.7174  1.2150
 5396TIP3   OH216132   8.180   4.805   5.074 -0.0081 -0.0272 -0.2208
 5396TIP3    H116133   8.243   4.860   5.027  0.7897  0.0198  0.8667
 5396TIP3    H216134   8.095   4.841   5.049  0.4779  1.8370  0.5655
 5397TIP3   OH216135   6.740   7.159   2.812 -0.3408  1.1002  0.0330
 5397TIP3    H116136   6.805   7.102   2.771  0.1540  1.5068  0.2530
 5397TIP3    H216137   6.752   7.145   2.906 -2.6256 -1.1585  0.0990
 5398TIP3   OH216138   5.438   2.931   0.627 -0.2234  0.2438 -0.0737
 5398TIP3    H116139   5.513   2.881   0.596  0.4032  1.6312 -0.8841
 5398TIP3    H216140   5.437   2.918   0.722  0.5039 -0.4888 -0.1600
 5399TIP3   OH216141   0.831   2.157   5.985 -0.3480 -0.3938 -0.0329
 5399TIP3    H116142   0.915   2.201   5.975 -1.1400  1.2110 -0.0255
 5399TIP3    H216143   0.853   2.072   6.023  1.0126  1.7546  4.7971
 5400TIP3   OH216144   2.557   3.934   1.306  0.1159 -0.6695 -0.8770
 5400TIP3    H116145   2.562   3.954   1.213  3.2666  0.9133 -0.4915
 5400TIP3    H216146   2.643   3.897   1.327 -0.6017 -1.2226  1.3824
 5401TIP3   OH216147   7.595   6.119   0.252 -0.6128  0.1941 -0.0084
 5401TIP3    H116148   7.596   6.163   0.337 -1.9249  0.8666 -0.3150
 5401TIP3    H216149   7.685   6.127   0.220 -0.2572  0.4997  1.0145
 5402TIP3   OH216150   0.724   4.459   2.471 -0.5231 -1.1523 -0.1492
 5402TIP3    H116151   0.649   4.513   2.447 -1.2070 -2.3872 -0.9521
 5402TIP3    H216152   0.794   4.521   2.489 -1.3006 -0.0072 -0.9238
 5403TIP3   OH216153   1.097   5.522   1.358  0.1343  0.0386 -0.3722
 5403TIP3    H116154   1.131   5.444   1.404 -0.0786  0.0722 -0.1563
 5403TIP3    H216155   1.158   5.592   1.382 -1.9116  0.9415  2.8369
 5404TIP3   OH216156   7.085   2.650   1.720 -0.0634 -0.4732  0.4155
 5404TIP3    H116157   7.156   2.675   1.661 -0.9743 -0.8857 -0.9046
 5404TIP3    H216158   7.009   2.642   1.663 -1.6779  1.9770  2.0578
 5405TIP3   OH216159   2.080   0.090   0.367  0.3017  0.6458  0.0580
 5405TIP3    H116160   2.173   0.105   0.350  0.2132 -0.3247 -1.4589
 5405TIP3    H216161   2.038   0.105   0.283 -0.5536 -1.6608  0.0129
 5406TIP3   OH216162   2.401   2.433   6.221  0.3825  0.2427 -0.2413
 5406TIP3    H116163   2.465   2.378   6.177  0.3200 -0.5135  0.5783
 5406TIP3    H216164   2.337   2.372   6.258  0.1696  0.8747  0.4832
 5407TIP3   OH216165   1.991   0.854   0.417  0.4862 -0.2098 -0.5126
 5407TIP3    H116166   1.935   0.790   0.373  1.8632  0.1256 -2.9262
 5407TIP3    H216167   1.945   0.937   0.406  0.7751 -0.1433 -1.2820
 5408TIP3   OH216168   0.635   5.160   1.420  0.1651 -0.3420 -0.5924
 5408TIP3    H116169   0.638   5.239   1.473 -1.8121 -0.5853 -0.0069
 5408TIP3    H216170   0.694   5.099   1.464  1.0994  0.5282 -0.6017
 5409TIP3   OH216171   0.778   7.275   2.062  0.4378 -0.1978  0.0369
 5409TIP3    H116172   0.733   7.219   2.125 -0.9164  0.0036 -0.7122
 5409TIP3    H216173   0.723   7.354   2.057  2.0194  0.9985  0.6830
 5410TIP3   OH216174   5.912   7.722   0.602 -0.2374  0.0272  0.4764
 5410TIP3    H116175   5.861   7.672   0.539  1.5819 -0.6681 -0.5108
 5410TIP3    H216176   5.892   7.682   0.687 -1.1617 -0.3324  0.1042
 5411TIP3   OH216177   6.953   7.643   2.030  0.2043  0.3990  0.6794
 5411TIP3    H116178   7.011   7.569   2.019 -0.4902  0.0582 -0.9742
 5411TIP3    H216179   6.997   7.699   2.094  1.8173 -0.3418  0.2552
 5412TIP3   OH216180   6.240   2.642   4.056  0.6421  0.2922  0.1935
 5412TIP3    H116181   6.147   2.665   4.062  0.5762 -0.1649  0.9250
 5412TIP3    H216182   6.280   2.718   4.014 -0.0916  0.4154 -0.3057
 5413TIP3   OH216183   3.189   0.580   1.514  0.1972  0.4340  0.3007
 5413TIP3    H116184   3.212   0.668   1.485  0.2043  0.7502  1.2557
 5413TIP3    H216185   3.099   0.587   1.546  0.0563  0.0065  0.0117
 5414TIP3   OH216186   1.537   5.194   3.774 -0.2687  0.5842  0.2170
 5414TIP3    H116187   1.598   5.205   3.701  1.3072  3.2845  1.7374
 5414TIP3    H216188   1.547   5.102   3.799  2.1006  0.5380 -0.5642
 5415TIP3   OH216189   7.143   4.715   2.133 -0.0754 -0.0101 -0.1396
 5415TIP3    H116190   7.228   4.728   2.091 -0.5762  0.3127 -1.0810
 5415TIP3    H216191   7.102   4.801   2.132 -0.1015  0.0031  1.0272
 5416TIP3   OH216192   3.299   0.866   3.885  0.6392  0.3959  0.0923
 5416TIP3    H116193   3.265   0.779   3.906  3.0029 -0.4068  0.8473
 5416TIP3    H216194   3.246   0.926   3.938  1.1075 -0.8923  2.1103
 5417TIP3   OH216195   1.982   6.268   4.947  0.2809  0.1335 -0.0027
 5417TIP3    H116196   1.907   6.220   4.911  0.4337 -0.2665  0.2104
 5417TIP3    H216197   1.958   6.285   5.038 -0.0846  1.1069 -0.2637
 5418TIP3   OH216198   6.179   5.223   1.746 -0.1434  0.1003  0.1720
 5418TIP3    H116199   6.247   5.221   1.678 -1.2816 -0.1459 -0.9781
 5418TIP3    H216200   6.219   5.176   1.820  0.9093 -0.1266 -0.5125
 5419TIP3   OH216201   5.487   6.259   2.628  0.0264  0.1568  0.0846
 5419TIP3    H116202   5.509   6.242   2.537 -1.7366 -0.1218 -0.3126
 5419TIP3    H216203   5.397   6.290   2.627 -0.0069  0.2435  1.7267
 5420TIP3   OH216204   3.977   4.224   6.352  0.5849 -0.5279  0.1096
 5420TIP3    H116205   4.063   4.258   6.325  0.0379  0.6449 -0.1831
 5420TIP3    H216206   3.958   4.155   6.287  0.3091  0.7267 -1.1851
 5421TIP3   OH216207   1.315   1.400   4.090  0.6244 -0.0267  1.2366
 5421TIP3    H116208   1.222   1.400   4.115  0.0291 -1.0065 -0.8295
 5421TIP3    H216209   1.341   1.309   4.094  0.8946 -0.0362 -0.2140
 5422TIP3   OH216210   1.923   0.613   5.599 -0.2939 -0.0453 -0.1748
 5422TIP3    H116211   1.955   0.662   5.674 -0.2215  0.6678 -0.6653
 5422TIP3    H216212   1.848   0.662   5.567  0.5054  0.4339 -1.4031
 5423TIP3   OH216213   2.966   1.287   3.357 -0.0919 -0.0857  0.6045
 5423TIP3    H116214   3.047   1.263   3.311  0.2189  2.6075 -0.4300
 5423TIP3    H216215   2.984   1.264   3.449  2.0764  0.7967  0.4795
 5424TIP3   OH216216   5.430   5.426   1.478  0.0333  0.6142  0.2535
 5424TIP3    H116217   5.346   5.458   1.510  0.3508  0.9639  0.7691
 5424TIP3    H216218   5.494   5.470   1.534  0.5706  0.5804 -0.3222
 5425TIP3   OH216219   6.056   3.495   2.908  0.5790 -0.0870 -0.1485
 5425TIP3    H116220   6.034   3.439   2.834 -1.7619  0.8394 -0.2610
 5425TIP3    H216221   5.980   3.489   2.966  0.3045  2.7233 -0.0740
 5426TIP3   OH216222   2.314   5.797   3.858  0.0137  0.5753 -0.0718
 5426TIP3    H116223   2.346   5.856   3.926  1.1516  0.9194 -0.8570
 5426TIP3    H216224   2.374   5.722   3.862 -1.4723 -0.6063  0.9782
 5427TIP3   OH216225   8.128   2.930   6.145  0.6233  0.0757  0.1314
 5427TIP3    H116226   8.123   2.892   6.057 -0.2696  1.4928 -0.4615
 5427TIP3    H216227   8.221   2.940   6.162  0.7844  0.8974 -1.1665
 5428TIP3   OH216228   3.712   6.237   4.010  0.4597 -0.2687  0.0103
 5428TIP3    H116229   3.766   6.223   3.932  0.3767 -0.2541 -0.0507
 5428TIP3    H216230   3.774   6.247   4.082  0.5538  0.1759 -0.1290
 5429TIP3   OH216231   4.791   7.294   5.949 -0.0359  0.7463 -0.5033
 5429TIP3    H116232   4.738   7.263   5.875 -0.0981 -0.9735  0.2224
 5429TIP3    H216233   4.767   7.386   5.958 -1.9006  0.3587 -1.0723
 5430TIP3   OH216234   2.524   2.854   1.523 -0.2441 -0.2360  0.5326
 5430TIP3    H116235   2.490   2.879   1.438  0.2587  1.8709  0.8834
 5430TIP3    H216236   2.617   2.834   1.507 -0.6596 -2.0714  0.2421
 5431TIP3   OH216237   3.187   3.001   6.630 -0.0453  0.2579 -0.3313
 5431TIP3    H116238   3.132   3.070   6.593  0.8751  2.0073  1.4072
 5431TIP3    H216239   3.127   2.948   6.682 -0.7539 -0.2678 -1.6375
 5432TIP3   OH216240   0.776   6.873   0.305 -0.0521 -0.6795  0.0264
 5432TIP3    H116241   0.707   6.897   0.244  0.7755  2.4092  0.1538
 5432TIP3    H216242   0.852   6.856   0.250  0.5066  1.4188  0.0810
 5433TIP3   OH216243   5.113   7.392   3.590 -0.2480 -0.2134 -0.4286
 5433TIP3    H116244   5.109   7.308   3.635  2.8001 -0.9855 -1.3734
 5433TIP3    H216245   5.195   7.432   3.618 -0.2018  1.0985 -2.2050
 5434TIP3   OH216246   8.196   1.745   5.697  0.0487  0.4025 -0.3362
 5434TIP3    H116247   8.148   1.732   5.778  0.2616 -1.1812 -0.4297
 5434TIP3    H216248   8.156   1.684   5.635  2.6513 -1.6732 -0.1605
 5435TIP3   OH216249   1.382   0.500   0.487  0.1877  0.3838  0.1489
 5435TIP3    H116250   1.306   0.527   0.435 -0.4385 -0.3316  0.6624
 5435TIP3    H216251   1.447   0.473   0.421 -0.4907 -0.2417 -0.2813
 5436TIP3   OH216252   3.136   5.090   4.807 -0.5457 -0.0373  0.4620
 5436TIP3    H116253   3.129   5.184   4.793 -2.0053 -0.0032  1.2038
 5436TIP3    H216254   3.221   5.078   4.849 -0.8817  1.1308  1.5415
 5437TIP3   OH216255   6.389   7.058   6.475  0.3927  0.0381  0.1558
 5437TIP3    H116256   6.408   7.148   6.449 -1.9395  1.2840  2.3029
 5437TIP3    H216257   6.443   7.043   6.553 -0.3281  0.1666  0.6938
 5438TIP3   OH216258   1.445   7.103   3.033 -0.4763  0.4201  0.5920
 5438TIP3    H116259   1.522   7.091   3.089 -0.1816  1.4831  0.4323
 5438TIP3    H216260   1.376   7.133   3.092 -1.0110 -1.2567  0.8686
 5439TIP3   OH216261   7.868   2.132   5.604  0.1616 -0.0587 -0.5864
 5439TIP3    H116262   7.820   2.081   5.540  1.2007 -1.3877 -0.3562
 5439TIP3    H216263   7.828   2.109   5.688 -1.5280  2.0559 -0.7292
 5440TIP3   OH216264   2.381   7.074   0.588  0.0640  0.2744  0.3775
 5440TIP3    H116265   2.465   7.031   0.607  0.2455 -0.2411 -1.3850
 5440TIP3    H216266   2.404   7.143   0.526 -0.4996  1.7917  1.7746
 5441TIP3   OH216267   6.183   1.149   6.063  0.8688  0.2336 -0.0703
 5441TIP3    H116268   6.171   1.088   6.135  3.8804  0.9079  1.1533
 5441TIP3    H216269   6.128   1.225   6.086  2.0329  0.5824  1.7504
 5442TIP3   OH216270   1.913   1.480   4.673 -0.0944 -0.2233  0.3649
 5442TIP3    H116271   1.963   1.401   4.691 -0.8756 -0.9631 -0.6059
 5442TIP3    H216272   1.847   1.482   4.743  0.7983  0.3650  1.2204
 5443TIP3   OH216273   5.948   7.082   5.699 -0.2888  0.2777  0.9229
 5443TIP3    H116274   6.039   7.086   5.728  0.4688  0.8473 -1.3457
 5443TIP3    H216275   5.942   7.000   5.651 -0.7369  0.6419  0.3501
 5444TIP3   OH216276   7.844   4.154   0.550 -0.0002 -0.7400 -0.2376
 5444TIP3    H116277   7.892   4.159   0.467 -1.2015 -1.8876 -1.0542
 5444TIP3    H216278   7.895   4.095   0.604  0.6747 -0.1671 -0.2414
 5445TIP3   OH216279   5.716   0.995   4.683  0.4727 -0.1005  0.1749
 5445TIP3    H116280   5.621   0.991   4.699  0.2463 -0.2357 -1.0964
 5445TIP3    H216281   5.754   0.941   4.751 -0.5286 -1.7581 -0.5217
 5446TIP3   OH216282   8.049   6.164   6.300  0.6545  0.3104  0.2584
 5446TIP3    H116283   8.120   6.127   6.247  0.8487  0.2895  0.5336
 5446TIP3    H216284   7.979   6.099   6.294  0.4420  0.6018 -0.4907
 5447TIP3   OH216285   1.781   1.624   2.490  0.3601 -0.4708  0.6120
 5447TIP3    H116286   1.786   1.535   2.525  1.5300 -0.0072  1.7244
 5447TIP3    H216287   1.828   1.677   2.555  0.6924  0.7807 -0.6173
 5448TIP3   OH216288   5.021   2.889   5.538  0.0056  0.0067  0.2137
 5448TIP3    H116289   5.068   2.972   5.544 -0.9478  0.6027 -0.3511
 5448TIP3    H216290   5.076   2.827   5.586  0.3286  1.1441  1.3762
 5449TIP3   OH216291   2.318   0.196   1.950 -0.0250  0.0383 -0.0394
 5449TIP3    H116292   2.366   0.146   1.883 -0.4448  1.0276 -1.1064
 5449TIP3    H216293   2.296   0.131   2.016  0.4986 -0.9555 -0.8046
 5450TIP3   OH216294   4.869   1.417   5.587 -0.8467 -0.2449 -0.1177
 5450TIP3    H116295   4.916   1.462   5.658 -0.8442 -1.5016  0.7163
 5450TIP3    H216296   4.777   1.442   5.600 -0.6524  0.8118 -0.6750
 5451TIP3   OH216297   0.885   5.198   2.556 -0.1517  0.3460  0.0773
 5451TIP3    H116298   0.839   5.282   2.556 -1.1005 -0.1634 -0.2146
 5451TIP3    H216299   0.848   5.150   2.482  0.5272 -0.2548  0.1149
 5452TIP3   OH216300   0.003   6.116   6.149  0.5051  0.0475 -0.2767
 5452TIP3    H116301   0.061   6.192   6.141  0.6426 -0.0431 -0.1475
 5452TIP3    H216302  -0.013   6.088   6.059 -0.9884  1.3172 -0.4570
 5453TIP3   OH216303   1.932   7.192   2.344 -0.4690  0.1060 -0.6962
 5453TIP3    H116304   1.891   7.125   2.400  0.6676  0.8790  1.1741
 5453TIP3    H216305   1.861   7.223   2.288 -1.6727 -0.7686  0.2763
 5454TIP3   OH216306   2.965   6.925   1.216  0.5232  0.3782 -0.0868
 5454TIP3    H116307   3.021   6.849   1.200  1.3636  1.0973 -0.7017
 5454TIP3    H216308   2.877   6.896   1.192  0.7671 -0.5242  0.0813
 5455TIP3   OH216309   0.650   6.197   4.177  0.4904  0.0925 -0.5137
 5455TIP3    H116310   0.660   6.287   4.146  2.4037  0.3071  0.5583
 5455TIP3    H216311   0.652   6.144   4.096 -0.7160  0.9725 -1.1517
 5456TIP3   OH216312   8.188   3.963   6.660  0.1450  0.1857  0.1405
 5456TIP3    H116313   8.189   4.039   6.718 -1.4312  1.2426 -1.1202
 5456TIP3    H216314   8.139   3.896   6.707 -1.1229  1.0324  0.0852
 5457TIP3   OH216315   0.245   1.173   6.313 -0.1645 -0.8168 -0.4385
 5457TIP3    H116316   0.321   1.161   6.255  0.0336  0.0435 -0.3632
 5457TIP3    H216317   0.212   1.084   6.326  1.9750 -1.4951  1.0552
 5458TIP3   OH216318   7.034   7.424   3.004 -0.0958  0.1851 -0.3965
 5458TIP3    H116319   7.105   7.360   3.007  0.1203  0.4049 -0.7158
 5458TIP3    H216320   7.028   7.449   2.912 -0.0876  0.7241 -0.2550
 5459TIP3   OH216321   4.733   0.048   3.878  0.1268  0.2007  0.4135
 5459TIP3    H116322   4.811  -0.006   3.874 -0.3267 -0.6654  2.0850
 5459TIP3    H216323   4.763   0.132   3.911  1.1264  1.7219 -3.8300
 5460TIP3   OH216324   2.176   3.807   1.539 -0.5799 -0.3660  0.1658
 5460TIP3    H116325   2.208   3.835   1.453 -2.0232  1.3951  0.1364
 5460TIP3    H216326   2.086   3.779   1.523 -0.2463 -1.9546  0.8158
 5461TIP3   OH216327   4.182   1.801   0.057  0.2074  0.4390  0.1405
 5461TIP3    H116328   4.094   1.794   0.094 -0.2092  0.2001 -0.8651
 5461TIP3    H216329   4.169   1.833  -0.032  1.1617  0.6410  0.0550
 5462TIP3   OH216330   5.415   3.592   2.332 -0.1900 -0.1703 -0.3570
 5462TIP3    H116331   5.495   3.643   2.319  0.0048  0.0076  1.3450
 5462TIP3    H216332   5.409   3.579   2.427 -2.9499  1.0329 -0.2672
 5463TIP3   OH216333   0.954   6.732   5.330 -0.1692 -0.6089  0.7653
 5463TIP3    H116334   1.041   6.735   5.291  0.3938 -1.9868  1.8402
 5463TIP3    H216335   0.898   6.778   5.267  1.0086 -1.2230 -0.8065
 5464TIP3   OH216336   2.470   5.691   5.280 -0.0671  0.0786  0.2847
 5464TIP3    H116337   2.438   5.756   5.216 -1.7958  0.9457  1.9340
 5464TIP3    H216338   2.406   5.693   5.350 -2.0295 -5.6668 -0.8121
 5465TIP3   OH216339   1.400   5.163   0.383 -0.3552 -0.1327 -0.3220
 5465TIP3    H116340   1.425   5.096   0.319 -1.5912 -0.8647 -0.0728
 5465TIP3    H216341   1.467   5.158   0.450  0.6051  0.1932 -1.2260
 5466TIP3   OH216342   7.202   3.915   4.859  0.2328  0.1905 -0.3600
 5466TIP3    H116343   7.255   3.950   4.787  1.5457  0.9091  0.9092
 5466TIP3    H216344   7.126   3.876   4.816  0.4288  1.5818 -2.0544
 5467TIP3   OH216345   0.263   5.059   2.468  0.6145 -0.1615  0.3119
 5467TIP3    H116346   0.184   5.054   2.521  0.3851 -0.3340 -0.0463
 5467TIP3    H216347   0.280   5.153   2.457 -0.6092 -0.0770 -1.1916
 5468TIP3   OH216348   7.743   7.592   1.997  0.5489  0.1791 -0.2710
 5468TIP3    H116349   7.658   7.626   1.971  0.8520  1.2319  0.0477
 5468TIP3    H216350   7.725   7.503   2.027 -0.5432  0.5966  0.3736
 5469TIP3   OH216351   3.363   5.930   3.376 -0.5840 -0.0725 -0.1705
 5469TIP3    H116352   3.320   6.015   3.368  0.1536  0.2316 -1.0184
 5469TIP3    H216353   3.403   5.915   3.291  1.2824 -0.1792  0.6951
 5470TIP3   OH216354   6.419   3.217   1.800 -0.6434 -0.3579  0.2144
 5470TIP3    H116355   6.457   3.137   1.837  2.0264 -0.3951 -2.2264
 5470TIP3    H216356   6.494   3.274   1.782 -2.2347  1.6533 -0.4588
 5471TIP3   OH216357   7.938   3.749   2.340 -0.5199  0.3387  0.0714
 5471TIP3    H116358   7.874   3.798   2.289 -1.6254 -0.1879  0.9054
 5471TIP3    H216359   7.897   3.739   2.426  1.3564  1.3783  1.1703
 5472TIP3   OH216360   0.147   5.593   2.236 -0.2623  0.0492 -0.3073
 5472TIP3    H116361   0.193   5.644   2.169  0.2305 -2.1165 -1.7621
 5472TIP3    H216362   0.063   5.571   2.197 -0.5973  0.0045  0.4160
 5473TIP3   OH216363   2.917   3.931   3.897  0.3193 -0.4803 -0.3236
 5473TIP3    H116364   2.877   3.873   3.963  2.4791 -1.8887 -0.1596
 5473TIP3    H216365   2.843   3.977   3.859 -1.2368 -1.3269  1.4833
 5474TIP3   OH216366   1.981   3.179   0.654 -0.1282 -0.7410 -0.2263
 5474TIP3    H116367   1.961   3.270   0.675 -3.7612 -1.3069 -0.6078
 5474TIP3    H216368   1.997   3.180   0.559 -0.9307 -0.5919 -0.3646
 5475TIP3   OH216369   1.052   3.623   4.745 -0.1645  0.3306 -0.3368
 5475TIP3    H116370   1.092   3.708   4.726 -1.0455  1.3040  1.8424
 5475TIP3    H216371   1.079   3.603   4.835 -1.6627 -0.6653 -0.0708
 5476TIP3   OH216372   8.026   4.157   2.225  0.1211 -0.1867 -0.3590
 5476TIP3    H116373   7.956   4.222   2.226 -1.1518 -1.5030 -0.4775
 5476TIP3    H216374   8.101   4.204   2.190 -0.4184  1.5223  0.6630
 5477TIP3   OH216375   4.181   6.666   0.271  0.5435  0.6625  0.0395
 5477TIP3    H116376   4.248   6.619   0.221  1.3700 -0.3381  1.9519
 5477TIP3    H216377   4.231   6.727   0.326 -0.2206  0.8266  0.5610
 5478TIP3   OH216378   1.730   6.019   1.078  0.6426  0.1273 -0.0427
 5478TIP3    H116379   1.786   5.986   1.007 -0.9681 -0.5916 -1.0374
 5478TIP3    H216380   1.670   6.080   1.035 -1.7387 -1.8773  0.1857
 5479TIP3   OH216381   4.796   5.784   1.379 -0.5637  0.0742  0.3987
 5479TIP3    H116382   4.754   5.702   1.402  0.9869 -0.1044  3.0552
 5479TIP3    H216383   4.753   5.850   1.434 -0.7509  0.7859 -0.5724
 5480TIP3   OH216384   0.426   6.972   2.423 -0.3448  0.4477  0.7248
 5480TIP3    H116385   0.511   6.975   2.380 -0.0345  0.2658  1.3107
 5480TIP3    H216386   0.422   6.884   2.461  0.0199  1.0787  2.3009
 5481TIP3   OH216387   1.996   3.236   3.546 -0.2706  0.1892  0.2050
 5481TIP3    H116388   2.002   3.142   3.565  0.3657 -0.0231 -0.9466
 5481TIP3    H216389   1.981   3.240   3.451  1.3455  1.2846 -0.0424
 5482TIP3   OH216390   6.740   6.252   5.816  0.3594  0.2070  0.0127
 5482TIP3    H116391   6.791   6.193   5.761  0.3463  0.8979 -0.7524
 5482TIP3    H216392   6.804   6.313   5.851  0.7504 -1.4971  2.5622
 5483TIP3   OH216393   3.591   0.131   1.074 -0.2587 -0.0763 -0.2386
 5483TIP3    H116394   3.534   0.055   1.087  0.1961 -0.2936  0.5919
 5483TIP3    H216395   3.533   0.206   1.084 -0.4828 -0.3004  0.2087
 5484TIP3   OH216396   5.672   1.311   2.129 -0.2062 -0.0415  0.0827
 5484TIP3    H116397   5.684   1.312   2.224  0.3561  0.4226  0.0153
 5484TIP3    H216398   5.626   1.393   2.110 -0.3724 -0.1623 -0.0389
 5485TIP3   OH216399   5.843   5.392   5.830  0.0721  0.3376 -0.1900
 5485TIP3    H116400   5.880   5.330   5.767  1.8251 -0.1308  1.2050
 5485TIP3    H216401   5.749   5.375   5.829  0.2265 -0.6100 -1.6331
 5486TIP3   OH216402   4.847   4.232   0.997 -0.5725  0.4027 -0.4288
 5486TIP3    H116403   4.807   4.157   1.042  1.2217 -0.1713  0.3063
 5486TIP3    H216404   4.781   4.300   1.000 -2.5751 -1.3573 -1.7878
 5487TIP3   OH216405   2.484   0.997   4.118  0.2440 -0.3846 -0.3250
 5487TIP3    H116406   2.533   0.916   4.105  1.9153  0.7205 -1.2305
 5487TIP3    H216407   2.521   1.034   4.198  1.3816  0.7780 -1.3666
 5488TIP3   OH216408   4.638   7.148   3.029 -0.3823 -0.1087 -0.3458
 5488TIP3    H116409   4.591   7.092   2.967  1.0132 -0.0049 -1.5488
 5488TIP3    H216410   4.729   7.142   3.002  0.1014  0.8932  0.9831
 5489TIP3   OH216411   4.212   5.688   4.265 -0.4523 -0.2802  0.1456
 5489TIP3    H116412   4.174   5.639   4.339  1.2606 -0.7510  0.7488
 5489TIP3    H216413   4.208   5.628   4.191 -0.8224 -0.3322  0.2037
 5490TIP3   OH216414   1.372   4.883   1.535 -0.0249 -0.1565  0.1100
 5490TIP3    H116415   1.400   4.822   1.603  1.4148  1.1989  0.7755
 5490TIP3    H216416   1.452   4.903   1.486 -0.4611  1.1969 -0.0793
 5491TIP3   OH216417   3.805   7.486   2.814  0.1130  0.0733 -0.5525
 5491TIP3    H116418   3.900   7.494   2.806  0.2710 -1.7760 -1.0418
 5491TIP3    H216419   3.792   7.444   2.899 -0.3467  1.1518 -0.0695
 5492TIP3   OH216420   7.531   1.044   0.759 -0.1020  0.6713  0.3821
 5492TIP3    H116421   7.597   1.028   0.826  0.5479  1.8119  0.0237
 5492TIP3    H216422   7.454   1.074   0.808 -1.4836 -3.3584  1.1413
 5493TIP3   OH216423   3.011   4.227   1.781 -0.0431  0.8090 -0.0292
 5493TIP3    H116424   2.990   4.157   1.843 -2.3762  1.2121 -0.2835
 5493TIP3    H216425   2.926   4.260   1.752  0.9811  3.1736 -0.5889
 5494TIP3   OH216426   7.276   1.972   3.166  0.2160  0.6192 -0.7045
 5494TIP3    H116427   7.199   1.917   3.182 -1.5714  2.9661 -0.5845
 5494TIP3    H216428   7.249   2.030   3.095  3.3959 -1.0786 -3.5765
 5495TIP3   OH216429   6.484   2.988   5.204 -0.4664 -0.5343  0.0105
 5495TIP3    H116430   6.403   3.028   5.235 -0.5900  0.2998 -1.3136
 5495TIP3    H216431   6.544   3.062   5.192  0.2791 -1.0686  0.3441
 5496TIP3   OH216432   6.828   6.430   3.693 -0.1617 -0.8260 -0.3776
 5496TIP3    H116433   6.896   6.408   3.757  0.7074  0.9208 -0.6553
 5496TIP3    H216434   6.872   6.425   3.608 -0.2378  0.7412 -0.5283
 5497TIP3   OH216435   2.218   5.944   1.915 -0.1923  0.5002 -0.2021
 5497TIP3    H116436   2.310   5.966   1.929 -0.1084 -0.2764  0.5356
 5497TIP3    H216437   2.206   5.951   1.820  0.6394  0.5517 -0.3066
 5498TIP3   OH216438   4.648   0.154   5.300 -0.1501 -0.4994  0.1819
 5498TIP3    H116439   4.640   0.219   5.230 -0.2064 -0.5417  0.1489
 5498TIP3    H216440   4.720   0.185   5.354  1.7019 -1.8419 -1.3803
 5499TIP3   OH216441   2.367   3.353   6.042 -0.2143 -0.0376 -0.4999
 5499TIP3    H116442   2.283   3.390   6.016  0.4603  1.8296 -0.1599
 5499TIP3    H216443   2.431   3.391   5.982  0.5877 -0.2797  0.1752
 5500TIP3   OH216444   1.065   7.706   5.149 -0.6168 -0.2286  0.4617
 5500TIP3    H116445   1.142   7.649   5.161 -0.6937 -0.3813  0.2275
 5500TIP3    H216446   0.994   7.659   5.194 -1.0755 -1.1570 -1.1685
 5501TIP3   OH216447   3.835   7.776   1.836  0.0359  0.0918  0.0229
 5501TIP3    H116448   3.832   7.774   1.931 -1.6548 -1.4678 -0.0136
 5501TIP3    H216449   3.884   7.698   1.811  0.9758  0.7904 -0.4188
 5502TIP3   OH216450   4.579   5.767   1.795 -0.4445 -0.0855 -0.5960
 5502TIP3    H116451   4.601   5.855   1.825  0.5581 -0.7643  0.7472
 5502TIP3    H216452   4.569   5.715   1.876 -2.1238 -0.9747 -1.3043
 5503TIP3   OH216453   6.639   1.060   5.883  0.1878  0.0495  0.0913
 5503TIP3    H116454   6.628   1.143   5.930  0.4995  0.4467 -0.5239
 5503TIP3    H216455   6.562   1.009   5.906  1.0461 -0.3901  2.2723
 5504TIP3   OH216456   8.171   5.488   3.813  0.5985  0.3911  0.0961
 5504TIP3    H116457   8.092   5.541   3.826 -0.4224 -1.3003  1.2853
 5504TIP3    H216458   8.211   5.483   3.900  1.2707  0.1408 -0.2235
 5505TIP3   OH216459   0.071   4.708   4.068 -0.0367 -0.1416 -0.0493
 5505TIP3    H116460   0.003   4.641   4.075 -0.7278  0.5066 -0.4228
 5505TIP3    H216461   0.132   4.674   4.003 -0.6127 -0.2258 -0.5591
 5506TIP3   OH216462   2.686   4.650   4.205 -0.4457 -0.1220  0.4528
 5506TIP3    H116463   2.645   4.732   4.235 -0.6851  0.6135 -1.7280
 5506TIP3    H216464   2.748   4.628   4.275 -2.9913 -0.1656  2.9165
 5507TIP3   OH216465   4.205   2.930   0.942 -0.4713  0.4797  0.4223
 5507TIP3    H116466   4.159   2.847   0.950  0.6668 -0.3001 -0.6817
 5507TIP3    H216467   4.295   2.905   0.920  0.2029  1.9797  1.3432
 5508TIP3   OH216468   0.163   2.529   5.158  0.4358  0.5457 -0.0977
 5508TIP3    H116469   0.150   2.547   5.251 -0.0522 -0.7890  0.1218
 5508TIP3    H216470   0.218   2.450   5.157  1.0742  0.9776 -0.9563
 5509TIP3   OH216471   1.238   4.974   4.608 -0.3362  0.2173 -0.0595
 5509TIP3    H116472   1.177   4.988   4.536  0.4410 -1.4450 -1.0869
 5509TIP3    H216473   1.302   5.045   4.599 -0.7038  0.4953 -0.5088
 5510TIP3   OH216474   7.768   3.494   3.957 -0.0156  0.0926 -0.2023
 5510TIP3    H116475   7.788   3.555   4.028 -1.4378  0.5365 -0.1654
 5510TIP3    H216476   7.834   3.425   3.967  1.9530  1.8097 -0.5635
 5511TIP3   OH216477   8.195   3.297   0.221  1.0985 -0.5476  0.2027
 5511TIP3    H116478   8.226   3.361   0.158  0.6073 -0.9790 -0.4939
 5511TIP3    H216479   8.193   3.344   0.304  1.2930  0.1679 -0.1888
 5512TIP3   OH216480   7.328   5.329   5.741 -0.6018 -0.1034 -0.3407
 5512TIP3    H116481   7.329   5.295   5.652  0.7371 -1.6344  0.2003
 5512TIP3    H216482   7.236   5.325   5.768 -0.7182 -1.7972 -0.8850
 5513TIP3   OH216483   3.658   3.607   3.197 -0.2843  0.0347 -0.2328
 5513TIP3    H116484   3.682   3.522   3.233  0.6406  0.2038 -0.4263
 5513TIP3    H216485   3.741   3.645   3.168 -0.5587  1.3870  0.6559
 5514TIP3   OH216486   6.098   7.362   4.432 -0.0731  0.1127  0.4042
 5514TIP3    H116487   6.152   7.361   4.354 -1.6760 -0.6418 -0.7510
 5514TIP3    H216488   6.124   7.284   4.481  0.0707 -0.0843  0.0092
 5515TIP3   OH216489   0.616   4.521   0.432 -0.2937 -0.0676  0.2016
 5515TIP3    H116490   0.622   4.573   0.512  0.4473  2.3528 -1.3020
 5515TIP3    H216491   0.707   4.510   0.405 -0.5937  0.9684 -1.3470
 5516TIP3   OH216492   2.206   1.854   2.436 -0.3137 -0.5083 -0.3199
 5516TIP3    H116493   2.221   1.889   2.348  0.1372 -1.6225 -0.6982
 5516TIP3    H216494   2.206   1.759   2.424  1.6875 -0.7439  1.1727
 5517TIP3   OH216495   7.985   2.780   1.842 -0.5367  0.0812 -0.6979
 5517TIP3    H116496   7.964   2.871   1.861 -1.8988 -0.5822  1.2227
 5517TIP3    H216497   7.905   2.744   1.804 -0.4517 -0.6244 -0.2350
 5518TIP3   OH216498   1.413   6.259   5.727 -0.0079  0.4722 -0.0292
 5518TIP3    H116499   1.453   6.180   5.691 -0.4431  0.1441  0.2190
 5518TIP3    H216500   1.331   6.230   5.767 -2.0413  1.4880 -3.0389
 5519TIP3   OH216501   4.148   1.414   4.156  0.6738  0.9470  0.2477
 5519TIP3    H116502   4.144   1.487   4.218  1.8061  1.8202 -0.6635
 5519TIP3    H216503   4.207   1.445   4.087  2.1348 -1.2663  0.4118
 5520TIP3   OH216504   6.021   5.527   4.891 -0.1617  0.3587 -0.5968
 5520TIP3    H116505   5.983   5.609   4.925  1.7786  1.3176 -0.6332
 5520TIP3    H216506   6.093   5.508   4.951  0.7379 -0.1623 -1.8224
 5521TIP3   OH216507   3.952   3.585   5.802  0.2223  0.1486  0.3259
 5521TIP3    H116508   3.986   3.516   5.744  1.6357  0.4679  0.7427
 5521TIP3    H216509   3.943   3.542   5.887 -0.6194  0.0236  0.1838
 5522TIP3   OH216510   6.426   1.399   2.777  0.0115  0.2365 -0.7181
 5522TIP3    H116511   6.449   1.489   2.798  1.0875 -0.2452  0.2875
 5522TIP3    H216512   6.367   1.372   2.848 -0.8039  0.3219 -1.3450
 5523TIP3   OH216513   6.624   3.985   1.792  0.3212 -0.3352  0.1191
 5523TIP3    H116514   6.711   3.948   1.804  0.4654 -0.4872 -1.1813
 5523TIP3    H216515   6.564   3.910   1.804  0.3736 -0.2590  0.8735
 5524TIP3   OH216516   6.535   0.917   1.450  0.2414  0.2042  0.0045
 5524TIP3    H116517   6.502   0.917   1.360 -0.7152  1.2075  0.3338
 5524TIP3    H216518   6.478   0.978   1.496  1.5059  0.6516  1.0156
 5525TIP3   OH216519   0.062   1.835   2.583  0.0141 -0.7305 -0.5690
 5525TIP3    H116520   0.098   1.916   2.546 -0.3181 -0.8301 -1.1343
 5525TIP3    H216521   0.082   1.769   2.517  0.6417 -1.1931  0.0782
 5526TIP3   OH216522   6.962   6.643   5.942  0.0505 -0.2186 -0.0951
 5526TIP3    H116523   6.911   6.654   5.861 -1.1023  0.3074  0.6746
 5526TIP3    H216524   6.948   6.724   5.990 -0.5966 -1.1582  1.3532
 5527TIP3   OH216525   7.921   6.382   0.454 -0.1304  0.1663  0.5552
 5527TIP3    H116526   7.903   6.368   0.547 -1.6434 -0.8681  0.1514
 5527TIP3    H216527   7.840   6.421   0.420  0.7594  1.4665 -0.1636
 5528TIP3   OH216528   1.052   7.563   3.700  0.2353  0.0547 -0.0379
 5528TIP3    H116529   1.114   7.572   3.628  0.2710  0.3535  0.0293
 5528TIP3    H216530   0.969   7.540   3.658  1.1721 -4.3410  0.0612
 5529TIP3   OH216531   3.300   5.067   1.948 -0.1309 -0.1752 -0.2356
 5529TIP3    H116532   3.344   5.149   1.925  1.0781 -0.7284 -0.0108
 5529TIP3    H216533   3.331   5.004   1.882  1.4817 -1.1956  1.3937
 5530TIP3   OH216534   3.973   2.246   0.333  0.1099  0.3827 -0.2761
 5530TIP3    H116535   4.022   2.169   0.365 -0.0872  0.4091  0.0900
 5530TIP3    H216536   4.022   2.274   0.256  1.8226  1.5923  1.1715
 5531TIP3   OH216537   0.303   6.140   6.605  0.1433 -0.0172 -0.5887
 5531TIP3    H116538   0.342   6.222   6.635 -0.9961  1.9465 -3.8446
 5531TIP3    H216539   0.228   6.168   6.552  0.4294 -3.0809 -2.8745
 5532TIP3   OH216540   1.684   0.561   0.583 -0.9799 -0.1666 -0.1078
 5532TIP3    H116541   1.638   0.584   0.502  1.5464  0.5531 -1.4203
 5532TIP3    H216542   1.686   0.642   0.634 -0.7811 -0.0920 -0.2363
 5533TIP3   OH216543   7.931   5.462   5.862 -0.6220 -0.4175 -0.3732
 5533TIP3    H116544   8.010   5.431   5.904  0.0216  0.5032 -0.8572
 5533TIP3    H216545   7.880   5.383   5.843  0.3049 -1.0412 -0.3025
 5534TIP3   OH216546   7.630   5.261   3.362  0.2520 -0.3522  0.7240
 5534TIP3    H116547   7.583   5.266   3.445 -0.4082 -0.1553  0.3444
 5534TIP3    H216548   7.562   5.249   3.296  0.6287  1.0699  0.0405
 5535TIP3   OH216549   2.989   6.720   4.048 -0.6016 -0.1364 -0.6958
 5535TIP3    H116550   2.901   6.728   4.086 -0.3062 -1.0909  0.2305
 5535TIP3    H216551   3.047   6.754   4.115 -0.1286 -1.1582 -0.5676
 5536TIP3   OH216552   2.962   1.631   2.229 -0.1924 -0.0320  0.1195
 5536TIP3    H116553   2.996   1.630   2.319 -0.3185  1.0076  0.1951
 5536TIP3    H216554   2.899   1.703   2.228 -0.3643 -0.1854 -0.7405
 5537TIP3   OH216555   0.115   7.081   0.680  0.2286 -0.2700  0.0991
 5537TIP3    H116556   0.180   7.141   0.715  2.0787 -1.8370 -0.4881
 5537TIP3    H216557   0.082   7.034   0.756  0.5077 -0.1488  0.2977
 5538TIP3   OH216558   8.128   1.325   0.764  0.0113 -0.9993 -0.1606
 5538TIP3    H116559   8.180   1.355   0.689 -1.5258  0.6815 -0.6515
 5538TIP3    H216560   8.044   1.299   0.725 -0.3070 -1.4703  0.8221
 5539TIP3   OH216561   5.768   4.047   4.802  0.5502  0.4093 -0.1673
 5539TIP3    H116562   5.759   4.142   4.799  0.0464  0.3436 -1.4724
 5539TIP3    H216563   5.859   4.030   4.777  0.3641  0.5152 -0.9324
 5540TIP3   OH216564   2.917   6.279   4.084 -0.1899 -0.4672  0.0098
 5540TIP3    H116565   2.845   6.292   4.146  0.1869  0.9940  0.1653
 5540TIP3    H216566   2.993   6.264   4.139 -0.3240 -1.8912 -0.1544
 5541TIP3   OH216567   5.110   0.171   4.090  0.0350 -0.3949  0.0385
 5541TIP3    H116568   5.061   0.222   4.154 -0.4492  0.6652 -1.1484
 5541TIP3    H216569   5.198   0.209   4.091  0.1259 -0.6056  0.3053
 5542TIP3   OH216570   4.618   7.652   3.638  0.2837 -0.0986 -0.2994
 5542TIP3    H116571   4.530   7.633   3.606  0.2138 -0.3437  0.0307
 5542TIP3    H216572   4.653   7.566   3.664 -0.5427  0.3367  2.5072
 5543TIP3   OH216573   3.035   5.543   1.974  0.7365  0.4076 -0.0217
 5543TIP3    H116574   3.091   5.573   2.045  0.3344  0.0785  0.4434
 5543TIP3    H216575   2.992   5.464   2.009  1.8582 -0.7903 -1.2472
 5544TIP3   OH216576   5.538   1.821   4.071 -0.1133  0.5674 -0.6559
 5544TIP3    H116577   5.541   1.890   4.137 -0.2626 -1.8772  2.1399
 5544TIP3    H216578   5.630   1.798   4.056 -0.1175  0.4649 -0.5285
 5545TIP3   OH216579   7.322   4.285   0.828  0.2469 -0.1254  0.1434
 5545TIP3    H116580   7.368   4.295   0.912  0.4455 -0.8448  0.1269
 5545TIP3    H216581   7.235   4.255   0.852  0.5052 -0.9693  0.0755
 5546TIP3   OH216582   5.424   4.208   3.910 -0.5880 -0.3894 -0.2947
 5546TIP3    H116583   5.335   4.227   3.936 -0.5904 -0.3370 -0.3409
 5546TIP3    H216584   5.416   4.133   3.851 -0.4095 -1.8242  1.4075
 5547TIP3   OH216585   5.726   6.984   6.242  0.0356  0.2509  0.3018
 5547TIP3    H116586   5.761   6.973   6.154  1.2044 -0.7094  0.8510
 5547TIP3    H216587   5.721   6.895   6.277 -0.3420  0.6207  1.2354
 5548TIP3   OH216588   5.896   3.274   1.430  0.2222 -0.5550 -0.3280
 5548TIP3    H116589   5.845   3.275   1.511  1.4781 -0.6605  0.4843
 5548TIP3    H216590   5.979   3.233   1.454  0.8264 -0.0999 -1.5473
 5549TIP3   OH216591   0.839   2.326   6.369 -0.6148 -0.5702  0.6120
 5549TIP3    H116592   0.756   2.283   6.390 -1.3104 -0.2084 -1.2656
 5549TIP3    H216593   0.894   2.255   6.335 -0.8685 -0.4486 -0.0591
 5550TIP3   OH216594   2.480   5.314   5.089 -0.0443  0.0647  0.3601
 5550TIP3    H116595   2.506   5.272   5.007  0.4623  0.1376  0.4812
 5550TIP3    H216596   2.428   5.390   5.061 -2.4011 -1.5178  0.1604
 5551TIP3   OH216597   7.133   6.462   3.032  0.0419  0.2839 -0.9478
 5551TIP3    H116598   7.077   6.500   2.965  0.0303  1.4760 -0.2911
 5551TIP3    H216599   7.214   6.438   2.986 -0.6593 -0.6533 -1.7283
 5552TIP3   OH216600   1.241   2.490   4.630 -0.3677  0.2680 -0.2324
 5552TIP3    H116601   1.308   2.556   4.646 -0.6565  0.6510 -0.5712
 5552TIP3    H216602   1.158   2.536   4.644 -0.6318  0.5145 -2.2617
 5553TIP3   OH216603   0.430   6.489   5.531 -0.6986 -0.0365  0.3420
 5553TIP3    H116604   0.399   6.410   5.575 -1.6175  0.4131  0.5298
 5553TIP3    H216605   0.507   6.515   5.581 -0.2926 -0.8855  0.1873
 5554TIP3   OH216606   2.391   5.222   2.062 -0.4407  0.4015 -0.2813
 5554TIP3    H116607   2.423   5.237   1.974 -1.3808 -0.2828 -0.7630
 5554TIP3    H216608   2.394   5.127   2.073 -3.6330  0.0917 -0.9459
 5555TIP3   OH216609   0.617   1.483   2.143 -0.2895  0.7189  0.2867
 5555TIP3    H116610   0.638   1.396   2.110  1.3642  2.0780 -2.5857
 5555TIP3    H216611   0.538   1.508   2.096 -0.0909  1.2137  0.2087
 5556TIP3   OH216612   6.586   6.993   6.648 -0.1119 -0.0405  0.3635
 5556TIP3    H116613   6.544   6.962   6.729 -0.2210 -1.5367 -0.2395
 5556TIP3    H216614   6.666   6.941   6.641  0.6689  1.1179  0.2481
 5557TIP3   OH216615   1.980   2.558   0.669  0.5155 -0.3706  0.0177
 5557TIP3    H116616   2.060   2.572   0.721  0.6210  0.5411 -0.3829
 5557TIP3    H216617   1.979   2.631   0.607 -0.5974 -0.4224 -0.0301
 5558TIP3   OH216618   2.479   3.145   0.162 -0.2315 -0.4500 -0.2479
 5558TIP3    H116619   2.556   3.088   0.166 -0.5721 -1.0303 -1.5403
 5558TIP3    H216620   2.477   3.189   0.248  0.9577 -1.1656  0.1677
 5559TIP3   OH216621   3.675   6.126   5.867 -0.4521  0.9951 -0.3523
 5559TIP3    H116622   3.596   6.151   5.914 -0.6366 -1.2841  0.7084
 5559TIP3    H216623   3.745   6.179   5.906 -0.7326 -0.2625  2.0518
 5560TIP3   OH216624   0.288   7.376   3.041  0.2486  0.3543 -0.3016
 5560TIP3    H116625   0.216   7.346   2.986  0.0123 -1.4525  0.8846
 5560TIP3    H216626   0.292   7.470   3.026 -1.2192  0.2487 -1.7057
 5561TIP3   OH216627   3.971   2.522   4.464 -0.4955  0.1760 -0.2337
 5561TIP3    H116628   4.062   2.494   4.452  0.4133  2.5718  0.3456
 5561TIP3    H216629   3.927   2.498   4.383  1.2825  1.0592 -1.5348
 5562TIP3   OH216630   4.115   5.150   0.314  0.1819  0.1560  0.5276
 5562TIP3    H116631   4.033   5.162   0.362 -0.7021 -1.7797 -0.3866
 5562TIP3    H216632   4.137   5.237   0.282 -0.9306  0.9086  1.7114
 5563TIP3   OH216633   8.114   1.461   6.486  0.2725  0.0103 -0.1186
 5563TIP3    H116634   8.089   1.383   6.437  0.4265 -1.3318  1.8345
 5563TIP3    H216635   8.163   1.514   6.423 -0.3886 -1.1420 -1.6776
 5564TIP3   OH216636   7.565   0.851   3.430 -0.0037  0.3206  0.1146
 5564TIP3    H116637   7.637   0.894   3.477 -1.1223  1.2597  1.0120
 5564TIP3    H216638   7.496   0.917   3.425 -1.4838 -1.0921  0.8649
 5565TIP3   OH216639   8.157   2.644   0.317  0.3789 -0.4289  0.8307
 5565TIP3    H116640   8.107   2.723   0.338  1.2050  1.0371 -2.1187
 5565TIP3    H216641   8.242   2.657   0.358  0.4862  0.1865  0.4153
 5566TIP3   OH216642   0.118   3.268   2.008  0.2390 -0.3075  0.0273
 5566TIP3    H116643   0.180   3.326   2.052  0.7683 -1.4214  0.7966
 5566TIP3    H216644   0.035   3.283   2.053 -0.5725  2.4257 -2.0821
 5567TIP3   OH216645   1.477   2.527   3.294 -0.2448  0.1256 -0.6378
 5567TIP3    H116646   1.510   2.439   3.315 -1.4860 -0.4064 -0.8070
 5567TIP3    H216647   1.408   2.511   3.229  1.1126  1.4376 -2.4944
 5568TIP3   OH216648   2.418   3.034   1.962 -0.0489 -0.0833  0.0919
 5568TIP3    H116649   2.464   3.067   2.038  1.1546 -0.6586 -0.3626
 5568TIP3    H216650   2.433   3.099   1.894  1.0466 -0.7946 -0.3704
 5569TIP3   OH216651   5.564   1.804   1.860 -0.2095 -0.1486 -0.5409
 5569TIP3    H116652   5.503   1.851   1.917  0.5175 -0.8334  0.8546
 5569TIP3    H216653   5.509   1.771   1.789 -1.5578 -0.9494  0.7929
 5570TIP3   OH216654   5.448   1.713   2.335  0.2395  0.3377 -0.1572
 5570TIP3    H116655   5.514   1.708   2.404  2.4011  3.6875 -1.7395
 5570TIP3    H216656   5.378   1.768   2.371 -0.0927 -0.3971  0.3418
 5571TIP3   OH216657   0.859   5.837   3.578  0.3731 -0.3293 -0.5926
 5571TIP3    H116658   0.918   5.797   3.641  0.4628  2.0470  0.9322
 5571TIP3    H216659   0.794   5.882   3.631  0.4812  1.8109 -2.1609
 5572TIP3   OH216660   5.121   2.281   4.102 -0.3553  0.3406  0.5396
 5572TIP3    H116661   5.079   2.349   4.048 -3.1487 -1.8714 -0.3678
 5572TIP3    H216662   5.196   2.253   4.050  1.5209  3.2894  1.4099
 5573TIP3   OH216663   4.871   7.735   3.584  0.1138  0.4027  0.6764
 5573TIP3    H116664   4.890   7.807   3.645 -0.6407 -0.8171  2.4538
 5573TIP3    H216665   4.776   7.726   3.588  0.1688 -0.4576  0.1957
 5574TIP3   OH216666   8.247   7.707   1.590  0.7733  0.3266  0.1534
 5574TIP3    H116667   8.334   7.689   1.554  1.1045 -0.7208  1.3915
 5574TIP3    H216668   8.238   7.645   1.662 -0.0575  2.0155  1.5665
 5575TIP3   OH216669   4.474   3.868   3.391  0.1493  0.7606 -0.2969
 5575TIP3    H116670   4.415   3.940   3.368 -1.2675 -0.1692  0.3139
 5575TIP3    H216671   4.438   3.792   3.346  1.2034  0.2699 -0.3447
 5576TIP3   OH216672   1.770   4.700   2.463  0.3854  0.4034  0.4043
 5576TIP3    H116673   1.733   4.766   2.521 -0.4968 -0.8734  1.3582
 5576TIP3    H216674   1.865   4.705   2.478  0.3029  1.2130  0.6933
 5577TIP3   OH216675   0.735   1.053   3.869 -0.6502  0.0256 -0.2782
 5577TIP3    H116676   0.728   1.146   3.889  0.2611 -0.3290  1.9516
 5577TIP3    H216677   0.688   1.043   3.786 -0.6232  2.4724 -0.6620
 5578TIP3   OH216678   4.149   3.514   2.688  0.8681  0.9726 -0.4882
 5578TIP3    H116679   4.185   3.452   2.625 -1.4570 -0.2517 -0.7188
 5578TIP3    H216680   4.160   3.471   2.773  0.0419  0.6111 -0.5557
 5579TIP3   OH216681   7.863   6.457   1.214  0.3429  0.3406  0.0486
 5579TIP3    H116682   7.796   6.437   1.149  0.0956 -0.2047  0.4612
 5579TIP3    H216683   7.917   6.525   1.174  0.7910 -0.6763 -1.1427
 5580TIP3   OH216684   6.186   5.733   1.252 -0.2763 -0.2301 -0.3071
 5580TIP3    H116685   6.259   5.698   1.303  0.7057  1.4361 -0.4970
 5580TIP3    H216686   6.115   5.740   1.315 -0.2264 -1.6159 -0.0547
 5581TIP3   OH216687   5.336   6.398   3.050 -0.4856 -0.0557 -0.2528
 5581TIP3    H116688   5.391   6.473   3.072  0.3499 -1.0851  1.4202
 5581TIP3    H216689   5.250   6.420   3.085 -1.4528  1.8201 -3.4029
 5582TIP3   OH216690   6.707   6.927   5.099  0.2504 -0.0683 -0.4132
 5582TIP3    H116691   6.707   6.975   5.182  1.5640 -0.8038  0.0413
 5582TIP3    H216692   6.790   6.879   5.099 -1.4393 -3.2803 -0.2746
 5583TIP3   OH216693   4.144   3.419   1.608 -0.2526  0.0626 -0.2204
 5583TIP3    H116694   4.216   3.376   1.561  0.5171 -0.0996  1.0406
 5583TIP3    H216695   4.159   3.395   1.700 -0.8924  1.4983  0.2747
 5584TIP3   OH216696   3.840   4.218   6.697 -0.7104 -0.1312  0.2220
 5584TIP3    H116697   3.854   4.167   6.776  0.3532 -0.4691 -0.1681
 5584TIP3    H216698   3.804   4.155   6.634 -0.7893 -0.0555  0.1904
 5585TIP3   OH216699   4.611   2.829   4.000  0.3862  0.1318 -0.2298
 5585TIP3    H116700   4.654   2.770   3.937  0.2393  0.7055 -0.8840
 5585TIP3    H216701   4.682   2.859   4.057  0.3412 -1.2780  0.6229
 5586TIP3   OH216702   4.022   5.195   3.024  0.0610  0.0896  0.3634
 5586TIP3    H116703   3.963   5.195   3.100 -0.8008  1.1971 -0.2863
 5586TIP3    H216704   4.051   5.285   3.015  1.6335 -0.3699  0.4576
 5587TIP3   OH216705   0.080   6.274   2.922  0.1790 -0.8247  0.0394
 5587TIP3    H116706   0.031   6.222   2.986 -1.9082  0.9058 -0.0035
 5587TIP3    H216707   0.086   6.361   2.962 -0.5074  0.0967 -1.7507
 5588TIP3   OH216708   6.907   2.945   5.395  0.4747  0.2817  0.0152
 5588TIP3    H116709   6.830   2.890   5.382  0.4116  0.7377 -1.6789
 5588TIP3    H216710   6.898   2.977   5.485 -1.2342  0.1930 -0.0889
 5589TIP3   OH216711   6.572   1.667   4.995  0.3814 -0.2706  0.1698
 5589TIP3    H116712   6.653   1.619   4.978  0.2753 -0.3094 -0.2170
 5589TIP3    H216713   6.503   1.612   4.959  0.0645 -0.7835  1.4946
 5590TIP3   OH216714   1.356   5.691   3.599 -0.3041 -0.1918  0.0847
 5590TIP3    H116715   1.376   5.732   3.683  1.7749  1.9179 -1.3201
 5590TIP3    H216716   1.406   5.609   3.600  0.9692  0.5568  0.3328
 5591TIP3   OH216717   0.969   7.328   1.058  0.1795 -0.1258 -0.3111
 5591TIP3    H116718   1.046   7.377   1.088 -0.8662  0.7556  1.0579
 5591TIP3    H216719   0.925   7.301   1.138 -1.2405 -0.1172 -1.0636
 5592TIP3   OH216720   7.031   6.392   1.179  0.3296 -0.2548 -0.4323
 5592TIP3    H116721   7.062   6.368   1.092  0.8072 -0.3408 -0.2427
 5592TIP3    H216722   7.037   6.487   1.181 -1.8112 -0.0543 -1.2764
 5593TIP3   OH216723   4.879   0.511   0.438 -0.0482 -0.6011  0.0490
 5593TIP3    H116724   4.817   0.454   0.484  0.5694 -0.8507  0.5901
 5593TIP3    H216725   4.847   0.512   0.348 -0.3074 -1.4822  0.1128
 5594TIP3   OH216726   7.699   2.372   1.970 -0.4600  0.4996  0.3479
 5594TIP3    H116727   7.627   2.433   1.987 -1.1730 -0.6654  1.6389
 5594TIP3    H216728   7.662   2.285   1.987  0.7388 -0.2717 -0.7575
 5595TIP3   OH216729   6.339   0.545   5.506  0.4549  0.2136 -0.1134
 5595TIP3    H116730   6.320   0.567   5.597  0.0540  0.0882 -0.1645
 5595TIP3    H216731   6.333   0.629   5.460  0.3981  0.2367 -0.0656
 5596TIP3   OH216732   2.953   0.564   4.863  0.2983 -0.1318 -0.0301
 5596TIP3    H116733   3.014   0.578   4.936 -2.9838 -0.9645  3.1136
 5596TIP3    H216734   2.969   0.474   4.836 -0.5788 -0.9039  1.8955
 5597TIP3   OH216735   3.591   5.225   4.428  0.1400  0.4422 -0.5825
 5597TIP3    H116736   3.513   5.187   4.387  2.4106 -2.6458 -2.4280
 5597TIP3    H216737   3.634   5.271   4.356  0.0979  2.1475  0.4315
 5598TIP3   OH216738   4.528   2.814   3.476  0.3288  0.1580  0.3613
 5598TIP3    H116739   4.470   2.803   3.552  0.8125 -1.5104  0.5367
 5598TIP3    H216740   4.596   2.874   3.506 -1.8278  3.1414 -0.2130
 5599TIP3   OH216741   6.623   3.201   4.127 -0.0428  0.1674 -0.0302
 5599TIP3    H116742   6.597   3.286   4.161 -0.5682  0.2066 -0.5074
 5599TIP3    H216743   6.698   3.175   4.181  1.4469  1.8438 -1.1495
 5600TIP3   OH216744   0.865   0.317   4.314 -0.0893 -0.2568  0.8854
 5600TIP3    H116745   0.775   0.325   4.345 -0.3300 -0.2848  0.2103
 5600TIP3    H216746   0.898   0.407   4.311 -0.7829 -0.0119 -0.8280
 5601TIP3   OH216747   2.825   3.404   6.537  0.6078  0.1464  0.4607
 5601TIP3    H116748   2.791   3.325   6.580  1.2581 -0.1837  0.3744
 5601TIP3    H216749   2.782   3.405   6.452  0.6463 -0.1449  0.4384
 5602TIP3   OH216750   1.137   6.550   2.282 -0.2354  0.2656  0.1536
 5602TIP3    H116751   1.216   6.523   2.235 -0.0185 -2.2624  1.8045
 5602TIP3    H216752   1.093   6.468   2.305 -3.2441  1.5964 -0.4626
 5603TIP3   OH216753   1.509   5.045   0.161 -0.0293  0.0627  0.4339
 5603TIP3    H116754   1.538   5.080   0.076  1.1564 -0.0546  0.7673
 5603TIP3    H216755   1.468   4.962   0.139  1.2470 -0.4958  0.0484
 5604TIP3   OH216756   7.871   6.056   5.075  0.0747  0.5732 -0.1198
 5604TIP3    H116757   7.887   6.136   5.025  0.8980  1.6693  1.8015
 5604TIP3    H216758   7.948   6.046   5.130 -1.2297  0.0361  1.7082
 5605TIP3   OH216759   4.928   1.517   6.689  0.3154 -0.0091 -0.1532
 5605TIP3    H116760   4.843   1.531   6.730  0.7418 -1.2336  1.2235
 5605TIP3    H216761   4.991   1.544   6.756  1.0216 -1.0329 -0.3957
 5606TIP3   OH216762   6.713   0.681   6.091 -0.4348 -0.5013 -0.0267
 5606TIP3    H116763   6.803   0.677   6.059 -0.2294  0.3668  0.4028
 5606TIP3    H216764   6.699   0.597   6.134  1.0104  0.2245  2.0319
 5607TIP3   OH216765   7.081   1.688   5.296  0.7967 -0.0315  0.4068
 5607TIP3    H116766   7.101   1.692   5.202 -1.0088  2.0073  0.0155
 5607TIP3    H216767   7.015   1.619   5.303  0.5434  0.1696  0.0727
 5608TIP3   OH216768   1.707   0.451   3.109 -0.0597 -0.4000  0.4035
 5608TIP3    H116769   1.706   0.485   3.198  1.0479 -0.4330  0.4381
 5608TIP3    H216770   1.664   0.365   3.116  1.4099 -1.1005  1.2092
 5609TIP3   OH216771   1.578   2.065   4.131  0.1444  0.1377  0.2489
 5609TIP3    H116772   1.630   1.988   4.153  0.3292  0.0506 -0.4597
 5609TIP3    H216773   1.641   2.126   4.093 -0.5223 -0.7237 -2.5070
 5610TIP3   OH216774   6.357   6.161   0.304  0.0346 -0.3536 -0.2467
 5610TIP3    H116775   6.362   6.173   0.399 -0.9964  2.1176 -0.4376
 5610TIP3    H216776   6.283   6.102   0.292 -1.3288  1.1326  0.4425
 5611TIP3   OH216777   0.793   3.566   3.615  0.0500 -0.1607  0.1145
 5611TIP3    H116778   0.888   3.560   3.626 -0.0356 -0.6361  0.6077
 5611TIP3    H216779   0.764   3.476   3.603 -0.2533  0.0484 -0.7982
 5612TIP3   OH216780   3.710   7.398   3.560  0.0477  0.1295  0.6546
 5612TIP3    H116781   3.799   7.430   3.549  0.0550 -0.0743  0.0566
 5612TIP3    H216782   3.680   7.436   3.643 -0.3968  2.6851 -0.5803
 5613TIP3   OH216783   5.573   1.100   1.367  0.0302  0.3974  0.0754
 5613TIP3    H116784   5.601   1.033   1.305 -2.0569 -1.1186  0.6587
 5613TIP3    H216785   5.505   1.149   1.321 -0.9981 -0.2523  0.8764
 5614TIP3   OH216786   0.078   2.209   0.148  0.0231  0.2809 -0.1790
 5614TIP3    H116787   0.051   2.205   0.239  1.1822  1.4472  0.2311
 5614TIP3    H216788  -0.004   2.202   0.099 -0.9752  2.6628  0.9983
 5615TIP3   OH216789   5.361   1.100   0.290  0.6045  0.0648 -0.1047
 5615TIP3    H116790   5.450   1.108   0.323  0.6546  1.2289 -0.4679
 5615TIP3    H216791   5.313   1.171   0.333 -0.2708 -0.8378  0.4571
 5616TIP3   OH216792   3.428   7.680   0.220 -0.1712  0.2411 -0.5008
 5616TIP3    H116793   3.379   7.615   0.269 -1.6798 -0.4543 -2.7679
 5616TIP3    H216794   3.465   7.738   0.287 -1.7325 -0.8616  1.4207
 5617TIP3   OH216795   7.102   7.546   1.418  0.2032 -0.1343 -1.0292
 5617TIP3    H116796   7.047   7.597   1.359  0.4466  1.1525 -0.1874
 5617TIP3    H216797   7.113   7.462   1.375 -3.5901 -1.0149 -0.6109
 5618TIP3   OH216798   6.632   7.450   6.114 -0.2056 -0.5674  0.1529
 5618TIP3    H116799   6.621   7.361   6.147 -0.5596 -0.4139  0.4568
 5618TIP3    H216800   6.704   7.486   6.165 -1.2529 -0.0691  1.3315
 5619TIP3   OH216801   7.314   6.364   5.828 -0.6367  0.5447 -0.3810
 5619TIP3    H116802   7.366   6.430   5.783 -2.4733  1.4778 -1.2265
 5619TIP3    H216803   7.349   6.281   5.796  0.2239  1.1412 -1.0469
 5620TIP3   OH216804   4.894   4.351   5.069  0.2067  0.1260 -0.3038
 5620TIP3    H116805   4.808   4.381   5.098  0.8935 -0.9675  3.3738
 5620TIP3    H216806   4.954   4.421   5.094  0.5082  0.7163 -2.4965
 5621TIP3   OH216807   2.419   2.083   3.893  0.4376 -0.4694 -0.3240
 5621TIP3    H116808   2.408   2.136   3.815 -1.2019 -0.0321  0.1701
 5621TIP3    H216809   2.482   2.132   3.947 -0.3607  0.5260 -0.2697
 5622TIP3   OH216810   5.428   3.611   3.555 -0.0855  0.0894 -0.1684
 5622TIP3    H116811   5.413   3.545   3.487  1.0260  0.2814 -0.6219
 5622TIP3    H216812   5.382   3.577   3.632 -1.4701 -0.0692 -1.0483
 5623TIP3   OH216813   0.193   0.125   0.212 -0.5070 -0.0060 -0.2096
 5623TIP3    H116814   0.145   0.052   0.251 -1.3337  0.8445  0.4276
 5623TIP3    H216815   0.173   0.120   0.119  0.1998 -1.1280 -0.3172
 5624TIP3   OH216816   2.745   3.283   5.967 -0.4513 -0.4831 -0.4935
 5624TIP3    H116817   2.685   3.255   5.897 -0.9524  0.6097 -0.5186
 5624TIP3    H216818   2.691   3.284   6.046  0.0741 -1.5452 -0.1010
 5625TIP3   OH216819   2.929   6.757   0.248 -0.0373 -0.0330 -0.1933
 5625TIP3    H116820   2.895   6.745   0.336 -2.5715  2.8197 -0.6065
 5625TIP3    H216821   2.941   6.668   0.214 -1.6040 -1.2052  2.1003
 5626TIP3   OH216822   1.701   2.468   5.195  0.4865  0.1202 -0.3070
 5626TIP3    H116823   1.686   2.445   5.287  2.4282 -1.4499 -0.3203
 5626TIP3    H216824   1.728   2.385   5.154  0.4146  0.9486 -2.1345
 5627TIP3   OH216825   4.272   4.023   2.788  0.1177 -0.2323  0.2668
 5627TIP3    H116826   4.299   3.943   2.742 -0.3204  0.2739 -0.8983
 5627TIP3    H216827   4.176   4.021   2.785  0.1058  0.7778 -0.5728
 5628TIP3   OH216828   5.790   7.388   1.160  0.9067  0.0196  0.0571
 5628TIP3    H116829   5.826   7.380   1.072  0.3951 -0.6631 -0.0959
 5628TIP3    H216830   5.830   7.315   1.209  0.3483 -0.2641  0.0945
 5629TIP3   OH216831   6.604   2.919   2.632  0.7166  0.6317 -0.4955
 5629TIP3    H116832   6.580   2.924   2.725  0.6871 -0.0555 -0.4575
 5629TIP3    H216833   6.529   2.955   2.585 -0.0830 -0.7584 -0.3404
 5630TIP3   OH216834   0.414   7.432   4.842 -0.5939  0.4010  0.0061
 5630TIP3    H116835   0.506   7.458   4.832 -0.3436 -0.7871 -1.0194
 5630TIP3    H216836   0.416   7.357   4.902 -0.7492 -0.3755 -0.9412
 5631TIP3   OH216837   8.139   4.984   3.202  0.1702  0.0688  0.4140
 5631TIP3    H116838   8.190   5.047   3.253  0.7284  0.3397 -0.4503
 5631TIP3    H216839   8.049   5.012   3.212  0.2428  0.0186  1.3760
 5632TIP3   OH216840   4.467   3.130   4.190  0.2058 -0.1478  0.5821
 5632TIP3    H116841   4.408   3.092   4.255  0.1165  1.1947  1.3137
 5632TIP3    H216842   4.530   3.179   4.242  0.1226  0.9673 -0.3509
 5633TIP3   OH216843   5.885   0.948   4.026 -0.4238  0.2694  0.3403
 5633TIP3    H116844   5.842   0.940   4.111 -1.2683 -1.2552 -0.1952
 5633TIP3    H216845   5.823   0.908   3.964 -0.6050  2.8131 -1.2789
 5634TIP3   OH216846   5.325   4.566   3.681 -0.3139  0.0306  0.4659
 5634TIP3    H116847   5.273   4.549   3.759  0.9018  1.1107  1.5593
 5634TIP3    H216848   5.311   4.490   3.625 -3.3265  0.4391  0.5255
 5635TIP3   OH216849   3.848   3.513   6.341 -0.2621 -0.1652 -0.3563
 5635TIP3    H116850   3.876   3.433   6.296 -1.3050  0.5278 -2.3399
 5635TIP3    H216851   3.927   3.547   6.381  0.3145 -1.8804  0.0507
 5636TIP3   OH216852   1.169   4.530   3.590 -0.1178 -0.2485  0.2472
 5636TIP3    H116853   1.157   4.616   3.631  1.1737  0.0729 -0.0264
 5636TIP3    H216854   1.263   4.520   3.580 -0.3097  0.3572 -4.0541
 5637TIP3   OH216855   2.624   3.512   1.432  0.2534  0.2622  0.3717
 5637TIP3    H116856   2.574   3.585   1.469 -0.1979 -0.7490  1.8589
 5637TIP3    H216857   2.575   3.434   1.459  1.2594 -0.6371 -0.3377
 5638TIP3   OH216858   5.050   3.146   5.995  0.2232  0.1840 -0.5550
 5638TIP3    H116859   5.124   3.088   5.977 -0.8296 -0.9872 -1.3322
 5638TIP3    H216860   5.085   3.234   5.982  1.5194 -0.3310 -0.7251
 5639TIP3   OH216861   6.683   0.659   0.345 -0.1750 -0.3478 -0.3848
 5639TIP3    H116862   6.594   0.695   0.343 -0.6339 -1.4550 -3.2101
 5639TIP3    H216863   6.689   0.603   0.268  2.7342 -0.9636  0.1654
 5640TIP3   OH216864   7.188   1.295   5.112  0.4414  0.7224  0.1198
 5640TIP3    H116865   7.206   1.228   5.178 -0.5005  0.2104 -0.1155
 5640TIP3    H216866   7.274   1.325   5.083  0.8746 -0.1556  0.4662
 5641TIP3   OH216867   5.952   1.741   3.500 -0.2591  0.3404  0.4693
 5641TIP3    H116868   5.871   1.792   3.492 -0.3276 -0.0784 -2.3230
 5641TIP3    H216869   6.022   1.804   3.485 -0.2507  0.0970 -0.6084
 5642TIP3   OH216870   7.216   0.227   4.846 -0.4557  0.0568 -0.2458
 5642TIP3    H116871   7.274   0.279   4.790 -0.1589 -0.9973 -0.9655
 5642TIP3    H216872   7.272   0.157   4.880 -1.3183 -1.1221 -1.1450
 5643TIP3   OH216873   5.680   5.527   0.110  0.3766 -0.4048 -0.5494
 5643TIP3    H116874   5.602   5.581   0.111  0.6513  0.0452 -2.0361
 5643TIP3    H216875   5.706   5.522   0.202 -1.1036 -0.1603 -0.0884
 5644TIP3   OH216876   0.236   3.583   2.422 -0.0338  0.5433  0.2758
 5644TIP3    H116877   0.300   3.526   2.381  0.6890 -0.2402  2.3963
 5644TIP3    H216878   0.287   3.656   2.458 -0.1748 -0.3480  2.4362
 5645TIP3   OH216879   6.019   6.025   2.348 -0.3046 -0.0495  0.3096
 5645TIP3    H116880   6.100   6.071   2.329 -0.6763  1.1424  1.5031
 5645TIP3    H216881   5.965   6.039   2.270  0.0208  0.5793  0.1900
 5646TIP3   OH216882   5.483   2.210   1.419  0.3726 -0.5028  0.0398
 5646TIP3    H116883   5.556   2.151   1.402 -0.3450 -1.4443  0.1234
 5646TIP3    H216884   5.462   2.198   1.511 -0.6574 -1.1650 -0.2591
 5647TIP3   OH216885   0.225   4.199   3.670  0.3941  0.3497  0.0544
 5647TIP3    H116886   0.275   4.276   3.699 -1.2086  0.9558  1.3931
 5647TIP3    H216887   0.270   4.169   3.591  1.6835  2.0256  0.0979
 5648TIP3   OH216888   1.891   1.957   2.458 -0.4084  0.4815 -0.6468
 5648TIP3    H116889   1.982   1.983   2.445 -0.4367  0.7769 -0.2823
 5648TIP3    H216890   1.895   1.869   2.494 -0.2978  0.1223 -1.4965
 5649TIP3   OH216891   1.521   1.897   1.231  0.0064 -0.4136 -0.3625
 5649TIP3    H116892   1.522   1.984   1.270  1.1536  0.0624 -1.3927
 5649TIP3    H216893   1.451   1.900   1.167  2.0407  0.8812 -2.7068
 5650TIP3   OH216894   0.646   2.530   5.016  0.1714 -0.0532 -0.1363
 5650TIP3    H116895   0.595   2.591   4.962 -0.9241 -1.1351 -0.3549
 5650TIP3    H216896   0.634   2.445   4.975 -1.4727 -1.1048  2.2736
 5651TIP3   OH216897   4.663   1.996   6.077 -0.4058  0.1490  0.1195
 5651TIP3    H116898   4.668   2.073   6.021  2.2802  0.6698  0.9168
 5651TIP3    H216899   4.720   2.017   6.152  3.6538 -3.8287 -1.3431
 5652TIP3   OH216900   5.200   2.056   0.170 -0.0092 -0.9652  0.0438
 5652TIP3    H116901   5.235   2.043   0.259 -1.2346 -1.1389  0.5107
 5652TIP3    H216902   5.134   2.124   0.180 -0.5673 -1.4007 -0.6407
 5653TIP3   OH216903   1.737   6.673   3.292  0.1810 -0.1203  0.1229
 5653TIP3    H116904   1.832   6.660   3.294  0.2722  0.0128 -1.5983
 5653TIP3    H216905   1.708   6.624   3.215 -1.1130  0.0292  0.5020
 5654TIP3   OH216906   4.912   5.123   1.636  0.1240  0.0494 -0.8426
 5654TIP3    H116907   4.870   5.054   1.585 -1.9295  1.5709 -1.3211
 5654TIP3    H216908   4.925   5.084   1.723 -1.2750 -0.8620 -1.0086
 5655TIP3   OH216909   3.667   2.118   6.662  0.1993 -0.0519  0.4629
 5655TIP3    H116910   3.630   2.062   6.594 -1.3174 -0.2180  1.3659
 5655TIP3    H216911   3.757   2.088   6.672  0.7605  0.5516 -2.0321
 5656TIP3   OH216912   7.155   6.853   1.515  0.2920  0.2199  0.5679
 5656TIP3    H116913   7.078   6.850   1.458 -0.6562 -0.1929  1.8251
 5656TIP3    H216914   7.165   6.945   1.537  0.3401  0.3124  0.1646
 5657TIP3   OH216915   2.859   4.520   3.579 -0.1081 -0.1229  0.8461
 5657TIP3    H116916   2.933   4.472   3.542  0.1844  0.5833  0.5033
 5657TIP3    H216917   2.884   4.534   3.671  0.1275  0.0035  0.7645
 5658TIP3   OH216918   0.638   4.962   3.918  0.0809 -0.4353  0.3086
 5658TIP3    H116919   0.645   5.044   3.967  0.1022 -1.0260  1.3235
 5658TIP3    H216920   0.545   4.954   3.897  0.2950  0.6251 -1.2048
 5659TIP3   OH216921   5.292   2.404   3.210 -0.2054 -0.6103 -0.0948
 5659TIP3    H116922   5.272   2.489   3.249 -0.0171 -0.5480 -0.1352
 5659TIP3    H216923   5.206   2.361   3.202 -0.3560 -0.2420 -0.5040
 5660TIP3   OH216924   1.784   7.637   4.400 -0.1072  0.1475  0.2558
 5660TIP3    H116925   1.873   7.607   4.384 -0.4037 -0.0402 -1.2257
 5660TIP3    H216926   1.751   7.580   4.470  1.2493  0.9031  1.5613
 5661TIP3   OH216927   7.135   7.818   3.911  0.2590  0.2423 -0.1678
 5661TIP3    H116928   7.121   7.815   3.816 -0.7928  1.4778 -0.0630
 5661TIP3    H216929   7.168   7.730   3.932  1.9831  0.3951 -1.8806
 5662TIP3   OH216930   7.840   3.298   2.250 -0.0295 -0.2574  0.3884
 5662TIP3    H116931   7.905   3.266   2.187 -1.3334 -1.5962 -0.3224
 5662TIP3    H216932   7.826   3.225   2.310  0.1918  0.5409  1.4519
 5663TIP3   OH216933   7.029   4.813   4.275  0.0400 -0.5715  0.1412
 5663TIP3    H116934   7.017   4.907   4.287  0.1713 -0.4426 -0.6792
 5663TIP3    H216935   6.974   4.792   4.200 -0.4444 -1.2652  0.6723
 5664TIP3   OH216936   4.782   5.073   0.971 -0.3043  0.2049  0.0130
 5664TIP3    H116937   4.788   5.168   0.967 -0.6072  0.2516  0.5699
 5664TIP3    H216938   4.724   5.049   0.899  0.5272  0.3539 -0.7340
 5665TIP3   OH216939   5.308   0.339   2.581 -0.9568 -0.0179 -0.2474
 5665TIP3    H116940   5.359   0.416   2.555 -1.6430  0.4701 -0.1611
 5665TIP3    H216941   5.373   0.268   2.585 -0.2183  0.6626  0.1985
 5666TIP3   OH216942   6.072   6.949   3.176 -0.6666  0.0223  0.0442
 5666TIP3    H116943   5.997   6.917   3.126 -0.1758  0.0036 -0.6908
 5666TIP3    H216944   6.035   6.972   3.262 -1.4858 -0.1151 -0.2590
 5667TIP3   OH216945   2.502   4.646   2.322 -0.5030  0.4725 -0.0425
 5667TIP3    H116946   2.555   4.713   2.366 -1.1046 -0.1390  1.7115
 5667TIP3    H216947   2.505   4.670   2.229  0.5376  2.0412  0.3513
 5668TIP3   OH216948   4.681   5.601   6.128  0.1001  0.5523  0.1780
 5668TIP3    H116949   4.757   5.660   6.128 -1.0927  2.1471  0.4819
 5668TIP3    H216950   4.680   5.564   6.216 -0.0458  1.3345  0.5186
 5669TIP3   OH216951   7.730   2.720   1.768 -0.6031 -0.2180 -0.2265
 5669TIP3    H116952   7.715   2.688   1.679  0.6140 -2.0275  0.1764
 5669TIP3    H216953   7.738   2.815   1.758  0.2084 -0.4376 -2.1476
 5670TIP3   OH216954   5.443   3.182   1.561  0.0854  0.1551 -0.1377
 5670TIP3    H116955   5.370   3.192   1.499 -0.1173 -0.3278  0.0232
 5670TIP3    H216956   5.405   3.204   1.646 -0.5487 -2.4543  0.3376
 5671TIP3   OH216957   1.177   6.862   5.983  0.0806  0.1944  0.1831
 5671TIP3    H116958   1.138   6.865   5.895 -0.8413  1.3055  0.6025
 5671TIP3    H216959   1.214   6.774   5.990  0.6346  0.2637 -1.5088
 5672TIP3   OH216960   3.151   7.454   3.711  0.1252 -0.2696 -0.4999
 5672TIP3    H116961   3.227   7.404   3.682  0.3781 -1.4236  1.8727
 5672TIP3    H216962   3.185   7.509   3.782 -1.0953 -0.2493  0.0912
 5673TIP3   OH216963   8.085   4.700   4.660  0.2119 -0.2035  0.3394
 5673TIP3    H116964   8.045   4.616   4.685 -0.5678 -0.1893 -0.8264
 5673TIP3    H216965   8.039   4.765   4.713 -0.6100 -0.3043 -0.2296
 5674TIP3   OH216966   5.355   2.605   2.714  0.2655  0.5987 -0.6553
 5674TIP3    H116967   5.391   2.692   2.700 -0.1664  0.8231 -0.3568
 5674TIP3    H216968   5.265   2.610   2.682 -0.0546  0.5219  0.2063
 5675TIP3   OH216969   5.662   0.674   1.596 -0.2737  0.1992  0.0528
 5675TIP3    H116970   5.626   0.762   1.581  1.9670  1.3698  1.0335
 5675TIP3    H216971   5.658   0.662   1.691  1.5983  0.2805  0.1772
 5676TIP3   OH216972   3.456   0.443   3.926 -0.3913 -0.6016 -0.4121
 5676TIP3    H116973   3.400   0.414   3.854 -0.9478  1.0360 -0.7052
 5676TIP3    H216974   3.411   0.414   4.005 -0.6691 -0.9342 -0.6906
 5677TIP3   OH216975   7.599   2.622   4.507 -0.0752  0.1013  0.3641
 5677TIP3    H116976   7.509   2.654   4.509 -0.1122  0.0449 -0.1719
 5677TIP3    H216977   7.616   2.605   4.414  1.0705  1.8050  0.2251
 5678TIP3   OH216978   7.128   3.810   2.010 -0.3525  0.1151 -0.4207
 5678TIP3    H116979   7.043   3.767   1.999 -0.8102  1.0150 -0.4663
 5678TIP3    H216980   7.131   3.836   2.102 -1.1260  2.0866 -0.8948
 5679TIP3   OH216981   4.149   0.368   4.658 -0.2584 -0.1064 -0.1538
 5679TIP3    H116982   4.191   0.392   4.740  0.2405  1.9302 -0.9692
 5679TIP3    H216983   4.218   0.328   4.606 -0.0400  0.5571 -0.3801
 5680TIP3   OH216984   6.475   3.717   2.856  0.4970 -0.6630 -0.4389
 5680TIP3    H116985   6.419   3.650   2.816  0.3449 -0.7364 -0.1072
 5680TIP3    H216986   6.535   3.743   2.786  1.0281 -1.6572 -0.3717
 5681TIP3   OH216987   4.778   6.788   1.077 -0.0974 -0.0950  0.2727
 5681TIP3    H116988   4.867   6.820   1.093 -0.3477  0.2401  1.0133
 5681TIP3    H216989   4.729   6.811   1.156 -0.6094 -1.1228  0.2744
 5682TIP3   OH216990   5.233   7.001   1.388  0.1518 -0.3067 -0.2661
 5682TIP3    H116991   5.262   6.996   1.479  0.7847  0.7568 -0.4028
 5682TIP3    H216992   5.147   7.043   1.393  1.3803  2.4282 -0.3371
 5683TIP3   OH216993   2.927   3.354   4.072  0.2471 -0.9939  0.0283
 5683TIP3    H116994   2.874   3.298   4.129 -0.6394  0.8735  1.1349
 5683TIP3    H216995   2.994   3.390   4.129 -0.3081  0.4690 -0.2206
 5684TIP3   OH216996   7.020   3.890   2.284  0.4091 -0.8343 -0.0785
 5684TIP3    H116997   7.029   3.975   2.328 -5.1484  0.6985 -1.0490
 5684TIP3    H216998   6.988   3.831   2.352 -1.8884 -0.2530 -0.5780
 5685TIP3   OH216999   0.122   0.700   2.860  0.2709 -0.0589 -0.1656
 5685TIP3    H117000   0.086   0.639   2.925 -0.0571 -0.0601 -0.3483
 5685TIP3    H217001   0.217   0.689   2.867  0.3396  1.2500  1.5915
 5686TIP3   OH217002   2.723   5.011   2.073  0.2598 -0.4789  0.7808
 5686TIP3    H117003   2.792   5.061   2.030  0.0434 -0.8991 -0.0891
 5686TIP3    H217004   2.723   4.927   2.028  0.0012 -0.9253  1.6029
 5687TIP3   OH217005   7.638   1.475   5.691  0.0434 -0.4457  0.2470
 5687TIP3    H117006   7.640   1.556   5.642 -0.0620 -0.5994 -0.0127
 5687TIP3    H217007   7.701   1.418   5.648 -1.8374 -1.4862 -1.3256
 5688TIP3   OH217008   6.650   3.205   5.243  0.1006  0.2407 -0.0485
 5688TIP3    H117009   6.742   3.195   5.269  0.7776  1.1499 -1.9283
 5688TIP3    H217010   6.641   3.298   5.220 -0.8081 -0.1785 -1.5479
 5689TIP3   OH217011   0.845   4.629   2.969 -0.2043  0.0234  0.4748
 5689TIP3    H117012   0.762   4.585   2.952 -0.8214  0.6452  1.6805
 5689TIP3    H217013   0.835   4.665   3.058  0.2152  2.6351 -0.4516
 5690TIP3   OH217014   4.651   0.309   5.100  0.7704  0.1194 -0.4275
 5690TIP3    H117015   4.671   0.291   5.008 -0.0123  0.7136 -0.7264
 5690TIP3    H217016   4.607   0.394   5.098 -0.3665 -0.4322  0.3634
 5691TIP3   OH217017   4.844   2.984   6.305  0.0971 -0.5310  0.6182
 5691TIP3    H117018   4.835   2.894   6.273 -3.3186 -0.2321  0.4053
 5691TIP3    H217019   4.784   2.990   6.379  0.7690  1.4211  1.0677
 5692TIP3   OH217020   3.554   1.584   4.540  0.1426  0.1639 -0.0020
 5692TIP3    H117021   3.557   1.678   4.557  2.9035  0.3194 -0.8940
 5692TIP3    H217022   3.573   1.543   4.624 -2.9246  0.2118  0.8543
 5693TIP3   OH217023   5.714   6.166   2.359 -0.5616  0.5194 -0.3160
 5693TIP3    H117024   5.795   6.185   2.407 -1.1770 -0.4278  1.1892
 5693TIP3    H217025   5.743   6.141   2.271  0.6503  1.8440 -0.3335
 5694TIP3   OH217026   6.072   0.482   0.393 -0.5430 -0.3721  0.3161
 5694TIP3    H117027   6.147   0.501   0.336 -0.7602  0.1381  0.1929
 5694TIP3    H217028   6.110   0.437   0.468  0.0126  0.6018  0.6432
 5695TIP3   OH217029   0.442   7.400   5.347 -0.1935 -0.6147 -0.5954
 5695TIP3    H117030   0.528   7.361   5.332  1.7040  2.9320  0.0122
 5695TIP3    H217031   0.402   7.345   5.415  2.2743 -1.4971  0.2583
 5696TIP3   OH217032   5.741   5.865   2.992 -0.0030 -0.3037  0.0273
 5696TIP3    H117033   5.741   5.770   2.998 -0.2591 -0.2154  2.3166
 5696TIP3    H217034   5.817   5.893   3.042 -0.8857  0.7313  0.8454
 5697TIP3   OH217035   6.036   4.704   4.997 -0.2806 -0.3221  0.3417
 5697TIP3    H117036   5.989   4.763   5.057 -0.7952 -0.5183  0.1355
 5697TIP3    H217037   6.086   4.646   5.055 -1.3037 -0.9512  0.6158
 5698TIP3   OH217038   0.651   6.689   2.721  0.0250  0.1196  0.5124
 5698TIP3    H117039   0.649   6.596   2.743  0.0175  0.2536  1.0822
 5698TIP3    H217040   0.744   6.707   2.706 -0.1537 -0.4191 -1.5432
 5699TIP3   OH217041   7.449   4.738   3.896  0.1381 -0.1376 -0.6069
 5699TIP3    H117042   7.536   4.731   3.935  0.1941  0.6097 -0.5783
 5699TIP3    H217043   7.395   4.676   3.945  0.8077 -1.1020 -1.0806
 5700TIP3   OH217044   6.413   3.685   1.982 -0.4807 -0.5840 -0.3359
 5700TIP3    H117045   6.386   3.598   1.954  1.9371 -2.2746  2.0405
 5700TIP3    H217046   6.366   3.700   2.064 -0.4346  0.0914 -0.4225
 5701TIP3   OH217047   7.629   1.062   1.334  0.1997  0.1244 -0.1062
 5701TIP3    H117048   7.625   0.967   1.344  0.9965  0.1316  0.3463
 5701TIP3    H217049   7.723   1.083   1.341  0.0990  0.8709 -0.8332
 5702TIP3   OH217050   5.622   3.791   2.298  0.7724 -0.0059  0.0645
 5702TIP3    H117051   5.694   3.798   2.360  0.3245 -0.4083  0.6406
 5702TIP3    H217052   5.662   3.806   2.212  1.4506  0.2454  0.4201
 5703TIP3   OH217053   6.574   6.108   2.000 -0.4603 -0.5413 -0.3586
 5703TIP3    H117054   6.488   6.148   1.992 -0.1148  0.6374  1.2972
 5703TIP3    H217055   6.566   6.023   1.955 -2.3828 -0.3410 -0.4488
 5704TIP3   OH217056   0.931   7.083   1.433  0.7487 -0.0626  0.2828
 5704TIP3    H117057   0.929   6.997   1.390  0.7150 -0.2506  0.6610
 5704TIP3    H217058   0.950   7.064   1.525  1.0430  0.3587  0.3097
 5705TIP3   OH217059   2.884   5.039   1.602 -0.5575  0.4440 -0.0169
 5705TIP3    H117060   2.831   5.118   1.595 -0.4447  0.5146 -0.0710
 5705TIP3    H217061   2.821   4.967   1.599 -0.5557  0.4795 -1.3155
 5706TIP3   OH217062   4.649   3.699   2.307 -0.2996  0.1160  0.0408
 5706TIP3    H117063   4.637   3.754   2.384  2.9563  0.7951  0.1935
 5706TIP3    H217064   4.691   3.757   2.243  0.8764 -1.4923 -0.7139
 5707TIP3   OH217065   1.160   6.954   3.737 -0.1282  0.1646  0.3576
 5707TIP3    H117066   1.201   6.901   3.668 -1.1998  0.9025 -0.8989
 5707TIP3    H217067   1.232   7.007   3.772  0.2489  0.5581 -0.9645
 5708TIP3   OH217068   2.675   7.166   3.688  0.2245 -0.1014  0.0989
 5708TIP3    H117069   2.694   7.243   3.633 -0.0881 -0.8763 -1.1369
 5708TIP3    H217070   2.686   7.092   3.629 -0.6323 -0.9364  0.9594
 5709TIP3   OH217071   7.252   4.551   0.208  0.4797 -0.1669 -0.3123
 5709TIP3    H117072   7.261   4.498   0.129  0.7379 -1.1147  0.3336
 5709TIP3    H217073   7.159   4.570   0.214  0.1720 -1.6175  0.0903
 5710TIP3   OH217074   1.065   4.479   4.602  0.3219 -0.4231  0.6011
 5710TIP3    H117075   1.071   4.384   4.604  0.4315 -0.4658 -0.8431
 5710TIP3    H217076   0.985   4.497   4.552  1.2891  0.2204 -0.7921
 5711TIP3   OH217077   5.689   3.126   6.188  0.9854 -0.3247 -0.1340
 5711TIP3    H117078   5.783   3.116   6.173  1.2579 -0.2172  1.3065
 5711TIP3    H217079   5.662   3.041   6.224  0.9667  0.2856  1.3502
 5712TIP3   OH217080   7.755   0.039   5.733  0.6606  0.1824 -0.7104
 5712TIP3    H117081   7.744  -0.028   5.665  0.3722 -0.4329 -0.0683
 5712TIP3    H217082   7.704   0.113   5.702  2.9134  1.0642 -2.6356
 5713TIP3   OH217083   4.076   5.888   5.049 -0.1788 -0.1198  0.1942
 5713TIP3    H117084   4.140   5.958   5.036 -1.3793  0.7555 -1.3993
 5713TIP3    H217085   3.996   5.921   5.008 -1.2631 -1.7597  0.8796
 5714TIP3   OH217086   5.467   7.104   6.418  0.1040  0.1546 -0.3202
 5714TIP3    H117087   5.467   7.123   6.512  0.0524  0.3342 -0.3563
 5714TIP3    H217088   5.488   7.011   6.413 -3.7712 -0.9208  0.0694
 5715TIP3   OH217089   7.730   7.267   6.077  0.0380 -0.1204  0.2285
 5715TIP3    H117090   7.807   7.274   6.134  1.5236 -1.4122 -1.4942
 5715TIP3    H217091   7.710   7.174   6.075  0.0574 -0.1099 -1.3709
 5716TIP3   OH217092   3.916   7.749   3.107  0.0157 -0.2901  0.1670
 5716TIP3    H117093   3.991   7.784   3.059  1.2427 -1.7757  0.9172
 5716TIP3    H217094   3.901   7.812   3.178  1.3278 -0.5721  0.7116
 5717TIP3   OH217095   1.833   3.791   5.983 -0.6038  0.0209  0.8052
 5717TIP3    H117096   1.793   3.712   5.945 -1.2619 -0.0351  1.6013
 5717TIP3    H217097   1.790   3.802   6.067 -0.8359  1.4927  0.5269
 5718TIP3   OH217098   4.741   6.977   4.147  0.1825  0.0146  0.1739
 5718TIP3    H117099   4.648   6.994   4.158  0.5439  2.6934 -0.3342
 5718TIP3    H217100   4.764   6.919   4.220 -1.7923 -0.5078  0.4369
 5719TIP3   OH217101   2.320   0.654   1.098  0.2681  0.3274  0.5198
 5719TIP3    H117102   2.228   0.679   1.096  0.3359  0.5065 -1.0454
 5719TIP3    H217103   2.357   0.691   1.018  1.4229 -0.7898  0.5094
 5720TIP3   OH217104   1.907   1.308   0.989  0.6453 -0.9014  0.5464
 5720TIP3    H117105   1.875   1.378   0.933 -0.1764 -1.5566  0.1919
 5720TIP3    H217106   1.944   1.243   0.929 -0.4883 -1.7326  0.7187
 5721TIP3   OH217107   5.120   6.452   5.310  0.2295  0.0247 -0.0444
 5721TIP3    H117108   5.055   6.507   5.269  0.5828  0.3749 -0.1353
 5721TIP3    H217109   5.199   6.462   5.257  0.8448  0.8772  0.9877
 5722TIP3   OH217110   6.121   3.615   6.128 -0.0056  0.1178  0.3341
 5722TIP3    H117111   6.131   3.702   6.089  3.3608  0.1391  0.9563
 5722TIP3    H217112   6.110   3.632   6.222  0.6317 -0.1150  0.4542
 5723TIP3   OH217113   5.101   0.735   3.995  0.0240  0.3546 -0.0941
 5723TIP3    H117114   5.035   0.780   3.940  1.4112  2.9371  0.1745
 5723TIP3    H217115   5.185   0.768   3.962  0.9691  0.7191  2.4617
 5724TIP3   OH217116   3.873   2.738   6.588  0.0260 -0.2672  0.8173
 5724TIP3    H117117   3.797   2.722   6.645 -0.4250  0.1461  0.3463
 5724TIP3    H217118   3.844   2.808   6.529  0.7840 -0.0970  0.6399
 5725TIP3   OH217119   5.292   1.931   2.148  0.2560  0.5120 -0.7252
 5725TIP3    H117120   5.286   1.970   2.061  0.7216  0.9318 -0.5728
 5725TIP3    H217121   5.382   1.947   2.176  0.5088 -0.7962 -0.7141
 5726TIP3   OH217122   0.868   2.221   2.975  0.1171  0.1845 -0.0422
 5726TIP3    H117123   0.815   2.167   3.034  2.8754 -1.5436  1.0542
 5726TIP3    H217124   0.880   2.166   2.898 -0.4060  0.9372 -0.6702
 5727TIP3   OH217125   3.084   5.972   3.985 -0.5432  0.3319 -0.7138
 5727TIP3    H117126   3.159   5.991   4.040 -1.1361  1.1007 -0.1558
 5727TIP3    H217127   3.122   5.956   3.898  0.1290  2.8185 -0.9471
 5728TIP3   OH217128   4.625   1.527   3.305  0.2796 -0.2033 -0.6954
 5728TIP3    H117129   4.664   1.443   3.282  0.1289 -0.5412  0.2500
 5728TIP3    H217130   4.679   1.561   3.376 -0.3748 -0.0792 -0.2385
 5729TIP3   OH217131   6.671   6.024   6.591 -0.2265 -0.3263 -0.3221
 5729TIP3    H117132   6.576   6.011   6.582 -0.2616 -0.3429  0.0805
 5729TIP3    H217133   6.709   5.943   6.555 -0.4677 -2.2461  3.2890
 5730TIP3   OH217134   0.657   5.617   4.643 -0.5151  0.3954  0.2812
 5730TIP3    H117135   0.632   5.676   4.573  0.7175 -0.8028 -1.2495
 5730TIP3    H217136   0.749   5.595   4.625 -0.5067 -0.8448  1.6150
 5731TIP3   OH217137   3.281   3.886   1.929  0.0388 -0.1773  0.3081
 5731TIP3    H117138   3.319   3.830   1.861 -0.8391  0.1529 -0.4748
 5731TIP3    H217139   3.199   3.843   1.952  0.0179  0.0623  0.6893
 5732TIP3   OH217140   4.938   7.184   2.627 -0.1786  0.3418 -0.2900
 5732TIP3    H117141   4.864   7.124   2.619 -0.8230  0.8245  1.4412
 5732TIP3    H217142   4.935   7.237   2.547  0.1859 -1.6244 -1.6797
 5733TIP3   OH217143   0.330   4.846   1.240 -0.0245 -0.6832  0.3196
 5733TIP3    H117144   0.348   4.930   1.283 -0.0915 -0.0021 -0.9273
 5733TIP3    H217145   0.271   4.869   1.168 -0.2363 -1.8494  0.1100
 5734TIP3   OH217146   7.660   1.445   5.989  0.3186  0.0328  0.1521
 5734TIP3    H117147   7.649   1.489   5.905  0.0928  0.5098  0.4236
 5734TIP3    H217148   7.619   1.504   6.053 -0.3455 -0.7498  0.4828
 5735TIP3   OH217149   3.963   7.288   3.764 -0.2289 -0.4535 -0.2660
 5735TIP3    H117150   4.041   7.299   3.709 -0.7585  0.3900 -0.8835
 5735TIP3    H217151   3.989   7.319   3.850  0.5124 -1.4531 -0.1277
 5736TIP3   OH217152   3.758   2.824   2.728 -0.1525 -0.0152  0.1870
 5736TIP3    H117153   3.739   2.756   2.794 -1.1674  0.9205  0.8984
 5736TIP3    H217154   3.780   2.901   2.779  0.0557  0.4543 -0.6022
 5737TIP3   OH217155   1.827   3.847   2.404 -0.2704 -0.1940 -0.2550
 5737TIP3    H117156   1.801   3.932   2.439 -0.1269  0.0073 -0.6327
 5737TIP3    H217157   1.765   3.785   2.444 -0.1517  0.0381  0.2964
 5738TIP3   OH217158   0.855   6.913   0.604 -1.2483 -0.0475 -0.5478
 5738TIP3    H117159   0.781   6.886   0.659 -1.6956  1.3273 -0.4557
 5738TIP3    H217160   0.827   6.894   0.515 -0.7753 -1.6728 -0.4003
 5739TIP3   OH217161   5.104   6.688   0.932  0.1464  0.2697  0.3917
 5739TIP3    H117162   5.081   6.744   1.006 -0.2781  0.6088  0.0081
 5739TIP3    H217163   5.072   6.735   0.855  3.6532  1.6458 -0.4126
 5740TIP3   OH217164   0.575   3.366   1.641  0.2496  0.0671  0.0502
 5740TIP3    H117165   0.548   3.285   1.598 -0.7291 -0.4959  1.6282
 5740TIP3    H217166   0.631   3.337   1.713 -0.2727  0.7703  0.7550
 5741TIP3   OH217167   0.288   2.225   1.169 -0.2584 -0.6244 -0.2746
 5741TIP3    H117168   0.278   2.183   1.083  0.6041  0.1533 -0.7872
 5741TIP3    H217169   0.359   2.289   1.155  0.2458 -0.8440  1.1528
 5742TIP3   OH217170   5.400   2.898   4.333 -0.1901 -0.0182 -0.6242
 5742TIP3    H117171   5.430   2.971   4.387 -0.7295  2.1943 -3.1052
 5742TIP3    H217172   5.479   2.849   4.312  0.4639  0.9297 -0.3993
 5743TIP3   OH217173   1.301   6.081   2.735 -0.5808  0.3510  0.2234
 5743TIP3    H117174   1.334   6.162   2.696 -0.5776  0.3969  0.3204
 5743TIP3    H217175   1.305   6.097   2.829 -2.1531  0.8565  0.2222
 5744TIP3   OH217176   2.531   3.669   0.041 -0.2706  0.1434 -0.2433
 5744TIP3    H117177   2.462   3.624  -0.007 -0.9164 -0.2074  0.9594
 5744TIP3    H217178   2.607   3.610   0.034 -0.8112 -0.6689  0.4434
 5745TIP3   OH217179   5.916   1.954   2.594  0.8382  0.7996 -0.3786
 5745TIP3    H117180   5.989   1.996   2.640  1.7258  0.2453 -1.2220
 5745TIP3    H217181   5.894   2.014   2.523 -0.8497  1.8840  0.9726
 5746TIP3   OH217182   5.099   5.718   1.873  0.1978 -0.3991  1.1006
 5746TIP3    H117183   5.119   5.625   1.866 -0.1511 -0.4997  1.3857
 5746TIP3    H217184   5.175   5.762   1.835  1.1710 -0.7459  2.5434
 5747TIP3   OH217185   1.798   0.473   1.943 -0.1973  0.5882  0.2105
 5747TIP3    H117186   1.717   0.509   1.908 -0.3956  3.6490  3.2344
 5747TIP3    H217187   1.776   0.445   2.032  1.2822 -2.2499 -0.1908
 5748TIP3   OH217188   2.178   3.432   4.389  0.5260  0.0538  0.1593
 5748TIP3    H117189   2.263   3.391   4.374  0.3710 -0.2085 -0.0307
 5748TIP3    H217190   2.193   3.496   4.459  0.7613 -0.3652  0.4942
 5749TIP3   OH217191   0.767   6.454   6.429 -0.5766 -0.8596  0.1248
 5749TIP3    H117192   0.852   6.413   6.413  1.1875  2.7018 -0.7139
 5749TIP3    H217193   0.707   6.407   6.371  1.4898 -1.4760 -1.6808
 5750TIP3   OH217194   1.184   6.575   6.207  0.0492  0.2576 -0.5690
 5750TIP3    H117195   1.205   6.587   6.299 -0.3906 -1.2248 -0.2485
 5750TIP3    H217196   1.254   6.518   6.173 -0.7237 -0.6398 -0.7003
 5751TIP3   OH217197   3.815   3.683   2.034 -0.0340  0.2386 -0.3655
 5751TIP3    H117198   3.869   3.747   2.080 -1.2909  0.1082  1.3977
 5751TIP3    H217199   3.841   3.598   2.071  1.0506 -0.2500 -2.1080
 5752TIP3   OH217200   6.554   4.226   2.465  0.0554 -0.5368 -0.5253
 5752TIP3    H117201   6.522   4.139   2.440  0.0633 -1.1793  1.5448
 5752TIP3    H217202   6.636   4.236   2.417 -0.9600 -0.7355 -2.4296
 5753TIP3   OH217203   4.192   1.017   5.589  0.4247 -0.2426 -0.5367
 5753TIP3    H117204   4.207   1.093   5.646  0.2203  0.3895 -1.3070
 5753TIP3    H217205   4.216   0.941   5.643  0.6376  0.3679  0.2428
 5754TIP3   OH217206   7.978   4.036   1.526  0.1181 -0.2019 -0.1160
 5754TIP3    H117207   7.922   4.000   1.457 -0.9658  3.0512 -1.1292
 5754TIP3    H217208   7.945   3.995   1.607 -1.6949 -0.6952 -1.0462
 5755TIP3   OH217209   2.729   0.476   3.237  0.0671  0.2111 -0.0422
 5755TIP3    H117210   2.807   0.467   3.292 -0.8043 -0.4329  1.1571
 5755TIP3    H217211   2.697   0.564   3.255  0.3134  0.3429 -0.2496
 5756TIP3   OH217212   7.936   5.824   0.807 -0.3412 -0.3010  0.0636
 5756TIP3    H117213   7.886   5.743   0.809  0.6870 -0.9517  0.0359
 5756TIP3    H217214   7.972   5.832   0.896 -1.1121  0.5718  0.3132
 5757TIP3   OH217215   1.699   0.453   0.037  0.7551 -0.1650  0.4885
 5757TIP3    H117216   1.788   0.435   0.067  0.1456 -2.0703  1.3008
 5757TIP3    H217217   1.666   0.368   0.009 -0.7261  0.5603 -0.0403
 5758TIP3   OH217218   6.360   7.602   2.047  0.5640  0.1037 -0.0920
 5758TIP3    H117219   6.418   7.633   1.977  2.0023  1.6632  1.6747
 5758TIP3    H217220   6.392   7.514   2.068  2.4916  0.9733  0.9205
 5759TIP3   OH217221   0.531   1.311   5.755 -0.0896 -0.2546 -0.8908
 5759TIP3    H117222   0.510   1.403   5.773  0.2033 -0.4413  0.5360
 5759TIP3    H217223   0.457   1.262   5.791  0.6826 -0.6704  0.1884
 5760TIP3   OH217224   5.260   6.931   4.196 -0.6035 -0.9951 -0.8954
 5760TIP3    H117225   5.202   6.981   4.253 -1.6996 -1.4383 -1.5737
 5760TIP3    H217226   5.340   6.920   4.246 -1.5621 -1.4516  0.6020
 5761TIP3   OH217227   2.190   0.090   0.862 -0.0462 -0.3238  0.0503
 5761TIP3    H117228   2.135   0.090   0.784 -0.1755 -2.0309  0.1038
 5761TIP3    H217229   2.166   0.170   0.909  1.1841  1.6271 -2.4016
 5762TIP3   OH217230   5.197   6.834   4.688  0.2186 -0.0176  0.4914
 5762TIP3    H117231   5.263   6.806   4.625 -0.6604 -0.6022 -0.1950
 5762TIP3    H217232   5.121   6.858   4.635 -0.0116  0.9996  1.2394
 5763TIP3   OH217233   1.959   3.657   4.758 -0.3930 -0.0691 -0.5615
 5763TIP3    H117234   2.047   3.657   4.796 -1.0824  1.6419  1.2384
 5763TIP3    H217235   1.937   3.565   4.746  1.2350 -0.5452 -0.0827
 5764TIP3   OH217236   0.375   1.234   4.545  0.4600 -0.3540  0.3969
 5764TIP3    H117237   0.453   1.287   4.559  0.0778  0.2524  0.2508
 5764TIP3    H217238   0.408   1.144   4.538  1.2423 -0.0069 -0.5591
 5765TIP3   OH217239   2.447   1.400   5.624 -0.1621  0.1681 -0.3704
 5765TIP3    H117240   2.352   1.392   5.636 -0.0704 -1.5372 -0.6062
 5765TIP3    H217241   2.466   1.353   5.543  1.1064 -1.2187  0.6629
 5766TIP3   OH217242   6.574   1.229   5.250 -0.2277  0.3557 -0.2332
 5766TIP3    H117243   6.576   1.136   5.274 -1.3300  0.7140  1.3913
 5766TIP3    H217244   6.658   1.244   5.206 -0.4981 -1.6458 -1.5340
 5767TIP3   OH217245   1.723   2.113   2.640 -0.0587  0.2239 -0.2125
 5767TIP3    H117246   1.782   2.066   2.580  0.1889  0.4446 -0.1451
 5767TIP3    H217247   1.657   2.152   2.583  0.5975  1.0548 -0.4217
 5768TIP3   OH217248   0.357   1.575   5.176 -0.2183 -0.3364 -0.3590
 5768TIP3    H117249   0.397   1.489   5.166 -0.9546 -0.7189 -0.0704
 5768TIP3    H217250   0.362   1.615   5.089  2.4337  0.3775  0.0229
 5769TIP3   OH217251   6.321   7.550   4.350  0.2188 -1.0205  0.1002
 5769TIP3    H117252   6.241   7.553   4.298  1.3213  0.9466 -1.6023
 5769TIP3    H217253   6.389   7.527   4.288  1.2485 -0.9181  1.1646
 5770TIP3   OH217254   7.781   7.708   4.598 -0.0749 -0.5783 -0.4586
 5770TIP3    H117255   7.715   7.774   4.580 -0.3622 -0.8886 -0.5535
 5770TIP3    H217256   7.864   7.755   4.595 -0.4031  0.3777  2.1763
 5771TIP3   OH217257   2.889   3.064   1.739 -0.3115 -0.2363  0.1629
 5771TIP3    H117258   2.963   3.117   1.770 -0.0411 -0.2494 -0.4272
 5771TIP3    H217259   2.859   3.110   1.660 -0.1906 -0.8614 -0.2553
 5772TIP3   OH217260   1.812   4.892   5.592 -0.0972 -0.2579  0.5276
 5772TIP3    H117261   1.787   4.811   5.549  1.7591 -1.0835  0.8875
 5772TIP3    H217262   1.837   4.950   5.520  0.3552 -0.6800  0.3350
 5773TIP3   OH217263   6.796   7.822   3.272  0.0495  0.1205  0.1431
 5773TIP3    H117264   6.719   7.826   3.215 -1.2359  0.3537  1.8210
 5773TIP3    H217265   6.865   7.786   3.217 -1.1182  0.3786 -1.5587
 5774TIP3   OH217266   4.484   3.627   5.217  0.0835 -0.6544 -0.1532
 5774TIP3    H117267   4.440   3.696   5.266  0.2394  0.5365 -1.6407
 5774TIP3    H217268   4.443   3.546   5.247  0.3238 -0.0076  2.0842
 5775TIP3   OH217269   1.110   7.399   3.290  0.6711 -0.2251  0.5168
 5775TIP3    H117270   1.018   7.381   3.271  0.5762 -0.0418  0.7988
 5775TIP3    H217271   1.119   7.494   3.278  0.4262  0.0258  2.1430
 5776TIP3   OH217272   7.212   3.826   2.610 -0.3964 -0.0628 -0.4440
 5776TIP3    H117273   7.268   3.873   2.549 -0.6625  0.7152 -0.0995
 5776TIP3    H217274   7.130   3.875   2.611 -0.4421 -0.1311  0.4280
 5777TIP3   OH217275   1.403   1.689   0.910  0.6620  0.3992 -0.2620
 5777TIP3    H117276   1.465   1.679   0.982 -0.5229 -1.5161  0.5717
 5777TIP3    H217277   1.380   1.599   0.886  0.1916  1.0124 -2.3296
 5778TIP3   OH217278   4.258   3.936   6.062  0.3033  0.0071 -0.0898
 5778TIP3    H117279   4.303   4.008   6.107  0.6956 -0.7165  0.7039
 5778TIP3    H217280   4.212   3.890   6.131 -2.9745  1.5871 -1.0418
 5779TIP3   OH217281   1.250   4.887   6.194  0.1126 -0.1399  0.3054
 5779TIP3    H117282   1.222   4.979   6.191  0.6208  0.1053  2.1281
 5779TIP3    H217283   1.192   4.847   6.258 -0.3273 -1.2020 -0.7284
 5780TIP3   OH217284   4.596   5.091   2.022  0.2572  0.1307  0.1876
 5780TIP3    H117285   4.651   5.121   1.950 -0.7508  0.0677 -0.6250
 5780TIP3    H217286   4.607   5.159   2.089  0.4180  0.7247 -0.4193
 5781TIP3   OH217287   4.309   3.865   3.734  0.2475 -0.0175 -0.2659
 5781TIP3    H117288   4.334   3.950   3.770  0.1045 -0.7525  1.7039
 5781TIP3    H217289   4.254   3.886   3.659  0.0785  1.6272  0.2670
 5782TIP3   OH217290   6.359   2.299   4.787 -0.0554 -0.0374 -0.2952
 5782TIP3    H117291   6.340   2.331   4.876  0.6441 -0.3448 -0.0250
 5782TIP3    H217292   6.382   2.378   4.738  2.0520 -0.1165  0.4710
 5783TIP3   OH217293   2.311   2.747   2.018  0.4172 -0.7349 -0.4239
 5783TIP3    H117294   2.238   2.774   1.962  0.5708  2.1246  0.5803
 5783TIP3    H217295   2.276   2.675   2.070 -1.7483  0.5831  0.0573
 5784TIP3   OH217296   7.298   7.779   0.140  0.1761 -0.0995 -0.0271
 5784TIP3    H117297   7.382   7.804   0.102 -0.2802 -0.3670 -1.2333
 5784TIP3    H217298   7.308   7.796   0.234  1.5886 -0.1847 -0.1539
 5785TIP3   OH217299   3.564   6.277   2.332  0.2359 -0.2951  0.4752
 5785TIP3    H117300   3.634   6.308   2.274 -1.3159  2.7301  0.0190
 5785TIP3    H217301   3.526   6.202   2.286  0.5484  0.5718 -1.2870
 5786TIP3   OH217302   1.197   6.672   5.169 -0.0981 -0.2105  0.7492
 5786TIP3    H117303   1.248   6.619   5.231  1.0256  0.3130  0.3049
 5786TIP3    H217304   1.149   6.608   5.117 -1.1953 -0.6526  2.2566
 5787TIP3   OH217305   6.927   5.589   1.150  0.4654 -0.1329  0.0491
 5787TIP3    H117306   6.934   5.494   1.157  1.9190 -0.0275  0.3375
 5787TIP3    H217307   7.006   5.616   1.101 -1.4665  0.6606 -2.9040
 5788TIP3   OH217308   5.915   3.948   4.474  0.2107 -0.2356 -0.7783
 5788TIP3    H117309   5.952   3.958   4.563  0.1281 -1.4163 -0.6003
 5788TIP3    H217310   5.892   4.037   4.448  1.1677  0.2588 -0.0120
 5789TIP3   OH217311   3.989   2.522   0.922  0.0836 -0.2473 -0.0407
 5789TIP3    H117312   3.936   2.599   0.940 -3.2611 -2.3597 -0.0773
 5789TIP3    H217313   3.992   2.475   1.005  2.2846 -0.0834  0.0427
 5790TIP3   OH217314   0.527   4.299   4.091 -0.2743 -0.0530  0.2297
 5790TIP3    H117315   0.497   4.352   4.165  0.6822  1.0649 -0.1688
 5790TIP3    H217316   0.452   4.244   4.070 -1.2501  1.0405  0.7371
 5791TIP3   OH217317   3.636   4.752   6.305 -0.2956  0.2234 -0.6290
 5791TIP3    H117318   3.590   4.686   6.357 -1.2086  0.5552 -0.9936
 5791TIP3    H217319   3.658   4.821   6.367  0.2478 -0.1996 -0.3381
 5792TIP3   OH217320   1.839   4.718   3.321  0.0005  0.6024 -0.0015
 5792TIP3    H117321   1.840   4.787   3.254  1.0066 -0.5501 -1.2245
 5792TIP3    H217322   1.851   4.637   3.272 -0.7039 -0.4312  1.4486
 5793TIP3   OH217323   7.621   0.780   5.320 -0.5418  0.2290 -0.3484
 5793TIP3    H117324   7.690   0.714   5.333  1.7610  2.2344 -1.5816
 5793TIP3    H217325   7.611   0.821   5.406  1.4028  1.2907 -0.5629
 5794TIP3   OH217326   7.275   2.277   1.104  0.6956 -0.1827 -0.2570
 5794TIP3    H117327   7.274   2.372   1.118 -0.4860 -0.1358 -0.5592
 5794TIP3    H217328   7.209   2.243   1.165 -2.8757 -0.2177 -3.7913
 5795TIP3   OH217329   2.835   0.086   0.294 -0.1798  0.1520 -0.0321
 5795TIP3    H117330   2.909   0.145   0.280 -0.6061  0.8444  0.5624
 5795TIP3    H217331   2.830   0.035   0.213  0.6733  0.3928 -0.2495
 5796TIP3   OH217332   6.513   4.860   6.700  0.6391  0.8221 -0.1866
 5796TIP3    H117333   6.604   4.854   6.728  0.0890 -0.3789  1.5191
 5796TIP3    H217334   6.471   4.784   6.739 -1.1316  1.4110 -0.8504
 5797TIP3   OH217335   2.804   6.793   4.659 -0.2099 -0.1371  0.0005
 5797TIP3    H117336   2.775   6.780   4.568  0.4999  2.7632 -0.7290
 5797TIP3    H217337   2.724   6.779   4.711 -1.5037  1.4975 -1.4066
 5798TIP3   OH217338   7.507   5.797   2.179  0.4273 -0.2801 -0.8115
 5798TIP3    H117339   7.584   5.763   2.226 -1.1487 -0.9031  1.5005
 5798TIP3    H217340   7.531   5.791   2.087  4.1493  1.9951 -0.1970
 5799TIP3   OH217341   2.150   2.549   3.238  0.0737 -0.3122 -0.1382
 5799TIP3    H117342   2.162   2.614   3.169 -1.4872  1.4718  1.1615
 5799TIP3    H217343   2.071   2.577   3.284 -0.2589 -2.7759  0.9264
 5800TIP3   OH217344   4.404   3.668   4.131 -0.0322  0.1646 -0.1056
 5800TIP3    H117345   4.400   3.722   4.210  1.9156 -0.0355  0.1684
 5800TIP3    H217346   4.420   3.579   4.163  0.8012  0.0893 -0.7034
 5801TIP3   OH217347   7.282   6.181   4.572  0.1813 -0.0405 -0.2908
 5801TIP3    H117348   7.292   6.120   4.646 -1.0647 -1.4551 -1.2319
 5801TIP3    H217349   7.366   6.177   4.526  0.4494 -0.2829  0.2046
 5802TIP3   OH217350   5.051   6.839   1.155  0.1663  0.5283 -0.0561
 5802TIP3    H117351   5.050   6.800   1.243  1.3621  0.3860 -0.0776
 5802TIP3    H217352   5.053   6.934   1.172  0.6035  0.4996  0.0948
 5803TIP3   OH217353   4.159   4.218   1.295  0.0155 -0.4609 -0.0162
 5803TIP3    H117354   4.180   4.304   1.331  1.0078 -0.5018 -0.4557
 5803TIP3    H217355   4.068   4.227   1.264 -0.2933  0.0553  1.0036
 5804TIP3   OH217356   3.408   3.763   3.285 -0.0409 -0.0002 -0.1826
 5804TIP3    H117357   3.356   3.783   3.362 -0.4606  0.4457 -0.5749
 5804TIP3    H217358   3.447   3.677   3.304 -1.9706 -0.9884 -0.3969
 5805TIP3   OH217359   1.413   0.953   3.375 -0.2447 -0.3521  0.4142
 5805TIP3    H117360   1.480   0.917   3.317 -1.2490 -1.6488  0.0062
 5805TIP3    H217361   1.388   1.036   3.335 -0.3525 -0.8458 -0.5697
 5806TIP3   OH217362   4.167   3.799   2.376  0.0778 -0.0344 -0.4854
 5806TIP3    H117363   4.183   3.804   2.470 -0.3501 -0.9278 -0.3529
 5806TIP3    H217364   4.236   3.741   2.343  0.9011  1.1460 -0.9135
 5807TIP3   OH217365   4.770   2.138   2.230 -0.2526 -0.2578  0.2918
 5807TIP3    H117366   4.697   2.183   2.272 -0.8529 -2.0654  1.2895
 5807TIP3    H217367   4.816   2.095   2.302  1.6027  0.5504 -0.3659
 5808TIP3   OH217368   1.956   6.591   3.056  0.1218  0.5569  0.0982
 5808TIP3    H117369   1.962   6.497   3.044  1.5183  0.4851  1.0687
 5808TIP3    H217370   1.991   6.628   2.974 -3.0498  0.3375 -1.4870
 5809TIP3   OH217371   0.671   1.872   4.174 -0.3773 -0.0148 -0.8590
 5809TIP3    H117372   0.650   1.939   4.108 -0.8319  1.1260  0.4006
 5809TIP3    H217373   0.631   1.904   4.254  1.2331 -0.7307  0.2901
 5810TIP3   OH217374   4.701   5.881   2.433  0.2035  0.0600  0.7421
 5810TIP3    H117375   4.762   5.839   2.373  0.1492  1.0181 -0.0172
 5810TIP3    H217376   4.738   5.968   2.447 -0.8623  0.5838  0.4348
 5811TIP3   OH217377   2.347   1.234   1.092  0.3836  0.0499 -0.1642
 5811TIP3    H117378   2.304   1.266   1.013  2.4611 -3.0920 -2.8241
 5811TIP3    H217379   2.325   1.141   1.096  2.1145 -0.3757  1.7086
 5812TIP3   OH217380   1.225   2.122   2.344  0.1147  0.2951 -0.2898
 5812TIP3    H117381   1.169   2.070   2.285  0.0324 -0.5685  0.5307
 5812TIP3    H217382   1.194   2.101   2.432  2.5454 -1.2435  0.2923
 5813TIP3   OH217383   2.999   2.324   4.994 -0.7200 -0.2946  0.0669
 5813TIP3    H117384   3.087   2.358   5.010 -1.7775  2.8412 -0.1630
 5813TIP3    H217385   2.979   2.273   5.073 -0.5378  3.1652  2.5808
 5814TIP3   OH217386   2.088   7.167  -0.018  0.1609  0.3431 -0.2410
 5814TIP3    H117387   2.044   7.224   0.045 -0.1224  0.4871 -0.5702
 5814TIP3    H217388   2.179   7.194  -0.015  0.2120  0.1431  0.3353
 5815TIP3   OH217389   5.827   4.209   4.469 -0.3265 -0.1587 -0.5475
 5815TIP3    H117390   5.748   4.234   4.421 -0.1240  1.2523 -0.2034
 5815TIP3    H217391   5.815   4.248   4.556  1.4714  1.5667 -1.0011
 5816TIP3   OH217392   1.232   5.580   5.689  0.3169 -0.3737 -0.0355
 5816TIP3    H117393   1.262   5.667   5.664  3.4040 -1.1642  0.4368
 5816TIP3    H217394   1.188   5.545   5.612 -2.4961  2.0904  0.2702
 5817TIP3   OH217395   6.220   1.609   6.589 -0.1795  0.7525 -0.4029
 5817TIP3    H117396   6.247   1.566   6.508  0.0170 -1.5768  0.8344
 5817TIP3    H217397   6.280   1.575   6.656 -0.4469  2.4806  0.7868
 5818TIP3   OH217398   5.720   1.465   5.155  0.2363  0.6497 -0.5149
 5818TIP3    H117399   5.698   1.390   5.100  0.5669 -0.9403  1.4301
 5818TIP3    H217400   5.636   1.503   5.178 -0.0138 -0.0117 -0.3277
 5819TIP3   OH217401   0.143   0.408   1.260  0.4469 -0.0900  0.0869
 5819TIP3    H117402   0.143   0.318   1.291  1.4665  0.5399  2.0550
 5819TIP3    H217403   0.053   0.423   1.229  0.2670 -1.7510 -0.2942
 5820TIP3   OH217404   7.758   6.469   3.964 -0.7688 -0.3982 -0.4924
 5820TIP3    H117405   7.807   6.539   3.922 -2.4428 -0.8117 -3.3553
 5820TIP3    H217406   7.820   6.431   4.027  1.5242  1.0170 -1.7698
 5821TIP3   OH217407   3.535   2.737   1.022 -0.1154  0.0095  0.6129
 5821TIP3    H117408   3.551   2.819   1.069  1.9256 -0.1531  0.2959
 5821TIP3    H217409   3.622   2.708   0.993 -1.1071 -0.5454 -2.1602
 5822TIP3   OH217410   6.551   5.657   6.740  0.0345 -0.1154 -0.3751
 5822TIP3    H117411   6.524   5.675   6.650 -0.8627  0.2846 -0.0344
 5822TIP3    H217412   6.517   5.570   6.759  1.0439 -0.6024 -0.7282
 5823TIP3   OH217413   3.253   1.049   6.353 -0.1816 -0.0744 -0.0164
 5823TIP3    H117414   3.175   1.068   6.405  0.1595 -0.4795  0.6484
 5823TIP3    H217415   3.220   1.035   6.264 -1.2993 -3.4484  0.7936
 5824TIP3   OH217416   5.457   5.240   0.585 -0.1148  0.2967 -0.1202
 5824TIP3    H117417   5.451   5.187   0.505 -0.6549  1.2134 -0.7008
 5824TIP3    H217418   5.543   5.281   0.580  1.0588 -1.7974  1.1828
 5825TIP3   OH217419   4.565   2.290   1.670 -0.2218  0.3353 -0.0880
 5825TIP3    H117420   4.548   2.265   1.579 -0.2909  0.5542 -0.1368
 5825TIP3    H217421   4.484   2.333   1.699  0.5097  2.1551 -0.5960
 5826TIP3   OH217422   2.713   4.594   2.981  0.0359  0.2197 -0.1687
 5826TIP3    H117423   2.642   4.623   3.038  0.0687  0.1997 -0.1178
 5826TIP3    H217424   2.777   4.555   3.040 -0.3679 -0.6953 -0.3185
 5827TIP3   OH217425   8.157   5.656   2.630 -0.4250 -0.0802 -0.0493
 5827TIP3    H117426   8.100   5.683   2.558 -0.6110  0.1982  0.2010
 5827TIP3    H217427   8.097   5.627   2.698 -0.2269 -1.3035 -0.3751
 5828TIP3   OH217428   2.602   1.467   1.399  0.0892  0.1327  0.0854
 5828TIP3    H117429   2.530   1.404   1.403  1.1919 -1.1093  1.7031
 5828TIP3    H217430   2.640   1.454   1.312 -0.9527  0.0291 -0.3699
 5829TIP3   OH217431   2.745   7.003   0.436 -0.0924 -0.3854 -0.6431
 5829TIP3    H117432   2.783   7.001   0.524 -2.1020  3.1546  0.4792
 5829TIP3    H217433   2.698   6.920   0.428  3.3087 -2.5913 -0.1227
 5830TIP3   OH217434   1.004   1.055   0.164  0.1733  0.1899 -0.0916
 5830TIP3    H117435   0.973   1.104   0.089 -0.1960 -1.6613 -1.2191
 5830TIP3    H217436   0.973   0.965   0.149  2.7446 -0.9245  0.6930
 5831TIP3   OH217437   0.549   2.404   2.651  0.2828 -0.0141 -0.3693
 5831TIP3    H117438   0.638   2.406   2.615 -0.1653 -1.6515 -1.6749
 5831TIP3    H217439   0.514   2.491   2.631  0.8139 -0.1266 -1.9640
 5832TIP3   OH217440   3.847   6.554   1.072 -0.0738  0.0974 -0.0281
 5832TIP3    H117441   3.938   6.575   1.091 -0.2298 -0.2520  1.1683
 5832TIP3    H217442   3.833   6.587   0.983  0.6895  1.8484  0.4505
 5833TIP3   OH217443   2.059   1.195   4.723 -0.0980 -0.0555 -0.3120
 5833TIP3    H117444   2.011   1.131   4.777 -1.2506  1.6148  0.7630
 5833TIP3    H217445   2.136   1.217   4.775  0.8139 -1.2239 -1.1160
 5834TIP3   OH217446   6.768   5.422   4.342  0.2505 -0.3394  0.6070
 5834TIP3    H117447   6.800   5.485   4.407 -1.6305  0.9559  0.3661
 5834TIP3    H217448   6.783   5.464   4.258 -0.7760 -0.2890  0.4317
 5835TIP3   OH217449   3.675   3.328   4.813 -0.0612 -0.0231  0.2695
 5835TIP3    H117450   3.614   3.400   4.799 -0.2651 -0.0406  1.0049
 5835TIP3    H217451   3.629   3.268   4.871  0.1877 -0.6489 -0.1680
 5836TIP3   OH217452   6.579   0.559   5.304 -0.0985 -0.0815  0.4135
 5836TIP3    H117453   6.531   0.623   5.356  1.3821  0.4312  1.2252
 5836TIP3    H217454   6.665   0.600   5.289  0.0533 -0.8725 -1.1247
 5837TIP3   OH217455   4.920   3.522   5.279 -0.3658 -0.6786  0.1193
 5837TIP3    H117456   4.998   3.560   5.318  0.1244 -1.5681  0.0256
 5837TIP3    H217457   4.858   3.594   5.275 -0.1618 -0.3762  1.7999
 5838TIP3   OH217458   5.925   2.062   1.450  0.0724 -0.3755 -0.4901
 5838TIP3    H117459   5.834   2.040   1.471 -0.4307  1.6281 -0.3415
 5838TIP3    H217460   5.931   2.048   1.355 -0.1178 -1.3548 -0.3686
 5839TIP3   OH217461   6.093   7.766   4.320 -0.8596 -0.1522  0.4096
 5839TIP3    H117462   6.038   7.828   4.273  0.1933  0.4100 -0.1154
 5839TIP3    H217463   6.178   7.771   4.276 -1.3071 -3.6911 -1.2492
 5840TIP3   OH217464   6.199   5.950   6.128 -0.6195  0.5768 -0.1091
 5840TIP3    H117465   6.242   5.864   6.131 -0.4757  0.6859  2.0987
 5840TIP3    H217466   6.232   5.989   6.047  1.1577 -0.5118  0.0260
 5841TIP3   OH217467   3.392   3.719   1.754 -0.2057  0.6175  0.1742
 5841TIP3    H117468   3.467   3.689   1.805  0.7022  1.2498 -0.7520
 5841TIP3    H217469   3.357   3.640   1.713 -0.5277  0.2085  1.1998
 5842TIP3   OH217470   7.295   4.896   6.723 -0.5730 -0.1052 -0.1377
 5842TIP3    H117471   7.371   4.867   6.672  0.1777 -1.2577  1.5121
 5842TIP3    H217472   7.316   4.868   6.813 -2.6221  0.2416  0.4861
 5843TIP3   OH217473   6.154   4.580   4.577  0.2324  0.5600 -0.1352
 5843TIP3    H117474   6.101   4.593   4.498  0.1327 -0.4574 -0.2548
 5843TIP3    H217475   6.148   4.663   4.624  0.0792  1.0941 -1.0650
 5844TIP3   OH217476   0.792   0.380   5.681 -0.3572  0.5745 -0.1895
 5844TIP3    H117477   0.717   0.407   5.733  1.2806  1.6067  1.8218
 5844TIP3    H217478   0.862   0.440   5.706  1.1272 -0.2284 -2.0744
 5845TIP3   OH217479   0.235   5.623   2.957  0.4544 -0.3001  0.0623
 5845TIP3    H117480   0.231   5.652   2.866 -0.4972 -0.9353 -0.1170
 5845TIP3    H217481   0.285   5.691   3.002 -0.1044  0.6415 -0.7010
 5846TIP3   OH217482   4.474   4.166   5.147  0.6030 -0.4742 -0.2736
 5846TIP3    H117483   4.522   4.125   5.076  0.9652 -0.0379 -0.2858
 5846TIP3    H217484   4.382   4.158   5.122  0.7661  0.4960 -1.2551
 5847TIP3   OH217485   6.343   6.576   1.577  0.4859  0.9987  0.3749
 5847TIP3    H117486   6.376   6.602   1.491 -0.7340  1.0817 -0.0827
 5847TIP3    H217487   6.362   6.482   1.582 -0.6796  0.7014 -0.5752
 5848TIP3   OH217488   4.040   0.837   1.823  0.0620  0.2861 -0.4489
 5848TIP3    H117489   3.998   0.750   1.829 -1.1959  0.9304  0.5891
 5848TIP3    H217490   4.035   0.872   1.912  0.5649  1.4275 -0.8616
 5849TIP3   OH217491   6.090   0.843   3.672 -0.1188  0.0655  0.6323
 5849TIP3    H117492   6.114   0.930   3.703  1.5337 -1.0934  2.9092
 5849TIP3    H217493   6.158   0.785   3.706 -1.6410 -2.2555  0.0033
 5850TIP3   OH217494   2.299   5.917   3.142 -0.0592 -0.0747  0.4717
 5850TIP3    H117495   2.260   5.879   3.221 -1.8613 -0.6927 -0.6494
 5850TIP3    H217496   2.303   6.011   3.160 -2.1520  0.0341  0.6879
 5851TIP3   OH217497   7.039   4.360   5.098  0.3289 -0.3193  0.1754
 5851TIP3    H117498   6.973   4.411   5.052  0.1107 -1.0637 -0.3587
 5851TIP3    H217499   7.000   4.340   5.183 -0.5791 -1.6549 -0.5356
 5852TIP3   OH217500   7.420   6.040   6.355  0.6547  0.4197  0.5918
 5852TIP3    H117501   7.332   6.013   6.328  0.3729  1.7806  0.0317
 5852TIP3    H217502   7.429   6.130   6.321  2.8921 -0.2585 -0.9019
 5853TIP3   OH217503   4.060   4.883   2.461  0.5022  0.9640 -0.6201
 5853TIP3    H117504   4.129   4.820   2.479  1.3591  2.0249 -0.0437
 5853TIP3    H217505   4.094   4.936   2.388 -0.3120  0.6096 -1.2714
 5854TIP3   OH217506   5.854   4.194   0.066 -0.3498  0.0595  0.0293
 5854TIP3    H117507   5.941   4.189   0.106 -0.7374  0.2139  0.9270
 5854TIP3    H217508   5.870   4.220  -0.024  0.4847  1.1247  0.4623
 5855TIP3   OH217509   4.223   2.126   6.084  0.0682 -0.0063 -0.2499
 5855TIP3    H117510   4.204   2.219   6.075 -1.6269 -0.3251 -0.2229
 5855TIP3    H217511   4.213   2.090   5.996 -0.4234 -0.3519 -0.0568
 5856TIP3   OH217512   2.244   2.414   5.952  0.2812 -0.1541 -0.4056
 5856TIP3    H117513   2.167   2.373   5.991 -0.4761 -0.6387 -2.2682
 5856TIP3    H217514   2.303   2.428   6.025 -1.0376 -0.9858  0.8929
 5857TIP3   OH217515   2.571   5.680   3.331  0.2254 -0.2841  0.4143
 5857TIP3    H117516   2.592   5.767   3.299 -0.6536 -0.3408 -0.3672
 5857TIP3    H217517   2.507   5.694   3.401 -0.6829 -0.3417 -0.3924
 5858TIP3   OH217518   3.018   4.666   2.006  0.3479  0.2844  0.3673
 5858TIP3    H117519   3.052   4.578   1.990 -1.2401 -0.1064 -1.1706
 5858TIP3    H217520   2.932   4.652   2.046 -0.0097  1.1205 -0.0773
 5859TIP3   OH217521   3.268   7.198   6.166  0.3517  0.0799  0.2878
 5859TIP3    H117522   3.360   7.176   6.181 -0.0157 -1.8284  0.0245
 5859TIP3    H217523   3.259   7.200   6.070  0.2118  0.7852  0.3051
 5860TIP3   OH217524   1.702   6.024   1.384  0.0044  0.2787  0.1406
 5860TIP3    H117525   1.722   6.117   1.396  0.3141  0.5065 -1.8229
 5860TIP3    H217526   1.719   6.008   1.292 -0.4777 -1.6436  0.3532
 5861TIP3   OH217527   6.098   5.618   3.981 -0.1169  0.1189  0.5166
 5861TIP3    H117528   6.119   5.564   3.906 -3.0589 -0.3339 -0.0988
 5861TIP3    H217529   6.122   5.565   4.057 -2.4346 -1.9725 -0.0857
 5862TIP3   OH217530   7.310   0.754   0.491 -0.1241 -0.4455 -0.3149
 5862TIP3    H117531   7.361   0.807   0.429  1.1908 -1.4080 -0.1011
 5862TIP3    H217532   7.286   0.815   0.560 -0.9546  0.4730 -1.3809
 5863TIP3   OH217533   3.493   5.168   3.774 -0.0752  0.2727  0.0368
 5863TIP3    H117534   3.440   5.101   3.730  0.2989  0.1519 -0.2264
 5863TIP3    H217535   3.571   5.177   3.720  0.0500  0.6521  0.2780
 5864TIP3   OH217536   2.117   7.486   0.562  0.0613 -0.0132 -0.1303
 5864TIP3    H117537   2.163   7.442   0.634 -1.2628  0.0269  0.7557
 5864TIP3    H217538   2.109   7.419   0.494 -0.1757 -0.5402  0.4204
 5865TIP3   OH217539   3.341   3.160   6.304  0.8098  0.2011  0.3981
 5865TIP3    H117540   3.256   3.119   6.289  0.2220  0.8374  1.8237
 5865TIP3    H217541   3.327   3.219   6.378  2.6233 -0.0932  1.0402
 5866TIP3   OH217542   1.073   0.068   1.503  0.0581  0.0322 -0.1038
 5866TIP3    H117543   1.076   0.093   1.595  0.5165  0.8289 -0.3261
 5866TIP3    H217544   0.997   0.114   1.468 -0.3609 -0.5985 -0.0369
 5867TIP3   OH217545   0.279   1.239   5.870 -0.5122 -0.0881 -0.5072
 5867TIP3    H117546   0.214   1.301   5.838 -0.0207 -0.3124 -2.0025
 5867TIP3    H217547   0.265   1.160   5.819 -0.9394 -1.1512  1.1673
 5868TIP3   OH217548   4.529   1.031   3.997 -0.4417  0.5309  0.7551
 5868TIP3    H117549   4.602   1.094   3.995  0.8564 -0.8922  1.1972
 5868TIP3    H217550   4.487   1.040   3.911 -1.0359  2.7943  1.2248
 5869TIP3   OH217551   2.057   4.915   3.497  0.3077 -0.6930 -0.2022
 5869TIP3    H117552   2.129   4.891   3.439 -0.5859 -1.1890 -1.1255
 5869TIP3    H217553   2.016   4.832   3.520 -0.8320 -0.3271 -0.8392
 5870TIP3   OH217554   0.353   2.886   6.005  0.6451  0.0372 -0.0774
 5870TIP3    H117555   0.402   2.916   6.081  0.3479 -0.8815  0.5045
 5870TIP3    H217556   0.350   2.961   5.946 -0.4224  1.2657  1.4675
 5871TIP3   OH217557   5.311   0.335   3.319  0.8116  0.1306  0.1429
 5871TIP3    H117558   5.392   0.381   3.299  0.4142  0.5333 -0.6000
 5871TIP3    H217559   5.336   0.243   3.326  1.4598  0.3459  0.7282
 5872TIP3   OH217560   2.683   5.925   3.270  0.4477 -0.4695  0.2852
 5872TIP3    H117561   2.675   6.016   3.298 -0.8911 -1.2713  2.8163
 5872TIP3    H217562   2.776   5.906   3.275  0.5130  0.1631  1.9613
 5873TIP3   OH217563   2.833   3.506   4.339  0.5079  0.2379 -0.2373
 5873TIP3    H117564   2.805   3.418   4.311 -0.1153  0.3014  0.1589
 5873TIP3    H217565   2.897   3.490   4.408 -0.4666  0.0727  0.6673
 5874TIP3   OH217566   7.961   0.974   1.628 -0.0671 -0.1239 -0.5492
 5874TIP3    H117567   7.999   1.060   1.639  0.6685 -0.5004 -0.0815
 5874TIP3    H217568   8.020   0.928   1.568 -0.0250 -0.5586 -0.1819
 5875TIP3   OH217569   2.170   7.170   5.489 -0.1910 -0.5368 -0.1942
 5875TIP3    H117570   2.180   7.236   5.421  1.6295 -0.3950  0.1505
 5875TIP3    H217571   2.111   7.105   5.450 -1.3745  0.8592 -0.8371
 5876TIP3   OH217572   1.994   5.024   2.387  0.1028 -0.1466 -0.1276
 5876TIP3    H117573   1.912   4.974   2.386 -0.1734  0.2868  0.2116
 5876TIP3    H217574   2.062   4.959   2.371 -0.2616 -0.6158  0.1849
 5877TIP3   OH217575   6.158   1.769   5.178  0.3966  0.2398 -0.4079
 5877TIP3    H117576   6.249   1.788   5.154  0.2431  1.7443  0.1042
 5877TIP3    H217577   6.164   1.691   5.233  1.3059 -0.0711 -0.9202
 5878TIP3   OH217578   8.174   3.106   0.627  0.1799 -0.0654  0.3625
 5878TIP3    H117579   8.170   3.197   0.596  0.9114 -0.3543 -0.6065
 5878TIP3    H217580   8.087   3.070   0.608  0.4151 -0.0481 -0.7649
 5879TIP3   OH217581   6.037   6.479   6.605 -0.8517  0.0927  0.4021
 5879TIP3    H117582   6.025   6.403   6.661 -0.7530 -0.3652 -0.1979
 5879TIP3    H217583   6.131   6.499   6.611 -0.4769 -1.0921 -1.0421
 5880TIP3   OH217584   6.676   7.682   2.500 -0.3073  0.6010  0.1345
 5880TIP3    H117585   6.768   7.706   2.507 -0.4205  0.7362  1.2450
 5880TIP3    H217586   6.666   7.654   2.409  0.8965  0.2984  0.0774
 5881TIP3   OH217587   3.249   2.651   1.215  0.2790 -0.0057  0.1473
 5881TIP3    H117588   3.332   2.611   1.189  0.2447  0.6002 -0.9891
 5881TIP3    H217589   3.184   2.584   1.197  0.3523  0.1059 -0.5781
 5882TIP3   OH217590   1.100   2.674   4.188 -0.3011 -0.0787 -0.0878
 5882TIP3    H117591   1.018   2.720   4.203  0.4441  1.1890  0.2471
 5882TIP3    H217592   1.120   2.632   4.272 -0.4938 -0.2037 -0.1049
 5883TIP3   OH217593   4.102   5.762   1.708 -0.2818 -0.3435 -0.1906
 5883TIP3    H117594   4.011   5.733   1.702 -0.3021 -0.5851  0.9544
 5883TIP3    H217595   4.099   5.855   1.686 -0.6034 -0.6257 -1.4135
 5884TIP3   OH217596   5.881   3.097   2.636  0.0688 -0.4644 -0.5181
 5884TIP3    H117597   5.916   3.015   2.670 -0.6400 -0.4265  0.3426
 5884TIP3    H217598   5.939   3.164   2.671  0.0532 -0.5174 -0.3912
 5885TIP3   OH217599   7.512   1.367   3.893  0.2587 -0.3684 -0.0706
 5885TIP3    H117600   7.600   1.404   3.894  0.1690 -0.1544  1.3136
 5885TIP3    H217601   7.482   1.380   3.803  1.2348  0.4923 -0.2938
 5886TIP3   OH217602   7.938   1.953   6.775  0.3601  0.3806  0.0978
 5886TIP3    H117603   7.939   1.881   6.712  0.1093  0.7567 -0.3424
 5886TIP3    H217604   7.857   1.942   6.823  1.5773 -1.2386  1.9451
 5887TIP3   OH217605   7.276   2.534   3.187 -0.0976 -0.7784 -0.0590
 5887TIP3    H117606   7.276   2.460   3.248  0.2403  0.5146  1.5913
 5887TIP3    H217607   7.345   2.513   3.124  0.2955 -1.6682  0.6421
 5888TIP3   OH217608   5.985   1.695   4.898 -0.1350 -0.1510  0.3779
 5888TIP3    H117609   6.028   1.613   4.924  2.0938  0.5504 -0.8733
 5888TIP3    H217610   5.986   1.693   4.803  0.7865  1.7156  0.3130
 5889TIP3   OH217611   2.328   4.282   3.295 -0.7154 -0.0205 -0.2142
 5889TIP3    H117612   2.329   4.250   3.205 -0.3510 -0.0560 -0.1973
 5889TIP3    H217613   2.303   4.206   3.347 -1.8563  0.2234 -0.3692
 5890TIP3   OH217614   2.976   7.781   5.044 -0.0487 -0.7797 -0.1971
 5890TIP3    H117615   2.887   7.761   5.016 -1.0426 -1.1437  2.8843
 5890TIP3    H217616   2.988   7.873   5.023 -1.1666 -0.7064 -0.5869
 5891TIP3   OH217617   2.053   4.079   5.821  0.0751 -0.0698 -0.0490
 5891TIP3    H117618   2.125   4.100   5.762 -0.4633 -1.9555 -1.4743
 5891TIP3    H217619   1.974   4.103   5.773 -0.3554 -1.0192  0.1585
 5892TIP3   OH217620   0.299   1.802   0.298 -0.2225 -0.1627  0.3909
 5892TIP3    H117621   0.243   1.868   0.258 -0.3504 -0.6456 -0.2337
 5892TIP3    H217622   0.314   1.835   0.387 -2.1935 -0.4379  0.8576
 5893TIP3   OH217623   1.807   2.975   1.348 -0.2004  0.4435  0.6841
 5893TIP3    H117624   1.829   3.011   1.434  1.0159  0.1097  0.5271
 5893TIP3    H217625   1.872   3.012   1.289 -1.0457  0.6885 -0.1094
 5894TIP3   OH217626   0.601   0.276   0.623  0.5629 -0.5384  0.1952
 5894TIP3    H117627   0.675   0.217   0.610  1.3610  0.2885  0.8578
 5894TIP3    H217628   0.604   0.334   0.547  2.1438  1.0707  1.4071
 5895TIP3   OH217629   1.597   6.218   0.940  0.0597  0.1096  0.2778
 5895TIP3    H117630   1.668   6.270   0.902  1.0746 -1.8863 -0.7259
 5895TIP3    H217631   1.523   6.279   0.945  1.0623  1.5446 -1.1944
 5896TIP3   OH217632   6.877   6.383   5.582  0.4587  0.0500 -0.3276
 5896TIP3    H117633   6.879   6.336   5.498  1.2888  0.0147 -0.2946
 5896TIP3    H217634   6.953   6.350   5.630 -0.4517 -0.5278  0.7749
 5897TIP3   OH217635   6.833   5.993   1.671 -0.2935 -0.2186  0.4094
 5897TIP3    H117636   6.783   5.932   1.617 -0.6843 -0.3629  0.9250
 5897TIP3    H217637   6.780   6.073   1.673 -0.0746 -0.0682  0.2327
 5898TIP3   OH217638   0.558   2.279   4.863 -0.5101  0.2793  0.2475
 5898TIP3    H117639   0.510   2.233   4.932  1.2541 -0.0163  1.3251
 5898TIP3    H217640   0.577   2.212   4.798  0.5145 -0.1455  0.9709
 5899TIP3   OH217641   6.807   0.895   0.355 -0.2848 -0.3619  0.0036
 5899TIP3    H117642   6.761   0.811   0.349  2.3552 -1.9150 -0.0237
 5899TIP3    H217643   6.877   0.889   0.290 -0.8440  2.5067 -1.0327
 5900TIP3   OH217644   6.120   2.979   0.242 -0.2438  0.6599 -0.8844
 5900TIP3    H117645   6.059   3.053   0.236 -1.7071 -0.4808 -0.6274
 5900TIP3    H217646   6.165   2.979   0.158  0.1857  2.1594 -0.6917
 5901TIP3   OH217647   2.042   0.044   0.621  0.3304  0.3922  0.2370
 5901TIP3    H117648   2.043   0.068   0.528  2.2124  1.1735  0.4042
 5901TIP3    H217649   2.043  -0.052   0.620 -0.2264  0.3792 -0.5319
 5902TIP3   OH217650   0.006   3.324   3.313  0.0486 -0.1516 -0.3404
 5902TIP3    H117651   0.008   3.403   3.366  1.2778 -0.8499  0.6984
 5902TIP3    H217652   0.004   3.356   3.223 -0.9954  1.0431  0.0769
 5903TIP3   OH217653   6.403   4.665   5.738  0.0629  0.4115  0.2432
 5903TIP3    H117654   6.352   4.706   5.668  2.1427 -0.1168 -1.7187
 5903TIP3    H217655   6.487   4.711   5.737  1.3966 -1.8474 -0.0280
 5904TIP3   OH217656   7.577   3.590   2.904  0.0951  0.1419 -0.2455
 5904TIP3    H117657   7.567   3.548   2.990  2.2001  0.1041  0.0199
 5904TIP3    H217658   7.602   3.518   2.845 -1.7611  0.0847 -1.0333
 5905TIP3   OH217659   7.079   1.435   5.525 -0.1857  0.0473  0.0757
 5905TIP3    H117660   7.079   1.494   5.600 -1.9428  0.4918 -0.2447
 5905TIP3    H217661   7.013   1.471   5.466 -0.4421 -1.5696 -0.6633
 5906TIP3   OH217662   3.399   1.458   0.980  0.1108 -0.0009  0.5588
 5906TIP3    H117663   3.438   1.372   0.994 -0.7505 -0.1020  2.7061
 5906TIP3    H217664   3.305   1.445   0.996 -0.2009  1.0979 -0.2498
 5907TIP3   OH217665   1.934   0.762   3.109  0.3140 -0.0878  0.2166
 5907TIP3    H117666   1.989   0.695   3.068  0.8825  0.6014 -0.1543
 5907TIP3    H217667   1.863   0.712   3.150  0.5321 -0.8933 -0.3569
 5908TIP3   OH217668   3.942   1.347   4.944  0.2590 -0.1183 -0.1891
 5908TIP3    H117669   3.910   1.352   4.854 -1.7702  0.2258  0.4996
 5908TIP3    H217670   4.014   1.284   4.941 -1.5766 -2.3064 -1.5795
 5909TIP3   OH217671   4.827   1.736   2.075  0.3494 -0.0354 -0.2304
 5909TIP3    H117672   4.824   1.717   1.981  0.9511  1.1483 -0.5022
 5909TIP3    H217673   4.914   1.708   2.102  0.3536  0.0842 -0.1222
 5910TIP3   OH217674   3.215   3.194   3.017 -0.7420  0.0999 -0.1806
 5910TIP3    H117675   3.195   3.132   3.087  0.7590 -0.6663 -0.3745
 5910TIP3    H217676   3.197   3.280   3.055  3.2432  0.0476  2.5394
 5911TIP3   OH217677   0.144   3.981   4.364 -0.3135  0.3374 -0.2207
 5911TIP3    H117678   0.202   3.905   4.377  0.7421  1.2619  0.6312
 5911TIP3    H217679   0.126   4.013   4.452 -1.2353  0.7388 -0.5468
 5912TIP3   OH217680   5.209   4.427   3.228 -0.0693 -0.0761  0.2518
 5912TIP3    H117681   5.202   4.396   3.138 -1.6458 -1.4362  0.7859
 5912TIP3    H217682   5.150   4.502   3.234  0.1290  0.0909  0.1355
 5913TIP3   OH217683   5.814   5.406   4.629 -0.1579 -0.1433  0.0379
 5913TIP3    H117684   5.811   5.388   4.723 -1.7180 -1.2830 -0.2027
 5913TIP3    H217685   5.765   5.487   4.618  0.7831  0.4841  0.2754
 5914TIP3   OH217686   7.097   4.573   1.437 -0.0853  0.2687  0.0902
 5914TIP3    H117687   7.015   4.593   1.482  0.6565  0.0448  1.6020
 5914TIP3    H217688   7.086   4.608   1.349 -1.8588  0.0875  0.2184
 5915TIP3   OH217689   1.780   6.569   5.076 -0.4135 -0.2639 -0.6897
 5915TIP3    H117690   1.799   6.632   5.145  1.4687 -1.1140 -0.3475
 5915TIP3    H217691   1.818   6.487   5.107 -0.3325 -0.8924 -2.3240
 5916TIP3   OH217692   1.354   6.080   3.766 -0.2866  0.7800 -0.6302
 5916TIP3    H117693   1.309   6.139   3.826 -2.3717  0.8437 -2.1157
 5916TIP3    H217694   1.316   5.994   3.784 -0.2807  0.6452 -1.2253
 5917TIP3   OH217695   2.133   3.720   2.894  0.7489 -0.2440 -0.0842
 5917TIP3    H117696   2.126   3.766   2.810  0.6814  0.3622  0.2480
 5917TIP3    H217697   2.064   3.653   2.890 -0.1608  0.6592  0.0254
 5918TIP3   OH217698   6.928   3.635   1.918  0.0520  0.2729  0.3584
 5918TIP3    H117699   6.836   3.613   1.930  0.1796 -0.2342  0.4210
 5918TIP3    H217700   6.975   3.577   1.978  0.4773 -0.1379 -0.3533
 5919TIP3   OH217701   3.166   0.543   5.734 -0.7712  0.3106  0.3787
 5919TIP3    H117702   3.074   0.521   5.720 -1.0272  1.7506 -0.4284
 5919TIP3    H217703   3.171   0.637   5.718  0.9980  0.1202 -0.5088
 5920TIP3   OH217704   6.902   3.955   1.544 -0.0199 -0.4054  1.1161
 5920TIP3    H117705   6.914   4.017   1.616  0.7510 -0.3315  0.9374
 5920TIP3    H217706   6.873   3.874   1.586  0.7918 -0.4749  1.5562
 5921TIP3   OH217707   5.745   6.184   3.003  0.0581 -0.5874 -0.2028
 5921TIP3    H117708   5.664   6.151   3.042 -0.7031  1.1688 -0.2031
 5921TIP3    H217709   5.779   6.247   3.067 -0.4914  1.3241 -1.6850
 5922TIP3   OH217710   2.912   1.690   1.825  0.1926  0.0297 -0.2636
 5922TIP3    H117711   2.881   1.746   1.754  0.5257  0.2020 -0.2765
 5922TIP3    H217712   2.999   1.725   1.847  0.7039 -0.9097 -0.7463
 5923TIP3   OH217713   7.639   2.672   4.258  0.1246  0.0904  0.0792
 5923TIP3    H117714   7.730   2.679   4.288  0.7736 -0.1483 -1.6977
 5923TIP3    H217715   7.604   2.760   4.266  0.8230  0.3880 -0.0870
 5924TIP3   OH217716   0.034   2.497   4.165 -0.0302  0.4385  0.0066
 5924TIP3    H117717   0.112   2.540   4.129  0.1936 -0.5453 -0.7070
 5924TIP3    H217718   0.032   2.411   4.123 -1.7410  0.6044 -0.3159
 5925TIP3   OH217719   4.643   0.376   3.957  0.2125 -0.0785 -0.2011
 5925TIP3    H117720   4.736   0.354   3.957  0.3065  0.3174 -0.6153
 5925TIP3    H217721   4.602   0.306   3.905  0.2877 -0.2107 -0.0825
 5926TIP3   OH217722   0.713   2.400   0.980  0.3243  0.2349  0.5836
 5926TIP3    H117723   0.792   2.453   0.985  0.5658 -0.0775  0.0858
 5926TIP3    H217724   0.705   2.360   1.067  1.5309 -0.8995  0.2111
 5927TIP3   OH217725   4.596   2.800   4.742  0.3098 -0.3269 -0.6406
 5927TIP3    H117726   4.572   2.822   4.653  0.8408  0.8866 -0.4991
 5927TIP3    H217727   4.691   2.811   4.745  0.2796 -0.1913  0.1129
 5928TIP3   OH217728   3.289   0.621   0.275 -0.0288 -0.2330 -0.9376
 5928TIP3    H117729   3.338   0.542   0.255  0.8515  0.3921 -1.2999
 5928TIP3    H217730   3.215   0.619   0.214  0.2435 -0.5376 -1.2599
 5929TIP3   OH217731   3.702   2.569   5.824  0.2651  0.7763  0.7248
 5929TIP3    H117732   3.658   2.518   5.892 -0.5626  1.0516  0.4076
 5929TIP3    H217733   3.648   2.647   5.814  0.7848  1.0857  0.2607
 5930TIP3   OH217734   4.338   6.750   5.743  0.5595  0.1696  0.7834
 5930TIP3    H117735   4.294   6.828   5.708  0.3136 -1.2207 -2.3263
 5930TIP3    H217736   4.418   6.741   5.691  0.5767 -1.6393  1.0418
 5931TIP3   OH217737   4.461   2.149   2.904 -0.2945 -0.0913 -0.1045
 5931TIP3    H117738   4.489   2.174   2.992  0.3174 -2.2665  0.3603
 5931TIP3    H217739   4.374   2.188   2.895 -0.5703 -0.2326  1.6524
 5932TIP3   OH217740   4.151   6.503   2.986 -0.2212  0.2359  0.3737
 5932TIP3    H117741   4.180   6.560   2.915  0.8085 -1.6848 -0.8332
 5932TIP3    H217742   4.072   6.461   2.953  1.0688 -1.7822 -0.3317
 5933TIP3   OH217743   8.132   2.832   3.369 -0.3937  0.2841  0.0596
 5933TIP3    H117744   8.189   2.801   3.439  0.2366  0.0528 -0.5443
 5933TIP3    H217745   8.175   2.911   3.336 -1.1613  0.9128  0.5255
 5934TIP3   OH217746   2.302   1.939   6.698  0.3462 -0.0854  0.0292
 5934TIP3    H117747   2.370   1.951   6.632 -0.0923 -1.9159 -0.7973
 5934TIP3    H217748   2.318   2.010   6.761  1.2680  1.2227 -1.5877
 5935TIP3   OH217749   4.428   0.301   2.230  0.5706  0.1384  0.2273
 5935TIP3    H117750   4.453   0.209   2.241  3.1873  0.9228  1.8938
 5935TIP3    H217751   4.505   0.343   2.192  1.1235  2.3042  3.3172
 5936TIP3   OH217752   2.649   1.036   3.420 -0.0603 -0.5034  0.2491
 5936TIP3    H117753   2.607   1.031   3.334  0.3228  0.2670  0.0115
 5936TIP3    H217754   2.742   1.021   3.404 -0.0779 -1.0654  0.6280
 5937TIP3   OH217755   1.502   4.539   6.333  0.7208  0.5631 -0.3920
 5937TIP3    H117756   1.546   4.564   6.252 -0.1838  1.4975 -0.6186
 5937TIP3    H217757   1.501   4.618   6.386  2.2755 -0.3179  1.0287
 5938TIP3   OH217758   0.664   4.792   1.273  0.0805 -0.1768  0.1253
 5938TIP3    H117759   0.626   4.718   1.320 -1.0765  0.5155  0.3303
 5938TIP3    H217760   0.619   4.869   1.309  2.1095  0.7729  0.8017
 5939TIP3   OH217761   5.204   5.155   1.716 -0.7751  0.1584 -0.4107
 5939TIP3    H117762   5.231   5.109   1.637 -0.2480  0.2498 -0.2906
 5939TIP3    H217763   5.165   5.237   1.685 -0.3780  0.2878 -0.5680
 5940TIP3   OH217764   1.760   4.341   2.943  0.5079  0.0414  0.6949
 5940TIP3    H117765   1.805   4.362   3.025  0.4441  1.1943  0.4505
 5940TIP3    H217766   1.824   4.360   2.874 -0.0462  0.9212  0.3938
 5941TIP3   OH217767   1.468   7.323   0.451  0.1850  0.5868 -0.3635
 5941TIP3    H117768   1.430   7.403   0.488  0.8541  1.0523 -0.6569
 5941TIP3    H217769   1.559   7.347   0.430  0.3902 -0.2474 -0.4647
 5942TIP3   OH217770   6.064   0.565   1.183  0.7607 -0.1197  0.0400
 5942TIP3    H117771   6.159   0.560   1.193  0.6099  0.5821  2.2958
 5942TIP3    H217772   6.044   0.659   1.186 -0.1214 -0.3207  1.2545
 5943TIP3   OH217773   2.371   3.824   5.239 -0.1167 -0.6979  0.5921
 5943TIP3    H117774   2.355   3.733   5.264  2.2605 -0.8974  1.6077
 5943TIP3    H217775   2.466   3.833   5.237 -0.1774  0.9472 -2.7144
 5944TIP3   OH217776   0.159   5.077   0.831  0.1265  0.3990 -0.0369
 5944TIP3    H117777   0.179   5.029   0.912  1.7167  2.9476  1.2255
 5944TIP3    H217778   0.066   5.060   0.816 -0.5475  0.7031  3.0309
 5945TIP3   OH217779   7.235   6.179   1.278 -0.1813 -0.2186  0.9194
 5945TIP3    H117780   7.192   6.094   1.283  0.7750 -0.8635 -0.7473
 5945TIP3    H217781   7.169   6.237   1.240 -0.4525 -0.5290  0.9129
 5946TIP3   OH217782   3.597   5.395   5.577  0.1889 -0.3567  0.0645
 5946TIP3    H117783   3.656   5.464   5.608 -0.4018 -0.0524  0.5363
 5946TIP3    H217784   3.616   5.388   5.484 -0.5951  1.3145 -0.2552
 5947TIP3   OH217785   4.643   4.342   3.944 -0.1503  0.2141  0.0534
 5947TIP3    H117786   4.698   4.265   3.934 -0.1445  0.4426 -2.1388
 5947TIP3    H217787   4.564   4.310   3.988  0.1257 -0.9056 -0.2449
 5948TIP3   OH217788   5.965   7.360   3.649 -0.8479 -0.1330  0.3830
 5948TIP3    H117789   5.927   7.407   3.575  2.2176  1.1556 -0.5147
 5948TIP3    H217790   6.001   7.280   3.611  0.1862  0.2333  0.5682
 5949TIP3   OH217791   4.357   6.330   4.811  0.0779 -0.6370  0.1068
 5949TIP3    H117792   4.271   6.301   4.780 -0.4211 -0.9087  1.6166
 5949TIP3    H217793   4.344   6.345   4.905  1.2263  1.0992  0.0256
 5950TIP3   OH217794   6.626   3.324   3.878  0.0271  0.1060  0.2393
 5950TIP3    H117795   6.635   3.414   3.907  1.2313 -0.5147  1.9708
 5950TIP3    H217796   6.599   3.276   3.956 -0.1609 -1.1015 -0.5346
 5951TIP3   OH217797   1.664   7.670   6.459  0.3005 -0.1076 -0.3539
 5951TIP3    H117798   1.593   7.690   6.520 -0.3755 -1.0449 -0.8008
 5951TIP3    H217799   1.644   7.722   6.381  0.6441  0.3640 -0.1337
 5952TIP3   OH217800   1.938   0.244   2.586  0.0167  0.2186 -0.1095
 5952TIP3    H117801   1.986   0.325   2.568  0.2401  0.0411 -0.2978
 5952TIP3    H217802   1.992   0.198   2.650  0.1629 -0.0418 -0.4202
 5953TIP3   OH217803   6.315   2.312   2.841  0.0200 -0.3206 -0.2657
 5953TIP3    H117804   6.399   2.348   2.812  0.5242 -2.7347 -2.0269
 5953TIP3    H217805   6.338   2.236   2.894 -1.0528 -0.7273 -0.3529
 5954TIP3   OH217806   5.121   2.657   2.560 -0.1272 -0.2063  0.5566
 5954TIP3    H117807   5.062   2.585   2.540 -1.6006  0.7821  1.1340
 5954TIP3    H217808   5.094   2.727   2.501  1.5216 -0.2219 -0.2495
 5955TIP3   OH217809   3.945   7.714   1.293 -0.0759 -0.1704 -0.4945
 5955TIP3    H117810   3.955   7.807   1.310  0.0116 -0.2706  0.0231
 5955TIP3    H217811   4.019   7.673   1.338 -1.6671 -0.7515  1.8343
 5956TIP3   OH217812   1.826   2.742   6.589  0.0140 -0.0897  0.2664
 5956TIP3    H117813   1.830   2.648   6.571 -1.1622  0.2812 -2.6229
 5956TIP3    H217814   1.760   2.751   6.657  0.4101 -1.3568  0.8453
 5957TIP3   OH217815   6.765   4.644   5.944 -0.0861 -0.1071 -0.8053
 5957TIP3    H117816   6.751   4.580   5.874 -0.4758  0.5981 -1.3787
 5957TIP3    H217817   6.770   4.591   6.024 -2.0028 -0.7570 -1.0621
 5958TIP3   OH217818   1.962   0.298   1.837  0.0196 -0.2076  0.4497
 5958TIP3    H117819   1.908   0.367   1.876  0.8398 -0.3650  1.9683
 5958TIP3    H217820   2.051   0.318   1.867  0.8108 -0.0890 -1.7839
 5959TIP3   OH217821   1.220   3.785   5.273 -0.3763  0.8214 -0.1334
 5959TIP3    H117822   1.180   3.739   5.347  0.9665 -0.5632 -0.2116
 5959TIP3    H217823   1.188   3.875   5.281 -0.0959  0.7818  2.2795
 5960TIP3   OH217824   4.530   0.694   1.691  0.6068 -0.0103  0.2188
 5960TIP3    H117825   4.501   0.618   1.640  0.1667 -1.4552  2.4301
 5960TIP3    H217826   4.451   0.747   1.702  0.7963  0.5212 -0.8958
 5961TIP3   OH217827   3.356   6.424   3.918 -0.3608 -0.3978 -0.4238
 5961TIP3    H117828   3.379   6.380   4.000  1.7908  0.3231 -0.5834
 5961TIP3    H217829   3.270   6.463   3.935  0.5483  0.7695  1.9381
 5962TIP3   OH217830   5.782   0.657   3.940  0.0556  0.0202  0.1575
 5962TIP3    H117831   5.731   0.728   3.903 -0.3855 -0.4812 -0.2072
 5962TIP3    H217832   5.838   0.627   3.869  0.1845 -0.0504  0.2865
 5963TIP3   OH217833   5.429   6.999   3.835  0.3435 -0.3303  0.9416
 5963TIP3    H117834   5.398   7.081   3.872  0.6441 -0.5619  1.7122
 5963TIP3    H217835   5.356   6.969   3.780 -0.2956 -0.2258  1.7145
 5964TIP3   OH217836   7.952   7.000   6.725  0.1043 -0.1625  0.8206
 5964TIP3    H117837   8.032   7.051   6.735  1.1088 -1.2963 -0.8109
 5964TIP3    H217838   7.974   6.913   6.757 -0.3237 -0.6051 -0.0443
 5965TIP3   OH217839   1.810   5.541   6.252 -0.0254  0.7009  0.6529
 5965TIP3    H117840   1.799   5.629   6.217 -1.2798 -0.3690 -1.9408
 5965TIP3    H217841   1.893   5.543   6.298  1.2325  2.6010 -1.5219
 5966TIP3   OH217842   7.686   4.294   1.387  0.1329  0.5822 -0.1073
 5966TIP3    H117843   7.655   4.251   1.307  0.1367 -0.3605  0.3861
 5966TIP3    H217844   7.780   4.279   1.388  0.1812  0.8815 -0.0908
 5967TIP3   OH217845   2.240   4.101   5.635  0.3873 -0.0216  0.1005
 5967TIP3    H117846   2.247   4.186   5.592  0.3988 -0.7130 -1.3193
 5967TIP3    H217847   2.326   4.086   5.674 -0.0499  1.2459  1.6240
 5968TIP3   OH217848   4.300   4.007   1.993  0.2764  0.2343  0.2085
 5968TIP3    H117849   4.371   3.968   1.942  0.3995 -0.3284  0.7982
 5968TIP3    H217850   4.330   4.001   2.083  0.1911  1.4874  0.3386
 5969TIP3   OH217851   3.891   5.636   4.675 -0.4087 -0.2085 -0.0772
 5969TIP3    H117852   3.924   5.706   4.731  0.9874 -0.0786 -1.0086
 5969TIP3    H217853   3.822   5.677   4.623 -0.5685  0.1039  0.3791
 5970TIP3   OH217854   6.020   2.443   1.561 -0.0762 -0.2592  0.1486
 5970TIP3    H117855   6.088   2.511   1.554  0.2792 -0.6442 -0.1842
 5970TIP3    H217856   6.030   2.391   1.481 -1.4341  0.2887 -0.4012
 5971TIP3   OH217857   3.789   7.750   2.767  0.0376  0.2897 -0.1402
 5971TIP3    H117858   3.707   7.778   2.728  1.7455  0.5139 -4.0579
 5971TIP3    H217859   3.780   7.655   2.779 -0.5146  0.1528 -1.4711
 5972TIP3   OH217860   5.770   7.495   1.509 -0.4565 -0.5418  0.0282
 5972TIP3    H117861   5.848   7.483   1.564 -1.2656  1.3550  1.7035
 5972TIP3    H217862   5.713   7.422   1.534  0.5643 -1.7248 -0.9324
 5973TIP3   OH217863   7.983   1.561   0.122  0.3125  0.2055 -0.0123
 5973TIP3    H117864   7.918   1.561   0.192 -1.0572  0.6311 -1.2453
 5973TIP3    H217865   8.038   1.637   0.140 -1.0307  1.2655 -0.2658
 5974TIP3   OH217866   0.819   6.486   3.716  0.2711 -0.0302  0.1448
 5974TIP3    H117867   0.759   6.561   3.718 -0.3623 -0.5386  1.0905
 5974TIP3    H217868   0.827   6.464   3.623 -0.5070  0.4564 -0.0465
 5975TIP3   OH217869   6.665   2.798   3.257 -0.2718 -0.2782  0.1920
 5975TIP3    H117870   6.701   2.790   3.345 -0.1360  3.1296  0.5690
 5975TIP3    H217871   6.600   2.868   3.264  0.2432  0.5900 -2.5529
 5976TIP3   OH217872   5.155   0.126   0.036  0.2775 -0.1519 -0.1620
 5976TIP3    H117873   5.129   0.053  -0.021  1.2598 -0.3709 -0.3454
 5976TIP3    H217874   5.077   0.182   0.039  0.6650  0.7617 -3.1252
 5977TIP3   OH217875   0.220   3.993   3.148 -0.0265  0.4141 -0.8975
 5977TIP3    H117876   0.309   3.963   3.130 -0.6138 -2.2545  0.1902
 5977TIP3    H217877   0.174   3.984   3.065  0.2614 -0.0044 -1.0128
 5978TIP3   OH217878   4.981   2.118   4.821 -0.4681 -0.1062 -0.1779
 5978TIP3    H117879   5.051   2.134   4.884  0.7394  0.9159 -1.6706
 5978TIP3    H217880   4.901   2.143   4.866  0.1601 -0.7931  1.4027
 5979TIP3   OH217881   4.958   7.205   4.729  0.9462 -0.8404  0.5273
 5979TIP3    H117882   4.992   7.242   4.811 -0.3338 -1.5687  1.4163
 5979TIP3    H217883   4.998   7.258   4.661 -0.6412  2.1142  1.7117
 5980TIP3   OH217884   5.690   7.410   4.313  0.2728  0.8867  0.5601
 5980TIP3    H117885   5.683   7.421   4.408 -1.8876  0.6281  0.4867
 5980TIP3    H217886   5.714   7.497   4.280 -2.0717  1.8228  1.1369
 5981TIP3   OH217887   0.533   6.493   1.510  0.5769  0.0607  0.1727
 5981TIP3    H117888   0.585   6.468   1.586  0.4835 -0.4665  0.0710
 5981TIP3    H217889   0.541   6.419   1.450 -1.2695 -0.6066  0.6563
 5982TIP3   OH217890   2.478   0.454   6.000  0.0430  0.4056 -0.1733
 5982TIP3    H117891   2.437   0.367   6.006 -0.3650  0.5401 -0.9196
 5982TIP3    H217892   2.496   0.478   6.091  1.8209 -1.2335 -0.0065
 5983TIP3   OH217893   8.011   2.144   1.679 -0.0576 -0.1023  0.1527
 5983TIP3    H117894   8.069   2.209   1.639 -0.5141 -0.1110 -0.5217
 5983TIP3    H217895   7.971   2.098   1.606 -0.2212 -0.7242  0.6220
 5984TIP3   OH217896   4.434   0.908   5.098  0.0549  0.7503 -0.1530
 5984TIP3    H117897   4.413   0.999   5.116  0.0975  1.0778 -1.6422
 5984TIP3    H217898   4.353   0.860   5.117 -0.4935  1.3315 -0.9932
 5985TIP3   OH217899   0.624   2.836   5.731 -0.2649  0.2504  0.0783
 5985TIP3    H117900   0.637   2.868   5.642 -1.5212 -0.6985 -0.4766
 5985TIP3    H217901   0.543   2.878   5.760 -0.5137 -0.3796  0.3134
 5986TIP3   OH217902   0.243   0.979   2.030 -0.1523  0.2014 -0.7275
 5986TIP3    H117903   0.207   0.894   2.004 -1.6703  0.3340  0.7774
 5986TIP3    H217904   0.184   1.043   1.990 -0.5969  0.4686  0.3336
 5987TIP3   OH217905   5.849   4.876   0.931 -0.1706  0.4749  0.0817
 5987TIP3    H117906   5.774   4.833   0.889 -0.9632  0.7381  1.1999
 5987TIP3    H217907   5.924   4.825   0.902 -1.0764 -1.7679  1.4385
 5988TIP3   OH217908   2.799   0.136   1.750 -0.0352 -0.3374  0.5688
 5988TIP3    H117909   2.717   0.090   1.768 -0.3823 -0.3957 -1.0070
 5988TIP3    H217910   2.808   0.198   1.823 -1.5355 -0.2585  0.7273
 5989TIP3   OH217911   3.265   3.301   4.846  0.0566  0.1746  0.0620
 5989TIP3    H117912   3.303   3.286   4.760  1.6453  1.0866  0.5556
 5989TIP3    H217913   3.170   3.294   4.833  0.3418 -1.3862 -1.3906
 5990TIP3   OH217914   4.510   6.137   0.625  0.0693  0.0910  0.3450
 5990TIP3    H117915   4.491   6.230   0.621 -0.6332 -0.0897 -1.5576
 5990TIP3    H217916   4.463   6.106   0.702  1.0097  1.4205  1.5062
 5991TIP3   OH217917   6.010   7.425   3.926  0.0941 -0.7431  0.1883
 5991TIP3    H117918   5.924   7.386   3.909 -0.1509 -0.5592  0.9409
 5991TIP3    H217919   6.052   7.429   3.841 -2.1354  2.8267 -0.9710
 5992TIP3   OH217920   2.953   6.152   5.017  0.3665  0.0329 -0.2911
 5992TIP3    H117921   2.984   6.074   5.062  0.4605 -0.0346 -0.4744
 5992TIP3    H217922   3.001   6.224   5.059 -1.2073  0.2214  1.2904
 5993TIP3   OH217923   0.599   2.348   2.921 -0.1167  0.4197 -0.6118
 5993TIP3    H117924   0.565   2.374   2.835  0.2849 -1.7873 -1.5036
 5993TIP3    H217925   0.687   2.314   2.903  1.0538  2.3036  1.0819
 5994TIP3   OH217926   2.685   4.898   0.084 -0.1919  0.5268 -0.0605
 5994TIP3    H117927   2.646   4.818   0.119 -0.2272  1.0173  1.0738
 5994TIP3    H217928   2.774   4.899   0.119 -0.0229  0.7276 -0.4855
 5995TIP3   OH217929   2.480   0.088   1.374 -0.9126  0.4121 -0.2588
 5995TIP3    H117930   2.416   0.151   1.408  0.3836  0.9388  1.3471
 5995TIP3    H217931   2.565   0.127   1.395 -0.0345 -2.0521  1.2370
 5996TIP3   OH217932   6.700   3.146   1.062 -0.4107  0.2909  0.1156
 5996TIP3    H117933   6.641   3.075   1.086  0.5849 -0.7086 -0.3046
 5996TIP3    H217934   6.761   3.152   1.134  0.7164 -0.6520 -0.7196
 5997TIP3   OH217935   8.010   6.400   5.130 -0.0869 -0.0187 -0.3628
 5997TIP3    H117936   8.065   6.391   5.052  0.2795 -1.2419  0.0135
 5997TIP3    H217937   7.932   6.350   5.110 -0.0452 -0.2374  0.0113
 5998TIP3   OH217938   2.737   5.416   0.685 -0.0835  0.0629 -0.5106
 5998TIP3    H117939   2.737   5.511   0.673 -1.2432  0.5992  2.9118
 5998TIP3    H217940   2.784   5.401   0.766 -0.2204 -2.2902 -0.7805
 5999TIP3   OH217941   2.266   0.188   2.259 -0.5759  0.3309  0.4274
 5999TIP3    H117942   2.353   0.214   2.228 -1.1193  2.3367  0.4879
 5999TIP3    H217943   2.205   0.243   2.210 -1.6784  0.7612  2.1837
 6000TIP3   OH217944   4.699   0.227   1.407  0.7415 -0.0720 -0.1036
 6000TIP3    H117945   4.609   0.254   1.388  0.8110  3.2796  3.0943
 6000TIP3    H217946   4.742   0.224   1.322 -1.5792  1.6094 -1.4479
 6001TIP3   OH217947   5.920   4.140   4.202  0.5665 -0.4732  0.6938
 6001TIP3    H117948   5.953   4.217   4.156  1.5700  0.6511  3.1108
 6001TIP3    H217949   5.857   4.174   4.265  0.7065 -1.6561  1.5230
 6002TIP3   OH217950   5.004   1.577   3.904 -0.2524  0.2429  0.1897
 6002TIP3    H117951   4.946   1.521   3.852  0.1442  0.7709 -0.8378
 6002TIP3    H217952   4.991   1.547   3.994 -2.4987  0.6678  0.0714
 6003TIP3   OH217953   0.412   7.127   1.417  0.5718  0.2496 -0.0704
 6003TIP3    H117954   0.352   7.056   1.438  0.4662  1.0688  2.8783
 6003TIP3    H217955   0.482   7.119   1.481  0.8735  2.4211 -0.0536
 6004TIP3   OH217956   5.515   1.550   6.661  0.3874  0.1918 -0.0228
 6004TIP3    H117957   5.571   1.528   6.587  0.3336  2.6672 -0.8895
 6004TIP3    H217958   5.572   1.599   6.721 -0.0337 -0.1561  0.6768
 6005TIP3   OH217959   0.438   5.142   6.424  0.7065  0.1968  0.1941
 6005TIP3    H117960   0.427   5.103   6.337  0.3801 -1.1672  0.8291
 6005TIP3    H217961   0.483   5.225   6.407 -0.1344  0.3778 -1.3559
 6006TIP3   OH217962   2.662   1.128   6.478  0.1895 -0.0847 -0.1208
 6006TIP3    H117963   2.641   1.086   6.394  0.1576  1.3070 -0.8483
 6006TIP3    H217964   2.590   1.188   6.494 -0.9275 -1.8668  2.0712
 6007TIP3   OH217965   1.240   6.301   1.532  0.5904  0.5508 -0.4341
 6007TIP3    H117966   1.296   6.248   1.476 -1.0074 -2.2950  0.4760
 6007TIP3    H217967   1.151   6.273   1.511 -0.1554  0.6716  2.2269
 6008TIP3   OH217968   1.554   5.504   0.217 -0.0367 -0.5751 -0.2887
 6008TIP3    H117969   1.474   5.457   0.192 -0.3582  0.7510 -1.9273
 6008TIP3    H217970   1.625   5.451   0.180 -0.3928  0.1125 -2.1023
 6009TIP3   OH217971   7.021   3.897   5.179  0.3624 -0.0639 -0.0377
 6009TIP3    H117972   7.048   3.827   5.119 -2.7027 -1.3437 -0.0914
 6009TIP3    H217973   6.968   3.956   5.126 -1.0425 -0.3255  1.0150
 6010TIP3   OH217974   3.475   4.755   4.604  0.3515 -0.2240  1.0865
 6010TIP3    H117975   3.434   4.830   4.563 -0.4387 -1.0503  0.3237
 6010TIP3    H217976   3.463   4.683   4.542  1.3922 -0.9090  1.6336
 6011TIP3   OH217977   0.175   0.270   2.381  0.5532  0.1813 -0.2296
 6011TIP3    H117978   0.123   0.194   2.355 -1.3860  1.1500  0.6460
 6011TIP3    H217979   0.212   0.246   2.466 -0.3240  0.3305  0.1993
 6012TIP3   OH217980   6.221   6.200   4.178 -0.4633  0.2053 -0.6421
 6012TIP3    H117981   6.233   6.133   4.246  2.1096 -1.2523 -2.3725
 6012TIP3    H217982   6.233   6.283   4.225  1.3159 -0.7518  0.7382
 6013TIP3   OH217983   4.032   6.979   1.753  0.3360 -0.4404  0.2347
 6013TIP3    H117984   4.030   6.958   1.846  1.2761 -0.3206  0.2921
 6013TIP3    H217985   3.990   6.905   1.710  0.3703 -0.7427  0.7153
 6014TIP3   OH217986   6.660   5.515   2.515 -0.0751 -0.1949 -0.2003
 6014TIP3    H117987   6.647   5.604   2.483 -1.5300  0.2270  1.4119
 6014TIP3    H217988   6.745   5.518   2.560  0.5719 -0.0372 -1.3850
 6015TIP3   OH217989   2.113   4.212   0.517  0.9091 -0.7534  0.7037
 6015TIP3    H117990   2.193   4.159   0.519  0.8804 -0.8688 -0.6724
 6015TIP3    H217991   2.077   4.199   0.430 -0.1156  0.0518  0.9851
 6016TIP3   OH217992   4.016   0.074   1.437 -0.3205  0.3876 -0.5802
 6016TIP3    H117993   4.016  -0.019   1.460  0.9622  0.5645  0.2211
 6016TIP3    H217994   3.937   0.085   1.384 -0.6122 -1.1087 -0.5122
 6017TIP3   OH217995   0.366   5.620   1.087 -0.1822  0.2375  0.0635
 6017TIP3    H117996   0.447   5.615   1.137  1.4645  3.2085 -1.9689
 6017TIP3    H217997   0.391   5.589   0.999 -2.3472 -2.5147  0.2871
 6018TIP3   OH217998   3.140   5.495   0.107 -0.0645 -0.2009  0.0427
 6018TIP3    H117999   3.213   5.549   0.074  1.9473 -1.3569  2.3184
 6018TIP3    H218000   3.136   5.515   0.200 -0.9333 -2.1170  0.4557
 6019TIP3   OH218001   0.243   5.520   4.583 -0.3242  0.2853 -0.6529
 6019TIP3    H118002   0.304   5.514   4.656  0.5005  1.6078 -1.1911
 6019TIP3    H218003   0.298   5.543   4.508 -1.0571 -1.5706 -1.8465
 6020TIP3   OH218004   0.919   1.582   6.432  0.6828 -0.3194  0.2286
 6020TIP3    H118005   0.861   1.586   6.356 -0.2711 -0.1890  0.9492
 6020TIP3    H218006   1.007   1.596   6.396  0.2858 -0.6522 -0.8915
 6021TIP3   OH218007   6.051   0.875   5.404 -0.2631 -0.0367 -0.3436
 6021TIP3    H118008   6.010   0.961   5.416 -0.2339 -0.0271 -0.3145
 6021TIP3    H218009   6.125   0.875   5.464  1.4173  1.0112 -2.2983
 6022TIP3   OH218010   0.060   0.908   3.361  0.1673  0.0379  0.7857
 6022TIP3    H118011   0.007   0.920   3.440  2.5690  1.8167  2.2852
 6022TIP3    H218012   0.085   0.997   3.336 -0.1987 -0.5273 -1.8148
 6023TIP3   OH218013   5.529   6.951   4.718  0.4400  0.0542 -0.9359
 6023TIP3    H118014   5.509   6.863   4.687 -0.7428  0.3112 -0.9395
 6023TIP3    H218015   5.532   7.004   4.639  2.6282 -0.2102 -1.1003
 6024TIP3   OH218016   4.118   7.159   4.566 -0.1551  0.4469 -0.5492
 6024TIP3    H118017   4.087   7.105   4.638  1.0845  0.0705 -0.2658
 6024TIP3    H218018   4.065   7.238   4.570 -0.3620  0.2699  0.5463
 6025TIP3   OH218019   2.865   7.633   1.327 -0.2312  0.0092 -0.2043
 6025TIP3    H118020   2.855   7.618   1.233  1.6482 -1.1348 -0.2705
 6025TIP3    H218021   2.860   7.728   1.337  2.6789  0.4419 -1.9340
 6026TIP3   OH218022   5.366   5.773   4.657 -0.2100 -0.3227  0.4075
 6026TIP3    H118023   5.345   5.801   4.746 -1.6463 -1.4803  0.4875
 6026TIP3    H218024   5.286   5.791   4.607 -0.1168 -1.4531 -0.1827
 6027TIP3   OH218025   1.328   3.025   6.049 -0.5500  0.5017  0.5839
 6027TIP3    H118026   1.257   3.035   5.985 -2.0642 -0.0518  2.1145
 6027TIP3    H218027   1.358   2.935   6.036  1.7295  1.4876 -1.8251
 6028TIP3   OH218028   7.530   6.110   4.564 -0.0062 -0.1090 -0.0901
 6028TIP3    H118029   7.539   6.038   4.627 -0.0472 -1.1013 -1.1891
 6028TIP3    H218030   7.583   6.084   4.489 -0.3616  0.8110 -0.6795
 6029TIP3   OH218031   3.205   5.106   1.649  0.3424  0.7354 -0.2772
 6029TIP3    H118032   3.201   5.183   1.707 -1.4098  0.6140 -0.1836
 6029TIP3    H218033   3.267   5.131   1.581  1.7772  1.2253  1.1366
 6030TIP3   OH218034   3.461   6.110   3.893 -0.0721  0.2405  0.1080
 6030TIP3    H118035   3.367   6.129   3.889 -0.4634  0.5524  5.2426
 6030TIP3    H218036   3.502   6.196   3.893  0.3519  0.1051 -1.8590
 6031TIP3   OH218037   5.029   4.882   0.667 -0.0686  0.4271  0.4561
 6031TIP3    H118038   5.000   4.969   0.694 -0.8188  0.1004  0.7254
 6031TIP3    H218039   5.079   4.897   0.586  0.7642  1.2280  1.0900
 6032TIP3   OH218040   0.217   7.566   4.692  0.5414  0.2292  1.3417
 6032TIP3    H118041   0.151   7.565   4.762 -0.1900  0.9706  0.6868
 6032TIP3    H218042   0.297   7.536   4.735  0.2747  1.2800  2.6700
 6033TIP3   OH218043   3.840   5.244   3.294  0.2323 -0.1279 -0.8229
 6033TIP3    H118044   3.883   5.326   3.319 -0.3375 -0.5412  1.8793
 6033TIP3    H218045   3.751   5.271   3.269  0.2040  0.1393 -0.4466
 6034TIP3   OH218046   3.522   3.075   3.995 -0.5181 -0.1376 -0.1609
 6034TIP3    H118047   3.519   2.988   4.037 -0.3784  0.0325  0.2044
 6034TIP3    H218048   3.566   3.131   4.059 -0.0794  0.0720 -0.6372
 6035TIP3   OH218049   5.187   5.318   3.859 -0.1944  0.0549 -0.4856
 6035TIP3    H118050   5.265   5.355   3.902 -1.6431  1.8011  0.7771
 6035TIP3    H218051   5.155   5.252   3.921  0.0872 -0.4356 -0.8576
 6036TIP3   OH218052   4.667   2.410   5.552 -0.3809  0.4719  0.3000
 6036TIP3    H118053   4.677   2.442   5.462  1.7428  0.3615  0.4437
 6036TIP3    H218054   4.596   2.347   5.547 -0.8499  1.0711 -1.1357
 6037TIP3   OH218055   7.918   7.187   1.367 -0.4848  0.3822 -0.2967
 6037TIP3    H118056   7.841   7.146   1.407 -0.3403 -1.2253 -1.5684
 6037TIP3    H218057   7.937   7.261   1.424 -2.6655  0.5454  0.3297
 6038TIP3   OH218058   5.259   6.742   5.191  0.3460 -0.4205 -0.0114
 6038TIP3    H118059   5.298   6.818   5.148 -1.4812  0.4413 -0.2508
 6038TIP3    H218060   5.254   6.675   5.123 -0.4509  0.1632 -0.5438
 6039TIP3   OH218061   1.915   5.019   4.092 -0.4170 -0.6609 -0.2087
 6039TIP3    H118062   1.901   5.007   3.998 -0.2743 -0.6603 -0.2301
 6039TIP3    H218063   1.859   4.953   4.133 -1.0867 -0.1379 -0.2680
 6040TIP3   OH218064   4.111   5.603   6.351 -0.0813 -0.0984  0.6988
 6040TIP3    H118065   4.128   5.509   6.365  2.0167  0.2955  1.1468
 6040TIP3    H218066   4.197   5.640   6.330 -0.6014  1.9718  1.9557
 6041TIP3   OH218067   3.811   6.069   2.764  0.6412  0.4482 -0.0070
 6041TIP3    H118068   3.766   6.131   2.820  1.1926  0.3508  0.5553
 6041TIP3    H218069   3.742   6.014   2.728  0.2654  0.6398  0.4144
 6042TIP3   OH218070   5.761   1.301   1.497  0.7317  0.6638  0.1598
 6042TIP3    H118071   5.683   1.260   1.534  0.4527  2.1498  1.2903
 6042TIP3    H218072   5.763   1.270   1.406 -0.5310 -0.2940  0.4332
 6043TIP3   OH218073   5.375   2.737   1.974  0.3794 -0.1875  0.5416
 6043TIP3    H118074   5.336   2.805   1.918 -0.2944  0.0820  1.3158
 6043TIP3    H218075   5.467   2.764   1.983  0.1476  0.5650  0.7411
 6044TIP3   OH218076   7.331   0.773   3.781 -0.2014  0.4276 -0.2239
 6044TIP3    H118077   7.372   0.760   3.866 -1.1732  2.1522  0.5560
 6044TIP3    H218078   7.316   0.684   3.748  2.4522 -0.2667  0.2333
 6045TIP3   OH218079   5.737   5.313   5.432 -0.3850  0.5781  0.0312
 6045TIP3    H118080   5.799   5.292   5.501  0.9533 -0.6068 -1.4585
 6045TIP3    H218081   5.734   5.234   5.377 -0.0005  2.0563 -2.2582
 6046TIP3   OH218082   2.905   6.533   1.447  0.5066 -0.2612 -0.1639
 6046TIP3    H118083   2.842   6.465   1.422  0.0029  0.5590 -1.2129
 6046TIP3    H218084   2.851   6.610   1.466  1.1956  0.7783 -2.1366
 6047TIP3   OH218085   1.485   5.489   6.162 -0.4676  0.1186 -0.5601
 6047TIP3    H118086   1.529   5.573   6.153  1.1169 -0.4985  0.9470
 6047TIP3    H218087   1.392   5.509   6.154 -0.1476  2.0768  0.2894
 6048TIP3   OH218088   1.817   0.757   4.051  0.3447 -0.1206  0.0684
 6048TIP3    H118089   1.727   0.726   4.058 -0.3647  1.6882 -0.5941
 6048TIP3    H218090   1.868   0.679   4.028 -1.1865 -0.9786 -0.5098
 6049TIP3   OH218091   7.097   4.375   3.582 -0.6094 -0.2376 -0.5805
 6049TIP3    H118092   7.136   4.296   3.545 -0.5614 -1.0369  1.0647
 6049TIP3    H218093   7.039   4.343   3.651  1.9918  1.1602  2.5514
 6050TIP3   OH218094   0.581   4.298   3.387  0.3666  0.2072  0.2828
 6050TIP3    H118095   0.606   4.382   3.349  0.9333 -0.4542 -0.8638
 6050TIP3    H218096   0.590   4.311   3.481 -1.1752  1.9262  0.2623
 6051TIP3   OH218097   3.247   2.791   0.166  0.2247 -0.4302  0.4754
 6051TIP3    H118098   3.217   2.701   0.154  0.0718 -0.2687 -0.4494
 6051TIP3    H218099   3.332   2.794   0.123  1.0415 -0.5597  2.0016
 6052TIP3   OH218100   1.155   7.219   5.463 -0.2523 -0.3908  0.6719
 6052TIP3    H118101   1.070   7.176   5.471  0.0955 -1.2367  0.0279
 6052TIP3    H218102   1.180   7.241   5.553 -0.4752 -1.4937  1.0141
 6053TIP3   OH218103   1.675   2.100   5.262 -0.0748 -0.2859  0.1445
 6053TIP3    H118104   1.724   2.120   5.342 -0.2665 -2.7590  0.9658
 6053TIP3    H218105   1.741   2.070   5.200 -0.2896 -1.8419  0.6314
 6054TIP3   OH218106   1.112   1.084   5.977  0.4272  0.4810 -0.5340
 6054TIP3    H118107   1.102   1.006   5.923  1.8394 -0.2532  0.2040
 6054TIP3    H218108   1.108   1.157   5.915  2.1632 -0.3319 -1.6863
 6055TIP3   OH218109   3.650   3.882   3.136 -0.7821  0.5835  0.7090
 6055TIP3    H118110   3.650   3.790   3.160 -0.8545  0.3135 -0.2786
 6055TIP3    H218111   3.688   3.884   3.048 -0.6755  1.5065  0.7638
 6056TIP3   OH218112   4.253   7.240   1.300  0.5399 -0.2958 -0.2189
 6056TIP3    H118113   4.219   7.330   1.301  1.1407  0.0587  3.8041
 6056TIP3    H218114   4.183   7.188   1.262 -0.5387  1.6058 -0.9712
 6057TIP3   OH218115   6.766   7.050   4.076 -0.3285  0.2102 -0.3417
 6057TIP3    H118116   6.684   7.048   4.027  0.3900 -0.2600 -1.5563
 6057TIP3    H218117   6.739   7.034   4.167 -1.6634  0.9435 -0.5706
 6058TIP3   OH218118   5.263   1.657   5.851 -0.4611 -0.7924  0.6240
 6058TIP3    H118119   5.242   1.579   5.900 -1.0111 -0.7938  0.3942
 6058TIP3    H218120   5.212   1.649   5.770  1.8844 -1.7466 -0.8579
 6059TIP3   OH218121   6.502   7.639   0.276  0.5988  0.4877 -0.0645
 6059TIP3    H118122   6.541   7.632   0.364  1.0786  2.8691 -0.0169
 6059TIP3    H218123   6.438   7.710   0.284 -0.7949 -0.5699 -1.2001
 6060TIP3   OH218124   1.422   6.849   0.358  0.0257 -0.1705  0.2664
 6060TIP3    H118125   1.373   6.931   0.362  1.9536  1.1615 -1.4970
 6060TIP3    H218126   1.432   6.822   0.449 -1.8469  0.7581  0.8067
 6061TIP3   OH218127   5.850   6.077   1.484  0.1283 -0.3011 -0.1381
 6061TIP3    H118128   5.884   6.080   1.574 -2.3310 -0.9435  0.9218
 6061TIP3    H218129   5.794   6.154   1.478  0.4219 -0.1671 -1.1954
 6062TIP3   OH218130   7.105   3.039   3.365  0.2559 -0.3310 -0.1043
 6062TIP3    H118131   7.166   2.968   3.386  0.5153 -0.1162 -0.1293
 6062TIP3    H218132   7.160   3.106   3.325  0.0582  0.0084  0.1937
 6063TIP3   OH218133   0.795   4.188   4.672 -0.1890  0.1774  0.6834
 6063TIP3    H118134   0.887   4.212   4.660 -0.3954  1.3502  1.2496
 6063TIP3    H218135   0.791   4.094   4.652  1.0361  0.2120  0.2100
 6064TIP3   OH218136   7.164   7.560   4.038  0.0471 -0.0984 -0.1037
 6064TIP3    H118137   7.179   7.466   4.043  2.5489  0.2042 -0.5510
 6064TIP3    H218138   7.071   7.568   4.017  0.0144 -2.4962 -1.2450
 6065TIP3   OH218139   2.750   6.637   2.365 -0.0479 -0.2087  0.4351
 6065TIP3    H118140   2.714   6.550   2.382  0.2776 -0.2001  1.1819
 6065TIP3    H218141   2.805   6.625   2.288 -0.6381 -0.4863  0.0459
 6066TIP3   OH218142   2.319   3.766   1.069  0.0602  0.1474  0.3720
 6066TIP3    H118143   2.389   3.827   1.046 -0.3988  0.2997 -0.7018
 6066TIP3    H218144   2.339   3.687   1.019 -0.4315  0.1340  0.1906
 6067TIP3   OH218145   8.018   4.471   1.921 -0.0226 -0.2554  0.7606
 6067TIP3    H118146   7.982   4.383   1.911  0.0988 -0.2366  0.1026
 6067TIP3    H218147   7.957   4.515   1.980 -0.5231 -0.5316  0.4582
 6068TIP3   OH218148   8.081   6.334   5.788 -0.1515 -0.4149 -0.4011
 6068TIP3    H118149   8.008   6.390   5.763 -0.0216 -0.5558 -1.1233
 6068TIP3    H218150   8.159   6.389   5.776 -0.0175 -0.7526 -1.1815
 6069TIP3   OH218151   7.784   5.148   6.124 -0.2669 -0.4955  0.0400
 6069TIP3    H118152   7.718   5.217   6.116  0.6497  0.5041  0.7167
 6069TIP3    H218153   7.795   5.137   6.218  1.4200  0.2724 -0.0320
 6070TIP3   OH218154   6.113   7.228   1.466 -0.3713  0.0517  0.6969
 6070TIP3    H118155   6.145   7.164   1.401 -0.7495 -0.0827  0.6401
 6070TIP3    H218156   6.191   7.253   1.515  0.2978  1.5623 -1.0042
 6071TIP3   OH218157   3.262   6.262   3.466 -0.5202 -0.3253 -0.5503
 6071TIP3    H118158   3.338   6.244   3.521 -0.9073 -0.3657 -0.0190
 6071TIP3    H218159   3.187   6.240   3.521 -0.9206 -0.1758 -1.0279
 6072TIP3   OH218160   2.153   6.202   6.073  0.2884  0.7434 -0.1687
 6072TIP3    H118161   2.092   6.238   6.138  0.5667 -0.4873  0.8209
 6072TIP3    H218162   2.098   6.178   5.999 -0.8686 -2.2209  1.4758
 6073TIP3   OH218163   2.652   1.942   0.632  0.1799 -0.3082  0.1501
 6073TIP3    H118164   2.610   1.936   0.546  1.2519  0.7267 -0.4798
 6073TIP3    H218165   2.745   1.948   0.613  0.3794  0.8135  1.3323
 6074TIP3   OH218166   0.590   1.584   3.722 -0.1002  0.8310  0.1219
 6074TIP3    H118167   0.619   1.661   3.770  0.4903  2.8165 -3.1115
 6074TIP3    H218168   0.658   1.569   3.656 -1.6952 -0.5219 -1.3444
 6075TIP3   OH218169   3.101   7.644   2.319  0.8820  0.6092  0.0407
 6075TIP3    H118170   3.146   7.569   2.357  1.1416  0.9411  0.3942
 6075TIP3    H218171   3.139   7.720   2.364  0.5752  0.9457 -0.2653
 6076TIP3   OH218172   6.975   6.048   6.787  0.0907  0.6500 -0.6569
 6076TIP3    H118173   6.902   6.098   6.750 -0.0149  0.3089 -0.9234
 6076TIP3    H218174   7.002   5.990   6.715 -0.0109  0.0879 -0.2496
 6077TIP3   OH218175   2.921   0.954   4.758 -0.5920 -0.0652 -0.0640
 6077TIP3    H118176   2.870   0.883   4.719 -0.7269 -0.3407  0.6065
 6077TIP3    H218177   2.858   1.025   4.772 -0.3877  0.3318 -1.0641
 6078TIP3   OH218178   0.967   4.385   5.811  0.3040 -0.1090 -0.1733
 6078TIP3    H118179   1.006   4.469   5.835 -0.2891  0.1664 -0.1443
 6078TIP3    H218180   1.021   4.319   5.855  1.5325  0.1738 -1.2046
 6079TIP3   OH218181   4.812   6.480   0.064 -0.0343 -1.0118 -0.0555
 6079TIP3    H118182   4.873   6.502   0.134 -0.1459  0.5841 -0.4096
 6079TIP3    H218183   4.856   6.410   0.015 -0.6452 -3.3029  2.4600
 6080TIP3   OH218184   2.405   4.828   6.462 -0.3698  0.2983  0.4132
 6080TIP3    H118185   2.427   4.835   6.370  0.7822  0.5019  0.6920
 6080TIP3    H218186   2.395   4.919   6.491  1.9936  0.3845  1.1035
 6081TIP3   OH218187   7.945   6.579   3.332  0.0762 -0.4359  0.8303
 6081TIP3    H118188   7.981   6.644   3.272  0.9688  1.2885  3.0493
 6081TIP3    H218189   7.859   6.557   3.296 -0.4782  2.3874  0.1795
 6082TIP3   OH218190   6.956   3.524   6.504  0.3518 -0.1615  0.2319
 6082TIP3    H118191   7.020   3.457   6.527 -1.0345 -1.3244  0.8304
 6082TIP3    H218192   6.952   3.580   6.582  0.2838 -0.3761  0.3839
 6083TIP3   OH218193   4.192   1.719   1.017  1.2335  0.0605 -0.6918
 6083TIP3    H118194   4.158   1.630   1.004  1.3913  0.0605 -1.1234
 6083TIP3    H218195   4.167   1.766   0.938 -0.0540  0.7942  0.1194
 6084TIP3   OH218196   1.506   0.451   1.519 -0.0861  0.0965 -0.0039
 6084TIP3    H118197   1.569   0.432   1.449 -1.6059 -0.9568 -1.1683
 6084TIP3    H218198   1.494   0.367   1.564 -1.1485  0.0991 -0.2502
 6085TIP3   OH218199   0.596   0.105   5.673  0.0441  0.0862  0.2304
 6085TIP3    H118200   0.645   0.186   5.659  2.5384 -1.3204  0.1240
 6085TIP3    H218201   0.630   0.045   5.606 -2.1046 -0.9257 -0.0435
 6086TIP3   OH218202   3.597   3.030   3.165  0.1771 -0.2780 -0.3268
 6086TIP3    H118203   3.600   2.939   3.193  2.5370 -0.5018 -1.1284
 6086TIP3    H218204   3.646   3.077   3.233 -1.0980  0.4514  0.1269
 6087TIP3   OH218205   3.416   7.840   5.314 -0.2056 -0.3868 -0.0691
 6087TIP3    H118206   3.433   7.777   5.245  1.7849  0.2981 -0.2544
 6087TIP3    H218207   3.468   7.810   5.388  1.2369  1.2727 -0.3350
 6088TIP3   OH218208   2.224   4.456   4.410 -0.2526 -0.1969 -0.0258
 6088TIP3    H118209   2.265   4.467   4.496 -1.5650 -0.5236  0.6896
 6088TIP3    H218210   2.210   4.361   4.403 -2.1534  0.0088  0.4258
 6089TIP3   OH218211   3.208   5.835   6.319  0.3657 -0.1452 -0.3531
 6089TIP3    H118212   3.141   5.894   6.286  0.1331 -0.3151 -0.1908
 6089TIP3    H218213   3.192   5.753   6.273 -0.6198 -0.7055  0.9149
 6090TIP3   OH218214   0.218   7.808   0.982  0.2500 -0.0197  0.0248
 6090TIP3    H118215   0.149   7.855   0.935 -0.2937  0.7414  1.5087
 6090TIP3    H218216   0.261   7.755   0.915 -0.7646  0.6790 -1.2282
 6091TIP3   OH218217   4.983   0.113   6.236 -0.3072  0.4379  0.1498
 6091TIP3    H118218   4.890   0.116   6.257 -0.3099  1.0919  0.0775
 6091TIP3    H218219   5.026   0.099   6.320 -0.4217  1.1458  0.3334
 6092TIP3   OH218220   1.410   4.392   1.320 -0.0571 -0.1635  0.3983
 6092TIP3    H118221   1.316   4.400   1.303 -0.0057  1.3747  0.7168
 6092TIP3    H218222   1.427   4.454   1.391  1.3877  0.3617 -0.3748
 6093TIP3   OH218223   2.723   1.781   5.915  0.1275 -0.8821  0.0033
 6093TIP3    H118224   2.767   1.783   6.000 -0.0560  0.4340  0.0907
 6093TIP3    H218225   2.633   1.756   5.935 -0.0071 -0.2147  0.2507
 6094TIP3   OH218226   3.253   5.681   4.652 -0.3125 -0.3345  0.1657
 6094TIP3    H118227   3.269   5.636   4.735  0.4414  0.6293  0.5495
 6094TIP3    H218228   3.264   5.612   4.586  1.8563 -0.5408  0.6607
 6095TIP3   OH218229   5.545   1.286   6.299 -0.0064 -0.5977 -0.1120
 6095TIP3    H118230   5.475   1.221   6.298 -0.4047 -0.1820  0.2287
 6095TIP3    H218231   5.502   1.367   6.325  0.3975 -0.0871 -0.9908
 6096TIP3   OH218232   1.419   5.462   1.175 -0.3566 -0.1429  0.0808
 6096TIP3    H118233   1.511   5.449   1.152 -0.5869 -1.8269 -0.0518
 6096TIP3    H218234   1.414   5.553   1.204  0.8957  0.6585 -1.9929
 6097TIP3   OH218235   4.519   6.533   1.481  0.0612  0.1689 -0.3697
 6097TIP3    H118236   4.432   6.497   1.461  0.9333 -2.2920 -0.0101
 6097TIP3    H218237   4.580   6.466   1.451  1.9726  2.5012 -2.0182
 6098TIP3   OH218238   6.141   0.234   6.635 -0.5046 -0.1603 -0.1172
 6098TIP3    H118239   6.149   0.329   6.635  1.4588 -0.2656 -1.1196
 6098TIP3    H218240   6.118   0.212   6.545 -3.9143 -0.5372  0.7199
 6099TIP3   OH218241   5.007   2.151   3.804 -0.6055  0.0775  0.3915
 6099TIP3    H118242   4.939   2.087   3.789  0.4418 -1.1102  0.5594
 6099TIP3    H218243   5.089   2.104   3.789  0.1904  1.4367  0.2707
 6100TIP3   OH218244   3.183   1.621   2.690 -0.2772 -0.5053 -0.4582
 6100TIP3    H118245   3.270   1.619   2.649  0.2517 -0.5988  0.6280
 6100TIP3    H218246   3.148   1.707   2.668 -0.5931 -1.0377 -2.2373
 6101TIP3   OH218247   5.106   0.114   2.913  0.6040 -0.5522  0.8966
 6101TIP3    H118248   5.125   0.203   2.883  0.8876 -0.7703  0.4094
 6101TIP3    H218249   5.191   0.070   2.914  0.3730 -1.0246  0.4409
 6102TIP3   OH218250   5.590   7.577   3.315 -0.2002 -0.1056 -0.0655
 6102TIP3    H118251   5.607   7.645   3.251 -0.1221 -1.0007 -1.0128
 6102TIP3    H218252   5.494   7.576   3.324 -0.3674 -1.2001 -1.5682
 6103TIP3   OH218253   3.929   5.263   0.936  0.0556  0.2910 -0.2163
 6103TIP3    H118254   3.999   5.228   0.992 -0.2490  0.3947  0.2352
 6103TIP3    H218255   3.966   5.261   0.848  0.2213 -0.7370 -0.1430
 6104TIP3   OH218256   6.355   5.664   3.277  0.1869  0.4493  0.0117
 6104TIP3    H118257   6.270   5.692   3.244 -0.5832 -1.0953  0.6156
 6104TIP3    H218258   6.352   5.682   3.370  0.3770  0.0485  0.0976
 6105TIP3   OH218259   7.366   3.606   3.282 -0.1485 -0.0637 -0.2964
 6105TIP3    H118260   7.295   3.606   3.346 -0.3320  0.7281 -0.4891
 6105TIP3    H218261   7.442   3.573   3.330 -0.2628  0.5995  0.3547
 6106TIP3   OH218262   4.943   2.179   3.532 -0.2366 -0.9371  0.2398
 6106TIP3    H118263   4.946   2.188   3.627  0.7679 -0.4184  0.1724
 6106TIP3    H218264   4.906   2.262   3.501  0.8929 -0.4743  0.1005
 6107TIP3   OH218265   6.426   1.643   3.678  0.3447 -0.7101  0.2655
 6107TIP3    H118266   6.432   1.719   3.620 -0.4159 -0.7852  0.0856
 6107TIP3    H218267   6.486   1.664   3.750 -0.7292  0.5854  0.8207
 6108TIP3   OH218268   6.551   6.732   5.003  0.2073 -0.2146  0.0529
 6108TIP3    H118269   6.616   6.796   5.030 -0.5580  0.5825  0.0656
 6108TIP3    H218270   6.475   6.749   5.058 -0.6163  0.0237 -1.1020
 6109TIP3   OH218271   0.398   3.135   4.839 -0.2220  0.0017 -0.1972
 6109TIP3    H118272   0.369   3.044   4.850 -0.7832  0.3243  1.3345
 6109TIP3    H218273   0.493   3.130   4.843 -0.0739 -0.8127 -2.9814
 6110TIP3   OH218274   5.931   6.828   5.568 -0.2944  0.5251  0.2454
 6110TIP3    H118275   5.854   6.849   5.621 -0.6365  0.6276 -0.2897
 6110TIP3    H218276   5.943   6.734   5.579 -0.8910  0.3899 -0.1831
 6111TIP3   OH218277   7.483   5.377   0.393  0.7477 -1.0279  0.1883
 6111TIP3    H118278   7.503   5.284   0.392  0.8811 -1.0001  0.2061
 6111TIP3    H218279   7.568   5.420   0.383  0.5818 -0.9117 -0.7354
 6112TIP3   OH218280   0.714   6.467   0.982 -0.4869  0.1254 -0.0921
 6112TIP3    H118281   0.705   6.417   1.064 -1.4377 -3.8700 -2.3530
 6112TIP3    H218282   0.797   6.513   0.991  0.7812 -2.3141  2.1549
 6113TIP3   OH218283   1.830   4.389   6.614  0.2326 -0.9055 -0.1582
 6113TIP3    H118284   1.740   4.384   6.580  0.6474 -2.4901 -1.1149
 6113TIP3    H218285   1.872   4.309   6.583  2.2016  0.1214 -0.3340
 6114TIP3   OH218286   4.856   6.404   4.701 -0.1466  0.2519 -0.1873
 6114TIP3    H118287   4.839   6.348   4.625 -0.6028  0.7881 -0.4864
 6114TIP3    H218288   4.834   6.349   4.777 -0.9816  0.1508 -0.4900
 6115TIP3   OH218289   0.998   0.140   5.421  0.1164  0.1319  0.1062
 6115TIP3    H118290   0.921   0.165   5.369 -0.1574 -1.7238 -0.4446
 6115TIP3    H218291   0.964   0.124   5.509  0.6500  3.7312  1.1355
 6116TIP3   OH218292   6.031   4.105   3.295 -0.0978  0.0784 -0.2394
 6116TIP3    H118293   6.034   4.045   3.221  0.9372  1.5126 -1.4290
 6116TIP3    H218294   6.116   4.151   3.292 -1.1175  2.1091  0.1537
 6117TIP3   OH218295   0.424   1.160   6.107 -0.3216  0.2725 -0.4284
 6117TIP3    H118296   0.468   1.084   6.070  0.9067  1.3757 -1.3517
 6117TIP3    H218297   0.382   1.203   6.032 -0.2120  0.9935 -0.0913
 6118TIP3   OH218298   4.472   4.247   5.498  0.3228 -0.3015 -0.2867
 6118TIP3    H118299   4.402   4.311   5.485 -0.0197 -0.3542  1.0936
 6118TIP3    H218300   4.522   4.281   5.573  0.5011 -1.3214  0.0843
 6119TIP3   OH218301   4.096   3.707   4.826 -0.4819 -0.2882  0.3066
 6119TIP3    H118302   4.125   3.674   4.911 -0.2673 -0.8034  0.0381
 6119TIP3    H218303   4.162   3.674   4.765 -0.3207  0.5515  0.0131
 6120TIP3   OH218304   5.052   5.220   0.368  0.2014  0.0957 -0.0420
 6120TIP3    H118305   5.147   5.230   0.375  0.0429  1.5634  0.2741
 6120TIP3    H218306   5.041   5.135   0.326  1.7063  0.8438 -2.1015
 6121TIP3   OH218307   5.086   6.223   6.247  0.2215 -0.3372 -0.0169
 6121TIP3    H118308   5.173   6.245   6.280  0.2807  1.8659 -1.4047
 6121TIP3    H218309   5.070   6.287   6.177 -2.0482 -1.4024 -0.5753
 6122TIP3   OH218310   0.870   2.633   1.491  0.1742  0.1349  0.4341
 6122TIP3    H118311   0.797   2.663   1.436  0.0242  0.3644  0.7540
 6122TIP3    H218312   0.891   2.546   1.457 -1.5681 -0.8099  1.5874
 6123TIP3   OH218313   6.784   0.540   3.473 -0.1902  0.2879 -0.4343
 6123TIP3    H118314   6.690   0.544   3.491  0.0969  1.4283  0.9866
 6123TIP3    H218315   6.790   0.500   3.386 -1.9737  0.0216 -0.4721
 6124TIP3   OH218316   0.557   2.393   1.991 -0.6319  0.2340  0.0186
 6124TIP3    H118317   0.579   2.358   2.078 -1.5100  0.3117  0.2746
 6124TIP3    H218318   0.628   2.361   1.935 -0.8735 -1.1525  0.4420
 6125TIP3   OH218319   3.742   6.576   5.048  0.1681  0.1734  0.3909
 6125TIP3    H118320   3.729   6.661   5.007  1.3172 -0.5251 -1.5554
 6125TIP3    H218321   3.836   6.574   5.069 -0.0067 -0.3046  1.1646
 6126TIP3   OH218322   2.874   2.075   6.307 -0.3332  0.3930  0.1097
 6126TIP3    H118323   2.963   2.052   6.334 -0.2386  0.5083 -0.1040
 6126TIP3    H218324   2.835   1.992   6.280  0.3140  0.5796 -1.5613
 6127TIP3   OH218325   1.591   2.622   0.610 -0.4678 -0.3082 -0.4355
 6127TIP3    H118326   1.571   2.538   0.569 -1.5775 -0.7336  0.9129
 6127TIP3    H218327   1.628   2.675   0.539  0.3644 -1.9517 -1.2933
 6128TIP3   OH218328   7.066   3.245   0.901  0.0392  0.1657 -0.3804
 6128TIP3    H118329   7.001   3.187   0.862 -1.5071  1.9781 -0.6442
 6128TIP3    H218330   7.015   3.315   0.940  1.8600  2.2769 -1.5690
 6129TIP3   OH218331   2.147   6.699   2.861  0.2086 -0.4312  0.5692
 6129TIP3    H118332   2.179   6.615   2.895 -0.1797 -0.3382  1.1793
 6129TIP3    H218333   2.136   6.684   2.767 -1.3940 -1.5720  0.9054
 6130TIP3   OH218334   4.424   3.480   5.525 -0.0039  0.1196  0.1499
 6130TIP3    H118335   4.353   3.440   5.575  0.3952  0.3359  0.8933
 6130TIP3    H218336   4.392   3.478   5.434 -0.3475 -1.0772  0.2803
 6131TIP3   OH218337   2.299   6.619   0.578 -0.3059 -0.2413 -0.1768
 6131TIP3    H118338   2.279   6.534   0.538  1.3685 -0.1760 -1.2640
 6131TIP3    H218339   2.276   6.683   0.510 -1.9316  0.2546  0.7780
 6132TIP3   OH218340   5.276   6.562   5.672  0.0793 -0.0158 -0.0660
 6132TIP3    H118341   5.196   6.552   5.724  0.7603 -1.0719  0.8256
 6132TIP3    H218342   5.255   6.629   5.608 -1.3321  0.1394  0.5307
 6133TIP3   OH218343   8.159   5.322   0.605 -0.2196 -0.4359  0.4211
 6133TIP3    H118344   8.158   5.377   0.683  1.0750 -0.6970  0.6430
 6133TIP3    H218345   8.077   5.343   0.560 -1.4637 -1.0027  2.3200
 6134TIP3   OH218346   2.414   4.720   1.184 -0.3713  0.1149  0.4505
 6134TIP3    H118347   2.497   4.681   1.156 -0.3246  0.3611  0.2404
 6134TIP3    H218348   2.353   4.701   1.112 -0.0482  1.4395 -0.2087
 6135TIP3   OH218349   0.186   0.856   5.572  0.0449  0.4431 -0.5358
 6135TIP3    H118350   0.217   0.768   5.595  0.1424  0.5388 -0.2996
 6135TIP3    H218351   0.226   0.913   5.637 -2.1373  0.3486  0.9787
 6136TIP3   OH218352   7.253   5.372   3.263  0.0795  0.0301  0.4901
 6136TIP3    H118353   7.312   5.313   3.215 -1.1505  0.8269 -2.2123
 6136TIP3    H218354   7.188   5.399   3.198 -1.7832  1.1881  2.6902
 6137TIP3   OH218355   7.914   5.496   3.632 -0.4326  0.0525 -0.1043
 6137TIP3    H118356   7.937   5.427   3.570 -1.3100 -0.2064 -0.1615
 6137TIP3    H218357   7.842   5.459   3.683  1.9393 -0.8027  2.9373
 6138TIP3   OH218358   0.852   3.895   4.142  0.1014  0.4053 -0.3208
 6138TIP3    H118359   0.778   3.947   4.172 -0.5427 -1.6688  1.9711
 6138TIP3    H218360   0.828   3.868   4.053 -2.5943 -1.3041  0.8246
 6139TIP3   OH218361   2.029   1.607   0.069  0.0173 -0.0247 -0.3892
 6139TIP3    H118362   2.008   1.617  -0.024 -1.8049  1.4416  0.1067
 6139TIP3    H218363   1.959   1.551   0.104 -0.6876  1.3507  0.5024
 6140TIP3   OH218364   6.098   2.185   4.785  0.1522  0.2589  0.1554
 6140TIP3    H118365   6.113   2.104   4.833 -2.8722 -1.5477 -1.5819
 6140TIP3    H218366   6.179   2.234   4.794  1.3122 -1.8938  3.2262
 6141TIP3   OH218367   2.747   1.838   6.250 -0.5191  0.2593  0.6634
 6141TIP3    H118368   2.658   1.822   6.282 -0.6256 -0.3095  0.1276
 6141TIP3    H218369   2.793   1.755   6.265 -0.0567  0.5777  1.0110
 6142TIP3   OH218370   6.750   4.331   4.438  0.3173  0.5045 -1.2643
 6142TIP3    H118371   6.803   4.401   4.475  0.1619  0.2267 -0.4973
 6142TIP3    H218372   6.662   4.367   4.431 -0.5247 -0.5765  2.1795
 6143TIP3   OH218373   6.624   0.083   5.284  0.5868  0.1335 -0.6887
 6143TIP3    H118374   6.540   0.037   5.282  0.6353  0.0426 -0.6582
 6143TIP3    H218375   6.601   0.175   5.299  0.3785  0.4273 -2.5944
 6144TIP3   OH218376   6.438   5.637   0.883  0.3926  0.3270  0.4801
 6144TIP3    H118377   6.508   5.615   0.944  1.4009  0.9492 -0.4157
 6144TIP3    H218378   6.461   5.591   0.802  0.1401  1.0747 -0.0296
 6145TIP3   OH218379   5.153   0.711   0.811 -0.0247 -0.0310  0.0059
 6145TIP3    H118380   5.182   0.796   0.779  0.3763  0.4295  1.4780
 6145TIP3    H218381   5.091   0.680   0.746  0.8456  0.7580 -1.2448
 6146TIP3   OH218382   5.611   2.926   0.338  0.0283  0.0539 -0.1874
 6146TIP3    H118383   5.612   2.843   0.290  0.7694 -1.7255  2.6402
 6146TIP3    H218384   5.697   2.964   0.319  0.5404 -0.8977  0.1349
 6147TIP3   OH218385   1.298   3.431   5.019 -0.0787 -0.1173  0.2473
 6147TIP3    H118386   1.206   3.449   4.998 -0.3914 -2.0450 -0.2062
 6147TIP3    H218387   1.330   3.381   4.944  0.5634 -1.7658  1.5577
 6148TIP3   OH218388   0.602   4.546   1.433 -0.0908 -0.2012  0.5665
 6148TIP3    H118389   0.582   4.586   1.518  0.9947  2.9372 -0.5094
 6148TIP3    H218390   0.693   4.517   1.441 -0.4077 -1.1553  0.8601
 6149TIP3   OH218391   2.252   3.242   6.695 -0.2744  0.2176  0.1032
 6149TIP3    H118392   2.204   3.258   6.777 -0.3413  1.2949 -0.1347
 6149TIP3    H218393   2.234   3.319   6.641  1.4008  0.4724 -0.1501
 6150TIP3   OH218394   4.043   0.991   0.096  0.3527  0.1452  0.5585
 6150TIP3    H118395   3.991   0.996   0.177  0.3012 -0.0003  0.5359
 6150TIP3    H218396   4.123   1.039   0.116  0.4452 -0.0964  0.7799
 6151TIP3   OH218397   5.708   7.624   1.271 -0.2258  0.2052 -0.2885
 6151TIP3    H118398   5.744   7.545   1.231  0.6123  0.4722 -0.0788
 6151TIP3    H218399   5.712   7.606   1.365 -2.6692 -0.6392 -0.2690
 6152TIP3   OH218400   6.727   6.076   0.390 -0.4129 -0.0643 -0.2187
 6152TIP3    H118401   6.652   6.075   0.330 -1.0260  1.2671  0.4777
 6152TIP3    H218402   6.712   6.000   0.447 -0.9642 -0.1026 -0.4036
 6153TIP3   OH218403   6.330   4.804   5.098 -0.0936  0.4182 -0.6135
 6153TIP3    H118404   6.315   4.835   5.009 -2.0948  2.7025  0.4245
 6153TIP3    H218405   6.384   4.871   5.139 -0.2361  0.0159  0.2654
 6154TIP3   OH218406   4.535   2.827   0.519 -0.2921 -0.1671  0.1629
 6154TIP3    H118407   4.490   2.820   0.435 -0.0802 -1.7426  0.1399
 6154TIP3    H218408   4.528   2.739   0.557  2.2902 -0.3494  0.3802
 6155TIP3   OH218409   1.608   6.328   4.454  0.1905 -0.4934 -0.2930
 6155TIP3    H118410   1.557   6.343   4.374 -0.3043  0.7597  0.2223
 6155TIP3    H218411   1.691   6.293   4.423 -0.4109 -1.1127 -1.2660
 6156TIP3   OH218412   8.065   7.737   2.976  0.8525 -0.5383  0.5178
 6156TIP3    H118413   8.033   7.654   3.012  0.8048 -1.2294 -1.0348
 6156TIP3    H218414   8.157   7.720   2.954  0.5947 -0.5040 -0.6709
 6157TIP3   OH218415   1.115   7.107   2.048 -0.1428  0.2211 -0.7054
 6157TIP3    H118416   1.032   7.060   2.051 -0.1851  0.3446  0.4116
 6157TIP3    H218417   1.168   7.068   2.118  0.9734 -0.2604 -1.7741
 6158TIP3   OH218418   5.444   4.562   0.195  0.3540 -0.2359  0.2790
 6158TIP3    H118419   5.457   4.565   0.100  0.7099  0.3102  0.3404
 6158TIP3    H218420   5.525   4.599   0.231 -0.6797  1.6724  0.7341
 6159TIP3   OH218421   0.365   2.907   2.383  0.1452 -0.2618 -0.0265
 6159TIP3    H118422   0.289   2.849   2.376  0.3625 -0.6347  0.6247
 6159TIP3    H218423   0.394   2.920   2.292 -0.9529  0.2471 -0.3285
 6160TIP3   OH218424   5.596   7.196   0.133  0.3266 -0.2834 -0.2709
 6160TIP3    H118425   5.623   7.279   0.093 -1.8550  1.2102  1.1151
 6160TIP3    H218426   5.542   7.222   0.208 -0.4019 -2.9834  0.2498
 6161TIP3   OH218427   6.689   5.141   4.803  0.2771 -0.1357  0.4329
 6161TIP3    H118428   6.655   5.052   4.800  0.5204 -0.2153 -0.1578
 6161TIP3    H218429   6.784   5.131   4.790  0.3172  0.2025  0.4499
 6162TIP3   OH218430   6.757   3.170   4.813  0.5483  0.8380  0.1475
 6162TIP3    H118431   6.743   3.264   4.804  0.0285  0.6000 -1.9657
 6162TIP3    H218432   6.669   3.132   4.813  0.7596  0.1500 -2.5168
 6163TIP3   OH218433   1.250   3.036   4.283 -0.3723  0.3909  0.5716
 6163TIP3    H118434   1.228   3.120   4.323 -0.9382  0.8152 -0.5886
 6163TIP3    H218435   1.336   3.051   4.242 -1.0020  0.7889 -0.6505
 6164TIP3   OH218436   1.274   6.330   4.969 -0.7293  0.1098 -0.0371
 6164TIP3    H118437   1.361   6.300   4.945 -1.0632 -0.2526 -0.8347
 6164TIP3    H218438   1.263   6.412   4.922 -0.9735 -0.0539 -0.2685
 6165TIP3   OH218439   4.933   3.638   2.151  0.6325  0.1351 -0.9414
 6165TIP3    H118440   4.927   3.551   2.189  3.1670 -0.1244 -0.9861
 6165TIP3    H218441   5.023   3.645   2.120  0.2859  2.4995 -1.6183
 6166TIP3   OH218442   2.057   2.737   1.354  0.5621  0.0627 -0.5076
 6166TIP3    H118443   2.069   2.666   1.291 -1.3454  0.8777 -1.8772
 6166TIP3    H218444   2.055   2.816   1.301  3.4357  1.3333  1.0532
 6167TIP3   OH218445   8.045   2.994   6.383 -0.2901 -0.2745  0.6647
 6167TIP3    H118446   8.072   2.957   6.299  2.0587  1.5550  0.5206
 6167TIP3    H218447   8.062   2.924   6.446 -2.2683 -1.7490 -0.3191
 6168TIP3   OH218448   4.254   7.481   5.060  0.5829 -0.3223  0.1794
 6168TIP3    H118449   4.166   7.442   5.065  0.9675 -1.0628  1.4395
 6168TIP3    H218450   4.280   7.468   4.969 -1.9542  2.9769 -1.2471
 6169TIP3   OH218451   0.273   1.476   1.727  0.2808 -0.2880  0.6308
 6169TIP3    H118452   0.319   1.559   1.740 -1.9161  0.9068  1.2834
 6169TIP3    H218453   0.227   1.461   1.810  0.8400 -2.3320  0.6234
 6170TIP3   OH218454   4.512   5.260   2.255  0.0886 -0.3204  0.4202
 6170TIP3    H118455   4.491   5.197   2.324 -1.7565 -0.7021 -0.4039
 6170TIP3    H218456   4.426   5.289   2.223  0.9011  1.5314 -0.2073
 6171TIP3   OH218457   0.224   5.157   3.177 -0.1877 -0.1520  0.3758
 6171TIP3    H118458   0.160   5.145   3.107 -0.4520  1.2432  0.3667
 6171TIP3    H218459   0.292   5.091   3.158  0.4802  1.1189 -2.0646
 6172TIP3   OH218460   7.225   7.256   4.574  0.3098  0.1282  0.4424
 6172TIP3    H118461   7.224   7.184   4.637 -0.0964  1.5155  2.1139
 6172TIP3    H218462   7.150   7.240   4.517  2.1255 -2.5124 -1.4072
 6173TIP3   OH218463   7.949   7.796   5.809 -0.0214  0.7624  0.4790
 6173TIP3    H118464   7.920   7.705   5.813 -0.4427  0.8551 -0.3429
 6173TIP3    H218465   8.016   7.802   5.877  1.5643 -0.7184 -0.8559
 6174TIP3   OH218466   0.300   7.324   3.574  0.0787 -0.3585  0.5425
 6174TIP3    H118467   0.340   7.244   3.541  3.6592  1.4781 -0.1315
 6174TIP3    H218468   0.257   7.363   3.498  1.0983 -0.1615  0.0441
 6175TIP3   OH218469   5.399   0.293   0.471 -0.4787  0.0070  0.0764
 6175TIP3    H118470   5.383   0.241   0.393 -0.5728 -0.9064  0.6843
 6175TIP3    H218471   5.494   0.305   0.473 -0.4522 -0.1882 -0.0372
 6176TIP3   OH218472   1.705   5.695   4.223 -0.2722 -0.1286  0.1517
 6176TIP3    H118473   1.748   5.749   4.290 -0.8241  0.3530  0.1210
 6176TIP3    H218474   1.690   5.611   4.266  1.2492 -0.5211 -0.0228
 6177TIP3   OH218475   2.807   3.943   4.676 -0.1732  0.3336 -0.0144
 6177TIP3    H118476   2.881   3.951   4.737 -0.1191 -0.2304 -0.0002
 6177TIP3    H218477   2.741   3.894   4.725 -0.4708  0.6406 -0.1056
 6178TIP3   OH218478   1.516   7.272   1.306 -0.3715  0.4160 -0.1298
 6178TIP3    H118479   1.538   7.179   1.297  3.0042  0.9044  1.8124
 6178TIP3    H218480   1.455   7.275   1.380 -1.5978 -0.2865 -1.0544
 6179TIP3   OH218481   6.867   4.562   5.236 -0.3973  0.0863 -0.1292
 6179TIP3    H118482   6.785   4.597   5.200  0.5978  2.7021 -0.1207
 6179TIP3    H218483   6.839   4.506   5.309 -2.1903  1.3705  0.2433
 6180TIP3   OH218484   4.273   3.090   1.158 -0.2387  0.0498 -0.1008
 6180TIP3    H118485   4.244   3.175   1.125  0.7325  0.5526  0.2961
 6180TIP3    H218486   4.248   3.027   1.090 -1.0179  0.6326 -0.3682
 6181TIP3   OH218487   3.034   1.684   6.457 -0.2666 -0.4611  0.0327
 6181TIP3    H118488   3.128   1.687   6.442 -0.3262  1.4624 -0.3526
 6181TIP3    H218489   2.997   1.651   6.375  0.0781 -1.6812  0.3561
 6182TIP3   OH218490   3.363   6.885   2.592  0.5143  0.4799  0.5440
 6182TIP3    H118491   3.368   6.794   2.622 -2.7598 -0.0105 -0.0048
 6182TIP3    H218492   3.350   6.878   2.497 -0.2982  1.4839  0.5698
 6183TIP3   OH218493   0.809   2.746   4.224  0.0525 -0.0225  0.2589
 6183TIP3    H118494   0.768   2.663   4.197  0.2464 -0.6394  1.7422
 6183TIP3    H218495   0.758   2.813   4.180 -1.2598 -0.8676  0.4261
 6184TIP3   OH218496   0.835   3.877   2.152 -0.0616  0.0026 -0.0162
 6184TIP3    H118497   0.865   3.791   2.180  2.4005  0.2690 -1.5816
 6184TIP3    H218498   0.874   3.938   2.215  0.1542  0.1269 -0.2659
 6185TIP3   OH218499   6.915   6.050   2.241 -0.1714  0.5833 -0.0656
 6185TIP3    H118500   6.946   6.039   2.151  1.0492 -4.0213  0.6918
 6185TIP3    H218501   6.992   6.078   2.289 -0.3580  1.1868 -0.1071
 6186TIP3   OH218502   0.050   6.236   5.592  0.2970  0.7746 -0.1188
 6186TIP3    H118503  -0.034   6.261   5.630  1.3068  0.7331  2.3557
 6186TIP3    H218504   0.047   6.140   5.588 -0.4162  0.8378 -1.7474
 6187TIP3   OH218505   3.766   0.330   6.521 -0.7064  0.4379  0.1920
 6187TIP3    H118506   3.755   0.321   6.615  0.3320 -1.4566  0.1693
 6187TIP3    H218507   3.839   0.391   6.511 -0.2318 -0.0519  0.6386
 6188TIP3   OH218508   6.918   5.027   3.409 -0.7744 -0.3660 -0.3096
 6188TIP3    H118509   6.887   4.965   3.344 -1.1876 -0.4756 -0.0132
 6188TIP3    H218510   7.012   5.037   3.391 -0.7569 -0.8855 -0.5136
 6189TIP3   OH218511   4.991   6.378   1.503 -0.0065  0.1307 -0.5692
 6189TIP3    H118512   4.916   6.422   1.464 -0.2011  0.6045  0.3110
 6189TIP3    H218513   4.975   6.384   1.598  2.8678  3.3955 -0.1094
 6190TIP3   OH218514   0.464   0.256   0.234  0.2204 -0.2738  0.3532
 6190TIP3    H118515   0.493   0.343   0.207 -0.1381 -0.3126 -0.1707
 6190TIP3    H218516   0.384   0.272   0.285  1.4970 -0.1126  2.3842
 6191TIP3   OH218517   2.260   6.875   1.559  0.4714 -0.2669  0.1399
 6191TIP3    H118518   2.195   6.941   1.583 -0.0744 -0.6479 -0.2866
 6191TIP3    H218519   2.306   6.857   1.641  0.4859  0.4792  0.3104
 6192TIP3   OH218520   0.556   7.405   2.876  0.3236 -0.1832  0.6151
 6192TIP3    H118521   0.556   7.316   2.839  0.3127  0.6963 -1.6802
 6192TIP3    H218522   0.478   7.407   2.931  0.3816 -1.6263  0.8065
 6193TIP3   OH218523   3.955   1.029   4.590 -0.0377  0.3031  0.3851
 6193TIP3    H118524   3.898   1.061   4.520  3.4223 -0.2399 -3.0443
 6193TIP3    H218525   3.897   1.013   4.664 -4.2970 -0.3715 -2.7481
 6194TIP3   OH218526   0.684   6.819   5.938 -0.0752 -0.8366  0.3122
 6194TIP3    H118527   0.633   6.799   6.016  1.1429 -1.3336  1.0187
 6194TIP3    H218528   0.642   6.896   5.899 -0.3043 -0.1712  1.8362
 6195TIP3   OH218529   6.492   0.580   3.113 -0.0519 -0.5683  0.1361
 6195TIP3    H118530   6.566   0.636   3.136 -1.1437  0.3926  1.4315
 6195TIP3    H218531   6.488   0.515   3.184 -1.1880  0.1574  0.7720
 6196TIP3   OH218532   6.045   2.609   5.402 -0.2948  0.7855 -0.5653
 6196TIP3    H118533   6.102   2.553   5.454 -0.3244  1.2524 -0.0164
 6196TIP3    H218534   5.997   2.549   5.345  2.3740  0.5234 -2.7402
 6197TIP3   OH218535   0.957   0.191   2.481  0.6396  0.2351  0.8783
 6197TIP3    H118536   0.883   0.131   2.489  1.8560 -1.5462 -0.5915
 6197TIP3    H218537   0.991   0.200   2.570 -0.7709  0.3699  1.4280
 6198TIP3   OH218538   2.173   1.710   6.274  0.0505 -0.0073 -0.2577
 6198TIP3    H118539   2.171   1.638   6.210  0.9545 -0.3248  0.0501
 6198TIP3    H218540   2.145   1.669   6.356 -0.1718  0.1770 -0.2408
 6199TIP3   OH218541   8.101   0.083   5.442  0.5063  0.9537  0.4570
 6199TIP3    H118542   8.055   0.006   5.476 -1.3448  1.4336 -0.8247
 6199TIP3    H218543   8.153   0.049   5.369 -3.2772  1.3024 -2.7142
 6200TIP3   OH218544   7.982   3.343   0.606  0.3497 -0.4434  0.0427
 6200TIP3    H118545   7.972   3.437   0.592  0.0436 -0.6730 -1.5540
 6200TIP3    H218546   7.895   3.311   0.629  0.2667 -0.4507 -0.2730
 6201TIP3   OH218547   3.288   0.825   2.357  0.8523 -0.1359 -1.2044
 6201TIP3    H118548   3.342   0.747   2.343 -0.5831 -1.0122 -2.1655
 6201TIP3    H218549   3.265   0.854   2.268 -2.0415 -1.1336 -0.8916
 6202TIP3   OH218550   2.219   5.058   3.869 -1.1084 -0.3294 -0.0802
 6202TIP3    H118551   2.274   5.134   3.887 -0.4139 -0.5143 -1.3401
 6202TIP3    H218552   2.217   5.011   3.953 -1.6580  1.1136  0.7496
 6203TIP3   OH218553   7.388   1.961   1.295  0.0886 -0.6296 -0.2693
 6203TIP3    H118554   7.349   1.898   1.234  0.8077 -1.0800 -0.2868
 6203TIP3    H218555   7.471   1.985   1.254 -0.4950  0.9070 -0.6140
 6204TIP3   OH218556   5.013   6.699   6.304  0.0610  0.0792  0.0491
 6204TIP3    H118557   5.053   6.725   6.386  0.7063 -0.2069 -0.1710
 6204TIP3    H218558   4.981   6.781   6.265 -0.7805  0.1468  0.8505
 6205TIP3   OH218559   7.923   4.880   3.600  0.6133 -0.0043 -0.4636
 6205TIP3    H118560   7.935   4.820   3.526  0.8631  0.6528 -0.9703
 6205TIP3    H218561   7.865   4.948   3.566 -2.2526 -1.5412  1.0258
 6206TIP3   OH218562   7.880   0.663   1.580  0.1262 -0.1470  0.7554
 6206TIP3    H118563   7.903   0.734   1.639  1.6925  0.6643 -0.7463
 6206TIP3    H218564   7.961   0.614   1.569 -0.6998 -1.6444  1.0158
 6207TIP3   OH218565   4.006   6.506   5.174  0.0316 -0.0223 -0.2411
 6207TIP3    H118566   4.033   6.434   5.116 -0.0239 -0.5379  0.3676
 6207TIP3    H218567   4.024   6.474   5.262 -1.3031  0.1607  0.1092
 6208TIP3   OH218568   4.080   5.779   0.083  0.1843 -0.4711 -0.5747
 6208TIP3    H118569   4.050   5.861   0.042 -0.3949 -0.7026 -0.6297
 6208TIP3    H218570   4.131   5.736   0.015  2.4440  0.8726  0.1740
 6209TIP3   OH218571   7.249   2.445   1.462 -0.1664 -0.0713 -0.2897
 6209TIP3    H118572   7.298   2.391   1.400  0.1026 -0.0395 -0.1050
 6209TIP3    H218573   7.211   2.383   1.524  1.8575  0.0480  1.1786
 6210TIP3   OH218574   0.734   7.806   6.117  0.2727  0.0386 -0.0000
 6210TIP3    H118575   0.829   7.808   6.122  0.5312 -3.7139 -0.6960
 6210TIP3    H218576   0.706   7.771   6.202 -0.2977 -0.6974 -0.4764
 6211TIP3   OH218577  -0.003   3.870   3.622 -0.6395  0.6572  0.1360
 6211TIP3    H118578   0.022   3.852   3.532 -1.8823 -0.7784  0.0420
 6211TIP3    H218579   0.035   3.799   3.673  0.0071  1.4296  0.7456
 6212TIP3   OH218580   7.492   7.610   3.224 -0.0826 -0.2014 -0.3003
 6212TIP3    H118581   7.421   7.659   3.265 -0.2053  0.7875 -1.6132
 6212TIP3    H218582   7.459   7.520   3.219 -1.8307  0.4613 -2.0218
 6213TIP3   OH218583   2.763   3.181   4.959  0.7012 -0.6477 -0.4062
 6213TIP3    H118584   2.847   3.207   4.919  1.2393  1.2457  1.7341
 6213TIP3    H218585   2.787   3.119   5.027  0.1408 -1.3903 -0.8698
 6214TIP3   OH218586   0.868   2.506   2.791 -0.3791 -0.1865  0.2557
 6214TIP3    H118587   0.802   2.510   2.861 -0.6286 -2.3658  0.2362
 6214TIP3    H218588   0.842   2.429   2.739  1.4342 -0.3091 -0.5305
 6215TIP3   OH218589   6.440   1.652   6.314 -0.6384  0.1512 -0.3187
 6215TIP3    H118590   6.380   1.582   6.340 -0.1596 -0.5818 -1.1294
 6215TIP3    H218591   6.416   1.671   6.223  0.8608 -0.7147 -0.9297
 6216TIP3   OH218592   0.112   0.916   2.654 -0.0973  0.9627  0.2678
 6216TIP3    H118593   0.108   0.992   2.712  2.5298 -0.0200  1.9912
 6216TIP3    H218594   0.097   0.841   2.712  0.1399  0.0555 -0.7989
 6217TIP3   OH218595   6.900   6.657   1.613  0.6533 -0.4334  0.1213
 6217TIP3    H118596   6.975   6.673   1.671  0.1028  1.4840  0.3800
 6217TIP3    H218597   6.847   6.737   1.620 -1.9744 -2.0750  0.7630
 6218TIP3   OH218598   7.860   0.651   5.925  0.3627  0.0625  0.2975
 6218TIP3    H118599   7.863   0.560   5.895 -0.1745 -0.5718  2.0564
 6218TIP3    H218600   7.769   0.667   5.948  0.5868  0.8004  0.7331
 6219TIP3   OH218601   2.746   7.799   1.075 -0.0611 -0.1905 -0.6504
 6219TIP3    H118602   2.805   7.871   1.095  0.5998 -1.1412  0.9969
 6219TIP3    H218603   2.792   7.746   1.010 -0.6706  0.9846 -2.0801
 6220TIP3   OH218604   1.112   1.461   3.026  0.0188 -0.1781  0.6976
 6220TIP3    H118605   1.133   1.485   2.936  1.8033 -0.6498  0.9498
 6220TIP3    H218606   1.185   1.405   3.054 -0.7287 -0.4253  2.2834
 6221TIP3   OH218607   5.540   3.301   2.531  0.4180  0.2227  0.7295
 6221TIP3    H118608   5.566   3.220   2.486 -0.1878  0.6756 -0.4793
 6221TIP3    H218609   5.609   3.315   2.596  0.2917 -1.5086  1.3086
 6222TIP3   OH218610   4.867   0.905   2.185 -0.1078  0.7384 -0.3817
 6222TIP3    H118611   4.910   0.914   2.270  0.5716 -0.4182 -0.5817
 6222TIP3    H218612   4.911   0.969   2.129  0.3956  0.5433 -0.2147
 6223TIP3   OH218613   7.393   0.219   6.583 -0.0012 -0.4961 -0.1349
 6223TIP3    H118614   7.332   0.150   6.610  0.3476 -0.8914 -0.3356
 6223TIP3    H218615   7.426   0.189   6.498  0.0181  0.0101 -0.3097
 6224TIP3   OH218616   3.276   3.903   5.776  0.3695  0.5479 -0.4638
 6224TIP3    H118617   3.239   3.842   5.839 -1.0122  2.0807  0.2872
 6224TIP3    H218618   3.311   3.975   5.829 -1.8878  2.4597 -1.3746
 6225TIP3   OH218619   1.337   3.871   3.825 -0.3591 -0.1661 -0.2018
 6225TIP3    H118620   1.242   3.875   3.836 -0.2329  4.3239  1.2846
 6225TIP3    H218621   1.372   3.904   3.908  2.4350  0.3087 -1.4591
 6226TIP3   OH218622   6.514   3.921   4.865 -0.3034 -0.1627  0.1283
 6226TIP3    H118623   6.504   3.986   4.934 -1.4483  0.4063 -0.5471
 6226TIP3    H218624   6.447   3.855   4.884  1.8507 -2.0506  1.7191
 6227TIP3   OH218625   2.269   3.655   4.532 -0.4345  0.2184 -0.6278
 6227TIP3    H118626   2.189   3.699   4.561 -0.1312  1.2829 -1.3610
 6227TIP3    H218627   2.337   3.721   4.542  0.3759 -0.6883  0.0069
 6228TIP3   OH218628   7.759   0.324   2.955  0.0211 -0.3059  0.1376
 6228TIP3    H118629   7.716   0.394   2.906  1.2043 -0.0317 -0.5223
 6228TIP3    H218630   7.762   0.357   3.045 -0.4767 -0.0244  0.0574
 6229TIP3   OH218631   8.307   5.172   5.567 -0.7205  0.2838  0.2153
 6229TIP3    H118632   8.319   5.085   5.530  0.4780 -0.9547  3.1483
 6229TIP3    H218633   8.215   5.175   5.594 -1.0650  0.4095 -0.9518
 6230TIP3   OH218634   0.372   0.785   0.329 -0.2411 -0.1827  0.3275
 6230TIP3    H118635   0.305   0.784   0.261 -2.0176  0.3750  1.9743
 6230TIP3    H218636   0.377   0.877   0.356 -0.9210 -0.6540  2.1730
 6231TIP3   OH218637   7.640   0.632   4.993  0.0361  0.7358 -0.4936
 6231TIP3    H118638   7.667   0.717   4.958 -0.5468  1.2338  0.2391
 6231TIP3    H218639   7.650   0.640   5.088 -0.9243  0.3251 -0.3394
 6232TIP3   OH218640   4.057   5.781   0.911 -0.1101  0.1929 -0.5365
 6232TIP3    H118641   3.982   5.757   0.856  0.3070 -0.5186 -0.8116
 6232TIP3    H218642   4.131   5.734   0.872  0.3115  0.2016  0.2376
 6233TIP3   OH218643   8.200   3.559   6.561 -0.0347 -0.1115  0.4194
 6233TIP3    H118644   8.125   3.533   6.614 -0.4308  1.4530  0.6766
 6233TIP3    H218645   8.249   3.620   6.617 -0.5223  1.6682 -1.0051
 6234TIP3   OH218646   5.451   0.466   1.541  0.0471 -0.3866  0.0486
 6234TIP3    H118647   5.523   0.528   1.553 -0.6015  0.3473  0.2614
 6234TIP3    H218648   5.483   0.384   1.577  0.9733 -0.2138 -0.3618
 6235TIP3   OH218649   3.226   2.340   1.514 -0.0178 -0.3036 -0.0846
 6235TIP3    H118650   3.273   2.269   1.470  0.5517 -0.6205  1.0120
 6235TIP3    H218651   3.294   2.394   1.553 -0.5406 -1.2444  2.2637
 6236TIP3   OH218652   8.129   3.177   4.407 -0.3647  0.3536 -0.2719
 6236TIP3    H118653   8.070   3.147   4.475  0.0598 -0.4915 -0.2687
 6236TIP3    H218654   8.080   3.245   4.360 -0.7829  0.6946  0.6494
 6237TIP3   OH218655   8.281   7.568   0.335  0.6516 -0.6197 -0.6039
 6237TIP3    H118656   8.255   7.501   0.272 -1.3146 -0.7473  0.3058
 6237TIP3    H218657   8.271   7.527   0.421 -0.8655  0.8802 -0.0141
 6238TIP3   OH218658   5.250   1.561   5.061 -0.0992 -0.0908  0.4242
 6238TIP3    H118659   5.194   1.494   5.101 -0.4287  0.5155  0.9948
 6238TIP3    H218660   5.326   1.567   5.118 -1.0257  1.4858  1.5840
 6239TIP3   OH218661   4.944   3.101   2.086 -0.3313  0.0030 -0.5469
 6239TIP3    H118662   4.975   3.126   1.999  2.3722 -1.0316  0.0347
 6239TIP3    H218663   4.914   3.011   2.075 -0.2637 -0.0308 -0.4446
 6240TIP3   OH218664   5.424   3.565   4.178  0.2831  0.3043 -0.0632
 6240TIP3    H118665   5.360   3.596   4.114 -2.4666 -0.0072  2.3146
 6240TIP3    H218666   5.427   3.635   4.244  0.4102 -0.8077  1.1433
 6241TIP3   OH218667   7.649   1.784   2.443 -0.5514 -0.2355  0.3524
 6241TIP3    H118668   7.710   1.742   2.504 -1.1993  0.1039  1.2493
 6241TIP3    H218669   7.644   1.875   2.472 -0.4742  0.0637 -0.5349
 6242TIP3   OH218670   5.903   2.838   2.760 -0.3214  0.0696 -0.3821
 6242TIP3    H118671   5.924   2.749   2.730  2.4001  0.6630 -0.5061
 6242TIP3    H218672   5.965   2.853   2.832 -1.7687  1.3476  0.6451
 6243TIP3   OH218673   3.142   1.632   6.714  0.8596 -0.2316  0.5095
 6243TIP3    H118674   3.070   1.626   6.777  1.2463  1.0694  1.1158
 6243TIP3    H218675   3.100   1.655   6.631  0.5513  0.3006  0.8087
 6244TIP3   OH218676   4.210   4.069   3.345  0.0962  0.0639  0.5200
 6244TIP3    H118677   4.144   4.042   3.281 -0.7540  1.6537  0.6828
 6244TIP3    H218678   4.190   4.016   3.423 -0.7990  0.3014  0.4636
 6245TIP3   OH218679   2.682   3.532   3.416 -0.2880  0.1607  0.7256
 6245TIP3    H118680   2.694   3.573   3.330  0.7486  0.5510  1.0381
 6245TIP3    H218681   2.697   3.439   3.400 -2.1465 -0.0717  0.1075
 6246TIP3   OH218682   0.458   2.464   1.161  0.2087 -0.1029 -0.3103
 6246TIP3    H118683   0.432   2.556   1.157 -2.6264 -0.7781 -0.0045
 6246TIP3    H218684   0.489   2.452   1.251  1.1937  0.6669 -0.5344
 6247TIP3   OH218685   5.735   4.344   4.706  0.1844  0.1003 -0.1356
 6247TIP3    H118686   5.780   4.385   4.780 -1.2697  0.1769  0.7253
 6247TIP3    H218687   5.695   4.418   4.660  0.6828  0.0006 -0.7440
 6248TIP3   OH218688   7.881   4.369   0.348 -0.0446 -1.0412 -0.2896
 6248TIP3    H118689   7.825   4.439   0.383 -1.4361 -1.8693 -0.7911
 6248TIP3    H218690   7.956   4.367   0.408 -1.3209 -0.9744  1.3938
 6249TIP3   OH218691   7.547   1.700   3.907  0.6536  0.2091 -0.6354
 6249TIP3    H118692   7.635   1.725   3.877  0.8180  1.4330  0.7663
 6249TIP3    H218693   7.489   1.724   3.834  1.3199  0.6732 -1.0251
 6250TIP3   OH218694   2.457   7.560   0.349  0.0992 -0.1498 -0.0123
 6250TIP3    H118695   2.524   7.623   0.325 -0.8556  0.7549 -0.3674
 6250TIP3    H218696   2.384   7.613   0.381 -0.2356 -1.1372  0.9281
 6251TIP3   OH218697   3.101   3.821   2.435  0.1297  0.3570  0.2611
 6251TIP3    H118698   3.140   3.768   2.365 -0.2620  0.1715  0.1762
 6251TIP3    H218699   3.012   3.839   2.403  0.2079  0.9336  0.3606
 6252TIP3   OH218700   7.529   4.857   2.936  0.5366  0.1574 -0.0077
 6252TIP3    H118701   7.602   4.829   2.990 -0.7999 -2.1794  0.7056
 6252TIP3    H218702   7.503   4.780   2.887 -1.1458  1.0343 -0.6063
 6253TIP3   OH218703   5.321   6.187   5.711  0.2341 -0.5457  0.4775
 6253TIP3    H118704   5.374   6.237   5.773 -0.6954 -1.3358  1.9590
 6253TIP3    H218705   5.360   6.206   5.625  0.2522  2.2558  1.0156
 6254TIP3   OH218706   5.296   4.082   0.634 -0.2980 -0.0202  1.1264
 6254TIP3    H118707   5.300   4.006   0.692 -2.4068 -0.1672  1.1560
 6254TIP3    H218708   5.298   4.158   0.693  1.4907 -0.0326  1.1151
 6255TIP3   OH218709   1.155   4.607   2.900  0.5833 -0.2883  0.8175
 6255TIP3    H118710   1.086   4.666   2.929 -0.7313 -1.7262  0.7794
 6255TIP3    H218711   1.164   4.544   2.972  0.6718 -1.0848  0.1208
 6256TIP3   OH218712   4.649   4.084   2.491 -0.5660  0.2615 -0.0288
 6256TIP3    H118713   4.626   4.173   2.517  0.8078  0.5186  0.4327
 6256TIP3    H218714   4.742   4.090   2.466 -1.0304 -0.6045 -2.1500
 6257TIP3   OH218715   3.425   0.812   3.501  0.1840  0.4656  0.3386
 6257TIP3    H118716   3.429   0.829   3.407  1.7784  0.2844  0.3460
 6257TIP3    H218717   3.347   0.858   3.531 -1.1286 -0.5801 -1.2891
 6258TIP3   OH218718   3.770   7.083   6.503  0.4283 -0.4406  0.5013
 6258TIP3    H118719   3.734   7.031   6.575  0.7621  0.8486  1.6461
 6258TIP3    H218720   3.848   7.036   6.476 -0.7215 -1.9582 -0.3539
 6259TIP3   OH218721   0.543   3.688   2.243  0.6929 -0.6400 -0.2205
 6259TIP3    H118722   0.563   3.647   2.159 -2.4456 -0.8526 -0.9987
 6259TIP3    H218723   0.523   3.779   2.222 -0.0947 -0.6858  0.2572
 6260TIP3   OH218724   3.823   2.135   0.693 -0.1920 -0.2138  0.4107
 6260TIP3    H118725   3.850   2.190   0.767  0.8764  0.4058 -0.4010
 6260TIP3    H218726   3.905   2.094   0.662 -0.2530  1.0296 -1.5942
 6261TIP3   OH218727   0.911   2.917   4.425 -0.1955 -0.1694  0.2391
 6261TIP3    H118728   0.897   2.990   4.364  1.3978 -0.2613 -0.2723
 6261TIP3    H218729   0.912   2.840   4.369 -1.0527 -0.5129  0.6828
 6262TIP3   OH218730   6.695   7.081   6.261 -0.9091 -0.0109 -0.2264
 6262TIP3    H118731   6.752   7.156   6.248 -1.7079  1.7223  4.3773
 6262TIP3    H218732   6.607   7.116   6.255 -1.5328 -1.7542 -2.8434
 6263TIP3   OH218733   7.607   6.445   2.791 -0.2529  0.3718  0.0381
 6263TIP3    H118734   7.637   6.371   2.738 -0.3778  1.4188 -1.5561
 6263TIP3    H218735   7.674   6.512   2.778 -0.1015  0.5523  1.5232
 6264TIP3   OH218736   2.381   0.200   5.094  0.5373 -0.4853  0.5721
 6264TIP3    H118737   2.362   0.123   5.041  0.6365  0.6663 -1.2188
 6264TIP3    H218738   2.297   0.226   5.130  0.1431 -0.3127 -0.4328
 6265TIP3   OH218739   3.321   0.685   1.819 -0.0022 -0.3409 -0.4680
 6265TIP3    H118740   3.354   0.604   1.779  1.2930  0.3781 -0.9047
 6265TIP3    H218741   3.253   0.655   1.880  0.4784 -1.7610 -0.5859
 6266TIP3   OH218742   5.286   1.412   2.307  0.2120  0.0028  0.0925
 6266TIP3    H118743   5.321   1.340   2.255 -0.1833 -0.1764  0.0694
 6266TIP3    H218744   5.283   1.486   2.246  3.2175  0.8450  0.8087
 6267TIP3   OH218745   1.796   1.283   2.943  0.4468  0.0245 -0.1440
 6267TIP3    H118746   1.741   1.319   3.012 -0.4644 -0.9599 -0.3283
 6267TIP3    H218747   1.879   1.263   2.986 -0.0729 -0.4631  0.6400
 6268TIP3   OH218748   1.347   3.177   4.049 -0.0821 -0.0673 -0.0453
 6268TIP3    H118749   1.311   3.261   4.077  1.0793  0.3774  0.1664
 6268TIP3    H218750   1.427   3.200   4.003  1.3370 -1.1506  1.7819
 6269TIP3   OH218751   1.588   2.173   1.617  0.3345 -0.6521  0.1087
 6269TIP3    H118752   1.512   2.187   1.673 -0.4446  0.4538 -1.1921
 6269TIP3    H218753   1.613   2.260   1.587  0.2358 -1.2601 -1.8882
 6270TIP3   OH218754   3.216   6.247   5.030 -0.0171  0.1321 -0.0756
 6270TIP3    H118755   3.175   6.300   4.961  1.5848  2.7505  0.8171
 6270TIP3    H218756   3.176   6.280   5.111 -0.4612 -1.5387  0.4255
 6271TIP3   OH218757   1.285   2.780   5.808 -0.3579 -0.0063 -0.3032
 6271TIP3    H118758   1.236   2.701   5.830  0.2983  0.0226  1.3756
 6271TIP3    H218759   1.377   2.752   5.810 -0.1410  0.7230 -0.0214
 6272TIP3   OH218760   2.751   7.132   0.746 -0.1449  0.0341  0.7926
 6272TIP3    H118761   2.683   7.076   0.710 -1.0355  1.3349  0.3871
 6272TIP3    H218762   2.782   7.183   0.671  0.2426  0.4924  1.2545
 6273TIP3   OH218763   4.944   0.587   4.546  0.1963 -0.0827  0.3048
 6273TIP3    H118764   4.916   0.583   4.454 -2.0353 -0.1477  0.9198
 6273TIP3    H218765   4.862   0.583   4.596  1.3899 -0.7899  2.3271
 6274TIP3   OH218766   2.354   3.881   4.242 -0.2349  0.2940  0.1879
 6274TIP3    H118767   2.346   3.813   4.176 -0.1239 -1.1217  1.5610
 6274TIP3    H218768   2.400   3.839   4.315 -2.3271  1.0509  2.0915
 6275TIP3   OH218769   0.513   7.119   1.170 -0.0959 -0.2985  0.0530
 6275TIP3    H118770   0.464   7.137   1.250 -0.3860  0.4897 -0.2941
 6275TIP3    H218771   0.582   7.058   1.197 -1.3266 -1.5145  0.5156
 6276TIP3   OH218772   8.213   4.682   0.411  0.4327  0.0725  0.2438
 6276TIP3    H118773   8.228   4.727   0.327 -0.3708 -0.5973 -0.2718
 6276TIP3    H218774   8.121   4.697   0.431  0.1389 -1.3186  0.0565
 6277TIP3   OH218775   6.994   3.575   5.053 -0.0013  0.0712 -0.7966
 6277TIP3    H118776   7.063   3.553   5.115 -0.4975 -0.7430 -0.5164
 6277TIP3    H218777   6.945   3.493   5.041 -0.6684  0.5297 -1.2986
 6278TIP3   OH218778   8.171   2.178   5.655  0.7456  0.0811 -0.0417
 6278TIP3    H118779   8.227   2.101   5.663  0.4008 -0.0753  1.0015
 6278TIP3    H218780   8.096   2.148   5.603  0.5842 -0.3142  0.4076
 6279TIP3   OH218781   6.899   7.139   2.398 -0.4654  0.2364  0.1477
 6279TIP3    H118782   6.870   7.229   2.383  1.3831  0.6375 -1.4102
 6279TIP3    H218783   6.834   7.085   2.352 -1.6525  0.7129  1.1917
 6280TIP3   OH218784   5.766   2.114   0.517  0.1797  0.1892  0.6882
 6280TIP3    H118785   5.856   2.100   0.491  0.3570  0.5843  1.0656
 6280TIP3    H218786   5.763   2.088   0.609 -0.1077  0.1128  0.6588
 6281TIP3   OH218787   3.553   2.422   5.629 -0.2810  0.1230  0.0225
 6281TIP3    H118788   3.623   2.435   5.566 -0.9514 -1.2594 -1.0494
 6281TIP3    H218789   3.596   2.385   5.706  0.1702 -0.8786 -0.6851
 6282TIP3   OH218790   5.702   4.889   5.920 -0.2980  0.3185  0.0432
 6282TIP3    H118791   5.612   4.904   5.890  0.4776 -0.2686 -2.8305
 6282TIP3    H218792   5.695   4.813   5.978 -1.5232 -0.3318 -0.9188
 6283TIP3   OH218793   0.743   0.493   3.332  0.2665  0.3035 -0.4927
 6283TIP3    H118794   0.676   0.424   3.334 -1.3767  1.8340  0.0193
 6283TIP3    H218795   0.719   0.551   3.404  1.8076  1.2418 -0.7030
 6284TIP3   OH218796   5.023   6.568   4.138  0.1399 -0.3702 -0.1835
 6284TIP3    H118797   5.109   6.530   4.155  0.5840  1.1663  1.2301
 6284TIP3    H218798   4.978   6.565   4.223 -0.0561  1.5389 -0.1643
 6285TIP3   OH218799   1.261   0.428   4.807 -0.2005 -0.0565 -0.7390
 6285TIP3    H118800   1.223   0.510   4.776 -0.2378  0.0986 -0.2955
 6285TIP3    H218801   1.219   0.413   4.892  1.5238  0.6828  0.2881
 6286TIP3   OH218802   3.535   3.375   1.620 -0.1441  0.1641  0.1855
 6286TIP3    H118803   3.497   3.351   1.704  0.2576 -0.8634  0.0852
 6286TIP3    H218804   3.466   3.426   1.576 -1.7598 -2.2896 -0.3129
 6287TIP3   OH218805   7.975   3.376   6.600 -0.0530 -0.4372 -0.6318
 6287TIP3    H118806   7.885   3.403   6.582 -0.3792  0.7305  2.1817
 6287TIP3    H218807   7.965   3.297   6.654  0.2692  1.7501  2.9998
 6288TIP3   OH218808   1.313   1.187   1.036 -0.2478 -0.0005 -0.0129
 6288TIP3    H118809   1.297   1.093   1.033  0.8313 -0.1768 -2.7300
 6288TIP3    H218810   1.385   1.197   1.099  0.6812 -1.2077 -0.8385
 6289TIP3   OH218811   1.677   6.361   3.851 -0.1370  0.0300 -0.1418
 6289TIP3    H118812   1.647   6.271   3.856 -0.9386  0.3339  0.7755
 6289TIP3    H218813   1.625   6.400   3.780  0.5379 -0.3387 -0.8504
 6290TIP3   OH218814   6.023   6.256   6.761  0.6474  0.4860  0.1061
 6290TIP3    H118815   5.987   6.169   6.744  1.1091  0.5566 -1.3501
 6290TIP3    H218816   6.106   6.239   6.806  1.4273  0.0746 -1.4112
 6291TIP3   OH218817   1.213   2.797   3.005  0.1547 -0.0411 -0.0279
 6291TIP3    H118818   1.190   2.854   3.078 -0.6416  0.3512 -0.5694
 6291TIP3    H218819   1.242   2.715   3.046 -0.6499  0.0364  0.7142
 6292TIP3   OH218820   3.607   0.176   2.125 -0.0779 -0.0847  0.0283
 6292TIP3    H118821   3.515   0.201   2.129  0.3784  2.5027 -2.0790
 6292TIP3    H218822   3.622   0.155   2.032  1.4323 -0.5044  0.3397
 6293TIP3   OH218823   5.191   3.845   2.301  0.1786  0.0245  0.1837
 6293TIP3    H118824   5.171   3.756   2.274 -1.2457  0.2300  0.5174
 6293TIP3    H218825   5.275   3.838   2.348 -0.2138 -1.2267  0.7241
 6294TIP3   OH218826   3.315   0.462   4.409 -0.5153  0.2861 -0.8544
 6294TIP3    H118827   3.335   0.555   4.422  1.0440 -0.1607  0.1500
 6294TIP3    H218828   3.275   0.434   4.491  1.8138 -0.6069  0.0567
 6295TIP3   OH218829   3.230   7.138   4.728 -0.0653 -0.0860 -0.1538
 6295TIP3    H118830   3.137   7.131   4.707  0.3696 -1.3219 -1.9801
 6295TIP3    H218831   3.256   7.048   4.749  0.4261  0.4947  1.9404
 6296TIP3   OH218832   4.759   3.995   0.075 -0.3855 -0.3463 -0.1544
 6296TIP3    H118833   4.811   4.021  -0.001  0.3452  0.3329  0.5567
 6296TIP3    H218834   4.719   3.912   0.049 -0.0050 -0.2240 -1.2053
 6297TIP3   OH218835   6.581   1.327   0.571 -0.6584 -0.1071 -0.1898
 6297TIP3    H118836   6.520   1.335   0.498 -1.0243 -0.2354  0.0975
 6297TIP3    H218837   6.535   1.369   0.645 -0.1432  0.3462 -0.1231
 6298TIP3   OH218838   8.160   0.972   4.470 -0.5655  0.0441 -0.0027
 6298TIP3    H118839   8.065   0.989   4.470 -0.7062 -0.6614 -0.7478
 6298TIP3    H218840   8.199   1.057   4.491 -1.3818  0.1661  1.1095
 6299TIP3   OH218841   4.982   5.779   3.177 -0.4094  0.0839 -0.8996
 6299TIP3    H118842   5.072   5.748   3.172 -0.6226 -0.6364 -0.3687
 6299TIP3    H218843   4.984   5.847   3.245 -0.1707  0.4409 -1.2578
 6300TIP3   OH218844   7.864   6.099   3.724  0.1933  0.1331 -0.3909
 6300TIP3    H118845   7.794   6.094   3.659  0.3217  1.7959 -0.7070
 6300TIP3    H218846   7.944   6.081   3.675 -0.0442 -4.4205  0.4184
 6301TIP3   OH218847   3.111   4.507   5.110  0.6211 -0.5701 -0.2895
 6301TIP3    H118848   3.023   4.472   5.125 -0.2360  1.6040  0.0146
 6301TIP3    H218849   3.170   4.436   5.139 -0.9748 -2.4277 -1.3725
 6302TIP3   OH218850   3.487   1.672   3.212  0.1399 -0.3127 -0.2291
 6302TIP3    H118851   3.513   1.718   3.292  0.4760  0.9391 -1.0311
 6302TIP3    H218852   3.567   1.668   3.160  0.0946 -1.7541 -0.2303
 6303TIP3   OH218853   7.168   7.198   0.591  0.1888 -0.3355  0.6381
 6303TIP3    H118854   7.191   7.278   0.546  3.1749 -1.2927  0.2526
 6303TIP3    H218855   7.148   7.226   0.681 -2.1027  1.1133 -0.2148
 6304TIP3   OH218856   2.740   2.695   3.161  0.6516 -0.1765 -0.3189
 6304TIP3    H118857   2.663   2.638   3.172  1.2725 -1.1515 -0.8769
 6304TIP3    H218858   2.755   2.697   3.067  1.5542 -0.3344 -0.1854
 6305TIP3   OH218859   0.355   1.949   2.516  0.5249  0.0754  0.2831
 6305TIP3    H118860   0.350   1.954   2.612  2.1199  0.5148  0.3674
 6305TIP3    H218861   0.279   1.999   2.486 -1.0386 -1.5827  1.2875
 6306TIP3   OH218862   7.375   5.340   2.825  0.2333 -0.5243 -0.3782
 6306TIP3    H118863   7.284   5.313   2.832 -0.2714  1.2467  0.4769
 6306TIP3    H218864   7.425   5.265   2.858 -0.9254 -1.3262 -0.4023
 6307TIP3   OH218865   4.760   1.373   3.559  0.1777 -0.5238 -0.4725
 6307TIP3    H118866   4.838   1.319   3.551  0.9313  0.6979 -1.7532
 6307TIP3    H218867   4.772   1.421   3.641  0.5790 -0.6126 -0.4792
 6308TIP3   OH218868   5.697   4.544   0.528 -0.5512  0.1139  0.0954
 6308TIP3    H118869   5.770   4.542   0.589  0.1249  1.3717 -0.6300
 6308TIP3    H218870   5.641   4.471   0.555 -1.3215  1.7794  3.4691
 6309TIP3   OH218871   6.654   2.138   5.284  0.0246 -0.1936  0.1871
 6309TIP3    H118872   6.734   2.109   5.240 -1.2070 -0.2957 -2.1023
 6309TIP3    H218873   6.592   2.066   5.272 -0.2814 -0.3723  2.4537
 6310TIP3   OH218874   0.458   4.000   4.510 -0.9788  0.4848  0.5669
 6310TIP3    H118875   0.414   3.926   4.469  1.5788 -0.3880 -0.8251
 6310TIP3    H218876   0.460   3.977   4.603  0.7087 -1.8487  0.0588
 6311TIP3   OH218877   7.386   6.872   3.168  0.8835  0.3829  0.1235
 6311TIP3    H118878   7.361   6.889   3.077  0.2346  1.0559  0.4182
 6311TIP3    H218879   7.317   6.814   3.201  1.2804 -0.1048  0.1015
 6312TIP3   OH218880   5.262   1.952   4.007  0.2202  0.4197 -0.1650
 6312TIP3    H118881   5.337   1.894   4.016 -0.8202 -0.9925 -0.2027
 6312TIP3    H218882   5.232   1.966   4.097 -0.5615 -0.5405 -0.2623
 6313TIP3   OH218883   7.880   3.710   2.629  0.1708  0.7667  0.2733
 6313TIP3    H118884   7.953   3.737   2.683  1.2094 -0.4883 -0.4407
 6313TIP3    H218885   7.831   3.647   2.683  1.7735 -1.2641 -0.5002
 6314TIP3   OH218886   5.592   2.996   5.642  0.0144  0.2238 -0.8565
 6314TIP3    H118887   5.607   3.005   5.736  2.6153 -2.0614 -0.9328
 6314TIP3    H218888   5.497   3.001   5.633 -0.5427 -1.6025  2.2154
 6315TIP3   OH218889   0.110   7.221   3.248  0.1456 -0.4475  0.2782
 6315TIP3    H118890   0.195   7.182   3.229  1.3277  2.0292  0.1461
 6315TIP3    H218891   0.067   7.229   3.163 -0.2350 -1.6820  0.3429
 6316TIP3   OH218892   4.980   1.173   1.467 -0.1335 -0.3753 -0.4091
 6316TIP3    H118893   4.949   1.255   1.506 -3.2597 -0.7219 -1.8127
 6316TIP3    H218894   5.064   1.195   1.428 -0.1435  1.7454  0.6008
 6317TIP3   OH218895   6.512   1.936   6.002 -0.2982  0.7643 -0.4355
 6317TIP3    H118896   6.534   1.895   5.919  1.6658  0.6775  0.0769
 6317TIP3    H218897   6.591   1.985   6.026 -0.4811  0.0986  1.7799
 6318TIP3   OH218898   8.127   0.447   2.753  0.1342 -0.1535  0.0402
 6318TIP3    H118899   8.076   0.381   2.706 -2.7408  1.4046  0.7546
 6318TIP3    H218900   8.112   0.427   2.845  1.1333  0.1647  0.2817
 6319TIP3   OH218901   8.073   4.609   5.457  0.1236 -0.1686 -0.5898
 6319TIP3    H118902   8.151   4.665   5.454 -0.4574  0.7374  0.6584
 6319TIP3    H218903   8.054   4.599   5.550 -2.1404  0.9103 -0.8843
 6320TIP3   OH218904   3.506   1.957   0.016  0.1318 -0.1376  0.5969
 6320TIP3    H118905   3.540   1.954   0.106  1.6348 -0.9353  0.0460
 6320TIP3    H218906   3.476   1.868  -0.001 -0.2927  0.0496  0.3525
 6321TIP3   OH218907   0.438   4.016   0.860 -0.0325 -0.0955  0.1831
 6321TIP3    H118908   0.348   4.018   0.893  0.2901 -1.9937  1.3281
 6321TIP3    H218909   0.467   4.107   0.862 -2.0303  0.6086 -0.5762
 6322TIP3   OH218910   0.892   3.263   6.234  0.0666  0.7210 -0.1688
 6322TIP3    H118911   0.819   3.209   6.205  0.5281 -0.5090  0.8637
 6322TIP3    H218912   0.875   3.349   6.196 -2.6356  0.8391  1.1104
 6323TIP3   OH218913   5.140   3.371   5.147 -0.0930  0.5105  0.1342
 6323TIP3    H118914   5.058   3.420   5.151 -0.5229 -0.1914 -0.0295
 6323TIP3    H218915   5.134   3.320   5.067  0.4815  0.4119  0.1513
 6324TIP3   OH218916   6.730   6.217   0.057 -0.2420  0.1902  0.4036
 6324TIP3    H118917   6.676   6.140   0.072 -2.0486  1.2453 -0.3477
 6324TIP3    H218918   6.701   6.280   0.124  1.0549  0.3184  0.8707
 6325TIP3   OH218919   2.987   7.029   4.607 -0.4152  0.1681 -0.5274
 6325TIP3    H118920   2.927   6.958   4.627 -0.6870  0.7876  1.0121
 6325TIP3    H218921   2.962   7.100   4.666  0.7425  1.0489 -1.0342
 6326TIP3   OH218922   5.032   4.875   5.658  0.1855  0.4801 -0.0142
 6326TIP3    H118923   4.989   4.792   5.681  0.2508  0.1107 -1.1649
 6326TIP3    H218924   5.120   4.850   5.631  1.3379  1.2676  2.6558
 6327TIP3   OH218925   5.812   6.854   2.572 -0.0213 -0.1522 -0.4691
 6327TIP3    H118926   5.773   6.841   2.659 -0.9411 -0.5458 -0.9284
 6327TIP3    H218927   5.858   6.938   2.579 -1.8282  0.8837 -0.1781
 6328TIP3   OH218928   5.207   1.483   1.174 -0.1233  0.3622 -0.1004
 6328TIP3    H118929   5.184   1.508   1.264 -0.3625  0.2235 -0.1255
 6328TIP3    H218930   5.265   1.554   1.145 -0.2253  0.5237  0.0842
 6329TIP3   OH218931   5.552   7.093   0.615 -0.2033  0.3404 -0.0277
 6329TIP3    H118932   5.505   7.065   0.693  0.2118 -0.5692 -0.0972
 6329TIP3    H218933   5.521   7.036   0.545  0.7659 -0.0718 -0.1396
 6330TIP3   OH218934   5.613   2.660   0.213 -0.0957 -0.6870 -0.0040
 6330TIP3    H118935   5.615   2.574   0.256  0.9882 -0.9579 -0.5607
 6330TIP3    H218936   5.678   2.653   0.143  0.3422  0.7466  0.2411
 6331TIP3   OH218937   5.773   4.625   5.672  0.3710 -0.0410 -0.0659
 6331TIP3    H118938   5.717   4.575   5.612 -0.1070  1.2677 -0.7486
 6331TIP3    H218939   5.732   4.615   5.758 -0.5781  0.4180 -0.4586
 6332TIP3   OH218940   7.356   0.200   2.451 -0.0457  0.2414  0.3348
 6332TIP3    H118941   7.395   0.153   2.377 -2.2367  0.1617 -0.8502
 6332TIP3    H218942   7.262   0.187   2.440 -0.4396 -0.3552  3.5786
 6333TIP3   OH218943   0.213   4.366   0.882  0.2843  0.2088 -0.0828
 6333TIP3    H118944   0.273   4.372   0.807  1.3045  3.4855  0.8129
 6333TIP3    H218945   0.271   4.355   0.958 -0.6466 -1.5997  0.4225
 6334TIP3   OH218946   3.812   2.469   0.146  0.2477  0.0653  0.1120
 6334TIP3    H118947   3.729   2.515   0.136  0.0835  0.0476  1.2068
 6334TIP3    H218948   3.790   2.391   0.197  0.6408 -0.8698 -1.0940
 6335TIP3   OH218949   7.735   3.234   0.664  0.7557  0.2129 -0.0757
 6335TIP3    H118950   7.674   3.225   0.737  1.5481  0.8682  0.6948
 6335TIP3    H218951   7.686   3.281   0.597  0.5567  1.1742  0.7232
 6336TIP3   OH218952   6.601   6.765   4.027 -0.0273 -0.7632  0.3978
 6336TIP3    H118953   6.646   6.739   3.947 -0.5498  0.4005 -0.3073
 6336TIP3    H218954   6.671   6.790   4.087  0.4384 -2.8664  0.8005
 6337TIP3   OH218955   5.434   4.966   5.880  0.2250 -0.9206 -0.2924
 6337TIP3    H118956   5.424   5.023   5.804  2.2142 -0.3530 -0.1734
 6337TIP3    H218957   5.380   4.889   5.859 -1.3184  0.3254 -1.1023
 6338TIP3   OH218958   6.271   1.318   2.512 -0.1378 -0.2775 -0.4199
 6338TIP3    H118959   6.189   1.282   2.546 -1.8362  3.3588 -0.2508
 6338TIP3    H218960   6.248   1.354   2.427  0.9173  1.9244  0.1521
 6339TIP3   OH218961   3.031   4.900   5.224 -0.1292  0.4350 -0.1575
 6339TIP3    H118962   2.979   4.820   5.215 -0.5386  0.1810  3.1567
 6339TIP3    H218963   2.967   4.968   5.244  0.5277  0.4629  2.2306
 6340TIP3   OH218964   6.555   4.269   3.204  0.0014 -0.4005 -0.2978
 6340TIP3    H118965   6.587   4.212   3.133  2.3595 -0.1053  0.4239
 6340TIP3    H218966   6.511   4.210   3.264  0.6858 -1.1585 -0.5220
 6341TIP3   OH218967   1.304   1.319   2.698  0.1064  0.2607  0.1766
 6341TIP3    H118968   1.339   1.362   2.620  0.9416 -0.4099  0.1690
 6341TIP3    H218969   1.380   1.278   2.739 -0.4824 -0.2108  0.8243
 6342TIP3   OH218970   5.323   4.869   0.578 -0.0290 -0.7553  0.3244
 6342TIP3    H118971   5.417   4.855   0.588 -0.0686 -0.2629  1.5310
 6342TIP3    H218972   5.298   4.921   0.655 -1.4567 -1.6661  0.5066
 6343TIP3   OH218973   5.794   3.513   2.080  0.6490 -0.2044  0.0044
 6343TIP3    H118974   5.833   3.430   2.051  0.8096  0.0025 -0.3893
 6343TIP3    H218975   5.852   3.580   2.043  0.9699  0.0719  0.9884
 6344TIP3   OH218976   3.560   5.745   2.053  0.3494 -0.4137  0.1060
 6344TIP3    H118977   3.607   5.790   2.122 -1.1538 -0.1587  1.0133
 6344TIP3    H218978   3.488   5.804   2.030 -0.9549 -1.7999  0.4745
 6345TIP3   OH218979   6.149   2.054   0.674  0.2283 -0.4232 -0.0799
 6345TIP3    H118980   6.098   2.043   0.594 -1.6602 -0.3081  1.0623
 6345TIP3    H218981   6.091   2.101   0.733  1.8524  0.1307  1.1312
 6346TIP3   OH218982   4.785   6.055   3.886 -0.1309 -0.1309  0.2127
 6346TIP3    H118983   4.781   6.144   3.851  2.0039 -0.1175 -0.1162
 6346TIP3    H218984   4.795   6.067   3.981 -0.2374 -0.0343  0.2120
 6347TIP3   OH218985   6.963   7.550   4.949  0.0253 -1.1255 -0.1777
 6347TIP3    H118986   6.954   7.639   4.983 -1.0567 -1.6673  1.0288
 6347TIP3    H218987   6.979   7.561   4.855  0.4865  0.3430  0.0567
 6348TIP3   OH218988   7.432   3.579   4.486 -0.4465  0.0969  0.2043
 6348TIP3    H118989   7.437   3.669   4.455  0.5901  0.2362  0.7216
 6348TIP3    H218990   7.459   3.584   4.578  0.0698 -0.7952  0.1154
 6349TIP3   OH218991   1.028   2.183   1.702 -0.1142  0.0284  0.3693
 6349TIP3    H118992   1.046   2.151   1.614  0.7585 -2.2719  1.3306
 6349TIP3    H218993   1.028   2.279   1.693 -0.7171 -0.1430 -2.2192
 6350TIP3   OH218994   2.278   0.013   1.219  0.1675 -0.1095 -0.0527
 6350TIP3    H118995   2.366   0.038   1.247  0.9773 -0.9365 -1.7482
 6350TIP3    H218996   2.279   0.023   1.124 -0.0779 -4.3963 -0.6994
 6351TIP3   OH218997   0.809   0.586   4.062 -0.1015  0.1242  0.2934
 6351TIP3    H118998   0.904   0.592   4.073 -0.1553  0.7494  0.5079
 6351TIP3    H218999   0.788   0.495   4.079  0.4359  0.0315  0.4786
 6352TIP3   OH219000   1.486   4.539   3.923 -0.2497 -0.4625 -0.4494
 6352TIP3    H119001   1.463   4.541   4.016  0.1940 -1.6681 -0.2925
 6352TIP3    H219002   1.489   4.446   3.901  0.8393 -0.2322 -1.3683
 6353TIP3   OH219003   2.926   6.525   4.978  0.0476 -0.3377 -0.0740
 6353TIP3    H119004   2.966   6.476   4.906  0.0051 -0.1590 -0.2195
 6353TIP3    H219005   2.965   6.487   5.057  2.0261  1.1519 -0.2631
 6354TIP3   OH219006   4.241   1.862   6.351 -0.2239 -0.2281  0.1606
 6354TIP3    H119007   4.190   1.839   6.428 -1.9921  0.7023 -0.6578
 6354TIP3    H219008   4.231   1.957   6.343  0.7255 -0.1820 -0.6729
 6355TIP3   OH219009   0.314   4.137   1.755 -0.2691 -0.4758 -0.1544
 6355TIP3    H119010   0.284   4.046   1.747  0.4919 -0.9081  1.4754
 6355TIP3    H219011   0.392   4.141   1.700  0.7316 -1.3592  1.1118
 6356TIP3   OH219012   1.735   7.367   0.318  0.0679  0.1334 -0.2620
 6356TIP3    H119013   1.756   7.460   0.311 -0.7552  0.2351 -1.9535
 6356TIP3    H219014   1.769   7.328   0.237 -0.9849 -0.7279 -0.3174
 6357TIP3   OH219015   4.770   1.490   1.885 -0.2269  1.1276 -0.3658
 6357TIP3    H119016   4.738   1.562   1.831 -3.4493 -0.0847 -0.3037
 6357TIP3    H219017   4.763   1.413   1.828  2.1149  0.6540 -0.0948
 6358TIP3   OH219018   6.596   0.670   1.318  0.0292 -0.1164  0.0728
 6358TIP3    H119019   6.540   0.596   1.342 -1.5752  0.7110 -0.9368
 6358TIP3    H219020   6.576   0.737   1.384 -0.5618  0.3580 -0.5817
 6359TIP3   OH219021   2.018   7.203   2.617 -0.2722  0.4208 -0.5304
 6359TIP3    H119022   1.927   7.177   2.632  0.7224 -2.8625  0.7819
 6359TIP3    H219023   2.029   7.196   2.522 -0.7092 -2.1697 -0.4712
 6360TIP3   OH219024   1.092   2.677   2.747 -0.2845  0.4143  0.1872
 6360TIP3    H119025   1.095   2.741   2.818  0.6451  0.8137 -0.1923
 6360TIP3    H219026   1.004   2.640   2.752 -0.0747  0.0285  1.9114
 6361TIP3   OH219027   4.609   1.532   6.060 -0.9476 -0.3134 -0.0342
 6361TIP3    H119028   4.703   1.517   6.049 -1.0585 -0.3080 -1.0576
 6361TIP3    H219029   4.600   1.567   6.148  0.1429  0.8678 -0.3774
 6362TIP3   OH219030   0.716   4.889   3.167 -0.0914 -0.0244  0.0940
 6362TIP3    H119031   0.787   4.951   3.186  2.3505 -0.9373 -4.4540
 6362TIP3    H219032   0.660   4.935   3.104 -1.3189 -0.6936  0.6507
 6363TIP3   OH219033   4.969   1.046   1.707  0.0968  0.1949  0.3579
 6363TIP3    H119034   4.973   1.082   1.619  2.6208 -1.1007 -0.1417
 6363TIP3    H219035   4.911   0.970   1.700 -0.1728  0.4320 -0.0329
 6364TIP3   OH219036   7.908   4.244   3.237 -0.1506  0.4860 -0.4755
 6364TIP3    H119037   7.986   4.261   3.290 -0.0991 -1.7925  0.2918
 6364TIP3    H219038   7.856   4.183   3.290  0.2138 -2.4819 -3.1782
 6365TIP3   OH219039   3.886   2.696   5.658 -0.2027 -0.1140  0.2064
 6365TIP3    H119040   3.849   2.747   5.587  0.1968  0.2037  0.2262
 6365TIP3    H219041   3.821   2.627   5.674  0.4360 -1.1796 -1.5423
 6366TIP3   OH219042   4.777   7.246   5.139  0.1440 -0.2799  0.1608
 6366TIP3    H119043   4.787   7.180   5.208  0.3211  1.0206  1.4326
 6366TIP3    H219044   4.865   7.282   5.127 -0.4387  1.8935  1.7824
 6367TIP3   OH219045   0.861   3.307   4.492  0.1454  0.3758  0.2276
 6367TIP3    H119046   0.789   3.291   4.552 -1.3297 -0.1745 -1.5973
 6367TIP3    H219047   0.863   3.230   4.436  1.2538  1.0145 -0.6615
 6368TIP3   OH219048   0.750   7.249   4.409 -0.5334 -0.2904  0.4812
 6368TIP3    H119049   0.843   7.248   4.384 -0.8295  0.4026 -0.6823
 6368TIP3    H219050   0.749   7.290   4.495  0.0124  2.0530 -0.5682
 6369TIP3   OH219051   2.293   0.338   4.815 -0.2703 -0.1848 -0.0791
 6369TIP3    H119052   2.377   0.337   4.860 -0.3468 -0.4336  0.0560
 6369TIP3    H219053   2.315   0.329   4.722 -0.1629 -0.4996 -0.0230
 6370TIP3   OH219054   2.621   0.215   4.915  0.2698  0.3278  0.1712
 6370TIP3    H119055   2.680   0.254   4.979  0.2378  0.7531 -0.0584
 6370TIP3    H219056   2.534   0.228   4.951  0.3121 -0.3087  0.5151
 6371TIP3   OH219057   6.497   1.041   2.135  0.4985 -0.8390 -0.1494
 6371TIP3    H119058   6.588   1.055   2.108  0.3696  1.5500  0.4463
 6371TIP3    H219059   6.451   1.018   2.055  1.2750 -0.0415 -0.8448
 6372TIP3   OH219060   6.005   4.963   1.749  0.4113  0.8171  0.1537
 6372TIP3    H119061   5.956   4.957   1.831 -0.5300  0.4575 -0.4222
 6372TIP3    H219062   6.093   4.990   1.776 -0.0665  1.3833  1.2155
 6373TIP3   OH219063   7.588   2.492   5.206  0.0953 -0.2103  0.0345
 6373TIP3    H119064   7.640   2.502   5.286  0.5305 -0.1133 -0.2581
 6373TIP3    H219065   7.607   2.570   5.154 -0.5289 -0.0619  0.0294
 6374TIP3   OH219066   4.859   5.346   2.411  0.1903  0.3569  0.4367
 6374TIP3    H119067   4.846   5.251   2.405  0.9867  0.3168 -1.2203
 6374TIP3    H219068   4.942   5.356   2.458  1.0819  0.1308 -1.0249
 6375TIP3   OH219069   3.801   3.725   6.674  0.3151 -0.3534  0.4988
 6375TIP3    H119070   3.722   3.679   6.704 -0.0792 -1.1993 -1.6444
 6375TIP3    H219071   3.858   3.728   6.751 -0.2071 -3.2382  1.1072
 6376TIP3   OH219072   0.300   3.287   0.064  0.1574 -0.4021  0.2159
 6376TIP3    H119073   0.323   3.351  -0.004 -1.0485 -0.2438 -0.0624
 6376TIP3    H219074   0.261   3.340   0.134 -0.7670 -0.8094  0.0233
 6377TIP3   OH219075   4.801   1.725   5.432 -0.5008 -0.2447  0.3413
 6377TIP3    H119076   4.884   1.684   5.456 -0.1570  0.2314 -0.0008
 6377TIP3    H219077   4.735   1.675   5.478 -0.1307 -1.4126 -0.3422
 6378TIP3   OH219078   7.497   3.365   6.353  0.3958  0.3908 -0.4789
 6378TIP3    H119079   7.556   3.297   6.385  0.8816  0.8809 -0.3052
 6378TIP3    H219080   7.454   3.327   6.277  0.2272 -0.3102 -0.0399
 6379TIP3   OH219081   6.146   5.462   5.368 -0.0267 -0.0229 -0.0224
 6379TIP3    H119082   6.146   5.414   5.451  0.8457 -0.1924 -0.1111
 6379TIP3    H219083   6.191   5.544   5.387 -2.2842  1.2111  0.3491
 6380TIP3   OH219084   4.354   6.644   4.682  0.0494 -0.2417 -0.0917
 6380TIP3    H119085   4.338   6.637   4.776 -1.4777 -1.3589 -0.4053
 6380TIP3    H219086   4.269   6.626   4.641  1.0051 -1.3498 -1.7271
 6381TIP3   OH219087   0.694   4.196   0.582  0.3526  0.8776  0.1054
 6381TIP3    H119088   0.768   4.220   0.526  0.2956 -0.4192 -0.5824
 6381TIP3    H219089   0.640   4.139   0.526 -0.2510  0.4035  1.1482
 6382TIP3   OH219090   6.997   5.350   3.754  0.1623 -0.5099  0.6589
 6382TIP3    H119091   7.070   5.302   3.713  0.5094  0.5202  0.0129
 6382TIP3    H219092   6.939   5.282   3.787 -0.1862 -1.4509 -1.6590
 6383TIP3   OH219093   1.547   5.472   2.156  0.1067 -0.0323 -0.0360
 6383TIP3    H119094   1.620   5.423   2.118 -0.6815 -0.6619 -0.7597
 6383TIP3    H219095   1.480   5.406   2.175  1.0109 -0.0560  3.9892
 6384TIP3   OH219096   0.365   6.492   2.555 -0.8702  0.4511 -0.2314
 6384TIP3    H119097   0.357   6.452   2.642  0.0633 -0.4845 -0.5471
 6384TIP3    H219098   0.310   6.437   2.499 -1.7567  1.2651 -0.1885
 6385TIP3   OH219099   7.169   7.587   0.641 -0.1206  0.1746  0.1186
 6385TIP3    H119100   7.181   7.529   0.716 -1.3119  0.0202  0.2129
 6385TIP3    H219101   7.110   7.539   0.583  1.9212 -0.3619 -1.6671
 6386TIP3   OH219102   1.859   5.830   1.849  0.3358  0.0471 -0.5277
 6386TIP3    H119103   1.823   5.831   1.937  1.6925  0.9457  0.0398
 6386TIP3    H219104   1.811   5.899   1.803 -1.5922 -1.5275 -1.0673
 6387TIP3   OH219105   1.937   4.732   2.224 -0.6421 -0.1233 -1.1190
 6387TIP3    H119106   1.903   4.645   2.244 -0.7904  0.1058 -0.3152
 6387TIP3    H219107   1.861   4.790   2.231  0.1950  0.8586  3.6682
 6388TIP3   OH219108   5.317   0.853   0.182  0.4111  0.5365 -0.4543
 6388TIP3    H119109   5.324   0.841   0.087  1.8192 -0.8456 -0.2173
 6388TIP3    H219110   5.341   0.944   0.197  4.1295 -0.1832 -1.1396
 6389TIP3   OH219111   4.407   5.060   4.492 -0.0039 -0.1181 -0.0693
 6389TIP3    H119112   4.465   5.136   4.486  0.2484 -0.3282 -0.2600
 6389TIP3    H219113   4.461   4.985   4.467  0.1397 -0.5510  1.4376
 6390TIP3   OH219114   3.424   2.520   4.957  0.0315  0.3584  0.1697
 6390TIP3    H119115   3.503   2.553   4.999 -0.3761  1.3122  0.2108
 6390TIP3    H219116   3.455   2.485   4.873  0.8762 -1.7383  1.2861
 6391TIP3   OH219117   6.282   7.826   2.469 -0.3161 -0.3923  0.0003
 6391TIP3    H119118   6.315   7.748   2.514 -1.4179 -0.9854 -0.1896
 6391TIP3    H219119   6.271   7.798   2.378 -1.7871 -0.3751  0.1536
 6392TIP3   OH219120   7.113   7.011   5.832  0.2311  0.5379 -0.0723
 6392TIP3    H119121   7.038   7.025   5.890  0.3225 -0.8568  0.4309
 6392TIP3    H219122   7.082   6.947   5.768  1.1903 -0.6768  0.6243
 6393TIP3   OH219123   7.302   1.201   4.027  0.1661 -1.0116  0.0111
 6393TIP3    H119124   7.371   1.267   4.041  0.1335 -0.7630 -0.8930
 6393TIP3    H219125   7.244   1.242   3.962  0.0593 -1.8659 -0.4380
 6394TIP3   OH219126   6.484   5.180   0.542 -0.4431  0.1543  0.2217
 6394TIP3    H119127   6.442   5.223   0.467  0.0598  0.1043 -0.0980
 6394TIP3    H219128   6.430   5.102   0.558 -0.9937  0.5704  0.4046
 6395TIP3   OH219129   6.392   7.267   4.228 -0.4747 -0.1094 -0.4724
 6395TIP3    H119130   6.423   7.247   4.316 -2.4095  0.8339  0.4767
 6395TIP3    H219131   6.445   7.342   4.201  0.0211 -0.3067 -0.0613
 6396TIP3   OH219132   5.608   6.755   1.043 -0.0476 -0.3462 -0.2666
 6396TIP3    H119133   5.528   6.776   0.995  0.2476  1.0525 -0.1781
 6396TIP3    H219134   5.580   6.741   1.133 -0.4460 -1.8518 -0.5936
 6397TIP3   OH219135   0.204   6.488   4.249  0.6133 -0.0477 -0.1575
 6397TIP3    H119136   0.183   6.539   4.327  0.9445  0.0680 -0.1450
 6397TIP3    H219137   0.150   6.409   4.257 -0.1073  0.4241 -0.3193
 6398TIP3   OH219138   6.431   6.012   5.076 -0.1160  0.1700  0.7674
 6398TIP3    H119139   6.463   5.929   5.113 -1.7818 -0.1352  1.6136
 6398TIP3    H219140   6.467   6.079   5.133 -0.2853 -0.1090  1.2050
 6399TIP3   OH219141   1.819   6.210   3.466  0.4325 -0.0828  0.0013
 6399TIP3    H119142   1.874   6.281   3.432  0.4613  0.2142  0.6592
 6399TIP3    H219143   1.853   6.193   3.554  1.1954 -1.7428 -0.5791
 6400TIP3   OH219144   0.311   2.327   6.633 -0.1853  0.3284  0.4457
 6400TIP3    H119145   0.406   2.339   6.641 -0.4488  2.4363  1.2895
 6400TIP3    H219146   0.286   2.283   6.715  0.3009 -2.7024 -0.8965
 6401TIP3   OH219147   1.324   5.313   2.157 -0.0450  0.5875 -0.6037
 6401TIP3    H119148   1.344   5.233   2.108  0.0744 -1.2403  2.1885
 6401TIP3    H219149   1.238   5.340   2.124 -0.8098 -1.6085 -0.5811
 6402TIP3   OH219150   5.084   3.539   3.353 -0.1158  0.0274  0.0324
 6402TIP3    H119151   5.168   3.522   3.312  0.6034 -0.8898  1.7527
 6402TIP3    H219152   5.020   3.534   3.282  1.1177 -0.8146 -1.0513
 6403TIP3   OH219153   2.500   6.106   4.086  0.1867 -0.0122 -0.1899
 6403TIP3    H119154   2.593   6.092   4.104  0.6764  1.4842 -1.2866
 6403TIP3    H219155   2.494   6.201   4.069 -1.4887 -0.1305 -0.3803
 6404TIP3   OH219156   1.877   1.233   3.988  0.0660  0.2223 -0.2853
 6404TIP3    H119157   1.890   1.152   4.037  0.1106  0.9491  0.9559
 6404TIP3    H219158   1.782   1.247   3.989  0.2117  1.5966  1.9814
 6405TIP3   OH219159   2.276   4.842   6.730  0.3243 -0.4039  0.0596
 6405TIP3    H119160   2.337   4.853   6.658 -0.8782 -0.2509 -0.9622
 6405TIP3    H219161   2.266   4.930   6.767 -0.2471 -0.2006 -0.5776
 6406TIP3   OH219162   1.086   1.160   2.745  0.1303 -0.4020  0.0312
 6406TIP3    H119163   1.156   1.224   2.732 -0.3011  0.2146  0.6326
 6406TIP3    H219164   1.099   1.128   2.834 -1.5475  1.2621  0.9365
 6407TIP3   OH219165   3.360   5.487   2.496  0.0643  0.1423  0.2281
 6407TIP3    H119166   3.307   5.409   2.482 -0.2341  0.5642 -1.0950
 6407TIP3    H219167   3.450   5.458   2.476  0.0674 -0.0674  0.5410
 6408TIP3   OH219168   7.703   7.087   6.593 -0.2347 -0.0859 -0.1356
 6408TIP3    H119169   7.696   7.180   6.615  0.1974  0.3116 -1.5514
 6408TIP3    H219170   7.785   7.059   6.633 -0.9911 -0.2032  1.3847
 6409TIP3   OH219171   7.397   4.969   4.661  0.5986 -0.5556  0.5294
 6409TIP3    H119172   7.451   4.952   4.584  1.5573  1.1582  0.7603
 6409TIP3    H219173   7.456   5.013   4.722 -1.3507  2.7867  0.2266
 6410TIP3   OH219174   0.315   5.233   4.832  0.5211  0.3675  0.9494
 6410TIP3    H119175   0.338   5.325   4.826 -1.1176  0.7319 -1.4696
 6410TIP3    H219176   0.221   5.232   4.850  0.3442 -0.7593  0.1413
 6411TIP3   OH219177   4.072   0.453   2.896  0.1906  0.3691 -0.0397
 6411TIP3    H119178   4.128   0.421   2.825  1.2985 -0.5930  1.2226
 6411TIP3    H219179   3.996   0.396   2.895 -0.2584  0.9585 -1.0337
 6412TIP3   OH219180   1.245   2.798   1.191  0.1810 -0.1038 -0.4422
 6412TIP3    H119181   1.197   2.871   1.230  3.6484  1.6976  0.9432
 6412TIP3    H219182   1.244   2.816   1.097 -1.7954 -0.1981 -0.4770
 6413TIP3   OH219183   5.902   7.116   2.279 -1.1589  0.7336  0.3500
 6413TIP3    H119184   5.987   7.072   2.276  0.1250  3.0631  0.3332
 6413TIP3    H219185   5.838   7.046   2.270  0.7920 -0.8848 -2.0439
 6414TIP3   OH219186   5.095   4.550   5.082  0.3635  0.3920  0.4326
 6414TIP3    H119187   5.083   4.626   5.139  3.0711  2.3836 -1.3802
 6414TIP3    H219188   5.144   4.487   5.136 -1.6182 -0.0570  1.8454
 6415TIP3   OH219189   6.683   2.263   3.316 -0.1729 -0.3926  0.1451
 6415TIP3    H119190   6.751   2.197   3.299  0.3910  0.4278 -0.9203
 6415TIP3    H219191   6.601   2.216   3.302  0.1277 -1.5454  1.9684
 6416TIP3   OH219192   2.171   4.689   2.117 -0.4404  0.1305  0.2456
 6416TIP3    H119193   2.125   4.621   2.068 -0.2256 -0.0646  0.3116
 6416TIP3    H219194   2.111   4.714   2.187 -0.4922 -0.0347  0.2585
 6417TIP3   OH219195   7.808   7.526   0.744  0.1385 -0.2061  0.3928
 6417TIP3    H119196   7.836   7.436   0.725 -0.8973 -0.0122 -2.6420
 6417TIP3    H219197   7.876   7.580   0.704  0.2741  0.3725  1.3828
 6418TIP3   OH219198   2.025   4.126   6.213  0.1860  0.0801  0.1765
 6418TIP3    H119199   2.100   4.158   6.264 -0.2952 -1.2583  1.8491
 6418TIP3    H219200   2.060   4.052   6.163  0.3593  0.5457 -0.3943
 6419TIP3   OH219201   2.056   2.786   5.961  0.0779  0.1829  0.5823
 6419TIP3    H119202   1.988   2.724   5.933  0.5728 -0.4232  0.6920
 6419TIP3    H219203   2.136   2.753   5.920  0.0537  1.7844 -0.8498
 6420TIP3   OH219204   5.707   1.811   3.202  0.4704 -0.6317 -1.2560
 6420TIP3    H119205   5.698   1.906   3.194  2.1084 -0.5192 -2.4002
 6420TIP3    H219206   5.699   1.793   3.295  0.2633  0.6352 -1.0135
 6421TIP3   OH219207   2.412   7.225   3.556 -0.1797 -0.1855  0.2121
 6421TIP3    H119208   2.483   7.206   3.617  2.0426  1.2929 -1.7245
 6421TIP3    H219209   2.394   7.319   3.569 -1.8654 -0.5392  0.6833
 6422TIP3   OH219210   7.702   7.716   5.547  0.3330  0.1679 -0.4318
 6422TIP3    H119211   7.704   7.696   5.453 -1.7517 -2.4683 -0.0477
 6422TIP3    H219212   7.740   7.638   5.588  2.1106  1.6758  0.9468
 6423TIP3   OH219213   0.200   6.053   3.139 -0.0536  0.3594 -0.2848
 6423TIP3    H119214   0.122   6.056   3.083 -0.7499  2.5346  0.6916
 6423TIP3    H219215   0.251   5.980   3.105 -0.9023  0.9626 -3.1335
 6424TIP3   OH219216   2.947   6.837   4.351  1.2216  0.0122 -0.4537
 6424TIP3    H119217   2.918   6.747   4.366 -0.6552  0.6188 -0.2470
 6424TIP3    H219218   2.871   6.890   4.370  1.4472  1.5089 -3.2593
 6425TIP3   OH219219   2.934   4.427   0.929 -0.2090  0.0849  0.0291
 6425TIP3    H119220   2.952   4.475   1.010 -1.0593  1.0448 -0.3182
 6425TIP3    H219221   3.016   4.384   0.907  0.6295  1.4831  0.3083
 6426TIP3   OH219222   4.609   5.738   2.652 -0.0709 -0.0808  0.3962
 6426TIP3    H119223   4.554   5.665   2.624 -1.1318  0.0245  2.0870
 6426TIP3    H219224   4.642   5.776   2.570 -1.8379 -0.6783 -0.6372
 6427TIP3   OH219225   6.467   5.282   4.829 -0.2383  0.4303 -0.0669
 6427TIP3    H119226   6.424   5.209   4.785 -0.5902  1.8058 -2.1481
 6427TIP3    H219227   6.560   5.258   4.828 -0.6190 -1.6683  2.7459
 6428TIP3   OH219228   1.238   2.074   4.614  0.5763  0.2117  0.2929
 6428TIP3    H119229   1.192   2.136   4.671  1.3449  0.1680  0.9886
 6428TIP3    H219230   1.300   2.127   4.565 -0.0192  0.2342 -0.4452
 6429TIP3   OH219231   7.068   6.435   4.792 -0.2590 -0.0658 -0.1999
 6429TIP3    H119232   7.031   6.369   4.733  0.2647  1.2724 -2.0943
 6429TIP3    H219233   7.038   6.519   4.757  1.0783  0.8313  0.7272
 6430TIP3   OH219234   1.225   1.898   1.686  0.1467 -0.2297  0.7096
 6430TIP3    H119235   1.319   1.883   1.694  0.5004  1.4029 -0.0068
 6430TIP3    H219236   1.198   1.844   1.612  1.1427  1.5548 -1.0404
 6431TIP3   OH219237   2.065   1.089   2.867 -0.2509 -0.2448  0.1030
 6431TIP3    H119238   2.126   1.161   2.850  0.4320 -0.8043  0.1115
 6431TIP3    H219239   2.084   1.062   2.957 -2.0351  0.9847  0.9062
 6432TIP3   OH219240   5.192   7.541   2.805  0.5579 -0.4291 -0.7014
 6432TIP3    H119241   5.147   7.547   2.721  0.6663  1.9162 -0.6627
 6432TIP3    H219242   5.252   7.616   2.806  1.0850 -0.8180  1.1687
 6433TIP3   OH219243   6.795   7.363   3.532  0.0940  0.2255 -0.2771
 6433TIP3    H119244   6.820   7.441   3.481  1.9549 -0.8018 -1.0480
 6433TIP3    H219245   6.849   7.293   3.495  0.2071 -0.9371  1.9738
 6434TIP3   OH219246   6.391   5.975   3.752  0.3648 -0.3051  0.1649
 6434TIP3    H119247   6.477   5.934   3.753  1.4461  1.7718 -1.4292
 6434TIP3    H219248   6.354   5.952   3.667  0.0070  0.1263  0.1999
 6435TIP3   OH219249   1.901   1.081   0.122 -0.6741  0.3343 -0.5573
 6435TIP3    H119250   1.983   1.048   0.085 -0.4689  1.7239 -1.3919
 6435TIP3    H219251   1.833   1.046   0.065 -0.7404 -1.0710  0.3074
 6436TIP3   OH219252   5.720   0.521   2.630  0.9170 -0.7227 -0.3841
 6436TIP3    H119253   5.739   0.548   2.720 -0.1475  0.9438 -0.6050
 6436TIP3    H219254   5.684   0.600   2.589 -0.1099 -1.8796 -1.8190
 6437TIP3   OH219255   4.082   7.421   1.055  0.6031  0.8937  0.4676
 6437TIP3    H119256   4.144   7.377   0.998 -0.3326  0.5786 -0.3361
 6437TIP3    H219257   4.000   7.372   1.044  0.0920  1.5619  1.1558
 6438TIP3   OH219258   7.366   2.290   3.364 -0.1447  0.4213  1.0646
 6438TIP3    H119259   7.446   2.336   3.392 -0.3402  0.6804  1.2035
 6438TIP3    H219260   7.331   2.254   3.445 -0.1802  0.3286  1.0066
 6439TIP3   OH219261   5.065   0.855   4.553  0.7473  0.0683  1.1228
 6439TIP3    H119262   5.015   0.773   4.558 -1.1406  1.0405 -0.3155
 6439TIP3    H219263   5.156   0.828   4.549  0.2932 -1.8689  2.5451
 6440TIP3   OH219264   4.078   2.181   0.942 -0.4742  0.1373 -0.5403
 6440TIP3    H119265   4.044   2.178   1.031  0.2012 -1.0229 -0.3080
 6440TIP3    H219266   4.078   2.090   0.912 -0.2480  0.4547 -1.5550
 6441TIP3   OH219267   1.895   6.579   2.313  0.5654 -0.4318 -0.1843
 6441TIP3    H119268   1.942   6.499   2.290  0.8604  0.0238 -1.2193
 6441TIP3    H219269   1.936   6.648   2.260  0.6727  0.5146  1.0729
 6442TIP3   OH219270   1.608   3.881   3.472  0.4032 -0.2661  0.2782
 6442TIP3    H119271   1.606   3.835   3.389  2.4612 -0.5383  0.3157
 6442TIP3    H219272   1.654   3.821   3.531  1.1942  0.9344  0.9182
 6443TIP3   OH219273   3.790   5.383   4.762 -0.6524  0.0458 -0.2064
 6443TIP3    H119274   3.862   5.321   4.750 -1.2311 -0.4249 -1.3963
 6443TIP3    H219275   3.824   5.465   4.727 -1.3393 -0.6530 -2.7148
 6444TIP3   OH219276   6.264   5.445   1.283 -0.3782 -0.1071 -0.4399
 6444TIP3    H119277   6.331   5.377   1.286  0.2296  0.4250 -1.5024
 6444TIP3    H219278   6.308   5.520   1.244 -1.5819  0.2692 -1.1098
 6445TIP3   OH219279   1.971   0.389   0.078  0.3294 -0.2381  0.3544
 6445TIP3    H119280   2.026   0.453   0.033 -0.4658  0.5138  0.4272
 6445TIP3    H219281   2.013   0.305   0.062 -1.0734 -0.3687 -3.7030
 6446TIP3   OH219282   0.682   5.024   3.627 -0.7168 -0.5041 -0.6259
 6446TIP3    H119283   0.737   4.974   3.688 -0.4685  1.0209  0.4565
 6446TIP3    H219284   0.628   5.079   3.683 -1.0794  0.3316 -1.7627
 6447TIP3   OH219285   4.043   4.922   0.869  1.0004  0.7881  0.3873
 6447TIP3    H119286   4.112   4.986   0.884  1.7559  0.4451 -1.4416
 6447TIP3    H219287   4.088   4.839   0.860  0.1023  0.1172  1.7335
 6448TIP3   OH219288   0.807   4.393   5.253 -0.7913 -0.0418  0.1701
 6448TIP3    H119289   0.751   4.318   5.274 -1.2035  0.2013 -0.0476
 6448TIP3    H219290   0.758   4.441   5.187  0.2960 -0.5671 -1.0483
 6449TIP3   OH219291   6.297   5.118   1.305  0.0531  0.3939 -0.3080
 6449TIP3    H119292   6.321   5.129   1.213 -1.1088  0.9338 -0.5619
 6449TIP3    H219293   6.202   5.125   1.306 -0.0911 -1.1980  0.7276
 6450TIP3   OH219294   1.302   0.313   1.872 -0.1680 -0.1278 -0.0388
 6450TIP3    H119295   1.281   0.405   1.856 -1.4733 -0.4670 -0.3489
 6450TIP3    H219296   1.373   0.316   1.937 -0.9199  1.0772  0.7655
 6451TIP3   OH219297   1.536   4.320   6.478 -0.0976  0.4122 -0.4475
 6451TIP3    H119298   1.532   4.404   6.432  0.4710  1.1615  0.8058
 6451TIP3    H219299   1.446   4.289   6.481 -0.2310  0.6906 -1.4233
 6452TIP3   OH219300   2.745   1.474   0.158 -0.1631  0.2387 -0.6760
 6452TIP3    H119301   2.711   1.438   0.076  0.7370  2.3777 -2.0940
 6452TIP3    H219302   2.668   1.488   0.213 -1.0131  0.4725 -1.8996
 6453TIP3   OH219303   3.637   2.563   0.632 -0.0750 -0.5740  0.3737
 6453TIP3    H119304   3.555   2.611   0.643  0.2885 -0.2527  2.0409
 6453TIP3    H219305   3.615   2.473   0.656  0.2607 -0.2714  1.9714
 6454TIP3   OH219306   1.478   5.760   0.464 -0.0306 -0.2077  0.1099
 6454TIP3    H119307   1.530   5.705   0.405 -1.0132  0.7897 -1.7388
 6454TIP3    H219308   1.523   5.752   0.548  0.4759 -2.9896 -0.3156
 6455TIP3   OH219309   0.991   2.112   6.258 -0.1390 -0.3274 -0.7128
 6455TIP3    H119310   1.028   2.071   6.180  0.4701  0.3042 -0.7683
 6455TIP3    H219311   1.068   2.138   6.310 -0.5340 -0.7141  0.0836
 6456TIP3   OH219312   7.998   1.807   2.207 -0.3654 -0.1815 -0.1801
 6456TIP3    H119313   7.907   1.777   2.212 -0.0760 -1.1231 -0.2573
 6456TIP3    H219314   8.042   1.739   2.155  0.5820 -0.2564  0.6931
 6457TIP3   OH219315   1.446   0.869   1.319  0.4247  0.3062  0.3752
 6457TIP3    H119316   1.436   0.863   1.224  1.4028  1.3988  0.1870
 6457TIP3    H219317   1.385   0.803   1.353  0.0272 -0.0760 -0.9963
 6458TIP3   OH219318   3.236   4.376   3.722  0.5849 -0.0833 -0.4647
 6458TIP3    H119319   3.329   4.393   3.740  0.2188  0.7258  0.8247
 6458TIP3    H219320   3.217   4.295   3.769  0.4697  0.1474 -0.1091
 6459TIP3   OH219321   2.939   6.187   3.833  0.2321  0.8689 -0.3132
 6459TIP3    H119322   2.914   6.245   3.904  0.9197 -0.4226  1.0495
 6459TIP3    H219323   2.985   6.115   3.876  1.1776  0.3177 -2.1246
 6460TIP3   OH219324   4.485   5.788   1.533  0.2307 -0.1135 -0.4596
 6460TIP3    H119325   4.400   5.753   1.510 -0.0754 -0.4540  1.0375
 6460TIP3    H219326   4.496   5.764   1.625  0.6524  2.4475  0.2329
 6461TIP3   OH219327   1.607   6.097   4.186 -0.1819  0.0872 -0.3364
 6461TIP3    H119328   1.602   6.192   4.171  1.1401  0.2763  0.2402
 6461TIP3    H219329   1.669   6.066   4.120  2.6846  0.3284  2.0318
 6462TIP3   OH219330   2.048   0.239   1.579 -0.3297 -0.2609  0.6730
 6462TIP3    H119331   2.013   0.223   1.667  1.8989  0.1774  1.7208
 6462TIP3    H219332   2.010   0.323   1.553 -1.5633 -0.7295  0.8774
 6463TIP3   OH219333   2.633   5.680   4.320  0.3883 -0.0584 -0.3603
 6463TIP3    H119334   2.694   5.610   4.297  0.0203 -0.7587  0.7494
 6463TIP3    H219335   2.548   5.637   4.329  0.6258 -0.0856  3.1837
 6464TIP3   OH219336   1.124   5.115   6.159 -0.2802  0.1653 -0.0719
 6464TIP3    H119337   1.167   5.174   6.098  0.5858 -1.1281 -0.7518
 6464TIP3    H219338   1.030   5.130   6.145 -0.0972  0.0292 -1.5995
 6465TIP3   OH219339   1.960   7.024   5.133  0.6044  0.1623 -0.4385
 6465TIP3    H119340   1.962   6.929   5.145 -1.7004  0.0194 -0.7977
 6465TIP3    H219341   1.935   7.058   5.219 -2.7418  0.0788 -1.2716
 6466TIP3   OH219342   8.081   0.073   2.263  1.0193  0.0877 -0.2134
 6466TIP3    H119343   8.086  -0.009   2.215 -0.8362  1.2765 -2.6842
 6466TIP3    H219344   8.058   0.047   2.352  1.3629 -2.0927 -0.6980
 6467TIP3   OH219345   7.408   2.963   0.319  0.1821  0.2256  0.0676
 6467TIP3    H119346   7.490   2.923   0.290  0.9368  0.7456  1.4017
 6467TIP3    H219347   7.424   3.057   0.314 -0.0417  0.3261  1.0652
 6468TIP3   OH219348   5.988   1.687   6.505 -1.1912 -0.3712 -0.4883
 6468TIP3    H119349   6.071   1.665   6.548 -1.3228  0.5873  0.3127
 6468TIP3    H219350   6.013   1.729   6.423 -0.8356  0.7941  0.1922
 6469TIP3   OH219351   5.669   6.061   4.661  0.1442 -0.2050  0.3939
 6469TIP3    H119352   5.739   6.055   4.725  0.6998  1.6744 -0.0006
 6469TIP3    H219353   5.686   6.142   4.613 -1.5662 -0.3711 -0.5786
 6470TIP3   OH219354   6.688   6.246   2.495  0.7510  0.3938  1.1276
 6470TIP3    H119355   6.609   6.239   2.548 -0.2554 -1.3552 -0.5127
 6470TIP3    H219356   6.660   6.288   2.414  1.5212 -0.1797  0.5537
 6471TIP3   OH219357   3.996   1.987   5.438  0.0965  0.0338 -0.3206
 6471TIP3    H119358   4.016   2.067   5.486  2.1921  0.3823 -1.6484
 6471TIP3    H219359   3.914   2.008   5.391  0.5868  1.4107 -0.6173
 6472TIP3   OH219360   3.529   1.852   4.614 -1.0941  0.1217 -0.3959
 6472TIP3    H119361   3.578   1.929   4.643 -0.4969 -0.3502 -0.1300
 6472TIP3    H219362   3.437   1.877   4.624 -0.9037  0.5540  0.3631
 6473TIP3   OH219363   6.301   4.547   1.872 -0.1096 -0.1189 -0.0434
 6473TIP3    H119364   6.377   4.583   1.917  0.1850  1.9201 -2.0301
 6473TIP3    H219365   6.243   4.518   1.943  0.4719  2.5524  1.6502
 6474TIP3   OH219366   4.308   5.310   1.848 -0.3045  0.1962  0.5840
 6474TIP3    H119367   4.302   5.404   1.867 -1.3339  0.5066 -1.0192
 6474TIP3    H219368   4.364   5.306   1.770  0.6468 -0.6347  1.2984
 6475TIP3   OH219369   3.490   3.918   0.908  0.2216  0.2294 -0.0943
 6475TIP3    H119370   3.508   3.853   0.841 -0.2216  0.6970 -0.6697
 6475TIP3    H219371   3.433   3.982   0.866  1.0187  1.2389  0.3277
 6476TIP3   OH219372   5.816   3.494   3.032 -0.2875  0.6277  0.2018
 6476TIP3    H119373   5.732   3.535   3.012 -0.4004  0.0334 -0.5771
 6476TIP3    H219374   5.827   3.506   3.127 -1.2690  0.6558  0.3154
 6477TIP3   OH219375   0.587   6.760   1.019 -0.5055 -0.0679 -0.2192
 6477TIP3    H119376   0.544   6.687   1.062 -1.6185  1.1489  0.8119
 6477TIP3    H219377   0.594   6.827   1.087 -3.2023  2.3046 -2.0458
 6478TIP3   OH219378   4.431   5.888   2.032 -0.4600 -0.7606 -0.3995
 6478TIP3    H119379   4.458   5.800   2.059  2.2605  0.3530  0.8978
 6478TIP3    H219380   4.498   5.916   1.970 -1.7503  0.1382 -1.4434
 6479TIP3   OH219381   4.663   4.746   6.043 -0.6295 -0.6818 -0.2728
 6479TIP3    H119382   4.744   4.781   6.005 -1.8859  3.0157  0.0966
 6479TIP3    H219383   4.692   4.672   6.097  2.4105  0.0520 -0.7314
 6480TIP3   OH219384   2.881   2.126   2.172 -0.1618 -0.1315 -0.3669
 6480TIP3    H119385   2.857   2.214   2.203 -0.5437 -0.6538  0.8870
 6480TIP3    H219386   2.963   2.106   2.217 -0.1876 -0.4976 -0.4806
 6481TIP3   OH219387   5.665   2.562   1.832  0.5743 -0.4909 -0.3705
 6481TIP3    H119388   5.734   2.495   1.834  0.0196 -1.0751 -0.2431
 6481TIP3    H219389   5.625   2.557   1.918  0.2376 -0.3042 -0.5165
 6482TIP3   OH219390   6.101   1.933   4.883  0.3888 -0.5907  0.2322
 6482TIP3    H119391   6.080   1.851   4.927  0.1567 -0.2305  0.8163
 6482TIP3    H219392   6.117   1.909   4.792 -2.3118 -0.9565 -0.2249
 6483TIP3   OH219393   4.149   6.560   6.033  0.3149 -0.1066  0.2219
 6483TIP3    H119394   4.111   6.511   6.105  1.1338 -0.0224  0.7276
 6483TIP3    H219395   4.177   6.643   6.073  0.5779  0.0267 -0.2322
 6484TIP3   OH219396   7.404   4.034   5.597 -0.2034 -0.0444  0.2132
 6484TIP3    H119397   7.423   4.056   5.506 -0.8089 -2.1331 -0.4690
 6484TIP3    H219398   7.486   3.998   5.630 -0.6692 -1.6969 -0.3347
 6485TIP3   OH219399   1.248   5.485   3.394 -0.6769 -0.0426  0.1889
 6485TIP3    H119400   1.342   5.466   3.392 -1.1122 -2.6251  0.5301
 6485TIP3    H219401   1.235   5.530   3.477  0.2176  0.1497  0.2424
 6486TIP3   OH219402   5.742   5.713   4.842  0.5348 -0.6035  0.2140
 6486TIP3    H119403   5.691   5.728   4.922 -0.4197 -2.6212  0.0453
 6486TIP3    H219404   5.793   5.794   4.831  0.7792 -0.2748  2.9007
 6487TIP3   OH219405   1.698   0.780   5.653  0.5033 -0.1219  0.6801
 6487TIP3    H119406   1.658   0.693   5.652 -0.5940  0.3771  0.6201
 6487TIP3    H219407   1.662   0.821   5.732  2.1333 -0.2210  1.5207
 6488TIP3   OH219408   5.632   0.512   6.075  0.0782 -0.1616 -0.1538
 6488TIP3    H119409   5.665   0.512   5.985 -0.3866 -2.7834 -0.4019
 6488TIP3    H219410   5.578   0.591   6.081  0.5922  0.3708 -1.9775
 6489TIP3   OH219411   4.469   3.956   4.146 -0.8091 -0.4879 -0.0672
 6489TIP3    H119412   4.485   3.865   4.121  1.7073  0.2734 -1.5429
 6489TIP3    H219413   4.465   3.953   4.242  1.4174 -1.8800  0.0485
 6490TIP3   OH219414   1.513   4.909   6.231  0.0669  0.2604 -0.0610
 6490TIP3    H119415   1.566   4.909   6.152  0.1771 -1.1443 -0.0101
 6490TIP3    H219416   1.424   4.888   6.201 -0.1502  0.9820  0.0499
 6491TIP3   OH219417   3.916   3.037   3.945 -0.0079 -0.4451 -0.2674
 6491TIP3    H119418   3.948   2.965   4.000  1.5384  0.2500 -0.2082
 6491TIP3    H219419   3.873   3.097   4.006  0.2390 -0.4744 -0.0652
 6492TIP3   OH219420   5.451   4.142   6.149 -0.0596  0.3353 -0.3165
 6492TIP3    H119421   5.363   4.169   6.122 -0.6647  0.0863  1.3394
 6492TIP3    H219422   5.440   4.110   6.238  1.4971 -0.8830 -0.5300
 6493TIP3   OH219423   0.248   6.404   5.897  0.1077 -0.0446  0.2034
 6493TIP3    H119424   0.171   6.396   5.952  0.7018 -0.3560  1.0071
 6493TIP3    H219425   0.313   6.447   5.952  0.3568  0.6794 -0.6267
 6494TIP3   OH219426   7.514   4.067   6.242 -0.1148 -0.1337 -0.3031
 6494TIP3    H119427   7.469   4.034   6.164 -1.0320  1.4881 -0.4979
 6494TIP3    H219428   7.448   4.117   6.289  0.3422 -1.2994  1.7008
 6495TIP3   OH219429   7.409   6.104   3.895 -0.0967  0.1353  0.4060
 6495TIP3    H119430   7.496   6.128   3.864 -0.2311  0.2505  0.1122
 6495TIP3    H219431   7.373   6.185   3.930 -0.1341  0.1163  0.4114
 6496TIP3   OH219432   7.114   0.206   5.144  0.2218  0.0415  0.0828
 6496TIP3    H119433   7.160   0.235   5.065  0.3270 -0.2852  0.0211
 6496TIP3    H219434   7.166   0.242   5.217 -0.2473  0.8999 -0.0003
 6497TIP3   OH219435   2.270   6.098   3.932 -0.5922  0.5054  0.3375
 6497TIP3    H119436   2.222   6.119   4.012  0.0873  0.1810  0.8374
 6497TIP3    H219437   2.357   6.070   3.962  0.0731  1.5128 -0.5776
 6498TIP3   OH219438   0.476   3.573   5.843 -0.7699  0.2851  0.6180
 6498TIP3    H119439   0.530   3.649   5.822 -0.9877  0.9405  2.2852
 6498TIP3    H219440   0.538   3.501   5.855 -0.4820  0.4310  0.0077
 6499TIP3   OH219441   4.138   0.002   0.537 -0.1339 -0.1844  0.3343
 6499TIP3    H119442   4.157   0.066   0.605  1.5045 -0.8892  0.5770
 6499TIP3    H219443   4.223  -0.021   0.500 -1.0039  0.5702 -2.3608
 6500TIP3   OH219444   5.600   5.122   4.662 -0.2719  0.1725  0.3115
 6500TIP3    H119445   5.605   5.161   4.575  0.4644 -1.2141 -0.2855
 6500TIP3    H219446   5.597   5.028   4.647 -1.6560 -0.0592  1.7341
 6501TIP3   OH219447   4.102   2.819   2.946 -0.2125  0.2378 -0.0820
 6501TIP3    H119448   4.166   2.761   2.904  0.1620  0.0144  0.7631
 6501TIP3    H219449   4.035   2.759   2.980  0.1555  0.2946  0.7610
 6502TIP3   OH219450   1.167   1.233   1.877 -0.1690  0.5526 -0.2945
 6502TIP3    H119451   1.120   1.153   1.856  0.0262  0.8434 -1.9248
 6502TIP3    H219452   1.134   1.258   1.964 -1.8668 -0.0739 -0.7255
 6503TIP3   OH219453   3.485   0.802   0.746 -0.6999 -0.0885  0.3966
 6503TIP3    H119454   3.392   0.785   0.731 -0.2222 -1.6037 -1.2183
 6503TIP3    H219455   3.521   0.718   0.774  0.2409  0.4094  0.7348
 6504TIP3   OH219456   1.529   5.772   2.640 -0.7015  0.6948  0.6882
 6504TIP3    H119457   1.557   5.727   2.561  1.7963 -0.0397  1.8952
 6504TIP3    H219458   1.437   5.793   2.624 -0.5671 -0.3381 -1.9540
 6505TIP3   OH219459   4.993   4.252   0.775 -0.3925  0.4990 -0.0436
 6505TIP3    H119460   4.993   4.161   0.747  0.3445  0.6865 -0.6754
 6505TIP3    H219461   4.947   4.251   0.859 -1.1042 -0.3275 -0.4238
 6506TIP3   OH219462   7.551   7.449   2.710 -0.2927  0.3513  0.2880
 6506TIP3    H119463   7.528   7.517   2.647 -1.7524  0.6494  1.0838
 6506TIP3    H219464   7.641   7.424   2.688 -0.2665  1.4624 -0.9656
 6507TIP3   OH219465   5.408   5.334   6.363  0.0860 -0.0258 -0.2477
 6507TIP3    H119466   5.373   5.251   6.331  0.1652  0.2987 -1.2104
 6507TIP3    H219467   5.333   5.393   6.363  0.0133 -0.1073  0.5092
 6508TIP3   OH219468   4.027   3.066   2.835 -0.2863 -0.5045 -0.3442
 6508TIP3    H119469   4.112   3.109   2.846 -0.6980 -0.2072  2.1151
 6508TIP3    H219470   4.039   2.979   2.871 -1.3219 -0.0340  1.2535
 6509TIP3   OH219471   7.241   5.636   5.523  0.4044  0.2549 -0.5774
 6509TIP3    H119472   7.320   5.614   5.473  0.8317  0.3490  0.0548
 6509TIP3    H219473   7.272   5.656   5.611 -0.5978 -2.4738  0.5097
 6510TIP3   OH219474   4.973   0.557   6.013 -0.2331  0.6472  0.1372
 6510TIP3    H119475   4.882   0.586   6.013 -0.4191  0.0689  0.2079
 6510TIP3    H219476   5.022   0.631   5.977 -0.8123  0.7207 -0.5194
 6511TIP3   OH219477   3.020   0.972   3.742  0.5607  0.0829 -0.5895
 6511TIP3    H119478   3.112   0.992   3.724  0.6487  0.1085 -0.1085
 6511TIP3    H219479   2.994   0.916   3.669  0.7633  0.6268 -1.0885
 6512TIP3   OH219480   4.196   2.357   4.371 -0.1924  0.2574  0.2849
 6512TIP3    H119481   4.233   2.424   4.313  0.1763  1.2496  1.5972
 6512TIP3    H219482   4.137   2.306   4.316  0.6499  0.7327 -1.1011
 6513TIP3   OH219483   4.939   6.261   0.328 -0.4481  0.4346  0.0714
 6513TIP3    H119484   4.954   6.179   0.376  0.0623  0.9661  0.8451
 6513TIP3    H219485   4.848   6.284   0.348 -0.9344 -0.4699 -0.9969
 6514TIP3   OH219486   0.462   1.124   3.073  0.1317 -0.5978 -0.1766
 6514TIP3    H119487   0.548   1.162   3.060  0.3333 -1.2913 -0.9258
 6514TIP3    H219488   0.456   1.109   3.167  0.1713  0.9513  0.1000
 6515TIP3   OH219489   3.585   5.284   2.163  0.0794 -0.2333  0.3539
 6515TIP3    H119490   3.649   5.226   2.122 -1.5130 -1.8026 -0.0568
 6515TIP3    H219491   3.566   5.243   2.247  0.4501  0.8640  0.9985
 6516TIP3   OH219492   3.777   1.918   2.948  0.3407 -0.1843 -0.1628
 6516TIP3    H119493   3.734   1.918   2.863 -1.3411 -0.3418  0.6454
 6516TIP3    H219494   3.846   1.984   2.941 -0.5212  0.6206 -1.2811
 6517TIP3   OH219495   4.297   0.870   1.683  0.5754 -0.4273  0.5501
 6517TIP3    H119496   4.330   0.948   1.729  1.4739 -1.0545  0.9920
 6517TIP3    H219497   4.214   0.851   1.726  1.2502 -0.8133  1.7280
 6518TIP3   OH219498   0.942   0.199   3.214 -0.0580  0.2698  0.3218
 6518TIP3    H119499   0.889   0.279   3.215  1.2393  1.1671  0.0170
 6518TIP3    H219500   0.898   0.142   3.150  0.3544  1.7301 -1.3397
 6519TIP3   OH219501   0.741   7.562   1.721  0.0739 -0.0135  0.0336
 6519TIP3    H119502   0.749   7.583   1.814 -1.2134  0.1036  0.1484
 6519TIP3    H219503   0.734   7.647   1.677  1.2588 -0.0483 -0.2504
 6520TIP3   OH219504   0.472   2.152   5.094  0.2772 -0.7655 -0.4305
 6520TIP3    H119505   0.560   2.162   5.131 -0.5807  1.1915  1.2655
 6520TIP3    H219506   0.421   2.223   5.133 -1.7712 -1.0804 -2.3234
 6521TIP3   OH219507   5.553   1.370   0.382  0.3477  0.5626  0.0236
 6521TIP3    H119508   5.474   1.423   0.392  0.0308  0.1011 -0.0048
 6521TIP3    H219509   5.596   1.374   0.467  0.6001  1.2946 -0.1316
 6522TIP3   OH219510   6.197   7.052   5.215  0.2785 -1.0248  0.0648
 6522TIP3    H119511   6.215   7.116   5.284 -0.3270 -3.7279  2.9814
 6522TIP3    H219512   6.278   7.048   5.164  1.3704 -0.0200  1.6419
 6523TIP3   OH219513   2.824   4.039   0.984 -0.3620  0.3807 -0.0211
 6523TIP3    H119514   2.900   4.050   0.927  0.0969 -0.6383  0.3650
 6523TIP3    H219515   2.748   4.047   0.925  0.0485  1.2026 -0.4407
 6524TIP3   OH219516   6.792   3.584   0.918  0.5480  0.2716 -0.4926
 6524TIP3    H119517   6.783   3.635   0.837 -1.2331  1.9610  0.6622
 6524TIP3    H219518   6.815   3.496   0.889  0.7050  1.0021 -2.7843
 6525TIP3   OH219519   1.838   5.244   3.117  0.4012 -0.4336 -0.0930
 6525TIP3    H119520   1.830   5.334   3.149  0.4263  0.2548 -1.9232
 6525TIP3    H219521   1.875   5.196   3.191  0.6833  1.1170  0.8247
 6526TIP3   OH219522   6.501   2.878   2.320 -0.4012 -0.4246  0.2028
 6526TIP3    H119523   6.487   2.960   2.274 -2.5657 -1.2700 -0.8106
 6526TIP3    H219524   6.585   2.846   2.288 -0.3380  0.5812 -0.6808
 6527TIP3   OH219525   0.704   3.281   3.027  0.2290 -0.5977 -0.5342
 6527TIP3    H119526   0.677   3.240   3.109 -0.1527  0.3921 -0.1467
 6527TIP3    H219527   0.654   3.363   3.024  2.1690  0.6678 -0.4623
 6528TIP3   OH219528   1.398   0.030   4.367  0.1508 -0.3107 -0.4536
 6528TIP3    H119529   1.397   0.100   4.433  0.4257  0.9472 -1.7237
 6528TIP3    H219530   1.484  -0.010   4.377  0.1889 -0.1347 -0.0432
 6529TIP3   OH219531   4.595   4.040   0.899  0.0397  0.0087  0.4265
 6529TIP3    H119532   4.642   4.027   0.981  2.3459  0.0021 -0.7993
 6529TIP3    H219533   4.592   3.953   0.858 -1.1670 -0.0100  0.5018
 6530TIP3   OH219534   4.441   1.535   0.926  0.2461 -0.3132  0.1551
 6530TIP3    H119535   4.488   1.452   0.914  0.9697  0.1979 -0.6347
 6530TIP3    H219536   4.375   1.515   0.992  0.6096 -1.4418  0.2053
 6531TIP3   OH219537   2.798   6.537   1.976  0.2156 -0.1671  0.8037
 6531TIP3    H119538   2.857   6.477   2.023  0.9143  0.4484  0.7295
 6531TIP3    H219539   2.818   6.523   1.884 -1.1712 -1.3868  0.6680
 6532TIP3   OH219540   8.215   7.563   3.391 -1.1140  0.6119  0.1327
 6532TIP3    H119541   8.137   7.617   3.389 -1.8206 -0.3771 -0.0021
 6532TIP3    H219542   8.190   7.488   3.445 -0.2230  0.3405  0.1767
 6533TIP3   OH219543   2.827   6.079   0.580 -0.0242 -0.1272 -0.0895
 6533TIP3    H119544   2.891   6.105   0.646 -1.7779  4.3043  0.2069
 6533TIP3    H219545   2.743   6.078   0.627 -0.8614 -0.6577 -1.5063
 6534TIP3   OH219546   6.453   2.583   4.199 -0.3292 -0.3706 -0.0383
 6534TIP3    H119547   6.384   2.613   4.140  1.1414  1.2611 -1.0249
 6534TIP3    H219548   6.520   2.546   4.141  0.3689 -0.3901  0.7574
 6535TIP3   OH219549   0.965   2.287   0.383 -0.2891  0.2757 -0.1592
 6535TIP3    H119550   0.972   2.357   0.318 -0.1939 -1.1769 -1.7890
 6535TIP3    H219551   0.949   2.208   0.331  0.8479 -1.1185  1.5027
 6536TIP3   OH219552   2.014   2.306   6.432  0.1302  0.0784  0.7587
 6536TIP3    H119553   2.023   2.370   6.502  0.2853  0.2132  0.6143
 6536TIP3    H219554   1.944   2.248   6.462 -0.2240  0.4979  0.7511
 6537TIP3   OH219555   4.381   6.857   6.688  0.2783 -0.0082  0.9802
 6537TIP3    H119556   4.460   6.905   6.715 -0.2655  1.7913 -0.4202
 6537TIP3    H219557   4.335   6.841   6.770  0.6284  1.6731  1.5617
 6538TIP3   OH219558   1.887   1.521   6.390  0.2421  0.0430 -0.2339
 6538TIP3    H119559   1.869   1.586   6.458  1.1974 -1.0874  1.1426
 6538TIP3    H219560   1.802   1.506   6.348 -0.8675 -0.7513  2.1074
 6539TIP3   OH219561   0.427   1.701   1.661 -0.4213 -0.1269 -0.2226
 6539TIP3    H119562   0.433   1.661   1.574 -2.6352  0.6109 -0.7783
 6539TIP3    H219563   0.374   1.780   1.647 -0.1399  0.4386  1.6676
 6540TIP3   OH219564   5.879   5.225   3.351 -0.1696  0.0718  0.6987
 6540TIP3    H119565   5.842   5.285   3.416 -1.0257  1.3185 -0.8696
 6540TIP3    H219566   5.809   5.214   3.287  0.2606 -2.0227  0.5366
 6541TIP3   OH219567   0.300   5.240   1.169  0.0702 -0.4491  0.1352
 6541TIP3    H119568   0.240   5.243   1.095  1.3283 -1.9240 -1.0050
 6541TIP3    H219569   0.244   5.220   1.244 -0.8600 -2.2229 -0.9616
 6542TIP3   OH219570   0.796   1.384   3.275  0.0462  0.0533 -0.2859
 6542TIP3    H119571   0.768   1.463   3.228  0.6180 -1.0916 -2.6702
 6542TIP3    H219572   0.889   1.398   3.293 -0.0843  0.3218  0.2238
 6543TIP3   OH219573   2.154   0.750   3.439 -0.4876 -0.4065 -0.0174
 6543TIP3    H119574   2.223   0.811   3.414  0.4474 -1.6361 -0.5748
 6543TIP3    H219575   2.175   0.670   3.391 -1.7681 -1.1161  0.5538
 6544TIP3   OH219576   8.197   6.296   2.017 -0.1372  0.5763  0.0672
 6544TIP3    H119577   8.151   6.316   1.935 -0.7336 -3.0554 -0.6365
 6544TIP3    H219578   8.136   6.240   2.066  1.5790 -0.2201  1.4041
 6545TIP3   OH219579   1.176   6.629   6.537  0.6396 -0.3130  0.0865
 6545TIP3    H119580   1.234   6.554   6.521  1.1137  0.1087 -0.2142
 6545TIP3    H219581   1.108   6.595   6.595  1.8475 -0.5352  1.4273
 6546TIP3   OH219582   7.689   1.493   0.820  0.1003 -0.8227 -0.7779
 6546TIP3    H119583   7.642   1.501   0.903 -0.3987 -0.3682 -1.1000
 6546TIP3    H219584   7.625   1.457   0.759 -0.1620  0.7446 -1.4806
 6547TIP3   OH219585   5.631   3.079   0.875 -0.2784  0.3712  0.2510
 6547TIP3    H119586   5.607   3.043   0.960  1.1774  1.4654  1.1814
 6547TIP3    H219587   5.562   3.143   0.856  0.0020  0.9630  1.1860
 6548TIP3   OH219588   2.936   7.763   2.872  0.3833 -0.3714 -0.0306
 6548TIP3    H119589   3.029   7.740   2.879  0.4768 -1.8153 -3.8680
 6548TIP3    H219590   2.936   7.858   2.864  1.3596 -0.2319  1.1363
 6549TIP3   OH219591   3.810   6.387   6.227 -0.4706 -0.1805 -0.1225
 6549TIP3    H119592   3.878   6.358   6.165  0.9383 -1.3610  1.8474
 6549TIP3    H219593   3.732   6.338   6.202  0.1030 -0.7398 -0.8657
 6550TIP3   OH219594   4.045   7.052   2.846 -0.1248 -0.0414 -0.7284
 6550TIP3    H119595   4.025   7.046   2.753 -0.4258  0.6388 -0.7124
 6550TIP3    H219596   4.033   6.963   2.879 -0.5466 -0.1766 -1.2338
 6551TIP3   OH219597   1.327   0.577   0.738  0.6997 -0.0388 -0.0127
 6551TIP3    H119598   1.262   0.519   0.778 -0.9490  2.2794  0.8477
 6551TIP3    H219599   1.349   0.534   0.655  0.4856 -2.4644  1.0876
 6552TIP3   OH219600   0.361   7.195   5.505  0.4964  0.1305  0.1420
 6552TIP3    H119601   0.281   7.205   5.557  0.9642  2.3159  0.5419
 6552TIP3    H219602   0.423   7.154   5.565  0.2748  0.3013  0.4929
 6553TIP3   OH219603   1.749   6.131   5.317  0.1467  0.1200 -0.1518
 6553TIP3    H119604   1.806   6.086   5.255  0.1872  1.0166 -0.7837
 6553TIP3    H219605   1.809   6.161   5.386  0.2352 -0.1167 -0.1246
 6554TIP3   OH219606   2.116   4.617   6.308  0.5591 -0.0128  0.0779
 6554TIP3    H119607   2.165   4.692   6.274  0.1900 -0.1698 -0.8094
 6554TIP3    H219608   2.028   4.651   6.325  0.6512 -0.0158  0.6064
 6555TIP3   OH219609   7.270   6.975   2.260  0.6443 -0.0614 -0.3761
 6555TIP3    H119610   7.355   6.946   2.228  0.6933  0.5395 -0.8096
 6555TIP3    H219611   7.223   7.003   2.182 -0.7387 -2.2620 -0.4224
 6556TIP3   OH219612   3.306   6.630   2.457 -0.1806 -0.0939  0.0062
 6556TIP3    H119613   3.308   6.654   2.365  1.0712 -2.5893 -0.7050
 6556TIP3    H219614   3.220   6.589   2.469 -1.4593  2.5658  0.7109
 6557TIP3   OH219615   4.473   5.608   1.077 -0.2435  0.1391  0.1228
 6557TIP3    H119616   4.568   5.598   1.083 -0.0501  0.2048 -1.8596
 6557TIP3    H219617   4.456   5.696   1.111  0.6030  0.6171 -0.6179
 6558TIP3   OH219618   5.766   1.031   5.108  0.1194 -0.2647  0.6562
 6558TIP3    H119619   5.797   0.965   5.170 -1.7058 -1.6556  0.1757
 6558TIP3    H219620   5.737   1.104   5.163  0.0662 -0.7965  1.3402
 6559TIP3   OH219621   3.767   4.559   1.873 -0.1154 -0.4312  0.4562
 6559TIP3    H119622   3.775   4.553   1.778 -0.7449  0.6225  0.3240
 6559TIP3    H219623   3.781   4.469   1.904 -0.7056 -0.9311 -0.6877
 6560TIP3   OH219624   3.708   3.742   2.860 -0.3932 -0.0790  0.6985
 6560TIP3    H119625   3.643   3.800   2.822 -0.1871  0.0154  0.4905
 6560TIP3    H219626   3.739   3.688   2.787  0.1324  0.2242  0.6941
 6561TIP3   OH219627   5.425   3.337   4.027 -0.2581 -0.2385  0.7810
 6561TIP3    H119628   5.391   3.364   3.941  1.0912 -0.7118  0.0653
 6561TIP3    H219629   5.447   3.418   4.071  4.3388  0.1433 -1.5801
 6562TIP3   OH219630   4.370   4.409   2.024  0.0554  0.0266 -0.3284
 6562TIP3    H119631   4.355   4.481   2.086 -0.7834 -0.0812 -0.3913
 6562TIP3    H219632   4.286   4.361   2.022  0.5652 -0.8981 -0.3554
 6563TIP3   OH219633   5.906   1.149   3.798 -0.1850 -0.0389 -0.0534
 6563TIP3    H119634   5.859   1.217   3.847  0.0040  0.3373 -0.3925
 6563TIP3    H219635   5.916   1.077   3.861 -1.5971 -0.3068 -0.0942
 6564TIP3   OH219636   5.519   3.017   3.869 -0.8372  0.1300 -0.1114
 6564TIP3    H119637   5.511   3.100   3.823 -3.0305  0.4025  0.6317
 6564TIP3    H219638   5.444   3.016   3.930 -1.1102 -2.5483 -0.3691
 6565TIP3   OH219639   3.822   3.449   2.213 -0.3718 -0.8581  0.1908
 6565TIP3    H119640   3.842   3.360   2.243  0.1319 -0.6552  0.4688
 6565TIP3    H219641   3.802   3.497   2.293 -0.8359 -0.7622  0.0221
 6566TIP3   OH219642   0.145   2.663   6.628  0.1995 -0.1736  0.0988
 6566TIP3    H119643   0.200   2.737   6.602 -0.9404  0.1864 -1.4164
 6566TIP3    H219644   0.160   2.598   6.559 -1.4443  0.0388 -0.4905
 6567TIP3   OH219645   3.558   2.734   4.484 -0.3320 -0.0406 -0.1473
 6567TIP3    H119646   3.550   2.764   4.575 -0.6048  1.8885 -0.7561
 6567TIP3    H219647   3.572   2.640   4.491 -0.0835  0.0973  1.9045
 6568TIP3   OH219648   1.525   5.216   6.232  0.0859  0.3036 -0.3747
 6568TIP3    H119649   1.485   5.302   6.216  1.4067  1.0234 -0.0226
 6568TIP3    H219650   1.506   5.165   6.154 -1.0965  0.7573 -0.4060
 6569TIP3   OH219651   2.135   5.426   6.277 -0.0611  0.2476 -0.1170
 6569TIP3    H119652   2.215   5.386   6.313 -0.6765 -0.0655  0.9528
 6569TIP3    H219653   2.138   5.405   6.183  1.7318  1.3188 -0.3433
 6570TIP3   OH219654   3.455   0.005   1.618  0.0105  0.7925  0.3554
 6570TIP3    H119655   3.399  -0.016   1.543 -2.3077  0.2578  2.0988
 6570TIP3    H219656   3.513   0.073   1.587  0.2502 -0.5311 -2.3678
 6571TIP3   OH219657   4.363   5.707   3.950 -0.1868 -0.0369  0.2072
 6571TIP3    H119658   4.344   5.695   3.857  0.7069  1.5408 -0.2126
 6571TIP3    H219659   4.445   5.661   3.965 -0.1411  0.0208  0.1319
 6572TIP3   OH219660   3.842   0.943   2.645 -0.4359 -0.0701  0.3196
 6572TIP3    H119661   3.850   0.848   2.640 -0.7269 -0.0863  0.1389
 6572TIP3    H219662   3.789   0.967   2.569 -2.3174 -0.0087  1.5941
 6573TIP3   OH219663   4.767   3.166   5.972 -0.0724 -0.0240 -0.5318
 6573TIP3    H119664   4.790   3.221   5.897  0.4620  2.2274  1.1632
 6573TIP3    H219665   4.851   3.129   6.000 -0.0871  0.0610 -0.3756
 6574TIP3   OH219666   0.736   3.919   4.564  0.3257  0.2198 -0.0010
 6574TIP3    H119667   0.660   3.958   4.520 -0.2872 -0.4629  0.4231
 6574TIP3    H219668   0.800   3.906   4.495  0.3767  1.5378 -0.2318
 6575TIP3   OH219669   3.347   6.050   6.688  0.1671 -0.2868  0.0201
 6575TIP3    H119670   3.253   6.062   6.681  0.2770  1.9176  1.2521
 6575TIP3    H219671   3.362   6.034   6.781  0.9652 -1.1369 -0.2431
 6576TIP3   OH219672   3.080   4.173   2.170  0.0086 -0.0966 -0.1304
 6576TIP3    H119673   3.015   4.173   2.240  2.2817 -0.4098  2.1051
 6576TIP3    H219674   3.049   4.106   2.109 -0.9551 -1.4209  1.7019
 6577TIP3   OH219675   5.111   1.778   1.461  0.5461 -0.0906  0.5781
 6577TIP3    H119676   5.056   1.805   1.387  0.7015 -0.6016  0.2791
 6577TIP3    H219677   5.173   1.851   1.472 -1.2435  1.3319  2.0212
 6578TIP3   OH219678   3.151   1.296   1.153  0.0514  0.3735  0.3230
 6578TIP3    H119679   3.142   1.299   1.248  0.4174 -0.2790  0.3841
 6578TIP3    H219680   3.073   1.250   1.123 -0.0219  0.5042  0.3116
 6579TIP3   OH219681   1.949   0.729   6.540 -0.2264  0.4873 -0.2780
 6579TIP3    H119682   1.921   0.784   6.468 -0.4796  2.0315  0.9438
 6579TIP3    H219683   1.939   0.784   6.618  0.2352 -1.0385  0.9172
 6580TIP3   OH219684   4.064   4.023   1.464  0.0207  0.4177 -0.3360
 6580TIP3    H119685   3.970   4.039   1.452 -0.0740  0.4234  0.3569
 6580TIP3    H219686   4.107   4.084   1.405 -0.3997  1.0293 -0.0278
 6581TIP3   OH219687   6.234   6.912   4.404 -0.4335 -1.1155  0.1357
 6581TIP3    H119688   6.192   6.994   4.377  2.1262  0.4227  0.5481
 6581TIP3    H219689   6.193   6.890   4.488 -1.4369 -0.5319 -0.1774
 6582TIP3   OH219690   0.647   5.319   6.348  0.2512 -0.3781 -0.0993
 6582TIP3    H119691   0.665   5.337   6.256  1.0158 -2.4406 -0.4091
 6582TIP3    H219692   0.710   5.373   6.396  0.1968  0.3175 -0.7933
 6583TIP3   OH219693   3.539   7.751   1.376  0.2060  0.1801 -0.4244
 6583TIP3    H119694   3.543   7.657   1.362 -1.4353 -0.0654  0.5191
 6583TIP3    H219695   3.588   7.766   1.457 -0.6756 -0.0623  0.1646
 6584TIP3   OH219696   2.985   0.295   4.381 -0.1780 -0.4668  0.5286
 6584TIP3    H119697   2.989   0.241   4.302 -0.2422  1.3843 -0.8239
 6584TIP3    H219698   2.899   0.277   4.418 -0.0272 -1.6000  0.3778
 6585TIP3   OH219699   3.524   1.505   4.288  0.2782 -0.1129 -0.3216
 6585TIP3    H119700   3.493   1.417   4.307 -1.1893  0.6392  1.0208
 6585TIP3    H219701   3.552   1.540   4.372 -0.3892  1.1578 -0.6004
 6586TIP3   OH219702   5.546   5.834   6.565 -0.6535  0.0448 -0.2958
 6586TIP3    H119703   5.627   5.798   6.530 -0.7851 -0.5002 -0.0442
 6586TIP3    H219704   5.575   5.900   6.629 -0.4055 -0.3222 -0.0268
 6587TIP3   OH219705   4.788   4.010   1.162 -0.2278 -0.0491  0.2164
 6587TIP3    H119706   4.875   4.003   1.203  0.4486 -1.1599 -1.3142
 6587TIP3    H219707   4.729   3.966   1.223  0.1308  1.3340  1.6144
 6588TIP3   OH219708   1.669   1.099   0.763 -0.0375 -0.3068 -0.5321
 6588TIP3    H119709   1.658   1.194   0.765  0.0304 -0.3045 -0.1245
 6588TIP3    H219710   1.659   1.076   0.671  0.1077  0.1137 -0.6581
 6589TIP3   OH219711   0.337   7.200   3.797 -0.1184 -0.5994 -0.2492
 6589TIP3    H119712   0.421   7.227   3.835 -0.9351  0.7529  0.6889
 6589TIP3    H219713   0.321   7.264   3.727 -1.1799  0.2734  0.7453
 6590TIP3   OH219714   1.250   3.734   5.674 -0.1814  0.2660 -1.1180
 6590TIP3    H119715   1.336   3.751   5.636  0.1288  1.1726 -0.0672
 6590TIP3    H219716   1.264   3.741   5.769 -1.2839 -0.1853 -0.9064
 6591TIP3   OH219717   1.653   6.606   6.292 -0.1595  0.6993 -0.1836
 6591TIP3    H119718   1.688   6.596   6.204 -0.2269 -1.3834 -0.0238
 6591TIP3    H219719   1.726   6.640   6.344  0.4728  0.0985 -0.6617
 6592TIP3   OH219720   4.564   3.128   1.765 -0.2727 -0.2978  0.1696
 6592TIP3    H119721   4.587   3.064   1.832  0.2677 -0.9139 -0.5948
 6592TIP3    H219722   4.602   3.094   1.684  0.6061  1.3126 -0.1431
 6593TIP3   OH219723   4.147   2.979   2.548  0.3680  0.3783  0.7043
 6593TIP3    H119724   4.103   3.021   2.622  0.1543 -0.9638  1.3752
 6593TIP3    H219725   4.080   2.974   2.481  0.7629  2.2630  0.1063
 6594TIP3   OH219726   0.125   1.595   0.718 -0.2997 -0.4030 -0.9806
 6594TIP3    H119727   0.099   1.686   0.706  0.7327  0.0023 -0.2445
 6594TIP3    H219728   0.045   1.545   0.702 -1.4197  0.7560  0.6541
 6595TIP3   OH219729   7.872   4.670   6.456 -0.2535  0.1818  0.3771
 6595TIP3    H119730   7.853   4.586   6.415  0.4608  0.0019  0.4094
 6595TIP3    H219731   7.880   4.651   6.549  1.8724 -0.0889  0.1842
 6596TIP3   OH219732   2.241   4.815   0.330 -0.6285 -0.1227  0.1244
 6596TIP3    H119733   2.296   4.893   0.331 -1.0057  0.1467  0.8134
 6596TIP3    H219734   2.225   4.798   0.237 -0.3106  0.4557 -0.0410
 6597TIP3   OH219735   3.115   6.417   4.798 -0.4423  0.3978  0.5848
 6597TIP3    H119736   3.204   6.415   4.763 -0.9317  0.6168 -0.7517
 6597TIP3    H219737   3.059   6.428   4.720 -1.4613  3.2278  1.5675
 6598TIP3   OH219738   7.720   1.279   3.511 -0.0227 -0.0884 -0.0495
 6598TIP3    H119739   7.735   1.264   3.418  1.4340 -0.1902  0.1784
 6598TIP3    H219740   7.787   1.227   3.555  1.1430  2.1221  0.9488
 6599TIP3   OH219741   3.342   2.246   5.419 -0.4644 -0.2051 -0.0416
 6599TIP3    H119742   3.407   2.268   5.352 -1.5232  1.5599 -0.5507
 6599TIP3    H219743   3.386   2.264   5.502  0.3623 -0.9876 -0.2889
 6600TIP3   OH219744   7.209   2.969   6.687  0.1814  0.4605  0.1203
 6600TIP3    H119745   7.283   2.924   6.728 -0.5861 -1.2041 -0.2386
 6600TIP3    H219746   7.220   2.954   6.593 -0.7076  0.0359  0.0742
 6601TIP3   OH219747   6.318   3.643   3.725  0.3466  0.0863 -0.0029
 6601TIP3    H119748   6.223   3.655   3.725  0.2699 -0.1854 -1.6406
 6601TIP3    H219749   6.353   3.726   3.757 -0.4361 -0.0550  1.2985
 6602TIP3   OH219750   2.446   1.864   3.717 -0.0834 -0.1582 -0.0128
 6602TIP3    H119751   2.455   1.951   3.757 -0.4219  0.0135 -0.3034
 6602TIP3    H219752   2.380   1.820   3.770 -1.8222  0.6876 -1.3880
 6603TIP3   OH219753   2.249   1.596   3.202  0.0521  0.4992  0.0851
 6603TIP3    H119754   2.272   1.647   3.125  1.7637  3.1337  2.1463
 6603TIP3    H219755   2.159   1.568   3.187  0.0163  1.7453 -2.4101
 6604TIP3   OH219756   7.213   1.928   6.027  0.2925  0.0713 -0.9937
 6604TIP3    H119757   7.183   2.010   6.066 -0.1054 -0.5930  0.1550
 6604TIP3    H219758   7.144   1.865   6.047  1.6374 -1.1082  0.2625
 6605TIP3   OH219759   6.161   3.230   2.453  0.1176  0.3412  0.0767
 6605TIP3    H119760   6.152   3.235   2.358 -2.0596  1.2351  0.2765
 6605TIP3    H219761   6.225   3.160   2.468  0.2839 -0.0052 -2.0119
 6606TIP3   OH219762   1.632   3.425   1.064 -0.1362  0.3760 -0.8378
 6606TIP3    H119763   1.588   3.361   1.119 -0.5981  1.3902  0.0115
 6606TIP3    H219764   1.699   3.375   1.017 -0.5197 -0.7208 -0.2488
 6607TIP3   OH219765   3.366   7.567   6.097 -0.3791 -0.6152  0.1796
 6607TIP3    H119766   3.441   7.525   6.056 -1.6463 -2.3806 -0.4391
 6607TIP3    H219767   3.384   7.564   6.191 -0.0664 -1.8355  0.0863
 6608TIP3   OH219768   2.967   0.716   2.286  0.0179 -0.5051 -0.3663
 6608TIP3    H119769   2.932   0.730   2.374  1.3516 -0.5620  0.1908
 6608TIP3    H219770   2.981   0.622   2.279  1.5265 -0.3383  0.0253
 6609TIP3   OH219771   7.680   4.828   5.923  0.4202 -0.2086 -0.0045
 6609TIP3    H119772   7.686   4.766   5.996 -1.6245 -1.0068 -0.4329
 6609TIP3    H219773   7.666   4.773   5.846 -1.0038  0.7294 -0.4573
 6610TIP3   OH219774   7.720   6.931   0.419 -0.0415  0.3184  0.5409
 6610TIP3    H119775   7.813   6.947   0.435 -0.2362  1.4297  0.6735
 6610TIP3    H219776   7.698   6.989   0.345 -0.2727 -1.1126 -0.5635
 6611TIP3   OH219777   3.742   5.840   6.052 -0.3094 -0.2435 -0.0749
 6611TIP3    H119778   3.660   5.853   6.005 -0.7121 -0.1554  0.6279
 6611TIP3    H219779   3.778   5.758   6.017  0.6199  1.0010 -2.2250
 6612TIP3   OH219780   7.730   6.742   0.625 -0.0501 -0.3467  0.0210
 6612TIP3    H119781   7.808   6.705   0.583  0.4492 -0.4960  1.0499
 6612TIP3    H219782   7.707   6.817   0.571  1.5087  0.3988  0.3315
 6613TIP3   OH219783   3.680   2.057   5.103  0.2179 -0.4209 -0.1409
 6613TIP3    H119784   3.678   1.983   5.043 -1.9572  0.5656 -1.4157
 6613TIP3    H219785   3.772   2.080   5.111  0.7767 -2.2253 -1.0187
 6614TIP3   OH219786   8.165   1.954   3.216 -0.0930 -0.4603  0.8570
 6614TIP3    H119787   8.137   2.034   3.261 -0.9083 -1.1526  1.6104
 6614TIP3    H219788   8.172   1.980   3.124 -1.0961  0.2975  0.9702
 6615TIP3   OH219789   6.306   6.657   1.852 -0.0935  0.3249  0.3631
 6615TIP3    H119790   6.257   6.577   1.874  0.0681 -0.4075 -1.7459
 6615TIP3    H219791   6.389   6.625   1.816  0.6424  1.4995  0.9598
 6616TIP3   OH219792   1.035   5.328   1.139 -0.4379  0.0858  0.3292
 6616TIP3    H119793   1.110   5.271   1.157 -0.8239 -0.9153 -1.0433
 6616TIP3    H219794   0.961   5.268   1.131 -1.1493  0.9418  0.4241
 6617TIP3   OH219795   4.062   5.963   4.512 -0.0178  0.0997  0.0453
 6617TIP3    H119796   3.991   5.951   4.575  0.1921 -0.1874  0.2320
 6617TIP3    H219797   4.030   5.924   4.431  0.7026 -1.9203  0.6764
 6618TIP3   OH219798   2.274   7.270   4.609  0.1459 -0.8003  0.0176
 6618TIP3    H119799   2.281   7.364   4.624  0.4883 -0.8025 -0.1155
 6618TIP3    H219800   2.316   7.231   4.685  0.7970 -0.8306 -0.3540
 6619TIP3   OH219801   7.238   1.058   0.419 -0.2407  0.0903  0.1324
 6619TIP3    H119802   7.329   1.038   0.398 -0.4678 -0.5816 -0.2526
 6619TIP3    H219803   7.201   1.091   0.337 -0.3370  0.3978  0.2978
 6620TIP3   OH219804   5.772   3.972   1.739 -0.2031  0.2580 -0.1505
 6620TIP3    H119805   5.717   3.949   1.814 -0.7318 -0.2325 -0.6819
 6620TIP3    H219806   5.850   4.011   1.778 -0.2687 -0.4085  0.6800
 6621TIP3   OH219807   6.973   5.725   0.516  0.0980 -0.5315  0.3623
 6621TIP3    H119808   6.879   5.743   0.526  0.3901  0.4046  1.5528
 6621TIP3    H219809   6.976   5.654   0.452 -1.3834 -0.0269 -0.3328
 6622TIP3   OH219810   0.053   7.012   5.921 -0.3662 -0.3589  0.1814
 6622TIP3    H119811   0.093   7.073   5.859  0.2259 -0.2906  0.6198
 6622TIP3    H219812  -0.016   7.063   5.964 -0.2238 -0.1550  0.1701
 6623TIP3   OH219813   6.159   5.814   6.419  0.6049  0.3897 -0.4011
 6623TIP3    H119814   6.173   5.738   6.361 -1.0555  1.8874 -2.9581
 6623TIP3    H219815   6.247   5.849   6.434  1.4077 -1.9342  0.7982
 6624TIP3   OH219816   3.473   3.787   3.693 -0.3734 -0.0666 -0.4454
 6624TIP3    H119817   3.501   3.865   3.645 -0.9825  0.6552  0.3487
 6624TIP3    H219818   3.378   3.792   3.694 -0.3917 -0.3998  0.2765
 6625TIP3   OH219819   1.538   6.639   5.993 -0.0416 -0.5453 -0.1393
 6625TIP3    H119820   1.542   6.731   6.020  0.1469 -1.1713  2.2022
 6625TIP3    H219821   1.575   6.639   5.904 -0.3468  1.6585 -0.3382
 6626TIP3   OH219822   5.112   4.257   2.987  0.8282 -0.2195 -0.6500
 6626TIP3    H119823   5.039   4.196   2.970  0.1933 -0.0351  1.1650
 6626TIP3    H219824   5.191   4.205   2.970  0.3147 -1.7632  1.2699
 6627TIP3   OH219825   6.196   5.494   5.944 -0.1214  0.4884 -0.5412
 6627TIP3    H119826   6.221   5.548   5.869  0.7905 -0.1191 -0.6977
 6627TIP3    H219827   6.249   5.528   6.016  0.7378 -0.4102 -0.7259
 6628TIP3   OH219828   6.123   2.624   2.810 -0.3795  0.2939 -0.0159
 6628TIP3    H119829   6.142   2.571   2.732 -0.5647  1.7155 -1.0855
 6628TIP3    H219830   6.204   2.672   2.826 -0.0792 -0.5670  1.1894
 6629TIP3   OH219831   3.705   1.318   2.220 -0.0167 -0.0489 -0.1261
 6629TIP3    H119832   3.715   1.280   2.307  0.4294  0.3676  0.0100
 6629TIP3    H219833   3.613   1.345   2.216 -0.1902 -0.6073 -0.0112
 6630TIP3   OH219834   8.209   0.555   1.200  0.2031 -0.2450  0.4209
 6630TIP3    H119835   8.265   0.632   1.212 -1.8404  1.4282 -0.2476
 6630TIP3    H219836   8.140   0.584   1.141 -0.7983 -2.5490  0.3400
 6631TIP3   OH219837   4.583   6.595   0.425  0.0246 -0.1157  0.5388
 6631TIP3    H119838   4.632   6.513   0.421  1.1210  0.5731 -0.6564
 6631TIP3    H219839   4.628   6.647   0.491 -0.5643 -0.3792  1.1668
 6632TIP3   OH219840   7.309   7.454   1.786  0.6678 -0.0215  0.5276
 6632TIP3    H119841   7.369   7.434   1.714  0.3728 -1.5995  0.6733
 6632TIP3    H219842   7.224   7.464   1.744  0.4614 -1.1276  0.6376
 6633TIP3   OH219843   2.255   6.792   4.710 -0.0530 -0.1475  0.2762
 6633TIP3    H119844   2.190   6.857   4.737 -0.1932 -0.1556 -0.0398
 6633TIP3    H219845   2.206   6.730   4.656  0.5691  0.8927 -1.5749
 6634TIP3   OH219846   4.385   2.114   5.846  0.3413 -0.1342  0.2297
 6634TIP3    H119847   4.399   2.113   5.752  0.2811 -5.0824  0.0135
 6634TIP3    H219848   4.460   2.160   5.882  0.2488  2.0518 -2.1464
 6635TIP3   OH219849   1.821   1.819   1.530 -0.0288  0.3070 -1.3203
 6635TIP3    H119850   1.751   1.757   1.550 -0.0274  0.6161 -0.2902
 6635TIP3    H219851   1.892   1.766   1.494  0.5601 -0.5432  0.9575
 6636TIP3   OH219852   6.784   5.387   0.887 -0.0260  0.2208  0.1212
 6636TIP3    H119853   6.737   5.317   0.842  0.3907  0.1830 -0.2716
 6636TIP3    H219854   6.835   5.429   0.817  0.4865  0.2812  0.5296
 6637TIP3   OH219855   1.373   3.573   2.674 -0.3796  0.1270 -1.2815
 6637TIP3    H119856   1.304   3.637   2.655 -0.9004  0.1846  0.6311
 6637TIP3    H219857   1.328   3.498   2.712  0.6099  0.3247  0.3773
 6638TIP3   OH219858   0.105   5.816   6.686 -0.1407  0.1799 -0.5583
 6638TIP3    H119859   0.034   5.759   6.716 -0.5729  0.9587 -0.0509
 6638TIP3    H219860   0.185   5.771   6.712 -0.4303  1.7332  3.8752
 6639TIP3   OH219861   0.937   2.533   6.548  0.3185  0.2585 -0.3407
 6639TIP3    H119862   0.922   2.464   6.484 -0.1458  0.4664 -0.4553
 6639TIP3    H219863   0.953   2.612   6.496  1.8692  0.0501 -0.2338
 6640TIP3   OH219864   3.794   0.654   2.583  0.5207  0.2696  0.3183
 6640TIP3    H119865   3.862   0.600   2.543 -0.0414 -0.9666  0.9465
 6640TIP3    H219866   3.715   0.637   2.531  0.3392  0.4893  0.5175
 6641TIP3   OH219867   7.645   1.636   0.193  0.1960 -0.1067 -0.8528
 6641TIP3    H119868   7.557   1.611   0.164 -0.2830  0.8970 -0.3116
 6641TIP3    H219869   7.669   1.709   0.137  0.3561  0.1337 -0.4720
 6642TIP3   OH219870   3.088   6.939   2.748 -0.1912 -0.0338  0.1144
 6642TIP3    H119871   3.116   6.848   2.739 -0.8635 -0.2002 -0.4290
 6642TIP3    H219872   3.112   6.964   2.837 -1.7216 -1.3620  0.9554
 6643TIP3   OH219873   3.463   3.962   6.685  0.5427 -0.8169 -0.4489
 6643TIP3    H119874   3.390   3.978   6.745  0.6221 -1.3765 -0.1977
 6643TIP3    H219875   3.439   3.881   6.640 -0.4503  0.5831 -2.5972
 6644TIP3   OH219876   4.969   0.865   2.652 -0.1694  0.4025  0.6173
 6644TIP3    H119877   4.925   0.807   2.714  0.9088  0.6870  1.6877
 6644TIP3    H219878   4.908   0.938   2.639 -0.9935 -0.3417  0.2448
 6645TIP3   OH219879   7.907   7.666   3.614 -0.4404  0.0781 -0.0558
 6645TIP3    H119880   7.930   7.609   3.688  1.2444 -0.8166 -1.1889
 6645TIP3    H219881   7.903   7.607   3.539  3.1317  1.5175 -1.6230
 6646TIP3   OH219882   4.983   6.862   4.494 -0.0678  0.0667  0.2400
 6646TIP3    H119883   4.916   6.869   4.562  0.3449 -2.3016  0.9870
 6646TIP3    H219884   4.966   6.778   4.452  2.6655 -0.8498  0.7623
 6647TIP3   OH219885   4.727   1.395   2.639  0.4639  0.1365  0.4488
 6647TIP3    H119886   4.808   1.431   2.603  1.2315 -1.9983 -0.1210
 6647TIP3    H219887   4.666   1.397   2.565  0.5290  0.2209  0.3966
 6648TIP3   OH219888   3.446   5.798   0.984 -0.0844  0.4752  0.4582
 6648TIP3    H119889   3.487   5.729   1.036  0.8526  0.3538 -0.4160
 6648TIP3    H219890   3.432   5.759   0.898  1.7950  1.7796 -0.5088
 6649TIP3   OH219891   4.797   6.138   0.927 -0.3495  0.1037 -0.3316
 6649TIP3    H119892   4.707   6.114   0.949 -0.1143  0.1652  0.7559
 6649TIP3    H219893   4.844   6.133   1.011  1.5265 -3.6375 -1.3899
 6650TIP3   OH219894   0.158   5.996   4.778  0.0609  0.2534  0.0751
 6650TIP3    H119895   0.092   6.064   4.790  1.0087  1.1835  0.1453
 6650TIP3    H219896   0.239   6.044   4.761  0.6952 -0.8680 -0.1526
 6651TIP3   OH219897   5.909   0.201   4.062  0.9910  0.0953 -0.3756
 6651TIP3    H119898   5.937   0.198   4.153  1.9124 -2.2632 -0.6531
 6651TIP3    H219899   5.821   0.164   4.062  1.3387 -0.7445 -0.5328
 6652TIP3   OH219900   6.547   3.057   1.478 -0.0492  0.0460 -0.8504
 6652TIP3    H119901   6.469   3.002   1.474 -1.6029  1.7452  2.1816
 6652TIP3    H219902   6.524   3.136   1.429 -0.1335  0.3765 -0.2980
 6653TIP3   OH219903   7.123   2.295   2.275  0.2710 -0.0287  0.3176
 6653TIP3    H119904   7.193   2.230   2.277  0.8569  0.4598 -1.7181
 6653TIP3    H219905   7.168   2.379   2.278 -0.3119  0.2937  0.3130
 6654TIP3   OH219906   1.980   4.922   1.560  0.6349  0.1610 -0.0417
 6654TIP3    H119907   2.021   4.846   1.519  1.0686  0.9811 -1.1573
 6654TIP3    H219908   2.044   4.992   1.553  0.5532  0.4690  1.6760
 6655TIP3   OH219909   3.013   6.248   0.420  0.0194 -0.0577 -0.0881
 6655TIP3    H119910   2.961   6.169   0.438  0.3205 -0.2195  0.0932
 6655TIP3    H219911   2.973   6.316   0.475 -0.3264 -0.0470 -0.3479
 6656TIP3   OH219912   2.910   4.397   6.099  0.0798 -0.2741  0.0838
 6656TIP3    H119913   2.971   4.409   6.026 -0.2777  1.0752 -0.0146
 6656TIP3    H219914   2.894   4.302   6.102  1.0840 -0.4813 -0.7751
 6657TIP3   OH219915   2.924   2.264   1.379 -0.3455  0.8962 -0.3638
 6657TIP3    H119916   2.838   2.262   1.420  0.1818 -1.8681  0.8660
 6657TIP3    H219917   2.980   2.310   1.441 -0.0641 -1.2229  1.0744
 6658TIP3   OH219918   0.316   6.456   0.126  0.1912 -0.8772  0.7282
 6658TIP3    H119919   0.304   6.548   0.102  0.0865 -1.0775 -0.0398
 6658TIP3    H219920   0.361   6.458   0.210 -1.1426 -0.1190  1.4605
 6659TIP3   OH219921   1.294   0.173   6.629 -0.3850  0.0265  0.4643
 6659TIP3    H119922   1.353   0.219   6.689  0.5101  1.1691 -1.2263
 6659TIP3    H219923   1.210   0.172   6.676  0.4510  0.2024  2.0504
 6660TIP3   OH219924   4.977   0.710   0.597  0.0795 -0.3159  0.2220
 6660TIP3    H119925   5.027   0.777   0.551  0.2364 -0.1984  0.5576
 6660TIP3    H219926   4.960   0.642   0.531  0.3192 -0.1605  0.0010
 6661TIP3   OH219927   5.522   6.753   6.196  0.0405 -0.4468  0.3381
 6661TIP3    H119928   5.610   6.729   6.224  0.9979  2.0990 -0.2080
 6661TIP3    H219929   5.499   6.686   6.132  2.2268 -0.4035 -0.6060
 6662TIP3   OH219930   2.477   6.169   1.335 -1.1504 -0.4933 -0.1673
 6662TIP3    H119931   2.532   6.152   1.258 -1.2722 -0.9357 -0.1610
 6662TIP3    H219932   2.397   6.120   1.318 -1.6541  0.3627 -0.2931
 6663TIP3   OH219933   4.754   6.176   6.085  0.1333  0.0398  0.1894
 6663TIP3    H119934   4.769   6.269   6.104  0.7576  0.2232 -1.0746
 6663TIP3    H219935   4.727   6.139   6.168 -1.6002  1.6432  0.4143
 6664TIP3   OH219936   1.537   0.021   5.488  0.1530  0.0611  0.7910
 6664TIP3    H119937   1.627   0.035   5.517  0.9531 -0.5671 -1.1650
 6664TIP3    H219938   1.487   0.006   5.568  1.7724  0.5217  1.9271
 6665TIP3   OH219939   0.263   4.314   5.167  0.5057  0.1646  0.0295
 6665TIP3    H119940   0.239   4.372   5.095 -0.8342 -0.4458 -0.0463
 6665TIP3    H219941   0.207   4.340   5.240  0.4238 -0.5237  0.2256
 6666TIP3   OH219942   3.276   4.392   0.658  0.4841  0.2716 -0.3872
 6666TIP3    H119943   3.295   4.485   0.672 -0.4889  0.7023 -1.7171
 6666TIP3    H219944   3.236   4.363   0.740  1.2871  0.8783  0.2351
 6667TIP3   OH219945   7.584   4.556   1.338 -0.1121 -0.0482 -0.0737
 6667TIP3    H119946   7.603   4.463   1.347 -1.5659 -0.1909  2.3089
 6667TIP3    H219947   7.490   4.559   1.320 -0.2851  0.9829  0.9130
 6668TIP3   OH219948   0.534   1.013   1.683  0.0590  0.2278 -0.5964
 6668TIP3    H119949   0.563   1.060   1.605 -1.0932  0.4831 -0.8828
 6668TIP3    H219950   0.566   0.924   1.670  0.6062  0.4643 -0.9494
 6669TIP3   OH219951   1.682   0.755   4.698 -0.1594  0.2890 -0.1461
 6669TIP3    H119952   1.658   0.805   4.619  0.8590 -0.2056 -0.7910
 6669TIP3    H219953   1.626   0.678   4.695  0.6147 -0.2678 -1.0002
 6670TIP3   OH219954   3.716   0.830   5.426  0.3302 -0.1002 -0.7402
 6670TIP3    H119955   3.626   0.863   5.434  0.6059  0.2011  2.4790
 6670TIP3    H219956   3.712   0.769   5.352 -2.0106  1.3595 -1.9615
 6671TIP3   OH219957   5.796   3.151   0.059  0.7299  0.0903 -0.2972
 6671TIP3    H119958   5.717   3.098   0.047 -0.1909  1.6138 -1.3219
 6671TIP3    H219959   5.844   3.140  -0.023  0.4045  0.9926 -0.6268
 6672TIP3   OH219960   0.202   3.715   1.232 -0.0463  0.1533 -0.2311
 6672TIP3    H119961   0.144   3.659   1.284 -0.9038  0.8915 -0.3655
 6672TIP3    H219962   0.286   3.711   1.278 -0.8987  1.1693  1.5239
 6673TIP3   OH219963   4.910   4.462   6.525 -0.1487 -0.4760 -0.0351
 6673TIP3    H119964   4.824   4.445   6.487  0.5638 -0.7865 -1.5837
 6673TIP3    H219965   4.891   4.502   6.610 -1.8185  1.3632 -1.1885
 6674TIP3   OH219966   2.913   6.464   1.726  0.5956  0.2717  0.3121
 6674TIP3    H119967   2.929   6.514   1.646  2.4429 -0.3823  0.2348
 6674TIP3    H219968   2.918   6.372   1.697  1.1987  0.0333  1.1578
 6675TIP3   OH219969   2.313   5.492   3.459 -0.5499 -0.0496  0.1468
 6675TIP3    H119970   2.341   5.409   3.498 -1.7744 -0.7364 -0.3636
 6675TIP3    H219971   2.252   5.528   3.524 -1.9209 -0.7746 -0.6871
 6676TIP3   OH219972   0.720   7.704   1.134  0.4866 -0.0843  0.5852
 6676TIP3    H119973   0.809   7.673   1.119  0.1514 -0.7179 -0.1537
 6676TIP3    H219974   0.686   7.648   1.203  0.9701  0.7898  1.5657
 6677TIP3   OH219975   3.162   1.992   0.557 -0.0026  0.1153 -0.2252
 6677TIP3    H119976   3.189   1.987   0.648  2.1126 -0.3714 -0.8219
 6677TIP3    H219977   3.074   1.953   0.555 -0.2280  0.4828  1.6355
 6678TIP3   OH219978   5.994   5.707   4.649  0.7622  0.1626  0.1984
 6678TIP3    H119979   5.985   5.632   4.708  0.7210  0.3607  0.4463
 6678TIP3    H219980   6.085   5.735   4.660  0.9262 -0.1766 -0.2888
 6679TIP3   OH219981   5.324   4.681   4.107  0.1911 -0.1232  0.0497
 6679TIP3    H119982   5.231   4.672   4.088  0.6843 -1.6914 -2.0176
 6679TIP3    H219983   5.354   4.750   4.048  0.6221 -0.8391 -0.5962
 6680TIP3   OH219984   0.979   5.734   0.046  0.1194 -0.0809  0.2123
 6680TIP3    H119985   1.060   5.782   0.061 -0.0431  0.0855  0.5653
 6680TIP3    H219986   0.983   5.709  -0.046  0.8501 -0.5793  0.3665
 6681TIP3   OH219987   5.426   2.731   3.735  0.3271  0.7328 -0.2893
 6681TIP3    H119988   5.454   2.822   3.729 -1.9270  1.5793  0.7131
 6681TIP3    H219989   5.442   2.706   3.826 -0.9440  0.8439 -0.0147
 6682TIP3   OH219990   0.627   3.129   3.937  1.2337  0.2636 -0.2148
 6682TIP3    H119991   0.686   3.058   3.962  1.9745  1.1837  0.7466
 6682TIP3    H219992   0.651   3.150   3.847  1.4535 -0.2684 -0.2786
 6683TIP3   OH219993   0.023   3.616   3.264 -0.2226  0.9094  0.3272
 6683TIP3    H119994   0.068   3.687   3.309 -0.6265 -0.1318  2.5060
 6683TIP3    H219995   0.094   3.557   3.236 -0.0464  0.1790  2.1503
 6684TIP3   OH219996   0.738   2.597   1.255  0.6803 -0.1404 -0.0311
 6684TIP3    H119997   0.735   2.501   1.250 -1.3490 -0.0475 -3.2454
 6684TIP3    H219998   0.778   2.625   1.173  1.6996  1.8383  1.0529
 6685TIP3   OH219999   2.911   2.912   0.920  0.1264  0.0668 -0.5186
 6685TIP3    H120000   2.862   2.854   0.978  0.0415  0.6547  0.0067
 6685TIP3    H220001   2.979   2.950   0.976  0.1342  0.5309 -0.8347
 6686TIP3   OH220002   1.009   6.380   2.745 -0.1429  0.3212  0.0712
 6686TIP3    H120003   0.951   6.433   2.691  0.6897  2.9510  1.5761
 6686TIP3    H220004   0.965   6.376   2.830 -0.1004 -1.3487  0.0462
 6687TIP3   OH220005   7.520   5.114   2.906 -0.1185  0.1067  0.1486
 6687TIP3    H120006   7.532   5.019   2.903  1.9290  0.3081  0.0913
 6687TIP3    H220007   7.599   5.148   2.864 -0.7831  1.8419  0.2461
 6688TIP3   OH220008   2.375   1.296   1.398  0.5091 -0.7886  0.2884
 6688TIP3    H120009   2.367   1.265   1.308 -1.1102 -0.4236  0.2759
 6688TIP3    H220010   2.368   1.218   1.451  0.6606 -0.9131  0.1276
 6689TIP3   OH220011   2.085   4.392   0.253  0.6806 -0.0421 -0.0992
 6689TIP3    H120012   2.124   4.305   0.250 -0.0200 -0.3413 -1.1535
 6689TIP3    H220013   1.991   4.376   0.249  0.4139  0.6804  2.0387
 6690TIP3   OH220014   1.383   0.158   2.617 -0.1340  0.3151 -0.3790
 6690TIP3    H120015   1.448   0.209   2.568  0.4712  0.6515  0.7405
 6690TIP3    H220016   1.385   0.072   2.575  0.8397  0.4046 -0.5518
 6691TIP3   OH220017   8.080   5.019   2.256 -0.1199 -0.5260 -0.1655
 6691TIP3    H120018   8.100   5.031   2.163 -1.9142  0.4679 -0.4709
 6691TIP3    H220019   8.026   4.940   2.259  0.3534 -0.8515  0.1334
 6692TIP3   OH220020   2.037   6.364   3.423  0.2685  0.5814 -0.0633
 6692TIP3    H120021   2.120   6.402   3.396  0.3224  0.4645 -0.0588
 6692TIP3    H220022   2.033   6.380   3.518 -0.2930  1.7321 -0.2589
 6693TIP3   OH220023   6.488   4.947   6.054  0.5443 -0.1974  0.2445
 6693TIP3    H120024   6.400   4.918   6.079  0.3804 -0.8697 -1.0464
 6693TIP3    H220025   6.477   5.040   6.033 -0.2190 -0.6541 -1.4893
 6694TIP3   OH220026   5.201   7.069   6.398  0.2777  0.0570  0.0865
 6694TIP3    H120027   5.207   7.002   6.329 -0.9498  1.4136 -1.4080
 6694TIP3    H220028   5.292   7.085   6.423  0.8385  0.1109 -1.8232
 6695TIP3   OH220029   2.973   2.174   1.891 -0.4174 -0.2557  0.4957
 6695TIP3    H120030   2.942   2.154   1.980  0.8965  1.9257  1.5406
 6695TIP3    H220031   2.895   2.208   1.846 -1.5495 -3.0623  0.1277
 6696TIP3   OH220032   4.210   7.271   5.764  0.0892 -0.2931 -0.7603
 6696TIP3    H120033   4.246   7.190   5.729 -0.1447 -1.5331  1.6494
 6696TIP3    H220034   4.124   7.246   5.798 -0.6984  1.3685 -1.4341
 6697TIP3   OH220035   1.739   0.639   3.319  0.1319  0.0734  0.5352
 6697TIP3    H120036   1.683   0.716   3.305  0.5988  0.4545  0.7275
 6697TIP3    H220037   1.783   0.656   3.402  1.0687  0.1143  0.0497
 6698TIP3   OH220038   6.782   2.996   1.288  0.4663  0.1576  0.1838
 6698TIP3    H120039   6.837   2.919   1.277 -0.6689 -0.6293 -0.2217
 6698TIP3    H220040   6.692   2.961   1.290 -0.0071  1.3713  1.0208
 6699TIP3   OH220041   1.393   4.702   6.012  0.2655 -0.1129 -0.2268
 6699TIP3    H120042   1.354   4.784   6.041  0.5617  0.1145 -0.4610
 6699TIP3    H220043   1.319   4.650   5.980  0.1197  0.2029 -0.4029
 6700TIP3   OH220044   3.383   7.275   4.917  0.0148  0.5077 -0.5562
 6700TIP3    H120045   3.312   7.243   4.861 -0.2877  1.3041 -0.6412
 6700TIP3    H220046   3.462   7.241   4.876 -0.2335  0.7192 -1.2247
 6701TIP3   OH220047   0.875   1.011   5.603 -0.8483  0.3030  0.0675
 6701TIP3    H120048   0.927   1.067   5.545 -0.7233 -0.6130 -0.7273
 6701TIP3    H220049   0.860   1.065   5.681  1.0199  0.7128  0.1921
 6702TIP3   OH220050   6.993   4.546   4.025  0.3031  0.3356 -0.6388
 6702TIP3    H120051   7.057   4.615   4.006 -1.6175  2.8800  1.3497
 6702TIP3    H220052   6.908   4.588   4.009 -0.9421 -2.0103 -0.5409
 6703TIP3   OH220053   0.095   0.670   1.448 -0.0610  0.2497  0.2925
 6703TIP3    H120054   0.087   0.741   1.384  2.2731  0.8054  0.5339
 6703TIP3    H220055   0.084   0.590   1.397 -0.0438  0.7251 -0.4731
 6704TIP3   OH220056   3.048   2.303   2.704  0.6914 -0.4578 -0.0919
 6704TIP3    H120057   3.118   2.343   2.653  0.5594 -0.1268 -0.0157
 6704TIP3    H220058   3.092   2.239   2.760  1.0858  0.6214  0.8517
 6705TIP3   OH220059   5.968   6.195   4.596  0.0002 -0.0096  0.0796
 6705TIP3    H120060   6.045   6.138   4.605  0.5423  0.7002  0.0606
 6705TIP3    H220061   5.973   6.227   4.506  1.3101  2.2617  0.8690
 6706TIP3   OH220062   1.817   2.122   1.369  0.4235  0.3259  0.3542
 6706TIP3    H120063   1.766   2.057   1.418  1.3360 -1.6093 -1.1013
 6706TIP3    H220064   1.752   2.170   1.318 -0.1487 -0.8437 -0.0592
 6707TIP3   OH220065   5.365   5.899   5.599 -0.1347 -0.3000  0.4128
 6707TIP3    H120066   5.289   5.900   5.540  0.2618  0.7904 -0.1159
 6707TIP3    H220067   5.362   5.983   5.643  1.0494 -0.0173 -0.0021
 6708TIP3   OH220068   7.473   7.583   5.867  0.2092 -0.6582  0.9716
 6708TIP3    H120069   7.479   7.520   5.795 -1.1159 -1.3533  1.4426
 6708TIP3    H220070   7.408   7.546   5.926 -1.3916  1.6422  0.7654
 6709TIP3   OH220071   1.607   0.349   4.907 -0.0141 -0.2027 -0.2968
 6709TIP3    H120072   1.697   0.375   4.925 -0.0966  0.9400 -1.3594
 6709TIP3    H220073   1.615   0.268   4.857  0.4698  0.2559 -0.9781
 6710TIP3   OH220074   6.315   0.474   2.321  0.3452  0.5063 -0.3531
 6710TIP3    H120075   6.366   0.553   2.341  0.0560  0.9548 -1.3302
 6710TIP3    H220076   6.331   0.416   2.396  0.5959  1.4698  0.3654
 6711TIP3   OH220077   4.500   1.233   3.289 -0.3771 -0.1327  0.3524
 6711TIP3    H120078   4.587   1.194   3.287 -0.3154 -0.0033 -1.8253
 6711TIP3    H220079   4.500   1.289   3.366  1.7437  0.4685 -0.0302
 6712TIP3   OH220080   3.385   1.929   4.094 -0.0674  0.2205 -0.5246
 6712TIP3    H120081   3.367   1.998   4.157 -0.1240 -2.3204  2.5059
 6712TIP3    H220082   3.479   1.936   4.076  0.2843  0.1243  1.1064
 6713TIP3   OH220083   5.576   2.868   1.638  0.1660  0.3828 -0.4197
 6713TIP3    H120084   5.585   2.898   1.547  1.0625 -0.9371 -0.8035
 6713TIP3    H220085   5.664   2.875   1.674 -0.2716  1.3000  0.4951
 6714TIP3   OH220086   2.992   6.240   6.004 -0.6270  0.1551  0.7776
 6714TIP3    H120087   3.024   6.317   6.051  0.7828 -0.5779  1.0862
 6714TIP3    H220088   3.068   6.183   5.996 -1.4110 -0.8066 -0.2860
 6715TIP3   OH220089   7.781   5.588   0.846 -0.2671  0.3876  0.8594
 6715TIP3    H120090   7.869   5.553   0.857 -0.2252  0.4400  0.7021
 6715TIP3    H220091   7.724   5.526   0.891 -0.4413 -1.1034 -1.2327
 6716TIP3   OH220092   7.275   3.113   3.714  0.0627  0.0458  0.3033
 6716TIP3    H120093   7.307   3.166   3.641 -1.7770 -0.7958 -1.2009
 6716TIP3    H220094   7.333   3.037   3.716  1.6173  1.1957  1.3330
 6717TIP3   OH220095   4.653   7.722   4.789  0.5013 -0.3938 -0.2021
 6717TIP3    H120096   4.690   7.762   4.710  1.6746  0.1730  0.5895
 6717TIP3    H220097   4.712   7.649   4.809  0.8938  0.1536  0.7496
 6718TIP3   OH220098   0.863   2.200   5.643  0.3143  0.0135  0.1292
 6718TIP3    H120099   0.832   2.110   5.648 -0.7198  0.4136  1.2394
 6718TIP3    H220100   0.926   2.208   5.714 -0.3048  0.4270  0.6364
 6719TIP3   OH220101   7.687   1.409   2.193 -0.6876 -0.0559 -0.3788
 6719TIP3    H120102   7.737   1.328   2.205 -0.6823  0.0074  0.0690
 6719TIP3    H220103   7.616   1.385   2.133  0.3280  0.0454 -1.6711
 6720TIP3   OH220104   2.787   5.958   0.161 -0.0996 -0.3885  0.0097
 6720TIP3    H120105   2.817   5.871   0.188 -1.2155 -1.0974 -0.9353
 6720TIP3    H220106   2.868   6.004   0.138  0.4365 -1.5930 -0.6480
 6721TIP3   OH220107   7.620   7.826   4.796 -0.2877  0.3384 -0.7026
 6721TIP3    H120108   7.703   7.778   4.801 -0.3275  0.3705  2.4515
 6721TIP3    H220109   7.553   7.759   4.808 -0.4150  0.8178  1.8789
 6722TIP3   OH220110   4.324   3.213   5.059  0.2869 -0.3067  0.0999
 6722TIP3    H120111   4.249   3.259   5.023 -0.2680 -1.6839 -0.5785
 6722TIP3    H220112   4.375   3.185   4.983  0.3862 -1.1534  0.4597
 6723TIP3   OH220113   4.151   4.543   2.664  0.2842  0.3077 -0.1117
 6723TIP3    H120114   4.204   4.482   2.714  1.6157  1.9455  0.5459
 6723TIP3    H220115   4.078   4.564   2.721 -0.0969 -0.4977 -0.2792
 6724TIP3   OH220116   6.362   3.003   0.073  0.0467 -0.1806  0.8980
 6724TIP3    H120117   6.372   3.098   0.073 -0.9897 -0.0584  0.3427
 6724TIP3    H220118   6.367   2.978  -0.019  1.7380 -0.8589  1.1188
 6725TIP3   OH220119   1.539   6.204   2.323 -0.1371  0.4927  0.2489
 6725TIP3    H120120   1.582   6.256   2.391  3.3491 -2.5796  0.7155
 6725TIP3    H220121   1.598   6.210   2.248 -0.2151 -1.6726 -0.0583
 6726TIP3   OH220122   8.252   6.596   6.305  0.0143  0.3993  0.6428
 6726TIP3    H120123   8.179   6.657   6.295 -0.0493  0.3627  0.8721
 6726TIP3    H220124   8.318   6.627   6.243 -1.1208 -0.9750 -1.3759
 6727TIP3   OH220125   3.754   1.206   5.113  0.1127 -0.4216 -0.2763
 6727TIP3    H120126   3.676   1.200   5.058  0.6230 -0.5034 -1.0172
 6727TIP3    H220127   3.808   1.273   5.070  0.6784 -0.7449 -0.0870
 6728TIP3   OH220128   7.551   0.237   5.728 -0.2945  0.0443 -0.8617
 6728TIP3    H120129   7.460   0.233   5.697 -0.3425 -0.3315 -0.6801
 6728TIP3    H220130   7.583   0.321   5.697 -1.2587  1.0106  0.6214
 6729TIP3   OH220131   6.536   4.589   2.541  0.0663 -0.2590 -0.2653
 6729TIP3    H120132   6.443   4.568   2.545  0.1805 -0.5582  1.7020
 6729TIP3    H220133   6.572   4.555   2.623  1.5083  1.6401 -0.0275
 6730TIP3   OH220134   5.116   5.810   6.505 -0.1102  0.0442  0.3066
 6730TIP3    H120135   5.072   5.851   6.431 -0.7278 -0.3159  0.4640
 6730TIP3    H220136   5.075   5.849   6.582  1.2444  1.1708  0.4760
 6731TIP3   OH220137   0.719   5.939   0.292 -0.3901  0.2292 -0.5464
 6731TIP3    H120138   0.779   6.005   0.326 -0.2446 -0.4908  0.6915
 6731TIP3    H220139   0.710   5.876   0.364 -0.4482 -1.1438 -1.7088
 6732TIP3   OH220140   5.631   2.894   6.281 -0.0599  0.0934  0.1974
 6732TIP3    H120141   5.563   2.836   6.245 -1.3766  1.4003  0.4834
 6732TIP3    H220142   5.611   2.899   6.374  1.4743 -0.8173  0.6071
 6733TIP3   OH220143   7.298   0.484   2.046 -0.3949  0.5150 -0.0311
 6733TIP3    H120144   7.373   0.537   2.019 -1.6404  1.2645 -2.2872
 6733TIP3    H220145   7.256   0.536   2.115  0.9568  0.2150  1.0505
 6734TIP3   OH220146   4.831   2.429   1.741  0.0201  0.2240  0.2420
 6734TIP3    H120147   4.836   2.416   1.836  1.7863 -1.6019 -0.0228
 6734TIP3    H220148   4.759   2.372   1.713 -1.1559  1.5049  0.5402
 6735TIP3   OH220149   6.193   4.029   4.173  0.1871 -0.2854 -0.0142
 6735TIP3    H120150   6.167   3.967   4.105 -0.8397  0.2831 -0.1621
 6735TIP3    H220151   6.110   4.063   4.207  0.7368  1.2717 -0.1841
 6736TIP3   OH220152   2.359   2.746   5.605  0.1368 -0.2169 -0.3691
 6736TIP3    H120153   2.291   2.814   5.604 -0.4537 -0.7671  0.7191
 6736TIP3    H220154   2.356   2.708   5.518 -1.3679 -0.6061 -0.1812
 6737TIP3   OH220155   1.177   4.356   4.206 -0.9378  0.1524 -0.0885
 6737TIP3    H120156   1.247   4.339   4.269 -1.5145 -0.1599  0.4706
 6737TIP3    H220157   1.115   4.413   4.252 -0.2778  1.7932 -1.1115
 6738TIP3   OH220158   5.641   5.541   4.248  0.6308  0.3514  0.4329
 6738TIP3    H120159   5.564   5.519   4.301 -0.0716  0.0752 -0.6863
 6738TIP3    H220160   5.606   5.592   4.175  1.3706 -0.6285 -0.6311
 6739TIP3   OH220161   2.459   2.560   1.496 -0.3688  0.5491 -0.1655
 6739TIP3    H120162   2.478   2.654   1.492  1.4287  0.2132 -0.2990
 6739TIP3    H220163   2.401   2.544   1.421 -0.0834  1.4201 -0.5890
 6740TIP3   OH220164   3.276   3.784   4.398 -0.3120  0.7751 -0.1786
 6740TIP3    H120165   3.231   3.802   4.316 -0.1931  1.7951 -0.0386
 6740TIP3    H220166   3.211   3.802   4.466 -0.9933 -1.7959 -0.0477
 6741TIP3   OH220167   7.974   3.643   3.051 -0.5086  0.3194  0.0662
 6741TIP3    H120168   8.068   3.647   3.034 -0.5312  0.9552  0.0559
 6741TIP3    H220169   7.963   3.570   3.112  0.2585  1.5851  1.8035
 6742TIP3   OH220170   2.183   0.711   3.747  0.4679 -0.6382  0.1239
 6742TIP3    H120171   2.167   0.616   3.749  0.1801 -0.6464 -1.7004
 6742TIP3    H220172   2.219   0.728   3.661 -1.9742  1.2890 -0.6206
 6743TIP3   OH220173   0.940   0.885   6.128  0.0971  0.7185  0.2369
 6743TIP3    H120174   0.879   0.939   6.079  0.3491  1.6103  0.8749
 6743TIP3    H220175   1.021   0.936   6.130  1.4422 -1.1357 -2.0038
 6744TIP3   OH220176   2.707   2.663  -0.030  0.6895 -0.1410  0.0067
 6744TIP3    H120177   2.749   2.734   0.020  0.3408  0.1407 -0.0989
 6744TIP3    H220178   2.655   2.616   0.035 -0.0098  0.4117 -0.1406
 6745TIP3   OH220179   0.136   1.172   6.707 -0.1848  0.0873  0.0792
 6745TIP3    H120180   0.179   1.092   6.676 -2.2493 -0.2037 -2.2951
 6745TIP3    H220181   0.054   1.142   6.746 -0.4193  0.9468  0.2771
 6746TIP3   OH220182   2.737   0.132   1.200  0.5990 -0.2883 -0.0853
 6746TIP3    H120183   2.740   0.211   1.145 -1.1120  0.4898  0.8599
 6746TIP3    H220184   2.682   0.071   1.150 -2.5812  1.1024  1.4500
 6747TIP3   OH220185   4.389   6.346   5.080  0.1977  0.1896 -0.0465
 6747TIP3    H120186   4.349   6.319   5.162  1.5398 -0.9192  0.2797
 6747TIP3    H220187   4.483   6.350   5.099  0.4253  1.0453 -1.2262
 6748TIP3   OH220188   6.874   1.230   5.498  0.1558 -0.0635 -0.7993
 6748TIP3    H120189   6.934   1.298   5.530  0.5310 -1.0182  0.6237
 6748TIP3    H220190   6.929   1.173   5.444  0.3585 -0.4757 -0.1676
 6749TIP3   OH220191   5.536   3.535   4.807  0.7127 -0.3814 -0.2837
 6749TIP3    H120192   5.623   3.562   4.836  0.6301 -0.1550 -0.2457
 6749TIP3    H220193   5.479   3.550   4.882  0.2118  1.6442 -1.0137
 6750TIP3   OH220194   7.390   2.338   4.556  0.0560 -0.2544 -0.1408
 6750TIP3    H120195   7.393   2.407   4.490 -0.4572  1.3746  1.4506
 6750TIP3    H220196   7.481   2.325   4.582  0.0055  1.4337  1.0632
 6751TIP3   OH220197   5.243   7.660   0.632 -0.7695 -0.6862  0.0029
 6751TIP3    H120198   5.327   7.689   0.668 -0.9771 -0.1951  0.0882
 6751TIP3    H220199   5.254   7.670   0.537 -1.3742  1.1777  0.0857
 6752TIP3   OH220200   4.218   1.762   0.533 -0.6405 -0.0836 -0.3011
 6752TIP3    H120201   4.304   1.738   0.568 -0.8452 -0.3231  0.0458
 6752TIP3    H220202   4.170   1.679   0.528 -0.4245 -0.1510 -1.7045
 6753TIP3   OH220203   5.908   6.384   6.318 -0.0631 -0.4246  0.1033
 6753TIP3    H120204   5.966   6.337   6.258  0.2823 -1.2539  1.0629
 6753TIP3    H220205   5.948   6.373   6.404 -0.6896  0.5230  0.5318
 6754TIP3   OH220206   3.857   4.693   5.786  0.1980 -0.6179 -0.1874
 6754TIP3    H120207   3.866   4.599   5.774  0.5405 -0.7841  1.1430
 6754TIP3    H220208   3.763   4.707   5.797  0.0517 -0.6657 -1.3186
 6755TIP3   OH220209   1.868   4.743   4.660  0.5473  0.7746 -0.3432
 6755TIP3    H120210   1.963   4.751   4.655  0.7944  0.7099  2.5647
 6755TIP3    H220211   1.851   4.649   4.664  0.3794  0.7964 -0.5035
 6756TIP3   OH220212   7.793   3.826   2.932  1.0665  0.5621  0.1640
 6756TIP3    H120213   7.855   3.898   2.928  0.2102  1.4283  1.6003
 6756TIP3    H220214   7.836   3.759   2.984  1.3798  0.5415 -0.1210
 6757TIP3   OH220215   6.255   6.959   0.336  0.1683  0.5795 -0.0735
 6757TIP3    H120216   6.278   6.891   0.398  1.0009  1.0606  0.1495
 6757TIP3    H220217   6.289   6.928   0.252  1.6702  1.2830  0.2515
 6758TIP3   OH220218   2.425   0.496   3.047  0.2076 -0.2008  0.2942
 6758TIP3    H120219   2.447   0.559   3.116  0.7785 -1.0523  0.9055
 6758TIP3    H220220   2.458   0.412   3.079 -3.7355 -1.6397  1.2555
 6759TIP3   OH220221   2.908   4.325   6.687 -0.3341 -0.0917 -0.1554
 6759TIP3    H120222   2.949   4.411   6.686 -0.0102 -0.2219  0.5974
 6759TIP3    H220223   2.866   4.319   6.773  0.7144 -1.1549  0.3111
 6760TIP3   OH220224   2.974   3.647   3.135 -0.0391 -0.7888 -0.2107
 6760TIP3    H120225   2.881   3.647   3.114 -0.7450  0.5769  2.4295
 6760TIP3    H220226   2.978   3.675   3.226  3.1600  3.8573 -1.3876
 6761TIP3   OH220227   2.169   4.920   4.116  0.1478  0.0189 -0.0066
 6761TIP3    H120228   2.078   4.946   4.099 -0.3155 -1.3028  0.3128
 6761TIP3    H220229   2.201   4.985   4.179 -0.3882  0.8180 -0.5360
 6762TIP3   OH220230   1.861   3.227   0.104  0.3387 -0.5827  0.2899
 6762TIP3    H120231   1.776   3.270   0.098  0.0614 -0.9681  1.2840
 6762TIP3    H220232   1.886   3.211   0.013 -1.5716 -2.2241 -0.0371
 6763TIP3   OH220233   3.844   1.083   6.044 -0.1579  0.1977  0.2314
 6763TIP3    H120234   3.794   1.115   5.969  0.1439  0.0551 -0.0350
 6763TIP3    H220235   3.872   0.995   6.019 -0.1130  0.1218  0.5417
 6764TIP3   OH220236   2.241   0.405   4.094  0.1768  0.2968 -0.1061
 6764TIP3    H120237   2.317   0.401   4.151 -0.2176 -1.9139  0.3282
 6764TIP3    H220238   2.278   0.419   4.006  1.1305 -0.9354  0.0693
 6765TIP3   OH220239   1.180   2.752   2.289  0.2070  0.2498 -0.4668
 6765TIP3    H120240   1.143   2.670   2.320 -0.3194 -0.0868 -1.9420
 6765TIP3    H220241   1.238   2.780   2.360  0.2648 -1.2953  0.1279
 6766TIP3   OH220242   0.963   1.334   1.064  0.2434  0.1836  0.4462
 6766TIP3    H120243   0.870   1.355   1.056  0.2324  0.2309  0.6786
 6766TIP3    H220244   0.971   1.298   1.152  0.0843 -1.7454 -0.2923
 6767TIP3   OH220245   6.892   5.021   1.440  0.0002 -0.4919 -0.3328
 6767TIP3    H120246   6.854   5.026   1.527  0.0414 -0.9374 -0.2870
 6767TIP3    H220247   6.886   5.110   1.406  0.0463 -0.3021  0.1507
 6768TIP3   OH220248   2.040   2.499   0.196  0.7649 -0.2040  0.5524
 6768TIP3    H120249   2.003   2.463   0.276 -2.2113  3.0872  0.8882
 6768TIP3    H220250   1.984   2.463   0.126  0.8743 -0.0451  0.3830
 6769TIP3   OH220251   4.022   3.964   6.734 -0.1084  0.4708  0.0474
 6769TIP3    H120252   4.022   3.939   6.642 -2.2182 -2.1363  0.6537
 6769TIP3    H220253   4.112   3.948   6.764 -0.0016 -1.0598 -0.9999
 6770TIP3   OH220254   0.649   3.957   1.708 -0.9271  0.0613  0.6611
 6770TIP3    H120255   0.615   3.939   1.795 -2.2449  0.4962  0.2520
 6770TIP3    H220256   0.573   3.952   1.650 -0.1421  0.1623 -0.4124
 6771TIP3   OH220257   6.077   3.613   0.596 -0.2665 -0.2902  0.0769
 6771TIP3    H120258   6.075   3.529   0.642  0.2765 -0.9193 -1.0404
 6771TIP3    H220259   6.169   3.628   0.575 -0.6029 -0.5440 -1.7464
 6772TIP3   OH220260   4.742   2.164   0.878  0.3851  0.3371 -0.5249
 6772TIP3    H120261   4.770   2.092   0.935 -0.6603 -1.1956 -1.8612
 6772TIP3    H220262   4.794   2.152   0.798 -1.6829 -0.6535 -1.8164
 6773TIP3   OH220263   4.252   3.251   3.199 -0.2449 -0.2043 -0.5206
 6773TIP3    H120264   4.164   3.265   3.163  0.9184  1.2811 -3.0285
 6773TIP3    H220265   4.264   3.156   3.195 -1.2774 -0.3240 -1.3591
 6774TIP3   OH220266   2.252   3.444   3.041 -0.1855  0.1583 -0.1863
 6774TIP3    H120267   2.283   3.534   3.053 -0.3474  0.1458  0.3586
 6774TIP3    H220268   2.326   3.389   3.064 -0.9712  0.0940  2.5132
 6775TIP3   OH220269   3.635   5.634   4.087 -0.1044 -0.2930 -0.6022
 6775TIP3    H120270   3.592   5.607   4.006 -0.9513  0.1736 -0.3252
 6775TIP3    H220271   3.665   5.723   4.070 -2.5159  0.7930  0.3771
 6776TIP3   OH220272   1.406   2.977   0.747 -0.4699  0.6200  0.5972
 6776TIP3    H120273   1.451   3.060   0.758  1.6478 -0.4699  0.8091
 6776TIP3    H220274   1.475   2.911   0.753 -1.5570 -1.0394 -2.4896
 6777TIP3   OH220275   7.195   4.801   5.851  0.1308  0.3463  0.1961
 6777TIP3    H120276   7.123   4.842   5.900 -0.5225 -1.4590  0.8818
 6777TIP3    H220277   7.274   4.833   5.893 -0.3977 -0.4370  1.8988
 6778TIP3   OH220278   7.433   6.934   3.703  0.4226  0.0174  0.1002
 6778TIP3    H120279   7.401   6.884   3.628 -1.9531  0.5921  0.6541
 6778TIP3    H220280   7.529   6.931   3.694  0.2654  0.4117 -3.1729
 6779TIP3   OH220281   2.359   0.571   0.595 -0.2799  0.0929  0.2200
 6779TIP3    H120282   2.282   0.530   0.555 -2.1552  1.9285  1.7358
 6779TIP3    H220283   2.367   0.528   0.680 -0.5230  0.8970  0.6553
 6780TIP3   OH220284   1.531   1.783   2.868  0.1899 -0.0686  0.3446
 6780TIP3    H120285   1.495   1.767   2.781 -1.8275 -0.8353  1.2466
 6780TIP3    H220286   1.508   1.705   2.918  0.6089  0.6875  1.7784
 6781TIP3   OH220287   4.147   6.360   2.466 -0.2167 -0.2026  0.3682
 6781TIP3    H120288   4.144   6.445   2.422  0.1225 -1.0416 -1.3633
 6781TIP3    H220289   4.065   6.317   2.442 -0.1160 -0.6087  0.7293
 6782TIP3   OH220290   7.773   1.034   2.521  0.5470 -0.5921 -0.3037
 6782TIP3    H120291   7.720   0.967   2.479 -1.6649 -0.6330  2.2732
 6782TIP3    H220292   7.853   0.988   2.548  0.0841 -1.6121 -0.6370
 6783TIP3   OH220293   4.367   2.770   2.569  0.0058  0.2045 -0.3690
 6783TIP3    H120294   4.283   2.816   2.570 -0.3239 -0.3668  1.3076
 6783TIP3    H220295   4.429   2.834   2.607 -0.8572 -1.2658  4.0557
 6784TIP3   OH220296   7.448   5.659   3.155  0.7146 -0.3540  0.5141
 6784TIP3    H120297   7.494   5.740   3.177  0.9331 -0.0504 -0.9415
 6784TIP3    H220298   7.518   5.598   3.130  0.5211 -0.8740  1.2178
 6785TIP3   OH220299   5.823   3.404   3.354  0.0800 -0.0712 -0.3417
 6785TIP3    H120300   5.902   3.350   3.354 -0.4762 -0.8956  0.4892
 6785TIP3    H220301   5.751   3.342   3.365 -0.6074  0.7783  0.0454
 6786TIP3   OH220302   3.574   4.395   3.624 -0.3853 -0.3044  0.3147
 6786TIP3    H120303   3.608   4.472   3.579 -0.5887 -0.7304 -0.5969
 6786TIP3    H220304   3.646   4.365   3.678 -0.5892  1.0405  1.3996
 6787TIP3   OH220305   7.755   3.129   4.249 -0.1060 -0.4665  0.3644
 6787TIP3    H120306   7.745   3.223   4.232  0.7668 -0.1493  1.5333
 6787TIP3    H220307   7.723   3.087   4.169  3.1588  0.9268 -1.8702
 6788TIP3   OH220308   6.644   6.297   3.144 -0.2420  0.1182 -0.8741
 6788TIP3    H120309   6.580   6.363   3.170  0.3726  0.5681 -0.4546
 6788TIP3    H220310   6.596   6.237   3.088 -0.5554  1.5071 -2.1467
 6789TIP3   OH220311   3.824   4.973   0.733  0.4176  0.0848 -0.2786
 6789TIP3    H120312   3.757   5.018   0.784  0.6117  1.8373 -1.4872
 6789TIP3    H220313   3.898   4.964   0.793  0.3871  1.4630  0.0051
 6790TIP3   OH220314   0.751   4.085   5.883  0.0558 -0.2008  0.2516
 6790TIP3    H120315   0.753   4.085   5.978 -0.1818 -1.9980  0.3107
 6790TIP3    H220316   0.668   4.127   5.861  0.3239  0.6412  0.8041
 6791TIP3   OH220317   6.751   4.931   6.136 -0.1120  0.2017 -0.2889
 6791TIP3    H120318   6.741   4.887   6.221  1.5388  1.4902  0.6402
 6791TIP3    H220319   6.662   4.956   6.112 -0.4767  1.2899  1.9196
 6792TIP3   OH220320   1.476   0.926   4.939  0.3452  0.1139  0.0304
 6792TIP3    H120321   1.416   0.880   4.880  0.7080 -0.3886  0.0489
 6792TIP3    H220322   1.536   0.858   4.970  1.0903  0.6500 -0.1965
 6793TIP3   OH220323   2.454   2.361   2.025 -0.4593  0.1720 -0.1541
 6793TIP3    H120324   2.488   2.431   1.970 -1.1675  0.8102  0.1972
 6793TIP3    H220325   2.524   2.345   2.089 -0.0949  0.2104 -0.5371
 6794TIP3   OH220326   7.466   4.091   6.641 -0.8109 -0.1735 -0.0390
 6794TIP3    H120327   7.415   4.169   6.617 -0.1662  0.4817  0.6508
 6794TIP3    H220328   7.554   4.110   6.612 -0.6576 -0.6777  0.0840
 6795TIP3   OH220329   0.353   3.092   2.130  0.6430 -0.1518 -0.2812
 6795TIP3    H120330   0.387   3.007   2.104 -0.6769 -0.5825 -0.7055
 6795TIP3    H220331   0.283   3.110   2.067  0.0143  0.6279  0.6108
 6796TIP3   OH220332   5.329   0.896   6.478 -0.1161 -0.1813 -0.3251
 6796TIP3    H120333   5.242   0.881   6.516 -1.9212  2.6692 -2.7908
 6796TIP3    H220334   5.385   0.831   6.519 -3.3245 -1.9536  1.6934
 6797TIP3   OH220335   2.107   1.926   5.469  0.4086  0.2846 -0.2917
 6797TIP3    H120336   2.158   1.856   5.507 -1.5391 -0.4872  1.0671
 6797TIP3    H220337   2.137   2.005   5.514  0.6458 -0.1034  0.2383
 6798TIP3   OH220338   1.827   1.540   1.208 -0.4708 -0.3761 -0.0965
 6798TIP3    H120339   1.762   1.536   1.138  0.1412 -1.7303 -0.6175
 6798TIP3    H220340   1.779   1.511   1.286 -0.8588  0.0097 -0.1881
 6799TIP3   OH220341   5.287   6.576   6.312 -0.3796  0.4998  0.1692
 6799TIP3    H120342   5.309   6.589   6.220  2.2075  0.0039  0.6421
 6799TIP3    H220343   5.287   6.481   6.324  0.0278  0.5796  0.8333
 6800TIP3   OH220344   0.998   0.403   6.376  0.8030  0.1618 -0.1943
 6800TIP3    H120345   0.958   0.407   6.463  1.5384 -2.0834  0.3269
 6800TIP3    H220346   1.073   0.461   6.382 -0.2338  1.5345  0.0130
 6801TIP3   OH220347   3.282   6.487   3.317 -0.0984 -0.3916 -0.0063
 6801TIP3    H120348   3.291   6.401   3.357  1.4363 -0.2712 -0.0158
 6801TIP3    H220349   3.261   6.546   3.389 -0.4442 -0.6584  0.1125
 6802TIP3   OH220350   3.039   5.364   5.129 -0.1462  0.2907  0.2674
 6802TIP3    H120351   3.130   5.333   5.126 -0.7825 -1.7918 -3.0110
 6802TIP3    H220352   3.011   5.348   5.219  2.2081 -0.7552  0.8916
 6803TIP3   OH220353   1.182   5.769   0.525  0.0998 -0.3392  0.7951
 6803TIP3    H120354   1.231   5.819   0.460 -0.0831  1.3117  1.8775
 6803TIP3    H220355   1.225   5.683   0.526  0.5129 -0.1935 -1.0092
 6804TIP3   OH220356   7.712   7.449   4.705  0.0583 -0.0197 -0.2025
 6804TIP3    H120357   7.631   7.420   4.661 -0.5588  0.5677  0.5082
 6804TIP3    H220358   7.742   7.522   4.652  0.2171 -0.3422 -0.5620
 6805TIP3   OH220359   1.094   0.689   5.539  0.0791 -0.4345  0.5865
 6805TIP3    H120360   1.047   0.635   5.476 -0.4589 -0.3892  0.9426
 6805TIP3    H220361   1.094   0.637   5.620  0.3569 -0.2942  0.6771
 6806TIP3   OH220362   6.047   3.747   0.094 -0.5065 -0.5636  0.3053
 6806TIP3    H120363   5.962   3.769   0.056 -0.3924  0.0727  0.3999
 6806TIP3    H220364   6.025   3.698   0.173 -0.7852 -0.4912  0.2764
 6807TIP3   OH220365   1.546   4.120   6.152 -0.2544 -0.1366 -0.2514
 6807TIP3    H120366   1.491   4.190   6.187 -0.5658  0.3795 -1.6842
 6807TIP3    H220367   1.622   4.118   6.210  0.3821  2.2671 -0.8644
 6808TIP3   OH220368   2.926   5.399   5.395  0.2779 -0.5706 -0.0673
 6808TIP3    H120369   2.864   5.473   5.391  1.2873  0.4667  2.0852
 6808TIP3    H220370   3.003   5.434   5.438  0.6029 -3.0165  1.5416
 6809TIP3   OH220371   8.120   1.591   1.216 -0.3709 -0.0738 -0.8369
 6809TIP3    H120372   8.075   1.676   1.224 -0.2928 -0.0343 -0.8207
 6809TIP3    H220373   8.079   1.550   1.140 -0.4710 -0.0599 -0.7916
 6810TIP3   OH220374   1.351   2.151   4.244  0.1047 -0.3778  0.5646
 6810TIP3    H120375   1.431   2.128   4.197  0.4369  1.1877  0.3212
 6810TIP3    H220376   1.295   2.074   4.236  1.1682 -1.0922 -0.1714
 6811TIP3   OH220377   0.735   7.324   0.613  0.2457 -0.1332 -0.0688
 6811TIP3    H120378   0.806   7.305   0.675 -0.2481 -1.2435  0.1902
 6811TIP3    H220379   0.755   7.411   0.579  2.0095 -0.6349 -0.3881
 6812TIP3   OH220380   7.464   2.137   3.814 -0.3471 -0.1417 -0.0429
 6812TIP3    H120381   7.403   2.168   3.881  0.4915 -1.1454  1.2418
 6812TIP3    H220382   7.538   2.103   3.863  0.4201 -0.6808 -1.5056
 6813TIP3   OH220383   4.788   1.280   0.438  0.0596  0.0984 -0.0757
 6813TIP3    H120384   4.832   1.343   0.381  0.3872  1.2434  1.3902
 6813TIP3    H220385   4.817   1.194   0.406  0.5634  0.7091 -1.3363
 6814TIP3   OH220386   1.404   0.899   0.439  0.1904  0.0873 -0.3100
 6814TIP3    H120387   1.494   0.883   0.466  0.1151 -0.2315 -0.2412
 6814TIP3    H220388   1.362   0.936   0.517  0.0229 -0.6521 -0.0381
 6815TIP3   OH220389   0.493   2.428   0.576 -0.3806 -0.0773 -0.5500
 6815TIP3    H120390   0.477   2.375   0.654 -1.1056  1.2583  0.2442
 6815TIP3    H220391   0.418   2.486   0.570  0.5641  1.1460 -1.1529
 6816TIP3   OH220392   1.238   4.713   3.279 -0.2493  0.3431 -0.3364
 6816TIP3    H120393   1.200   4.639   3.232  0.5857 -0.2865 -0.0584
 6816TIP3    H220394   1.300   4.673   3.340 -0.2610  1.2364  0.2822
 6817TIP3   OH220395   7.203   5.673   3.685  0.6297 -0.1369  0.5585
 6817TIP3    H120396   7.168   5.761   3.673 -0.1646 -0.6190 -0.8788
 6817TIP3    H220397   7.238   5.649   3.599  0.6010 -1.3173  0.8593
 6818TIP3   OH220398   7.070   5.968   0.623  0.4289  0.2158 -0.0702
 6818TIP3    H120399   7.042   5.892   0.572 -0.7607  1.0425 -0.6965
 6818TIP3    H220400   7.109   6.027   0.559  1.0786  0.2756  0.3657
 6819TIP3   OH220401   5.586   4.959   1.299  0.2711 -0.5432 -0.3711
 6819TIP3    H120402   5.562   4.963   1.207  0.2825 -0.4543 -0.3705
 6819TIP3    H220403   5.682   4.955   1.299  0.2986  0.0695 -0.3453
 6820TIP3   OH220404   8.027   6.379   0.167 -0.0579 -0.1381 -0.3911
 6820TIP3    H120405   8.033   6.413   0.257 -0.4073  0.4143 -0.5734
 6820TIP3    H220406   8.017   6.284   0.178  0.6978 -0.1635  0.1307
 6821TIP3   OH220407   5.480   2.664   1.210  0.2144 -0.1904  0.8065
 6821TIP3    H120408   5.392   2.627   1.201  0.6675 -1.4290  1.2932
 6821TIP3    H220409   5.527   2.603   1.266  1.8174 -0.3077 -0.5561
 6822TIP3   OH220410   3.202   4.721   2.594  0.0796  0.1862  0.1614
 6822TIP3    H120411   3.177   4.737   2.503 -0.0750 -0.5682  0.0673
 6822TIP3    H220412   3.140   4.773   2.645 -1.7410 -1.6101 -0.0707
 6823TIP3   OH220413   4.150   5.642   2.791  0.2361  0.5288 -0.0468
 6823TIP3    H120414   4.123   5.733   2.776  0.4941  0.5216 -0.5772
 6823TIP3    H220415   4.153   5.604   2.703 -1.9159 -0.5874  0.2789
 6824TIP3   OH220416   4.744   6.611   5.290  0.1132 -0.0978  0.1884
 6824TIP3    H120417   4.826   6.609   5.239  0.5031 -0.5034  0.8132
 6824TIP3    H220418   4.694   6.683   5.252  0.4801 -0.2607 -0.6342
 6825TIP3   OH220419   3.548   7.451   5.649 -0.4287 -0.1789  0.1225
 6825TIP3    H120420   3.564   7.481   5.738 -0.0014 -0.3052  0.0955
 6825TIP3    H220421   3.549   7.355   5.655 -1.9022 -0.1977  0.2302
 6826TIP3   OH220422   0.338   1.902   0.025  0.1037 -0.0014 -0.1277
 6826TIP3    H120423   0.389   1.887  -0.055 -0.2887  0.5151 -0.4772
 6826TIP3    H220424   0.398   1.876   0.096  0.5890 -0.1074 -0.5666
 6827TIP3   OH220425   6.774   4.856   2.107 -0.4560 -0.0985  0.8113
 6827TIP3    H120426   6.815   4.890   2.187  0.3205 -1.4452  1.0164
 6827TIP3    H220427   6.809   4.910   2.037 -0.5924  0.6340  1.2898
 6828TIP3   OH220428   7.734   3.176   6.378  0.3263 -0.2328  0.5007
 6828TIP3    H120429   7.738   3.080   6.377  1.2546 -0.2761 -2.6065
 6828TIP3    H220430   7.818   3.204   6.342  0.2908  1.8195  1.8524
 6829TIP3   OH220431   7.631   3.094   3.303  0.1821  0.0703  0.5317
 6829TIP3    H120432   7.589   3.011   3.281 -0.1058 -0.1480  1.8465
 6829TIP3    H220433   7.669   3.124   3.220  1.6441 -2.1387  0.3306
 6830TIP3   OH220434   5.412   7.286   3.887 -0.2957 -0.9963  0.5143
 6830TIP3    H120435   5.371   7.321   3.808  0.5013 -0.8363  0.1602
 6830TIP3    H220436   5.473   7.355   3.914 -0.5812 -1.0356  1.2907
 6831TIP3   OH220437   2.314   4.447   4.661  0.2311  0.4864  0.2908
 6831TIP3    H120438   2.311   4.413   4.750 -0.3271 -0.7169 -0.1532
 6831TIP3    H220439   2.403   4.428   4.630  1.1166  2.7712  1.2390
 6832TIP3   OH220440   4.418   6.076   2.224 -0.0510 -0.0501  0.1009
 6832TIP3    H120441   4.413   6.016   2.149 -0.6567 -0.2396  0.2902
 6832TIP3    H220442   4.486   6.139   2.199  0.2765 -0.5496 -0.2906
 6833TIP3   OH220443   6.161   3.924   1.838 -0.5076  0.5855  0.7435
 6833TIP3    H120444   6.147   3.960   1.925  0.7019 -0.2717  1.3159
 6833TIP3    H220445   6.225   3.983   1.798 -0.5440  0.5837  0.6820
 6834TIP3   OH220446   2.667   1.252   0.801 -0.0912  0.1932 -0.1558
 6834TIP3    H120447   2.649   1.333   0.849 -0.4088 -0.6394  1.1770
 6834TIP3    H220448   2.599   1.250   0.733 -0.3327  0.8404  0.0519
 6835TIP3   OH220449   4.277   1.954   5.369  0.3842 -0.4147 -0.0841
 6835TIP3    H120450   4.195   2.000   5.386 -0.4583 -1.6582 -0.6833
 6835TIP3    H220451   4.303   1.984   5.282  0.7051  0.1676  0.2077
 6836TIP3   OH220452   2.036   5.325   2.494 -0.4026 -0.8738 -0.1404
 6836TIP3    H120453   2.120   5.366   2.475 -0.2913  2.1176  4.9953
 6836TIP3    H220454   1.971   5.389   2.462 -0.7615 -2.0672 -1.9454
 6837TIP3   OH220455   0.303   7.388   1.277 -0.6369 -0.7683 -0.4556
 6837TIP3    H120456   0.304   7.442   1.356 -1.4592  1.2233 -1.7203
 6837TIP3    H220457   0.287   7.299   1.309 -1.6023  0.0577  1.5661
 6838TIP3   OH220458   0.728   4.387   1.891  0.7026 -0.3141 -0.7172
 6838TIP3    H120459   0.693   4.334   1.962 -1.1851  0.0368 -1.3420
 6838TIP3    H220460   0.776   4.324   1.836 -0.0208 -1.0638 -0.5155
 6839TIP3   OH220461   0.365   2.607   2.566 -0.4140 -0.6051 -0.4197
 6839TIP3    H120462   0.300   2.642   2.506 -0.2148  0.3446 -0.1097
 6839TIP3    H220463   0.398   2.684   2.613 -0.1445 -1.2498  0.4803
 6840TIP3   OH220464   5.393   0.656   0.390 -0.1845 -0.6251  0.1105
 6840TIP3    H120465   5.388   0.737   0.340  1.4553  0.0029  0.8852
 6840TIP3    H220466   5.463   0.606   0.348 -0.2504 -1.0325  0.4791
 6841TIP3   OH220467   0.883   5.273   3.897 -0.4479 -0.0061 -0.4886
 6841TIP3    H120468   0.896   5.281   3.803 -1.8408  0.6882 -0.6460
 6841TIP3    H220469   0.943   5.203   3.924  1.0212  0.7561 -1.6296
 6842TIP3   OH220470   3.615   7.681   3.038 -0.3229 -0.4295 -0.1080
 6842TIP3    H120471   3.703   7.645   3.031 -0.5263 -0.9484  0.0261
 6842TIP3    H220472   3.621   7.747   3.107 -0.0931 -0.6098  0.0417
 6843TIP3   OH220473   0.702   5.115   2.953  0.7512  0.2243  0.0437
 6843TIP3    H120474   0.796   5.115   2.935  0.4531  1.0481 -1.7220
 6843TIP3    H220475   0.661   5.106   2.866 -0.8001  0.2064  0.7482
 6844TIP3   OH220476   7.212   7.250   5.842 -0.0020  0.6904  0.6909
 6844TIP3    H120477   7.172   7.163   5.854  2.4050 -0.5773  0.1692
 6844TIP3    H220478   7.299   7.231   5.808  0.5600  3.3648  0.4692
 6845TIP3   OH220479   1.344   2.912   6.505 -0.1284 -0.0237 -0.4112
 6845TIP3    H120480   1.269   2.968   6.527  0.0630 -0.5016  1.6885
 6845TIP3    H220481   1.404   2.970   6.457 -0.4859  1.2360  0.6103
 6846TIP3   OH220482   7.527   0.392   6.252 -0.2599 -0.3292  0.1581
 6846TIP3    H120483   7.582   0.380   6.329 -0.2988 -1.5832  0.0029
 6846TIP3    H220484   7.576   0.351   6.181 -0.6024  0.0922 -0.3311
 6847TIP3   OH220485   1.966   6.495   3.639 -0.3468 -0.2981 -0.6222
 6847TIP3    H120486   2.012   6.568   3.681  0.0079 -0.4476 -0.7444
 6847TIP3    H220487   1.894   6.536   3.592  0.0629  0.0188 -0.9886
 6848TIP3   OH220488   3.675   2.450   1.216  0.1368 -0.0705 -0.1576
 6848TIP3    H120489   3.594   2.458   1.166  0.8678 -0.1056 -1.3927
 6848TIP3    H220490   3.659   2.379   1.277 -1.0216  0.4307  0.1481
 6849TIP3   OH220491   7.498   2.266   0.941 -0.4111  0.5840 -0.3130
 6849TIP3    H120492   7.545   2.189   0.974 -2.8124 -0.4437  0.9464
 6849TIP3    H220493   7.409   2.255   0.973 -1.0150  3.5794 -0.7187
 6850TIP3   OH220494   8.058   7.482   3.924  0.0628 -0.0424  0.2207
 6850TIP3    H120495   8.076   7.406   3.869 -0.3285  0.2375 -0.2978
 6850TIP3    H220496   8.052   7.447   4.013  0.0888 -0.5844  0.0096
 6851TIP3   OH220497   5.644   5.504   3.415  0.7083 -0.4742 -0.3797
 6851TIP3    H120498   5.566   5.559   3.424  1.6314  0.9275 -0.6619
 6851TIP3    H220499   5.610   5.415   3.414 -0.8247  0.0660  0.2826
 6852TIP3   OH220500   4.513   2.625   5.950  0.2210 -0.0051 -0.2169
 6852TIP3    H120501   4.567   2.552   5.922 -0.8485 -1.4330  1.2541
 6852TIP3    H220502   4.520   2.689   5.879  3.5288 -0.2252 -0.2571
 6853TIP3   OH220503   3.176   1.546   3.249  0.1437 -0.5293  0.3442
 6853TIP3    H120504   3.253   1.591   3.215  0.1733 -1.0524 -0.2941
 6853TIP3    H220505   3.178   1.564   3.343  0.0258  0.9838  0.0782
 6854TIP3   OH220506   0.370   7.145   3.116 -0.4107 -0.5365 -0.8014
 6854TIP3    H120507   0.461   7.160   3.143  0.4188 -1.3521 -2.8647
 6854TIP3    H220508   0.339   7.231   3.087 -0.5418 -0.1225  0.5268
 6855TIP3   OH220509   4.675   6.280   6.402 -0.0611 -0.2353 -0.1097
 6855TIP3    H120510   4.761   6.267   6.443 -0.2997 -1.1684  0.0964
 6855TIP3    H220511   4.621   6.319   6.471  0.1867  0.3442 -0.2372
 6856TIP3   OH220512   0.024   5.855   3.364 -0.1754 -0.2544 -0.5093
 6856TIP3    H120513   0.107   5.889   3.332 -0.6314  0.9188 -0.4786
 6856TIP3    H220514   0.025   5.873   3.458 -1.0736  1.1371 -0.7355
 6857TIP3   OH220515   2.322   3.230   1.789 -0.5575 -0.1387 -0.0101
 6857TIP3    H120516   2.238   3.187   1.802 -0.0919 -0.6958  1.3597
 6857TIP3    H220517   2.314   3.313   1.837 -0.6027  0.1801 -0.5655
 6858TIP3   OH220518   7.257   7.022   5.401  0.4451  0.3661 -0.3632
 6858TIP3    H120519   7.327   6.966   5.435 -1.3480 -1.3588  0.7763
 6858TIP3    H220520   7.297   7.070   5.329  2.2851 -2.0079 -1.0681
 6859TIP3   OH220521   7.866   1.463   3.815  0.2556 -0.4809  0.3713
 6859TIP3    H120522   7.948   1.417   3.831 -0.5383 -1.7427  0.9682
 6859TIP3    H220523   7.836   1.491   3.901 -0.4967 -1.0205  0.2935
 6860TIP3   OH220524   2.232   2.270   2.363 -0.2633  0.3504 -0.2732
 6860TIP3    H120525   2.224   2.304   2.452  1.0534  0.2471 -0.0926
 6860TIP3    H220526   2.278   2.187   2.374  0.4050  0.6012 -1.1004
 6861TIP3   OH220527   1.250   3.581   1.402  0.2107 -0.5028  0.7874
 6861TIP3    H120528   1.188   3.531   1.349 -2.1106  2.1857  0.7135
 6861TIP3    H220529   1.290   3.642   1.340  1.4130 -0.8071  1.2372
 6862TIP3   OH220530   4.965   0.358   0.069  0.1338 -0.0225 -0.1112
 6862TIP3    H120531   4.904   0.396   0.132  1.0083  0.0443  0.7270
 6862TIP3    H220532   4.921   0.365  -0.015 -0.1852  1.8213  0.1796
 6863TIP3   OH220533   4.980   2.667   5.370  0.0554 -0.7809  0.1111
 6863TIP3    H120534   5.008   2.750   5.409  0.7505 -1.0425  0.1847
 6863TIP3    H220535   5.057   2.636   5.322 -0.5080 -0.9013 -0.7333
 6864TIP3   OH220536   0.384   6.239   4.395  0.0330 -0.5539  0.2851
 6864TIP3    H120537   0.430   6.156   4.386  0.4569 -0.2250 -0.7729
 6864TIP3    H220538   0.416   6.292   4.322 -1.4727 -0.0356 -0.0252
 6865TIP3   OH220539   6.036   1.310   2.107  0.2088 -0.1218  0.2037
 6865TIP3    H120540   6.100   1.255   2.153  0.2832  1.3154  1.9360
 6865TIP3    H220541   6.032   1.390   2.160 -1.6320  0.5774 -0.9336
 6866TIP3   OH220542   7.782   5.822   5.023 -0.5796 -0.4136 -0.0513
 6866TIP3    H120543   7.726   5.829   4.946 -0.8508  0.2383  0.1994
 6866TIP3    H220544   7.829   5.906   5.026  1.5430 -1.4708 -1.1089
 6867TIP3   OH220545   3.491   7.358   0.126 -0.0519  0.3806  0.6594
 6867TIP3    H120546   3.484   7.340   0.220  0.2264 -0.6472  0.4976
 6867TIP3    H220547   3.569   7.309   0.098  0.8085  1.9627  0.1868
 6868TIP3   OH220548   7.666   2.606   4.844 -0.1641  1.1401  0.0615
 6868TIP3    H120549   7.724   2.675   4.813  0.2992  0.5276 -0.4870
 6868TIP3    H220550   7.584   2.620   4.796  0.8438 -0.3540 -2.2781
 6869TIP3   OH220551   1.738   7.296   2.654 -0.7471 -0.5714  0.0706
 6869TIP3    H120552   1.777   7.378   2.686  2.0197 -1.7197 -0.0693
 6869TIP3    H220553   1.705   7.253   2.733  0.9777 -0.8554  0.6850
 6870TIP3   OH220554   6.479   2.403   5.910  0.3029  0.2631  0.3778
 6870TIP3    H120555   6.545   2.371   5.848  2.2061  0.0417  2.3952
 6870TIP3    H220556   6.518   2.482   5.947 -1.6745  1.5375 -0.0742
 6871TIP3   OH220557   2.780   2.261   1.114 -0.2753  0.3645  0.6719
 6871TIP3    H120558   2.753   2.262   1.206 -2.4355 -2.2211  0.2239
 6871TIP3    H220559   2.710   2.309   1.068 -1.0235 -1.1599  0.1213
 6872TIP3   OH220560   1.294   7.444   0.178 -0.7158  0.2966 -0.3897
 6872TIP3    H120561   1.217   7.402   0.216 -0.2152  0.0396  0.3469
 6872TIP3    H220562   1.340   7.374   0.132 -0.4700  0.2679 -0.1022
 6873TIP3   OH220563   4.694   3.656   2.653  0.3913  0.4794 -0.0025
 6873TIP3    H120564   4.788   3.638   2.662  0.7348  1.8339 -0.5278
 6873TIP3    H220565   4.652   3.594   2.713  1.7514  1.1234  1.7388
 6874TIP3   OH220566   1.835   2.203   6.659  0.1564  0.0319 -0.3112
 6874TIP3    H120567   1.915   2.183   6.707 -0.5412 -0.6850  0.5975
 6874TIP3    H220568   1.792   2.118   6.649  0.3855  0.1179 -2.4373
 6875TIP3   OH220569   6.355   4.312   0.123  0.0974 -0.2081  0.2634
 6875TIP3    H120570   6.304   4.394   0.124  0.9201  0.3084  0.6601
 6875TIP3    H220571   6.293   4.246   0.091 -0.6589  0.5159  0.1960
 6876TIP3   OH220572   0.252   5.156   4.453  0.0409  0.5299  0.6345
 6876TIP3    H120573   0.341   5.186   4.470  0.2085  1.2448 -1.2425
 6876TIP3    H220574   0.262   5.061   4.439  0.3520  0.4504  1.3704
 6877TIP3   OH220575   5.788   6.002   0.985  0.4327  0.6023  0.0479
 6877TIP3    H120576   5.795   5.977   1.077 -0.3632 -1.6870 -0.4412
 6877TIP3    H220577   5.777   6.097   0.987  0.4841  0.6192  2.3052
 6878TIP3   OH220578   3.440   0.586   3.187 -0.0880  0.2618  0.2091
 6878TIP3    H120579   3.486   0.503   3.200 -0.8982 -0.3042 -0.4088
 6878TIP3    H220580   3.391   0.574   3.106  0.3523  1.6191 -0.2897
 6879TIP3   OH220581   4.141   7.345   0.427 -0.1896 -0.1641  0.0256
 6879TIP3    H120582   4.091   7.411   0.381 -1.6494 -2.0230 -1.2170
 6879TIP3    H220583   4.077   7.278   0.451  0.8617 -0.2456  3.0456
 6880TIP3   OH220584   8.216   3.263   6.226 -0.5383 -0.0605 -0.1346
 6880TIP3    H120585   8.145   3.208   6.259 -0.0606 -0.6191 -0.0059
 6880TIP3    H220586   8.281   3.200   6.193  0.1425  0.4161  0.2764
 6881TIP3   OH220587   4.572   6.720   3.591  0.2344  0.5173  0.0271
 6881TIP3    H120588   4.621   6.759   3.519 -1.1339  0.3639 -1.0279
 6881TIP3    H220589   4.480   6.738   3.570 -0.3617 -1.9226  0.2881
 6882TIP3   OH220590   3.934   0.848   6.416  0.4635 -0.5193 -0.3295
 6882TIP3    H120591   3.898   0.816   6.334  0.2641  0.3318 -0.5821
 6882TIP3    H220592   3.984   0.926   6.392  0.1741 -0.1033  0.3859
 6883TIP3   OH220593   4.892   4.084   1.656  0.3399 -0.1477  0.1662
 6883TIP3    H120594   4.866   4.162   1.705  1.6606 -0.1553  0.9337
 6883TIP3    H220595   4.977   4.108   1.617  0.4152 -0.9578 -0.1839
 6884TIP3   OH220596   2.056   1.905   3.128  0.0880 -0.3140 -0.2112
 6884TIP3    H120597   1.963   1.883   3.119 -0.7309  2.2363  1.1799
 6884TIP3    H220598   2.086   1.851   3.200 -0.6439 -0.2940  0.1212
 6885TIP3   OH220599   6.006   6.665   0.412 -0.2387 -0.5685  0.3696
 6885TIP3    H120600   5.952   6.676   0.333 -1.4025 -1.4960  1.0059
 6885TIP3    H220601   5.997   6.748   0.459 -0.0335 -0.2375 -0.1567
 6886TIP3   OH220602   2.304   1.893   2.187 -0.4373 -0.4863  0.1493
 6886TIP3    H120603   2.350   1.960   2.136 -0.1319 -0.2607  0.7200
 6886TIP3    H220604   2.368   1.823   2.199 -0.2962 -0.2579  0.7729
 6887TIP3   OH220605   4.022   3.840   2.679 -0.2586 -0.2545  0.6907
 6887TIP3    H120606   4.102   3.787   2.683 -1.0393 -1.4578  0.8304
 6887TIP3    H220607   3.953   3.777   2.660 -0.9399  1.0048 -1.2925
 6888TIP3   OH220608   4.721   4.850   6.428 -0.5844  0.6689  0.2944
 6888TIP3    H120609   4.798   4.841   6.371 -1.3551 -1.2597 -0.5212
 6888TIP3    H220610   4.692   4.940   6.414  0.9174  1.1206 -0.1480
 6889TIP3   OH220611   2.906   0.262   1.338 -0.0962  0.0704 -0.0671
 6889TIP3    H120612   2.921   0.337   1.280 -0.7735  2.2622  2.4030
 6889TIP3    H220613   2.844   0.207   1.289 -0.2139  1.5137 -1.6531
 6890TIP3   OH220614   6.090   1.248   4.043  0.1181  0.8363  0.6193
 6890TIP3    H120615   6.109   1.312   3.975  0.2664  0.8060  0.6305
 6890TIP3    H220616   6.160   1.183   4.035 -1.2168 -0.5257 -0.8297
 6891TIP3   OH220617   5.162   7.204   3.091 -0.4303 -0.1115  0.3303
 6891TIP3    H120618   5.188   7.262   3.019  0.9997 -0.2503  0.7172
 6891TIP3    H220619   5.121   7.129   3.048  1.6307 -0.8381 -0.4726
 6892TIP3   OH220620   5.030   3.789   6.372  0.0254  0.1607 -0.3792
 6892TIP3    H120621   4.980   3.861   6.333 -0.8178 -0.9104 -1.3864
 6892TIP3    H220622   5.031   3.722   6.303  1.9441 -0.2835  0.0317
 6893TIP3   OH220623   7.113   0.476   1.776  0.3712 -0.2648  0.5164
 6893TIP3    H120624   7.046   0.537   1.743  1.7409  0.1715 -1.7194
 6893TIP3    H220625   7.190   0.532   1.791  1.7439 -1.3573 -1.8340
 6894TIP3   OH220626   5.630   2.111   3.983 -0.2417 -0.1287 -0.1022
 6894TIP3    H120627   5.665   2.127   3.895 -0.6853 -1.1425 -0.4795
 6894TIP3    H220628   5.707   2.102   4.039  0.0420  0.6424 -0.3569
 6895TIP3   OH220629   7.888   5.572   5.434  0.2672  0.7908  0.6098
 6895TIP3    H120630   7.851   5.546   5.518 -1.6563 -0.2987 -0.5105
 6895TIP3    H220631   7.958   5.509   5.418  2.8609  2.8815  2.7565
 6896TIP3   OH220632   2.204   3.376   0.291  0.4149  0.3209  0.0244
 6896TIP3    H120633   2.221   3.337   0.205  1.9272 -1.1968  0.9440
 6896TIP3    H220634   2.263   3.451   0.296  1.2423 -0.3244  0.1851
 6897TIP3   OH220635   0.409   2.746   1.101  0.2445  0.2726  0.3004
 6897TIP3    H120636   0.339   2.782   1.046  0.8800  0.6607 -0.2696
 6897TIP3    H220637   0.414   2.806   1.175 -0.8512 -0.4429  0.9937
 6898TIP3   OH220638   5.888   2.093   5.401 -0.4079  0.0832  0.2970
 6898TIP3    H120639   5.949   2.095   5.327 -1.2865  1.9442 -0.4327
 6898TIP3    H220640   5.937   2.050   5.471  0.7462 -0.9601 -1.0841
 6899TIP3   OH220641   2.786   4.489   0.713  0.2509  0.2098  0.2128
 6899TIP3    H120642   2.848   4.460   0.780  0.4278 -1.8024 -0.7327
 6899TIP3    H220643   2.816   4.447   0.633 -1.4213  0.4688 -0.5979
 6900TIP3   OH220644   7.269   2.558   5.037  0.2092 -0.0146  0.4470
 6900TIP3    H120645   7.192   2.572   5.092  0.0860 -0.1021  0.2979
 6900TIP3    H220646   7.338   2.607   5.081 -0.7442  3.1768 -1.3123
 6901TIP3   OH220647   5.551   5.268   0.150 -0.5296 -0.0238 -0.4514
 6901TIP3    H120648   5.552   5.211   0.073 -0.7364 -0.5891 -0.0406
 6901TIP3    H220649   5.580   5.353   0.117 -2.0007  0.1323 -1.4674
 6902TIP3   OH220650   1.628   6.054   3.784 -0.5771 -0.5289  0.1598
 6902TIP3    H120651   1.662   5.967   3.765 -0.7185 -0.3741 -0.8608
 6902TIP3    H220652   1.534   6.048   3.765 -0.8841 -0.5609  1.5693
 6903TIP3   OH220653   3.198   2.599   4.797 -0.2258  0.0361  0.4057
 6903TIP3    H120654   3.206   2.613   4.703 -0.4511 -2.4435 -0.0497
 6903TIP3    H220655   3.284   2.564   4.824  0.5021  2.4334  1.5588
 6904TIP3   OH220656   3.031   5.729   1.788 -0.4124 -0.5060  0.5636
 6904TIP3    H120657   3.053   5.806   1.840 -2.1810 -0.1406  0.8330
 6904TIP3    H220658   3.024   5.658   1.853 -2.4548 -0.0833  0.8948
 6905TIP3   OH220659   0.364   0.187   6.070  0.2528 -0.1709  0.9693
 6905TIP3    H120660   0.454   0.214   6.085  0.1066 -0.3043  2.2447
 6905TIP3    H220661   0.364   0.093   6.088 -0.3754  0.0514  2.3034
 6906TIP3   OH220662   5.063   7.484   6.668 -0.3604 -0.1666 -0.0667
 6906TIP3    H120663   4.985   7.539   6.678 -0.3030 -0.1005  0.0178
 6906TIP3    H220664   5.029   7.395   6.668 -0.3841 -0.1559  0.4660
 6907TIP3   OH220665   7.141   5.151   2.251  0.3946 -0.0286 -0.0320
 6907TIP3    H120666   7.053   5.114   2.257 -0.7234  2.4003 -0.1308
 6907TIP3    H220667   7.172   5.126   2.164 -1.7758  2.0778 -1.5340
 6908TIP3   OH220668   4.153   7.703   1.482 -0.4917 -1.0351  0.5570
 6908TIP3    H120669   4.238   7.748   1.479 -0.5041 -1.0511 -2.4210
 6908TIP3    H220670   4.094   7.767   1.521  0.3036  0.1045 -0.0245
 6909TIP3   OH220671   5.307   1.463   3.759 -0.2265 -0.6528 -0.0624
 6909TIP3    H120672   5.335   1.498   3.675 -0.2132  1.2105  0.6814
 6909TIP3    H220673   5.358   1.511   3.824  1.2752 -3.4422  1.0241
 6910TIP3   OH220674   2.574   6.775   5.044 -0.2425 -0.1743 -0.2797
 6910TIP3    H120675   2.632   6.701   5.062 -0.3339 -0.1006  0.3135
 6910TIP3    H220676   2.594   6.839   5.112 -0.2635  0.2959 -0.7038
 6911TIP3   OH220677   5.693  -0.009   5.626  0.3907  0.6604 -0.5996
 6911TIP3    H120678   5.632   0.016   5.696  1.0108 -0.4969  0.3801
 6911TIP3    H220679   5.644   0.005   5.545 -0.9558  0.3544  0.1408
 6912TIP3   OH220680   6.024   4.164   1.628  0.1467  0.2750  0.0723
 6912TIP3    H120681   6.011   4.155   1.723  1.2210 -1.1416  0.1220
 6912TIP3    H220682   5.945   4.208   1.597 -1.1031 -0.9611  1.3542
 6913TIP3   OH220683   3.723   6.283   0.451 -0.3015  0.1329 -0.5469
 6913TIP3    H120684   3.639   6.237   0.456 -0.0997 -0.3130 -1.2088
 6913TIP3    H220685   3.780   6.224   0.402  0.5179  0.2673  0.2261
 6914TIP3   OH220686   6.706   3.183   4.507  0.3010  0.8567  0.2124
 6914TIP3    H120687   6.612   3.192   4.491 -0.0048 -0.5943  0.9652
 6914TIP3    H220688   6.722   3.238   4.584 -0.4447 -0.6787  1.5322
 6915TIP3   OH220689   6.403   1.821   0.999 -0.5338  0.5502  0.2559
 6915TIP3    H120690   6.313   1.853   0.992 -0.8582  0.2484  2.2596
 6915TIP3    H220691   6.405   1.775   1.083  1.6931  1.2496  0.6616
 6916TIP3   OH220692   1.699   3.646   1.533 -0.2816 -0.2076 -0.1154
 6916TIP3    H120693   1.618   3.662   1.486 -0.0940 -0.2809 -0.4624
 6916TIP3    H220694   1.676   3.578   1.597 -0.5552 -0.0431 -0.0385
 6917TIP3   OH220695   2.552   2.566   4.762  0.1998  0.9731 -0.1687
 6917TIP3    H120696   2.604   2.494   4.727 -0.5061  0.1007  0.5139
 6917TIP3    H220697   2.616   2.625   4.801  0.7868  0.6677 -0.6620
 6918TIP3   OH220698   5.532   1.619   3.026  0.4739 -0.0656  0.1337
 6918TIP3    H120699   5.558   1.699   3.073  0.7359  1.2222 -2.0717
 6918TIP3    H220700   5.613   1.588   2.985  0.0606 -0.6010 -0.2794
 6919TIP3   OH220701   7.846   1.499   6.658 -0.0980  0.1506 -0.0701
 6919TIP3    H120702   7.912   1.562   6.629 -0.7359  0.8120 -0.1081
 6919TIP3    H220703   7.884   1.461   6.738  0.2197  0.7159  0.0594
 6920TIP3   OH220704   7.684   6.805   1.074  0.1950 -0.1303 -0.2078
 6920TIP3    H120705   7.696   6.741   1.004 -0.5627 -0.7966  0.2547
 6920TIP3    H220706   7.701   6.890   1.032  0.7824 -0.5894 -0.9328
 6921TIP3   OH220707   3.336   4.746   6.157 -0.1638 -0.4599  0.4930
 6921TIP3    H120708   3.307   4.748   6.065  1.6124  0.2463 -0.0972
 6921TIP3    H220709   3.420   4.701   6.154  0.2934  0.2885  1.6619
 6922TIP3   OH220710   7.584   5.335   6.102  0.5575  0.1147  0.1145
 6922TIP3    H120711   7.500   5.290   6.109  0.6967 -0.2043 -0.2461
 6922TIP3    H220712   7.579   5.405   6.167 -0.5207  0.9476 -0.8235
 6923TIP3   OH220713   5.096   1.729   2.157  0.4644 -0.2461 -0.4358
 6923TIP3    H120714   5.108   1.700   2.066 -0.6353  0.2139 -0.7500
 6923TIP3    H220715   5.173   1.783   2.176  1.3073 -1.3329 -0.6755
 6924TIP3   OH220716   7.993   1.258   4.825 -0.1503  0.0962  0.3908
 6924TIP3    H120717   7.902   1.275   4.847  0.4591  1.7924  1.8000
 6924TIP3    H220718   8.041   1.274   4.906  1.5970  1.0559 -0.7839
 6925TIP3   OH220719   6.469   6.590   6.381 -0.2368 -0.0402 -0.4452
 6925TIP3    H120720   6.440   6.566   6.293  0.8147 -0.4585 -0.6957
 6925TIP3    H220721   6.505   6.678   6.372 -0.8869  0.2523 -0.2506
 6926TIP3   OH220722   6.835   4.009   3.391 -0.2385 -0.8316  0.5509
 6926TIP3    H120723   6.868   4.035   3.305 -0.1903 -1.7539  0.2796
 6926TIP3    H220724   6.850   3.914   3.395  0.0093 -0.7599  1.6820
 6927TIP3   OH220725   3.069   2.313   2.360 -0.1683 -0.2077  0.0605
 6927TIP3    H120726   2.988   2.311   2.412 -0.2416 -0.1075 -0.0493
 6927TIP3    H220727   3.082   2.222   2.333 -0.6719 -0.1008 -0.5771
 6928TIP3   OH220728   0.740   2.926   3.084  0.4655 -0.8708 -0.1376
 6928TIP3    H120729   0.650   2.958   3.098  0.0959 -2.5215  1.7374
 6928TIP3    H220730   0.744   2.908   2.990 -0.3998  1.2978 -0.6686
 6929TIP3   OH220731   3.568   6.970   0.899 -0.4236  0.2685  0.1212
 6929TIP3    H120732   3.600   7.029   0.831 -2.5753  0.6386 -0.6522
 6929TIP3    H220733   3.476   6.955   0.876 -0.1688 -2.8018  0.6892
 6930TIP3   OH220734   0.773   1.050   1.203  0.1669  1.0795  0.3568
 6930TIP3    H120735   0.804   1.072   1.115  0.7494 -0.1017  0.2450
 6930TIP3    H220736   0.714   0.976   1.190  0.6250  0.5928  1.0004
 6931TIP3   OH220737   0.491   5.631   6.226  0.0647  0.1260  0.0617
 6931TIP3    H120738   0.528   5.715   6.196 -1.2351  1.9852  3.1365
 6931TIP3    H220739   0.434   5.603   6.154  3.1280 -0.0186 -2.4867
 6932TIP3   OH220740   0.135   4.753   1.473 -0.1479  0.1488  0.5652
 6932TIP3    H120741   0.178   4.758   1.387 -2.2731  1.4850 -0.5178
 6932TIP3    H220742   0.118   4.660   1.487  0.0324 -0.0716 -0.5846
 6933TIP3   OH220743   0.272   2.740   5.026 -0.4481 -0.2639 -0.1375
 6933TIP3    H120744   0.196   2.797   5.035 -1.0914 -1.2110  0.6197
 6933TIP3    H220745   0.241   2.654   5.054  0.6879 -0.8381 -0.5914
 6934TIP3   OH220746   1.262   6.540   4.768  0.1518 -0.0678 -0.0890
 6934TIP3    H120747   1.301   6.625   4.749 -0.7114 -0.1146 -2.3577
 6934TIP3    H220748   1.301   6.481   4.704 -0.1611 -1.1137  0.6705
 6935TIP3   OH220749   7.975   0.721   6.550 -0.2468  0.1192  0.0889
 6935TIP3    H120750   8.035   0.648   6.532  1.4128  1.2290  0.8876
 6935TIP3    H220751   7.916   0.687   6.617  3.2801  0.6977  3.8722
 6936TIP3   OH220752   1.912   3.444   3.690  0.4964  0.0969  0.0480
 6936TIP3    H120753   1.819   3.439   3.713  0.3753  1.2898 -0.0844
 6936TIP3    H220754   1.928   3.368   3.635 -0.4684  0.0237 -0.1485
 6937TIP3   OH220755   4.511   7.563   0.808  0.3863 -0.3326  0.0385
 6937TIP3    H120756   4.564   7.642   0.797 -0.1748  0.2160  1.1626
 6937TIP3    H220757   4.428   7.594   0.845  0.4219 -1.5044  1.1905
 6938TIP3   OH220758   5.525   1.051   4.378  0.4609 -0.3696 -0.2666
 6938TIP3    H120759   5.458   1.114   4.407 -0.5491 -1.0564 -1.0253
 6938TIP3    H220760   5.495   0.967   4.412  1.5719 -0.5216  0.3641
 6939TIP3   OH220761   4.426   6.490   1.098  0.3291  0.3540 -0.0419
 6939TIP3    H120762   4.374   6.455   1.026  0.7394  0.7059 -0.5194
 6939TIP3    H220763   4.490   6.422   1.118  0.3673  0.3516 -0.1738
 6940TIP3   OH220764   1.023   6.388   4.711  0.2946 -0.3575  0.3981
 6940TIP3    H120765   0.961   6.459   4.730  1.3196  1.0468 -1.2114
 6940TIP3    H220766   1.104   6.416   4.752  0.5979 -0.8052  0.1141
 6941TIP3   OH220767   3.647   3.412   3.422  0.3822 -0.4324 -0.0734
 6941TIP3    H120768   3.605   3.359   3.354  2.4816 -1.3450 -0.7163
 6941TIP3    H220769   3.588   3.405   3.497 -1.7985  0.2513 -1.5923
 6942TIP3   OH220770   7.375   4.009   1.898 -0.1183  0.4648  0.1950
 6942TIP3    H120771   7.291   4.040   1.865  0.4274  0.1695 -1.5593
 6942TIP3    H220772   7.440   4.062   1.853  0.8009 -2.3660 -2.0801
 6943TIP3   OH220773   2.312   5.269   6.398 -0.1691 -0.0162 -0.0912
 6943TIP3    H120774   2.406   5.254   6.409 -0.2898 -1.0328 -0.3126
 6943TIP3    H220775   2.287   5.212   6.325 -1.0723 -0.2621  0.3867
 6944TIP3   OH220776   0.990   6.684   3.265 -0.1083  0.5171  0.8594
 6944TIP3    H120777   1.014   6.774   3.286  0.8773  0.0899  1.6428
 6944TIP3    H220778   0.946   6.690   3.181  0.1644  1.7023  0.7850
 6945TIP3   OH220779   0.912   4.716   6.212  0.0103  0.2653  0.3988
 6945TIP3    H120780   0.857   4.775   6.264  0.7998 -0.1197  1.7167
 6945TIP3    H220781   0.933   4.644   6.271  4.3452  1.7680  1.0630
 6946TIP3   OH220782   8.064   0.696   5.351  0.2319 -0.1717  0.4218
 6946TIP3    H120783   8.058   0.780   5.306  2.2554 -0.0224  0.3416
 6946TIP3    H220784   8.064   0.630   5.281 -0.6605 -0.2107  0.4488
 6947TIP3   OH220785   0.663   2.539   6.661  0.4303 -0.1264  0.2235
 6947TIP3    H120786   0.670   2.596   6.585 -2.7931  1.0513  0.6484
 6947TIP3    H220787   0.736   2.564   6.717  1.2205  0.9704 -1.2345
 6948TIP3   OH220788   1.556   3.271   5.188  0.3357 -0.4002 -0.7547
 6948TIP3    H120789   1.482   3.216   5.212 -1.6529  0.9803 -3.1596
 6948TIP3    H220790   1.565   3.332   5.261 -3.3849  1.6788 -1.7587
 6949TIP3   OH220791   3.695   0.033   2.386  0.2457 -0.6231  0.4259
 6949TIP3    H120792   3.669   0.086   2.311  0.8002  0.4758  0.9885
 6949TIP3    H220793   3.643  -0.047   2.378  0.1090 -0.4191 -0.9801
 6950TIP3   OH220794   3.757   2.660   0.406 -0.2559 -0.0524 -0.1702
 6950TIP3    H120795   3.727   2.634   0.493  1.9778 -3.1893 -0.1707
 6950TIP3    H220796   3.703   2.609   0.346  1.2858 -1.5041 -0.3769
 6951TIP3   OH220797   5.495   5.802   2.548 -0.0908  0.6867  0.0142
 6951TIP3    H120798   5.556   5.838   2.612 -0.9851 -1.3238  2.1531
 6951TIP3    H220799   5.420   5.773   2.600 -1.1646 -0.4506 -2.0362
 6952TIP3   OH220800   4.839   3.913   2.672 -0.2798 -0.8073 -0.5399
 6952TIP3    H120801   4.832   3.960   2.590  0.3845  1.9219  0.8535
 6952TIP3    H220802   4.872   3.826   2.648  1.2301  0.3530 -3.0308
 6953TIP3   OH220803   3.269   4.259   4.614 -0.1252 -0.8009  0.6306
 6953TIP3    H120804   3.245   4.172   4.580  2.4861 -0.7980 -1.6225
 6953TIP3    H220805   3.296   4.308   4.537  3.0752  0.3714  2.3156
 6954TIP3   OH220806   1.340   6.865   4.467  0.8661  0.3430  0.2907
 6954TIP3    H120807   1.395   6.799   4.509 -0.0143 -0.6143 -0.0176
 6954TIP3    H220808   1.297   6.819   4.395  0.5609  1.3653 -0.2025
 6955TIP3   OH220809   4.828   2.469   0.749  0.5163  0.6562 -0.1472
 6955TIP3    H120810   4.760   2.424   0.799  0.5742  2.1005  1.2951
 6955TIP3    H220811   4.896   2.402   0.737 -0.3233 -0.2626  0.0079
 6956TIP3   OH220812   0.586   3.767   3.557 -0.1913  0.1955 -0.6758
 6956TIP3    H120813   0.632   3.784   3.475  0.2154  0.9382 -0.3018
 6956TIP3    H220814   0.643   3.705   3.604  0.2121  0.7532 -0.4145
 6957TIP3   OH220815   4.702   1.975   6.559  0.1409  0.2390  0.2898
 6957TIP3    H120816   4.751   2.029   6.621 -0.9711 -0.6723  2.0557
 6957TIP3    H220817   4.755   1.896   6.549 -0.1470 -0.0362  0.8861
 6958TIP3   OH220818   4.035   7.575   6.038  0.2019 -0.4181 -0.0270
 6958TIP3    H120819   4.119   7.559   5.996  1.4105  0.5972  1.8657
 6958TIP3    H220820   4.020   7.497   6.092 -0.1051 -0.6111 -0.3843
 6959TIP3   OH220821   4.389   4.362   0.508 -0.5541  0.1518  0.0121
 6959TIP3    H120822   4.375   4.284   0.563  1.3329 -0.5669 -0.4663
 6959TIP3    H220823   4.309   4.367   0.454 -1.5817 -0.2574  1.4260
 6960TIP3   OH220824   6.783   4.721   2.765 -0.4597  0.4267 -0.1386
 6960TIP3    H120825   6.859   4.683   2.809  0.9431  0.1368 -2.5933
 6960TIP3    H220826   6.709   4.666   2.792  0.7021 -1.0596  0.1192
 6961TIP3   OH220827   1.807   5.358   5.774  0.4082 -0.1128  0.7392
 6961TIP3    H120828   1.774   5.312   5.851  2.4027 -0.1686  1.6312
 6961TIP3    H220829   1.851   5.436   5.810 -1.8141  1.9079 -0.6374
 6962TIP3   OH220830   1.362   7.257   4.867  0.1044  0.4366 -0.8954
 6962TIP3    H120831   1.356   7.312   4.789 -1.4786  0.9342 -0.4533
 6962TIP3    H220832   1.412   7.310   4.929  2.3480 -0.3995 -1.8728
 6963TIP3   OH220833   5.360   1.193   2.134 -0.1195  0.4711  0.4138
 6963TIP3    H120834   5.439   1.170   2.084 -0.2291  1.4225 -0.2305
 6963TIP3    H220835   5.288   1.158   2.083 -0.1441  0.0111  0.7612
 6964TIP3   OH220836   7.789   6.795   1.794  0.0203  0.1584  0.8002
 6964TIP3    H120837   7.814   6.846   1.717  1.6598 -1.0708  0.4585
 6964TIP3    H220838   7.792   6.704   1.764  0.1633 -0.3152  2.1830
 6965TIP3   OH220839   4.374   6.289   5.549 -0.1957 -0.4726  0.0913
 6965TIP3    H120840   4.320   6.225   5.594 -2.3470  1.7234  0.8666
 6965TIP3    H220841   4.452   6.298   5.604 -1.9349  0.8032  2.5822
 6966TIP3   OH220842   7.401   1.544   4.064 -0.5267  0.5356 -0.5123
 6966TIP3    H120843   7.403   1.459   4.020 -1.3068 -0.2282  0.8698
 6966TIP3    H220844   7.460   1.599   4.012 -0.9536 -0.4797 -2.1445
 6967TIP3   OH220845   1.014   6.091   4.611 -0.1692 -0.0963  0.4495
 6967TIP3    H120846   1.043   6.070   4.523  0.4746 -0.6259  0.7764
 6967TIP3    H220847   1.058   6.174   4.631  0.1161 -0.2459  0.4622
 6968TIP3   OH220848   2.928   1.902   1.658 -0.4741  0.2104  0.5766
 6968TIP3    H120849   2.905   1.992   1.680  0.9703  0.4793  1.0596
 6968TIP3    H220850   3.004   1.909   1.601 -0.3380 -0.7042  0.6220
 6969TIP3   OH220851   4.788   0.715   0.061  0.6689  0.5779 -0.1989
 6969TIP3    H120852   4.810   0.680  -0.025 -0.4164  2.8634 -1.4892
 6969TIP3    H220853   4.694   0.699   0.070  0.9165 -0.4028  0.9871
 6970TIP3   OH220854   6.661   7.293   1.896  0.5405  0.7406 -0.0967
 6970TIP3    H120855   6.593   7.325   1.836 -1.5176 -0.2543  1.5554
 6970TIP3    H220856   6.614   7.236   1.956  2.9670 -0.3034  0.9272
 6971TIP3   OH220857   7.367  -0.004   3.845 -0.1190 -0.2925  0.8491
 6971TIP3    H120858   7.377  -0.057   3.766  1.6019 -2.2690  2.2722
 6971TIP3    H220859   7.362   0.086   3.813  2.1536 -0.8582 -1.4675
 6972TIP3   OH220860   1.681   4.312   3.236 -0.1004  0.2434  0.5196
 6972TIP3    H120861   1.671   4.281   3.326 -0.9506  1.1189  0.7493
 6972TIP3    H220862   1.773   4.336   3.229 -0.1813  0.8929  1.4172
 6973TIP3   OH220863   3.578   1.818   0.998 -0.0734 -0.0173  0.2732
 6973TIP3    H120864   3.525   1.765   1.058  0.8352  0.4219  1.5150
 6973TIP3    H220865   3.666   1.780   1.005 -0.0169 -0.1637 -1.0575
 6974TIP3   OH220866   6.644   3.101   3.073 -1.2691  0.3398  0.5020
 6974TIP3    H120867   6.721   3.078   3.125 -0.7001 -1.1929 -0.9420
 6974TIP3    H220868   6.612   3.182   3.113  1.5381  1.4714  0.6833
 6975TIP3   OH220869   8.143   3.901   4.298  0.6620  0.1983 -0.2083
 6975TIP3    H120870   8.167   3.908   4.206 -0.3641  1.5774 -0.4132
 6975TIP3    H220871   8.088   3.978   4.314 -0.2704 -0.7139  1.2166
 6976TIP3   OH220872   1.742   0.912   1.312  0.0093  0.8126  0.2825
 6976TIP3    H120873   1.745   1.005   1.288 -1.0061  0.3250 -1.9152
 6976TIP3    H220874   1.649   0.894   1.327  0.2295  0.1901  0.9908
 6977TIP3   OH220875   2.928   1.833   0.525  0.1128  0.1738  0.0872
 6977TIP3    H120876   2.913   1.790   0.609  2.1017 -1.0905 -0.1298
 6977TIP3    H220877   2.990   1.776   0.480 -1.0232  0.6987 -2.3453
 6978TIP3   OH220878   4.971   6.025   3.354 -0.3143  0.6304 -0.0085
 6978TIP3    H120879   4.985   6.105   3.405  0.0829  1.8251 -1.9269
 6978TIP3    H220880   4.886   5.993   3.384  0.9606 -0.1810  3.2257
 6979TIP3   OH220881   1.098   1.092   0.851 -0.0579 -0.0766  0.1016
 6979TIP3    H120882   1.137   1.153   0.914 -0.0948 -0.5661  0.6123
 6979TIP3    H220883   1.157   1.016   0.852 -0.2176 -0.2077 -0.2375
 6980TIP3   OH220884   5.150   5.448   4.404 -0.0653 -0.1620 -0.3334
 6980TIP3    H120885   5.165   5.442   4.310 -0.6041 -1.3887 -0.3587
 6980TIP3    H220886   5.079   5.512   4.414 -0.9164 -0.9999 -0.8732
 6981TIP3   OH220887   5.668   2.547   3.027  0.4851  0.2056 -0.0973
 6981TIP3    H120888   5.628   2.548   3.114  0.6047  1.9604 -0.0189
 6981TIP3    H220889   5.594   2.539   2.967  0.4389 -1.5380  0.1446
 6982TIP3   OH220890   4.822   2.437   3.997 -0.0853  0.1053 -0.0291
 6982TIP3    H120891   4.906   2.460   3.958  0.0230  0.0077  0.1440
 6982TIP3    H220892   4.813   2.343   3.979 -0.5151  0.2703 -0.7171
 6983TIP3   OH220893   5.761   7.054   0.956  0.0085 -0.1191  0.1298
 6983TIP3    H120894   5.723   7.067   1.043 -2.0290 -0.5048 -0.6620
 6983TIP3    H220895   5.721   6.973   0.924 -0.6995  0.9619 -1.8796
 6984TIP3   OH220896   0.273   0.485   5.155  0.5614  0.0499 -0.4732
 6984TIP3    H120897   0.341   0.542   5.191 -0.0933 -0.0526  1.0005
 6984TIP3    H220898   0.201   0.490   5.219  0.3288 -2.1198 -0.4756
 6985TIP3   OH220899   4.120   2.193   3.355  0.4647 -0.2802  0.1441
 6985TIP3    H120900   4.161   2.163   3.436 -0.3854 -1.7154  0.0710
 6985TIP3    H220901   4.085   2.113   3.315 -1.2213  0.7187 -0.4598
 6986TIP3   OH220902   0.533   7.735   1.400 -0.4096 -0.0173 -0.1722
 6986TIP3    H120903   0.459   7.706   1.453 -0.6891  0.9748  0.0090
 6986TIP3    H220904   0.501   7.735   1.310 -0.6487  0.4451 -0.0898
 6987TIP3   OH220905   4.741   6.428   0.767 -0.1624 -0.1566  0.8314
 6987TIP3    H120906   4.652   6.406   0.739 -0.1848  1.7248 -0.7281
 6987TIP3    H220907   4.789   6.346   0.759 -1.3285 -0.7820 -0.1299
 6988TIP3   OH220908   1.886   7.589   3.201  0.5267  0.2858  0.3027
 6988TIP3    H120909   1.863   7.520   3.262  2.4885 -0.1725  0.5804
 6988TIP3    H220910   1.923   7.658   3.255  0.4123  0.7297 -0.1714
 6989TIP3   OH220911   4.433   1.571   0.610 -0.0543 -0.2272 -0.0192
 6989TIP3    H120912   4.467   1.488   0.577 -1.5521 -0.8854  0.0174
 6989TIP3    H220913   4.364   1.547   0.672 -0.5172  1.0264 -0.0004
 6990TIP3   OH220914   7.824   3.396   1.484 -0.0069 -0.0160 -0.6129
 6990TIP3    H120915   7.780   3.462   1.537 -0.0989 -0.0110 -0.6958
 6990TIP3    H220916   7.801   3.418   1.394  1.5046  0.9894 -0.7890
 6991TIP3   OH220917   3.074   6.657   1.951  0.0088 -0.1201  0.2400
 6991TIP3    H120918   3.009   6.641   2.019 -0.0803  1.3805  0.5450
 6991TIP3    H220919   3.151   6.689   1.998  0.0120  0.7361 -0.3197
 6992TIP3   OH220920   2.877   5.129   5.394 -0.0699  0.3769 -0.2713
 6992TIP3    H120921   2.798   5.146   5.343 -0.1705 -0.6675 -0.4979
 6992TIP3    H220922   2.922   5.213   5.398  0.2495  0.3867 -2.6355
 6993TIP3   OH220923   3.332   1.657   4.143 -0.3627 -0.2195 -0.6557
 6993TIP3    H120924   3.346   1.751   4.150 -1.1276 -0.2171  3.0202
 6993TIP3    H220925   3.403   1.619   4.196 -0.7524 -1.6163 -1.1046
 6994TIP3   OH220926   3.914   0.130   4.767 -0.2471 -0.4880 -0.1594
 6994TIP3    H120927   3.983   0.194   4.785 -1.7958  1.7514 -1.6327
 6994TIP3    H220928   3.869   0.120   4.851  0.0739  0.3153  0.1248
 6995TIP3   OH220929   7.726   4.609   5.326  0.1158  0.0135  0.1851
 6995TIP3    H120930   7.728   4.669   5.401  1.1845  0.7916 -0.4390
 6995TIP3    H220931   7.747   4.523   5.363 -1.4214 -0.0093  1.0902
 6996TIP3   OH220932   0.622   0.917   4.225 -0.2913 -0.3414  0.4905
 6996TIP3    H120933   0.625   0.991   4.287 -1.5384  1.7378 -1.7538
 6996TIP3    H220934   0.635   0.840   4.280  1.6383  1.5193  2.9197
 6997TIP3   OH220935   7.549   4.156   4.901 -0.1369  0.5786  0.0418
 6997TIP3    H120936   7.513   4.181   4.987 -0.8956 -0.6783  0.1151
 6997TIP3    H220937   7.502   4.211   4.839 -0.1022  0.9905  0.3744
 6998TIP3   OH220938   2.457   5.824   5.738 -0.1360  0.4388 -0.2839
 6998TIP3    H120939   2.445   5.910   5.697 -2.9542  0.3918  0.2659
 6998TIP3    H220940   2.494   5.843   5.824 -0.6345  1.0951 -0.2084
 6999TIP3   OH220941   1.955   3.416   5.580 -0.3586  0.4467  0.0432
 6999TIP3    H120942   1.911   3.332   5.567 -2.6166  1.5775 -0.1789
 6999TIP3    H220943   1.901   3.479   5.532  1.6302  1.9549 -0.3485
 7000TIP3   OH220944   2.472   5.557   2.698  0.5521 -0.0170 -0.1424
 7000TIP3    H120945   2.388   5.601   2.687  0.6846  0.6418  1.3016
 7000TIP3    H220946   2.493   5.524   2.610 -0.8301  0.4781 -0.6858
 7001TIP3   OH220947   5.243   4.880   4.445  0.5855 -0.3388  0.8286
 7001TIP3    H120948   5.248   4.881   4.541  0.4343 -0.3606  0.8378
 7001TIP3    H220949   5.191   4.801   4.426 -0.2263  0.1938  0.7698
 7002TIP3   OH220950   1.141   0.761   6.610  0.3065  0.1226 -0.1142
 7002TIP3    H120951   1.193   0.830   6.568 -1.8656  1.2839 -1.0901
 7002TIP3    H220952   1.198   0.685   6.610  1.5803  0.9742 -2.2560
 7003TIP3   OH220953   0.249   5.376   3.691 -0.2418  0.2924 -0.3331
 7003TIP3    H120954   0.174   5.401   3.638  0.2917  1.4157 -0.5842
 7003TIP3    H220955   0.323   5.421   3.652  0.3449  0.2787  0.7155
 7004TIP3   OH220956   7.181   2.571   0.118 -0.0935  0.2228 -0.6401
 7004TIP3    H120957   7.135   2.545   0.038 -1.0970 -1.0666  0.2926
 7004TIP3    H220958   7.170   2.666   0.122 -0.6262  0.2228 -1.6773
 7005TIP3   OH220959   6.884   6.325   2.679 -0.3630  0.1646 -0.4858
 7005TIP3    H120960   6.819   6.277   2.629 -0.3433 -0.8059  0.3942
 7005TIP3    H220961   6.856   6.317   2.770  0.7570  0.0682 -0.1296
 7006TIP3   OH220962   7.374   6.765   2.427  0.7527  0.4961 -0.6416
 7006TIP3    H120963   7.314   6.811   2.369 -1.3724 -0.7568  0.4319
 7006TIP3    H220964   7.355   6.672   2.412 -0.2750  0.1250  2.3234
 7007TIP3   OH220965   6.195   7.702   4.967  0.1882 -0.2536 -1.2925
 7007TIP3    H120966   6.230   7.782   5.008  0.4464 -0.8745 -0.2714
 7007TIP3    H220967   6.272   7.647   4.953  0.0574 -0.2014 -2.3159
 7008TIP3   OH220968   1.521   4.812   0.734  0.5356  0.3966  0.3928
 7008TIP3    H120969   1.493   4.747   0.799  0.1753  0.5571  0.4032
 7008TIP3    H220970   1.439   4.848   0.700  0.7304  0.7285  0.2710
 7009TIP3   OH220971   8.147   6.059   3.715 -0.0490 -0.0630 -0.1494
 7009TIP3    H120972   8.173   5.977   3.673 -0.4578  0.1049 -0.7543
 7009TIP3    H220973   8.130   6.119   3.641  0.3637  0.6005  0.2828
 7010TIP3   OH220974   3.138   2.841   2.157 -0.3463 -0.0399 -0.6123
 7010TIP3    H120975   3.144   2.791   2.238  2.1394 -0.5575 -1.0105
 7010TIP3    H220976   3.178   2.784   2.091 -1.1943  0.8650 -1.9497
 7011TIP3   OH220977   2.461   7.250   4.791 -0.1467  0.2650 -0.5232
 7011TIP3    H120978   2.505   7.327   4.827 -1.8503  0.9641  0.2049
 7011TIP3    H220979   2.447   7.193   4.867 -1.4023  0.5604 -0.4949
 7012TIP3   OH220980   2.892   2.556   1.019 -0.3496 -0.7789  0.0057
 7012TIP3    H120981   2.951   2.604   0.960  0.0488 -0.5903  0.5582
 7012TIP3    H220982   2.950   2.509   1.078 -0.6915 -2.8376 -1.1832
 7013TIP3   OH220983   7.376   6.973   6.491  0.1486 -0.1529 -0.0204
 7013TIP3    H120984   7.376   7.059   6.447 -0.6921 -0.2977 -0.3225
 7013TIP3    H220985   7.442   6.923   6.445  0.0778  0.0755 -0.3785
 7014TIP3   OH220986   0.444   0.932   6.341 -0.3039 -0.5926 -0.2240
 7014TIP3    H120987   0.394   0.893   6.270  0.3810 -1.3891 -0.2884
 7014TIP3    H220988   0.504   0.863   6.369 -0.9065 -0.4790  1.4807
 7015TIP3   OH220989   6.902   6.676   6.606  0.3498 -0.6484 -0.0032
 7015TIP3    H120990   6.856   6.757   6.628  1.0679 -0.8553  2.6436
 7015TIP3    H220991   6.833   6.615   6.582 -0.3547  0.2245 -0.2456
 7016TIP3   OH220992   6.467   0.318   6.532 -0.1704  0.4610  0.4340
 7016TIP3    H120993   6.489   0.372   6.608  0.3463 -0.3039  0.8427
 7016TIP3    H220994   6.455   0.230   6.568  2.2187 -0.3689 -0.6277
 7017TIP3   OH220995   5.518   3.217   3.657 -0.2084  0.1758  0.0285
 7017TIP3    H120996   5.555   3.291   3.705 -1.6939  0.4569  0.8253
 7017TIP3    H220997   5.589   3.185   3.603  1.4499  0.1127  2.0986
 7018TIP3   OH220998   2.449   1.791   2.728  0.5603  0.2781 -0.0455
 7018TIP3    H120999   2.418   1.866   2.780 -1.7895  0.2388 -1.2939
 7018TIP3    H221000   2.524   1.826   2.679  0.7091  1.2527  0.8343
 7019TIP3   OH221001   7.250   4.362   2.998  0.0662  0.5152  0.2840
 7019TIP3    H121002   7.160   4.352   2.968  0.2036 -2.5087  0.5088
 7019TIP3    H221003   7.297   4.395   2.922 -1.0107  0.8939 -0.2384
 7020TIP3   OH221004   0.497   1.220   1.392  0.2848 -0.3597  0.6404
 7020TIP3    H121005   0.543   1.137   1.381  0.2991 -0.4769  1.5096
 7020TIP3    H221006   0.498   1.260   1.305  0.4996 -1.1528  0.2718
 7021TIP3   OH221007   7.466   0.534   5.634 -0.7286 -0.3384 -0.1425
 7021TIP3    H121008   7.421   0.516   5.716  1.4477  1.2792  1.5254
 7021TIP3    H221009   7.428   0.616   5.603  0.6818  0.8616  1.1055
 7022TIP3   OH221010   2.546   5.837   1.739  0.3943 -0.7028  0.1039
 7022TIP3    H121011   2.612   5.776   1.772 -2.2125 -2.8169  1.8356
 7022TIP3    H221012   2.464   5.788   1.744 -1.3260  1.6926 -2.1755
 7023TIP3   OH221013   4.354   0.649   4.253 -0.0382 -0.2429  0.5403
 7023TIP3    H121014   4.310   0.723   4.212 -0.4412 -0.4435  0.6056
 7023TIP3    H221015   4.315   0.572   4.211 -0.3304 -0.4422  1.1694
 7024TIP3   OH221016   5.192   0.512   6.607  0.2414  0.5104 -0.3463
 7024TIP3    H121017   5.162   0.603   6.606  0.3299  0.5702  0.6034
 7024TIP3    H221018   5.167   0.480   6.694 -1.5956 -1.0089 -1.3546
 7025TIP3   OH221019   1.377   1.399   4.773 -0.1728  0.2851  0.3657
 7025TIP3    H121020   1.428   1.360   4.844 -2.0162  0.6084  1.9642
 7025TIP3    H221021   1.441   1.420   4.706  1.4270 -1.6149  1.2022
 7026TIP3   OH221022   5.011   2.286   2.215  0.4395  0.3788 -0.8634
 7026TIP3    H121023   4.927   2.246   2.237  0.5466  1.2736  1.3732
 7026TIP3    H221024   5.076   2.221   2.240  0.4624  0.1996 -1.3839
 7027TIP3   OH221025   2.196   7.806   1.978  0.1247  0.1926 -0.5091
 7027TIP3    H121026   2.265   7.872   1.973  1.4630 -1.1166  0.0529
 7027TIP3    H221027   2.199   7.763   1.892  2.0888 -1.8215  0.4801
 7028TIP3   OH221028   4.711   2.746   2.599 -0.2534 -0.0105 -0.8005
 7028TIP3    H121029   4.761   2.773   2.522  0.1997  0.5648 -0.3140
 7028TIP3    H221030   4.628   2.794   2.592 -0.1494  0.1617 -0.8497
 7029TIP3   OH221031   1.993   6.381   2.569 -0.4955 -0.2962 -0.2491
 7029TIP3    H121032   2.042   6.456   2.604 -0.4412 -0.4669  0.0409
 7029TIP3    H221033   1.914   6.378   2.622 -1.0351  0.2510 -1.0088
 7030TIP3   OH221034   5.019   6.026   0.500  0.6421 -0.1073 -0.1406
 7030TIP3    H121035   5.071   6.096   0.539  0.5047 -0.3021  0.4009
 7030TIP3    H221036   4.934   6.030   0.545  0.2155  0.1479 -0.9507
 7031TIP3   OH221037   5.147   2.598   1.451 -0.2105  0.4533  0.3175
 7031TIP3    H121038   5.218   2.625   1.510 -0.6412 -0.1042  1.1072
 7031TIP3    H221039   5.158   2.654   1.374 -0.2940  1.9833  1.3670
 7032TIP3   OH221040   5.046   4.356   0.145  0.3203  0.1867  0.5371
 7032TIP3    H121041   5.111   4.406   0.195  0.7661  1.9542 -1.6571
 7032TIP3    H221042   5.096   4.312   0.077 -0.7296  2.5855 -1.9995
 7033TIP3   OH221043   2.468   6.021   1.913 -0.4360 -0.7585  0.1561
 7033TIP3    H121044   2.518   6.006   1.993 -1.4927  0.8090  1.1782
 7033TIP3    H221045   2.516   5.974   1.845  2.0614  0.1154  1.1808
 7034TIP3   OH221046   6.256   6.618   0.321 -0.3496 -0.1790  0.0112
 7034TIP3    H121047   6.228   6.644   0.233 -0.4791  0.6844  0.3001
 7034TIP3    H221048   6.178   6.625   0.375  0.1150  1.0269  0.5618
 7035TIP3   OH221049   4.706   3.773   3.882  0.4692 -0.3299 -0.2216
 7035TIP3    H121050   4.746   3.799   3.799 -1.5097  1.7555 -0.6321
 7035TIP3    H221051   4.637   3.712   3.858  0.3198 -0.2332 -0.0446
 7036TIP3   OH221052   0.604   7.674   3.229  0.0953  0.3449  0.0012
 7036TIP3    H121053   0.536   7.697   3.292  0.3478 -1.2998  0.9282
 7036TIP3    H221054   0.666   7.621   3.279  1.2292  0.4707 -1.2197
 7037TIP3   OH221055   4.470   0.403   2.845 -0.5341  0.5648 -0.4145
 7037TIP3    H121056   4.507   0.402   2.757 -0.5134  1.5188 -0.4333
 7037TIP3    H221057   4.529   0.349   2.897 -0.9498 -0.6130 -1.1286
 7038TIP3   OH221058   5.730   5.594   3.004 -0.5978 -0.2956  0.0717
 7038TIP3    H121059   5.774   5.519   3.044  0.2244 -0.4272 -1.0446
 7038TIP3    H221060   5.643   5.562   2.979 -0.5160 -0.6641  0.2637
 7039TIP3   OH221061   2.102   7.101   4.401  0.3667 -0.4644 -0.4337
 7039TIP3    H121062   2.088   7.013   4.435 -0.0895 -0.2315 -0.0174
 7039TIP3    H221063   2.144   7.148   4.472  3.4224 -1.1461 -1.6446
 7040TIP3   OH221064   4.716   3.619   1.659  0.5618  0.0002 -0.3075
 7040TIP3    H121065   4.728   3.714   1.670  0.6749 -0.0583  0.0894
 7040TIP3    H221066   4.713   3.585   1.749 -1.5223 -0.1176 -0.3828
 7041TIP3   OH221067   5.503   1.943   4.854 -0.0914 -0.8804 -0.1102
 7041TIP3    H121068   5.441   1.946   4.781 -0.2675 -0.7097  0.0458
 7041TIP3    H221069   5.557   1.865   4.837  1.1838  0.2441 -1.4911
 7042TIP3   OH221070   4.577   2.387   0.864  1.1251 -0.1821  0.1071
 7042TIP3    H121071   4.483   2.366   0.866  0.4182  2.4753  2.6488
 7042TIP3    H221072   4.620   2.307   0.894 -0.6657 -0.5082  2.0545
 7043TIP3   OH221073   0.245   7.627   0.362  0.1389 -0.0482 -0.5813
 7043TIP3    H121074   0.152   7.603   0.362  0.6676 -2.3048  0.4580
 7043TIP3    H221075   0.272   7.619   0.271  0.0858 -2.8153 -0.4168
 7044TIP3   OH221076   7.981   0.659   1.095 -0.5878  0.3744  0.2113
 7044TIP3    H121077   7.912   0.711   1.056  0.6349  1.1940 -0.9631
 7044TIP3    H221078   7.936   0.593   1.148 -2.2145  1.2834 -0.0000
 7045TIP3   OH221079   2.732   6.567   3.516 -1.1116  0.0114 -0.2164
 7045TIP3    H121080   2.818   6.527   3.511 -0.8272  0.6122 -0.2727
 7045TIP3    H221081   2.679   6.507   3.569 -0.4922 -0.0635  0.3195
 7046TIP3   OH221082   7.245   3.853   3.864  0.5398 -0.7187  0.0175
 7046TIP3    H121083   7.164   3.809   3.837 -0.1138 -0.2380  1.1241
 7046TIP3    H221084   7.225   3.946   3.855  0.4653 -0.5589  1.6311
 7047TIP3   OH221085   1.378   2.507   1.767 -0.0329  0.4186  0.1782
 7047TIP3    H121086   1.392   2.461   1.684 -0.9764 -0.1905  0.3358
 7047TIP3    H221087   1.459   2.494   1.816 -0.5790 -1.9690  0.6088
 7048TIP3   OH221088   0.868   0.097   0.910  0.0024 -0.0592 -0.2057
 7048TIP3    H121089   0.890   0.101   1.003  0.2077 -0.2809 -0.2449
 7048TIP3    H221090   0.842   0.005   0.896  0.1960 -0.0800 -0.4197
 7049TIP3   OH221091   7.828   4.434   6.350 -0.3904  0.2952 -0.3684
 7049TIP3    H121092   7.790   4.435   6.262 -0.7130  1.7108 -0.2309
 7049TIP3    H221093   7.872   4.349   6.356 -1.6718 -0.4664 -1.3268
 7050TIP3   OH221094   0.113   7.785   2.059 -0.4231 -0.4136 -0.5328
 7050TIP3    H121095   0.060   7.853   2.018  0.2889 -0.1174 -0.9704
 7050TIP3    H221096   0.060   7.705   2.050 -0.5685 -0.2291 -1.4452
 7051TIP3   OH221097   4.961   4.230   5.501 -0.1390  0.1240 -0.3860
 7051TIP3    H121098   4.866   4.242   5.496 -0.2449 -0.1975  0.5537
 7051TIP3    H221099   4.974   4.136   5.508  0.1710  0.2220  0.5617
 7052TIP3   OH221100   6.403   2.428   2.175  0.3542  0.3644  0.4185
 7052TIP3    H121101   6.416   2.427   2.080  0.8751 -1.6221  0.4731
 7052TIP3    H221102   6.474   2.483   2.208  1.1686 -0.2667 -0.2358
 7053TIP3   OH221103   0.538   0.469   5.739  0.3038  0.3531  0.3504
 7053TIP3    H121104   0.539   0.457   5.644  1.0089  2.2345  0.0833
 7053TIP3    H221105   0.452   0.438   5.767 -0.8422  1.9534 -1.2334
 7054TIP3   OH221106   7.224   4.120   3.832 -0.2225  0.1879  0.2142
 7054TIP3    H121107   7.291   4.145   3.769  0.0965 -1.1752 -0.0270
 7054TIP3    H221108   7.153   4.183   3.819 -0.2286 -0.1491 -1.6000
 7055TIP3   OH221109   0.119   1.148   1.843  0.4713 -0.0600  0.1360
 7055TIP3    H121110   0.098   1.238   1.867 -0.7558 -0.4967  0.7967
 7055TIP3    H221111   0.098   1.143   1.749  0.3459  0.2938  0.1431
 7056TIP3   OH221112   1.040   2.183   0.630 -0.2249  0.1194  0.1056
 7056TIP3    H121113   0.977   2.218   0.692  0.0344  0.4645  0.1761
 7056TIP3    H221114   1.027   2.236   0.551 -1.3439 -1.0491 -0.5392
 7057TIP3   OH221115   5.906   2.324   3.152  0.6019 -0.0995  0.1533
 7057TIP3    H121116   5.915   2.397   3.091  0.8437 -0.2266  0.0384
 7057TIP3    H221117   5.874   2.365   3.233 -0.5841 -0.0501 -0.3135
 7058TIP3   OH221118   1.387   6.801   3.195  0.0318 -0.7931  0.5924
 7058TIP3    H121119   1.367   6.774   3.284 -0.9864 -0.8247  0.3650
 7058TIP3    H221120   1.458   6.864   3.205 -2.0138  1.5310  1.7366
 7059TIP3   OH221121   1.507   4.886   1.838 -0.1222 -0.3091  0.1413
 7059TIP3    H121122   1.417   4.869   1.867 -0.5579 -0.5317 -1.2986
 7059TIP3    H221123   1.553   4.803   1.852 -0.1979 -0.2688  0.6458
 7060TIP3   OH221124   3.211   2.906   1.290 -0.5979 -0.1296 -0.4056
 7060TIP3    H121125   3.227   2.908   1.385 -2.1460 -2.3477 -0.0376
 7060TIP3    H221126   3.234   2.817   1.264  0.9940  0.7945 -2.4090
 7061TIP3   OH221127   0.609   6.046   6.644 -0.7460  0.2095  0.2634
 7061TIP3    H121128   0.670   6.052   6.570 -0.4680 -1.2216  0.3589
 7061TIP3    H221129   0.523   6.061   6.604 -0.5237  0.2727 -0.2042
 7062TIP3   OH221130   4.227   0.684   3.039 -0.5950 -0.7004 -0.3234
 7062TIP3    H121131   4.287   0.736   2.985 -0.4060  0.4609  0.9481
 7062TIP3    H221132   4.201   0.611   2.983  0.1008  0.1028 -1.7430
 7063TIP3   OH221133   6.015   7.641   5.170  0.1455 -0.3163  0.2465
 7063TIP3    H121134   6.084   7.576   5.179 -1.4257 -2.2644 -0.8989
 7063TIP3    H221135   6.042   7.695   5.095  2.0591  1.2407  1.9620
 7064TIP3   OH221136   8.130   0.821   1.447 -0.1014 -0.3042  0.4492
 7064TIP3    H121137   8.193   0.827   1.520  0.0431 -0.6271  0.3540
 7064TIP3    H221138   8.122   0.727   1.431  0.9994 -0.1880 -0.9310
 7065TIP3   OH221139   6.446   7.571   5.675 -0.3241 -0.4835 -0.4229
 7065TIP3    H121140   6.502   7.648   5.685  0.4326 -1.0054 -0.5396
 7065TIP3    H221141   6.365   7.594   5.720  0.4958 -0.2367  1.0010
 7066TIP3   OH221142   3.499   3.028   0.520  0.2676  0.0889  0.2948
 7066TIP3    H121143   3.433   2.975   0.474  0.3795  0.1284  0.0859
 7066TIP3    H221144   3.583   2.990   0.493  0.4131  1.2389 -0.9730
 7067TIP3   OH221145   6.624   3.653   4.773 -0.1753 -0.0775 -0.3755
 7067TIP3    H121146   6.691   3.702   4.821 -1.1318  2.0429 -1.0984
 7067TIP3    H221147   6.587   3.716   4.712 -1.7582 -1.6346 -1.1162
 7068TIP3   OH221148   1.865   4.730   6.289  0.6756 -0.4015 -0.1967
 7068TIP3    H121149   1.802   4.687   6.232  0.7197  0.1601 -0.6850
 7068TIP3    H221150   1.848   4.824   6.277  0.6005 -0.2754  0.8146
 7069TIP3   OH221151   2.776   2.290   1.750 -0.3090  0.1131 -0.2613
 7069TIP3    H121152   2.826   2.322   1.675  0.0853  0.7506  0.2562
 7069TIP3    H221153   2.687   2.280   1.717 -0.0315 -0.1487 -0.9553
 7070TIP3   OH221154   7.915   5.879   6.357 -0.1343 -0.1351  0.2305
 7070TIP3    H121155   7.998   5.848   6.392 -0.7094 -0.1892  1.5842
 7070TIP3    H221156   7.860   5.801   6.351  0.0106 -0.1604 -0.9952
 7071TIP3   OH221157   7.812   2.441   0.232  0.3181 -0.0921 -0.2843
 7071TIP3    H121158   7.822   2.503   0.159 -0.0973  0.2112 -0.0906
 7071TIP3    H221159   7.725   2.460   0.267  1.2736  1.1337  1.5695
 7072TIP3   OH221160   6.873   4.367   0.905  0.2267 -0.5380  0.1135
 7072TIP3    H121161   6.916   4.402   0.983 -0.8373  3.0397 -0.6830
 7072TIP3    H221162   6.931   4.391   0.833 -0.4758 -0.5482 -0.4729
 7073TIP3   OH221163   6.149   1.127   0.313 -0.0847  0.4361 -0.0352
 7073TIP3    H121164   6.237   1.150   0.283 -0.3238  1.2733 -0.1115
 7073TIP3    H221165   6.112   1.077   0.240  1.3391 -2.5671  1.1126
 7074TIP3   OH221166   6.468   5.140   6.639 -0.0416 -0.0796 -0.2830
 7074TIP3    H121167   6.449   5.088   6.717 -0.1876 -0.3777 -0.5150
 7074TIP3    H221168   6.449   5.081   6.566  1.6253 -0.3593 -0.5360
 7075TIP3   OH221169   4.068   1.525   0.635  0.4825  0.7278 -0.1945
 7075TIP3    H121170   4.124   1.448   0.626  1.0883  1.0958  0.4175
 7075TIP3    H221171   3.997   1.510   0.572  0.6548 -0.2736 -0.1656
 7076TIP3   OH221172   1.101   4.465   0.339 -0.8471  0.3908 -0.1148
 7076TIP3    H121173   1.111   4.381   0.384  1.3396  0.6117 -0.0655
 7076TIP3    H221174   1.096   4.443   0.246  2.4035  0.2117 -0.3693
 7077TIP3   OH221175   4.874   5.444   0.339 -0.3421 -0.2271 -0.0687
 7077TIP3    H121176   4.917   5.527   0.360 -1.1481 -0.2312  1.8020
 7077TIP3    H221177   4.941   5.377   0.357 -0.1958 -0.0725 -0.0362
 7078TIP3   OH221178   0.796   5.853   0.607 -0.1483 -0.0291  0.2487
 7078TIP3    H121179   0.840   5.771   0.630  1.0542 -0.3040 -2.5761
 7078TIP3    H221180   0.827   5.916   0.672  0.6652 -1.3035  1.1434
 7079TIP3   OH221181   1.877   2.112   5.792 -0.3014 -0.0989 -0.2078
 7079TIP3    H121182   1.913   2.200   5.799 -1.4531  0.2780  3.9836
 7079TIP3    H221183   1.940   2.057   5.840 -0.5037 -1.2331 -1.1955
 7080TIP3   OH221184   3.390   3.540   5.520 -0.0183  0.1282  0.6076
 7080TIP3    H121185   3.403   3.628   5.556 -1.0895 -0.2346  1.9779
 7080TIP3    H221186   3.472   3.495   5.536  2.3683  2.0699 -4.1689
 7081TIP3   OH221187   4.290   4.987   0.145  0.1192  0.3899 -0.0663
 7081TIP3    H121188   4.321   4.907   0.186  0.5184 -0.4098 -1.8505
 7081TIP3    H221189   4.243   5.033   0.215 -0.8510 -1.7718  0.8051
 7082TIP3   OH221190   2.054   1.441   3.945 -0.0114  0.0726 -0.0266
 7082TIP3    H121191   2.005   1.359   3.939 -1.2133  0.7576  0.1363
 7082TIP3    H221192   2.136   1.416   3.986 -0.2445 -1.0954 -0.2086
 7083TIP3   OH221193   4.499   2.448   2.744 -0.0203 -0.4635  0.4200
 7083TIP3    H121194   4.485   2.356   2.722  2.2514 -0.3743 -1.8644
 7083TIP3    H221195   4.573   2.446   2.805 -0.8398 -0.1786  1.4540
 7084TIP3   OH221196   5.263   6.536   4.973  0.6004 -0.1051 -0.8206
 7084TIP3    H121197   5.192   6.545   4.909  0.1274  1.0982 -0.1756
 7084TIP3    H221198   5.264   6.443   4.995 -1.3464 -0.0424 -0.2528
 7085TIP3   OH221199   3.285   5.589   0.540 -0.2284 -0.1849  0.0783
 7085TIP3    H121200   3.327   5.611   0.623  0.0115 -1.0437  0.1982
 7085TIP3    H221201   3.283   5.493   0.539  1.3056 -0.2571 -1.6441
 7086TIP3   OH221202   7.362   4.246   0.122  0.4336  0.0274 -0.3394
 7086TIP3    H121203   7.342   4.158   0.091  1.1327 -0.3822  0.3336
 7086TIP3    H221204   7.350   4.242   0.217  0.8477  0.5457 -0.2560
 7087TIP3   OH221205   8.176   1.174   5.242  0.2114  0.4119 -0.2768
 7087TIP3    H121206   8.263   1.136   5.227 -0.3297 -0.4656 -1.2733
 7087TIP3    H221207   8.115   1.101   5.232 -0.7794  1.3246 -1.1770
 7088TIP3   OH221208   5.185   3.606   2.049 -0.2579 -0.2946 -0.2383
 7088TIP3    H121209   5.200   3.591   1.956  1.0970  1.8162 -0.4163
 7088TIP3    H221210   5.234   3.537   2.094  0.3362 -0.4040 -1.0546
 7089TIP3   OH221211   1.049   5.908   5.392  0.5200  0.4042  0.1582
 7089TIP3    H121212   0.996   5.832   5.416 -0.9927  1.5385  0.5692
 7089TIP3    H221213   0.996   5.984   5.417  1.3433  1.6202 -1.5633
 7090TIP3   OH221214   4.024   5.871   2.711  0.3335 -0.3065  0.4986
 7090TIP3    H121215   3.949   5.928   2.729  0.6596  0.2568  0.1268
 7090TIP3    H221216   4.007   5.834   2.625 -0.7701 -2.2560  1.4955
 7091TIP3   OH221217   5.205   3.903   0.126 -0.1609  0.2166 -0.1989
 7091TIP3    H121218   5.191   3.845   0.051  1.3691 -1.3900  0.6913
 7091TIP3    H221219   5.284   3.953   0.103  0.2092 -0.1554  0.2457
 7092TIP3   OH221220   7.620   5.717   0.648  0.3007 -0.1933  0.3109
 7092TIP3    H121221   7.680   5.681   0.713 -1.4283 -1.7561  1.1142
 7092TIP3    H221222   7.662   5.700   0.564  3.0552  2.7255  0.8746
 7093TIP3   OH221223   0.875   1.245   6.289  0.0514 -0.0808  0.0047
 7093TIP3    H121224   0.824   1.269   6.211  1.5085  0.8377 -0.7049
 7093TIP3    H221225   0.819   1.183   6.336 -3.0154  3.0292  0.8396
 7094TIP3   OH221226   0.520   1.382   4.140  0.0028 -0.2197  0.1535
 7094TIP3    H121227   0.592   1.319   4.145 -0.6821 -0.9273  2.5523
 7094TIP3    H221228   0.493   1.381   4.048  1.5029 -1.6931 -0.3253
 7095TIP3   OH221229   1.135   6.089   4.846 -0.0913 -0.5735  0.6392
 7095TIP3    H121230   1.140   6.184   4.835 -2.5450 -0.3132  1.1102
 7095TIP3    H221231   1.081   6.060   4.772 -0.3400 -1.4249  1.1497
 7096TIP3   OH221232   6.270   6.060   0.996 -0.3656 -0.1606 -0.4116
 7096TIP3    H121233   6.237   6.149   1.009 -0.4004 -0.5154  2.5411
 7096TIP3    H221234   6.193   6.005   1.008  0.0525 -0.6822 -0.1139
 7097TIP3   OH221235   2.292   4.284   2.661 -0.2199 -0.2044  0.4671
 7097TIP3    H121236   2.305   4.307   2.569 -1.9772  0.2982  0.2993
 7097TIP3    H221237   2.320   4.361   2.710  0.1875 -0.2555  0.3148
 7098TIP3   OH221238   6.340   4.480   3.958 -0.4087 -0.3401  0.8496
 7098TIP3    H121239   6.268   4.464   4.019  0.3568 -1.8306  1.4138
 7098TIP3    H221240   6.419   4.473   4.012  0.2484 -0.9430 -0.1727
 7099TIP3   OH221241   3.157   2.981   5.481 -0.0612 -0.2065 -0.1093
 7099TIP3    H121242   3.156   3.007   5.573  1.7729 -3.5727  1.0255
 7099TIP3    H221243   3.067   2.955   5.462 -0.4231  0.3793  0.7587
 7100TIP3   OH221244   0.263   2.842   3.481 -0.1757  0.6880 -0.2090
 7100TIP3    H121245   0.315   2.765   3.506  0.3945  1.3703  0.7758
 7100TIP3    H221246   0.296   2.912   3.537 -2.5981  1.0097  0.9268
 7101TIP3   OH221247   6.781   2.388   2.908  0.0136 -0.0775  0.1888
 7101TIP3    H121248   6.848   2.423   2.849  0.3691  0.0241  0.6468
 7101TIP3    H221249   6.775   2.453   2.978  0.6236 -0.8714  1.0114
 7102TIP3   OH221250   1.525   7.588   2.902 -0.2919 -0.2323 -0.0682
 7102TIP3    H121251   1.574   7.630   2.973 -0.6498 -1.1448  0.7349
 7102TIP3    H221252   1.446   7.641   2.892  0.5845  0.9638 -1.0440
 7103TIP3   OH221253   0.458   1.489   4.398 -0.5448 -0.4851  0.4487
 7103TIP3    H121254   0.404   1.568   4.395  0.6545  0.3895  1.0126
 7103TIP3    H221255   0.447   1.449   4.312 -0.6225  0.6996 -0.1164
 7104TIP3   OH221256   6.579   1.558   0.964 -0.2959 -0.1680 -0.2420
 7104TIP3    H121257   6.611   1.641   0.930 -1.4946 -0.9359 -3.7216
 7104TIP3    H221258   6.499   1.580   1.012  1.1192  0.9206  1.7479
 7105TIP3   OH221259   0.895   0.241   3.627  0.8291 -0.4566 -0.8540
 7105TIP3    H121260   0.910   0.300   3.552 -0.7627 -1.2377 -1.8548
 7105TIP3    H221261   0.847   0.295   3.690  2.5042  0.3189 -0.1773
 7106TIP3   OH221262   0.880   1.974   1.869  0.1559 -0.4917  0.3179
 7106TIP3    H121263   0.939   2.025   1.815 -0.1911 -1.0744 -0.6359
 7106TIP3    H221264   0.846   2.036   1.934  1.1698  0.0303  0.3663
 7107TIP3   OH221265   5.001   2.878   0.314 -0.2228  0.0736 -0.3986
 7107TIP3    H121266   4.917   2.861   0.358 -0.6304  3.7473  0.6434
 7107TIP3    H221267   5.060   2.904   0.385  0.5043  1.5676 -1.4775
 7108TIP3   OH221268   7.992   0.443   4.672 -0.0046  0.5380 -0.0780
 7108TIP3    H121269   7.935   0.367   4.672 -0.1029  0.5688 -1.6472
 7108TIP3    H221270   8.046   0.433   4.750  2.1787 -2.8519 -1.7946
 7109TIP3   OH221271   0.700   2.363   0.175  0.0055  0.6226  0.6513
 7109TIP3    H121272   0.719   2.269   0.182  0.4997  0.4168 -2.0653
 7109TIP3    H221273   0.784   2.406   0.192  0.4046  0.3683 -0.5370
 7110TIP3   OH221274   0.428   4.399   3.716 -0.0603  0.0161  0.5999
 7110TIP3    H121275   0.356   4.448   3.676 -2.1521 -0.3520  3.5872
 7110TIP3    H221276   0.484   4.465   3.756  0.9169  0.2549 -1.0711
 7111TIP3   OH221277   1.040   2.955   4.700  0.1636 -0.3988  0.0375
 7111TIP3    H121278   0.978   2.926   4.633  1.2521  0.5683 -1.4482
 7111TIP3    H221279   0.997   3.028   4.743 -0.7369 -1.3205  0.7523
 7112TIP3   OH221280   5.134   3.140   5.422  0.3519  0.9555  0.0112
 7112TIP3    H121281   5.068   3.203   5.395 -1.6628 -0.6895  0.8939
 7112TIP3    H221282   5.175   3.111   5.340 -0.0242  1.9669 -0.5472
 7113TIP3   OH221283   6.797   7.533   6.360  0.0478 -0.4698  0.0367
 7113TIP3    H121284   6.824   7.574   6.442 -1.4675  1.5455 -0.3821
 7113TIP3    H221285   6.733   7.594   6.323 -1.5274 -2.7173 -1.2194
 7114TIP3   OH221286   4.491   0.601   6.444 -0.2143  0.2599  0.5668
 7114TIP3    H121287   4.523   0.519   6.407 -0.4708  0.4335 -0.0425
 7114TIP3    H221288   4.524   0.601   6.534  0.8328  0.0716  0.1983
 7115TIP3   OH221289   3.036   0.177   5.906 -0.4081  0.0646  0.5639
 7115TIP3    H121290   3.077   0.183   5.820  0.3326 -2.0368  0.7121
 7115TIP3    H221291   3.106   0.198   5.968  0.2371 -2.3492  0.7623
 7116TIP3   OH221292   8.285   2.258   4.830  0.0832  0.3577  0.6974
 7116TIP3    H121293   8.208   2.311   4.851 -0.1413  0.1028  0.5189
 7116TIP3    H221294   8.314   2.225   4.915 -0.5921 -0.3494  0.6634
 7117TIP3   OH221295   1.648   7.283   4.818  0.2126 -0.3650 -0.0240
 7117TIP3    H121296   1.580   7.338   4.857 -0.3135 -0.5259 -0.6922
 7117TIP3    H221297   1.701   7.254   4.892  0.3274  0.8076  0.3694
 7118TIP3   OH221298   2.708   6.830   1.189 -0.1752 -0.3429  0.6753
 7118TIP3    H121299   2.622   6.834   1.230  0.5470 -0.4353  2.2507
 7118TIP3    H221300   2.728   6.736   1.184  0.4797 -0.2707  1.7410
 7119TIP3   OH221301   6.910   2.777   6.064  0.0700  0.2153  0.0151
 7119TIP3    H121302   6.827   2.798   6.022 -0.8592  1.1672  2.1388
 7119TIP3    H221303   6.935   2.858   6.109  2.2348 -0.0170 -0.6530
 7120TIP3   OH221304   5.073   6.929   5.856  0.2565 -0.3921  0.3762
 7120TIP3    H121305   5.004   6.872   5.823  0.9605 -0.5436 -0.8843
 7120TIP3    H221306   5.047   7.017   5.828  0.7513 -0.4939 -0.4034
 7121TIP3   OH221307   6.247   4.184   3.052  0.6348  0.2382 -0.5790
 7121TIP3    H121308   6.176   4.189   2.987  1.5583 -0.3959 -1.6882
 7121TIP3    H221309   6.267   4.090   3.056 -0.4576  0.0348  1.8496
 7122TIP3   OH221310   0.502   7.282   5.862 -0.4691 -0.3336 -0.1864
 7122TIP3    H121311   0.475   7.295   5.953 -0.7892  1.8802 -0.5474
 7122TIP3    H221312   0.596   7.298   5.863 -0.1841 -1.8811 -0.0060
 7123TIP3   OH221313   7.283   0.252   6.083  0.4841 -0.3859 -0.7083
 7123TIP3    H121314   7.224   0.189   6.125 -0.2377 -1.6464 -3.3781
 7123TIP3    H221315   7.362   0.251   6.137 -0.5755 -1.4036  0.9177
 7124TIP3   OH221316   4.413   2.998   5.670  0.3661 -0.3036 -0.2396
 7124TIP3    H121317   4.421   3.041   5.755  0.6828 -0.7666 -0.0325
 7124TIP3    H221318   4.322   2.966   5.667  0.6350 -1.1475  0.3429
 7125TIP3   OH221319   5.188   4.087   6.628  0.0064  0.2369  0.2446
 7125TIP3    H121320   5.201   4.022   6.696 -0.5054  2.2607  2.3883
 7125TIP3    H221321   5.248   4.158   6.650  0.2952  0.7123 -1.8126
 7126TIP3   OH221322   6.314   4.027   1.187  0.1876  0.7000 -0.6206
 7126TIP3    H121323   6.267   4.052   1.266 -0.2940  0.1502 -0.7234
 7126TIP3    H221324   6.403   4.010   1.217 -0.2259 -0.5066  0.0161
 7127TIP3   OH221325   1.438   4.537   3.647 -0.5355  0.0895  0.0272
 7127TIP3    H121326   1.457   4.553   3.740  0.2125  0.7840 -0.2371
 7127TIP3    H221327   1.471   4.448   3.631 -1.1101 -0.2249  0.5363
 7128TIP3   OH221328   1.413   4.380   2.574  0.4786  0.1517 -0.4267
 7128TIP3    H121329   1.432   4.396   2.666  1.7061 -2.1150 -0.2233
 7128TIP3    H221330   1.498   4.386   2.531  0.3725 -1.5963 -0.9373
 7129TIP3   OH221331   7.751   1.885   1.388  0.8313 -0.0949  0.2837
 7129TIP3    H121332   7.728   1.825   1.317 -0.7512 -0.7250  1.2632
 7129TIP3    H221333   7.724   1.839   1.467 -0.3594  1.8647  1.0764
 7130TIP3   OH221334   2.991   2.354   5.620  0.2610 -0.2612  0.0535
 7130TIP3    H121335   2.907   2.309   5.613  0.4224 -0.6656  0.5725
 7130TIP3    H221336   3.052   2.286   5.649  0.6083  0.1909  0.4093
 7131TIP3   OH221337   1.819   1.648   2.953  0.2503  0.1051  0.1368
 7131TIP3    H121338   1.806   1.736   2.987  0.6059  0.3342 -0.3254
 7131TIP3    H221339   1.734   1.624   2.915  0.7501  1.0920 -1.6850
 7132TIP3   OH221340   3.958   0.447   0.690 -0.7048  0.3547 -0.5579
 7132TIP3    H121341   3.904   0.419   0.764  0.6867 -1.9023 -0.3072
 7132TIP3    H221342   3.906   0.426   0.613 -1.0136  0.0507 -0.2705
 7133TIP3   OH221343   1.486   2.752   2.727  0.1837  0.0883 -0.2085
 7133TIP3    H121344   1.512   2.663   2.703  0.5180 -0.3906  1.7224
 7133TIP3    H221345   1.429   2.781   2.656  2.2886 -0.5841 -2.2512
 7134TIP3   OH221346   1.137   7.294   3.838  0.9175 -0.5315 -0.3494
 7134TIP3    H121347   1.110   7.275   3.748  0.0169  0.5293 -0.3277
 7134TIP3    H221348   1.174   7.382   3.834 -0.2143  0.0120  0.5079
 7135TIP3   OH221349   6.209   3.605   0.855  0.4306 -0.4281 -0.1097
 7135TIP3    H121350   6.166   3.540   0.910 -0.1275 -1.4442 -1.6853
 7135TIP3    H221351   6.140   3.642   0.801  0.5112  2.4102  1.5329
 7136TIP3   OH221352   1.295   4.809   1.994 -0.3342 -0.1793 -0.2254
 7136TIP3    H121353   1.255   4.839   2.076  0.9851  1.2392 -0.0520
 7136TIP3    H221354   1.349   4.733   2.019  1.6520  1.4288  0.6809
 7137TIP3   OH221355   1.894   3.953   3.718 -0.5872  0.0765  0.2147
 7137TIP3    H121356   1.818   3.896   3.718 -1.3243  0.9780 -1.6566
 7137TIP3    H221357   1.965   3.899   3.753 -2.0936 -0.7031  2.2323
 7138TIP3   OH221358   5.342   4.036   4.981 -0.0710  0.0513  0.3614
 7138TIP3    H121359   5.358   4.023   4.887  1.2556  1.1611  0.4092
 7138TIP3    H221360   5.291   4.116   4.986  1.7497  1.2466  0.6698
 7139TIP3   OH221361   2.950   0.172   4.153  0.3602 -0.2695 -0.2464
 7139TIP3    H121362   2.856   0.176   4.170  0.1621 -0.7753 -1.1865
 7139TIP3    H221363   2.958   0.116   4.076  1.4036  0.1022 -0.4167
 7140TIP3   OH221364   1.432   3.201   0.912 -0.7657 -0.2973  0.3000
 7140TIP3    H121365   1.339   3.213   0.933 -1.0586 -0.0778 -1.0278
 7140TIP3    H221366   1.464   3.290   0.896  0.0415 -0.2197  2.0784
 7141TIP3   OH221367   5.211   2.117   3.554  0.2286 -0.3569 -0.1648
 7141TIP3    H121368   5.213   2.040   3.612 -0.3766  0.8322  1.5069
 7141TIP3    H221369   5.118   2.133   3.538  0.3254  0.3063 -0.0901
 7142TIP3   OH221370   1.366   0.869   5.999 -0.4742 -0.6239 -1.0300
 7142TIP3    H121371   1.303   0.884   5.929  0.2101  0.6267 -1.4100
 7142TIP3    H221372   1.322   0.898   6.079 -0.3031  0.5013 -1.3309
 7143TIP3   OH221373   6.683   2.235   5.817 -0.0657 -0.1606 -0.0465
 7143TIP3    H121374   6.699   2.170   5.749  2.3910 -0.7771  1.0314
 7143TIP3    H221375   6.711   2.193   5.898 -1.0011  1.2861  1.0762
 7144TIP3   OH221376   4.981   1.812   4.059 -0.4957  0.0093 -0.0192
 7144TIP3    H121377   5.020   1.743   4.006 -1.7213  0.8322 -2.1320
 7144TIP3    H221378   5.032   1.890   4.037  1.0039 -0.1726  2.4881
 7145TIP3   OH221379   5.020   2.678   0.803  0.4991  0.5307 -0.3217
 7145TIP3    H121380   5.061   2.690   0.717 -1.0651  0.6469 -1.0892
 7145TIP3    H221381   4.943   2.624   0.785 -0.4134  1.3943  0.8424
 7146TIP3   OH221382   2.639   5.507   3.628  0.1047  0.2829 -0.2562
 7146TIP3    H121383   2.691   5.587   3.621 -1.0357  1.1472  0.5716
 7146TIP3    H221384   2.639   5.469   3.540  1.9348  0.3567 -0.3084
 7147TIP3   OH221385   3.554   0.870   2.157  0.0279  0.2579 -0.2913
 7147TIP3    H121386   3.483   0.934   2.157  0.8625  1.3730  2.7790
 7147TIP3    H221387   3.633   0.922   2.140  0.5748 -0.0809  1.0338
 7148TIP3   OH221388   0.289   4.592   4.520  0.2192  0.6449 -0.6151
 7148TIP3    H121389   0.258   4.661   4.578 -0.9143 -0.0242 -0.3976
 7148TIP3    H221390   0.252   4.615   4.434 -1.0732 -0.2419 -0.3216
 7149TIP3   OH221391   1.091   6.818   4.931 -0.4682  0.3432 -0.1785
 7149TIP3    H121392   1.020   6.758   4.910 -1.6309  1.7010 -0.2936
 7149TIP3    H221393   1.145   6.771   4.994 -0.4176 -1.4196 -1.4846
 7150TIP3   OH221394   1.350   1.972   3.773  0.2138 -0.5344  0.1697
 7150TIP3    H121395   1.373   1.961   3.865 -0.4853  1.7959  0.6938
 7150TIP3    H221396   1.396   1.902   3.727  1.8074 -0.8161  2.1055
 7151TIP3   OH221397   2.828   7.625   0.028 -0.7091 -0.2920 -0.2229
 7151TIP3    H121398   2.915   7.638   0.064 -0.7688 -0.6803  0.0706
 7151TIP3    H221399   2.769   7.669   0.089 -0.7964 -0.8126  0.0718
 7152TIP3   OH221400   0.632   2.563   1.667 -0.1244  0.1503  0.1757
 7152TIP3    H121401   0.723   2.540   1.647  0.0715  1.3939 -0.3991
 7152TIP3    H221402   0.590   2.573   1.581 -1.1140 -1.4900  0.4172
 7153TIP3   OH221403   2.814   3.149   1.328  0.0149  0.2878  0.3219
 7153TIP3    H121404   2.719   3.158   1.317 -0.0928 -1.5799 -0.7674
 7153TIP3    H221405   2.834   3.198   1.408 -1.8095  0.9565  0.4155
 7154TIP3   OH221406   1.662   4.015   1.472 -0.1154  0.1813  0.3063
 7154TIP3    H121407   1.601   4.068   1.524 -0.5475 -0.4323  0.4300
 7154TIP3    H221408   1.723   4.079   1.436 -0.0058  0.6631  1.2966
 7155TIP3   OH221409   1.679   6.708   4.202 -0.2101  0.8602 -0.0686
 7155TIP3    H121410   1.756   6.759   4.227 -0.1640  0.8359 -0.1622
 7155TIP3    H221411   1.706   6.659   4.125  0.4056 -0.8728  1.1872
 7156TIP3   OH221412   2.108   5.639   3.630  0.3567  0.4244  0.2893
 7156TIP3    H121413   2.143   5.685   3.706 -1.3916  0.0824  1.3597
 7156TIP3    H221414   2.030   5.594   3.662 -0.0084 -0.3743 -1.5386
 7157TIP3   OH221415   1.241   6.499   5.794 -0.0135 -0.7405  0.3138
 7157TIP3    H121416   1.303   6.568   5.772  0.1317 -0.9887 -0.0696
 7157TIP3    H221417   1.295   6.423   5.814 -0.1748 -0.7706  0.6385
 7158TIP3   OH221418   1.116   6.900   0.529 -0.5122 -1.2751 -0.3949
 7158TIP3    H121419   1.175   6.975   0.517  1.1245 -2.6832 -1.6766
 7158TIP3    H221420   1.029   6.939   0.537  0.4240  0.8199  0.2258
 7159TIP3   OH221421   6.674   1.349   6.675 -0.1073  0.3365  0.5677
 7159TIP3    H121422   6.742   1.362   6.742  0.8599 -1.7718  0.0738
 7159TIP3    H221423   6.592   1.349   6.724  0.4543  0.3755  1.5451
 7160TIP3   OH221424   1.163   1.949   2.073 -0.0781  0.2632 -0.1434
 7160TIP3    H121425   1.078   1.912   2.097  0.2019  0.9216  1.9939
 7160TIP3    H221426   1.177   1.919   1.983 -2.4207 -0.1118 -0.4472
 7161TIP3   OH221427   3.120   5.689   2.534  0.0655  0.3549  0.1719
 7161TIP3    H121428   3.205   5.645   2.541 -0.4389 -0.9111 -1.1187
 7161TIP3    H221429   3.063   5.641   2.594 -0.4600 -0.7720 -1.1653
 7162TIP3   OH221430   6.004   4.809   4.052 -0.3023  0.2834 -0.4251
 7162TIP3    H121431   6.009   4.888   3.998 -1.8935  2.3622  2.2814
 7162TIP3    H221432   5.920   4.815   4.097  1.0346 -1.1455  2.5039
 7163TIP3   OH221433   5.434   6.204   4.155 -0.8714  0.0046 -0.4122
 7163TIP3    H121434   5.357   6.148   4.150 -1.4079  0.7999 -1.4303
 7163TIP3    H221435   5.433   6.253   4.073  0.3709  0.4823 -0.1619
 7164TIP3   OH221436   5.851   3.651   6.593 -0.0996  0.1522 -0.2510
 7164TIP3    H121437   5.868   3.557   6.592 -0.4666  0.0301  1.2864
 7164TIP3    H221438   5.771   3.662   6.542  0.5000 -0.2313 -1.2890
 7165TIP3   OH221439   0.283   4.110   4.009 -0.6155 -0.2853  0.1380
 7165TIP3    H121440   0.220   4.084   4.076 -0.5714  0.3806  0.4467
 7165TIP3    H221441   0.243   4.188   3.969 -0.8817 -0.9606 -0.9486
 7166TIP3   OH221442   3.592   4.323   0.984  0.0434  0.0840 -0.0711
 7166TIP3    H121443   3.614   4.400   0.932  0.6725  0.0477  0.1276
 7166TIP3    H221444   3.558   4.359   1.066 -1.2562  0.1402 -0.6211
 7167TIP3   OH221445   2.775   7.322   0.556  0.0005 -0.0532  0.1432
 7167TIP3    H121446   2.843   7.381   0.589  1.3841 -0.9977 -0.8581
 7167TIP3    H221447   2.777   7.334   0.461 -1.6683  0.3201  0.1306
 7168TIP3   OH221448   6.154   3.814   3.998 -0.2358  0.5354 -0.5328
 7168TIP3    H121449   6.107   3.862   3.930 -0.1038  2.4039  0.6153
 7168TIP3    H221450   6.109   3.730   4.003 -0.2735  0.3602 -2.8524
 7169TIP3   OH221451   3.981   5.746   5.562  0.3149 -0.3734 -0.3272
 7169TIP3    H121452   3.998   5.839   5.578  0.3564 -0.3019 -0.7613
 7169TIP3    H221453   3.919   5.721   5.630 -1.2376  0.4743 -1.3707
 7170TIP3   OH221454   4.423   4.958   1.552  0.3117 -0.4198  0.1125
 7170TIP3    H121455   4.460   4.909   1.626  1.6078  1.4360  0.7542
 7170TIP3    H221456   4.351   4.903   1.522  0.2624 -1.6517  2.2272
 7171TIP3   OH221457   7.266   1.633   6.239  0.5455  0.3711  0.4221
 7171TIP3    H121458   7.251   1.575   6.164  0.2472 -0.3986  1.0640
 7171TIP3    H221459   7.213   1.710   6.220  0.0375 -0.0511  0.1033
 7172TIP3   OH221460   3.372   3.987   3.089 -0.5340 -0.7872  0.0532
 7172TIP3    H121461   3.413   3.924   3.149 -1.6344 -0.4799  1.1526
 7172TIP3    H221462   3.279   3.983   3.109 -0.6050  1.5243  0.4902
 7173TIP3   OH221463   1.545   2.200   6.181  0.2392  0.2516 -0.2189
 7173TIP3    H121464   1.461   2.228   6.144  1.5576  1.7350 -2.3578
 7173TIP3    H221465   1.523   2.166   6.268 -2.6784 -0.3959 -1.0772
 7174TIP3   OH221466   4.185   5.475   4.451 -0.3847 -0.1020  0.1435
 7174TIP3    H121467   4.241   5.409   4.410 -0.7671 -1.0837  1.1584
 7174TIP3    H221468   4.220   5.486   4.539 -1.3239 -0.1775  0.5426
 7175TIP3   OH221469   6.441   4.678   4.303 -0.0127 -0.1130 -0.5315
 7175TIP3    H121470   6.409   4.705   4.217 -1.3477  1.9227  0.5415
 7175TIP3    H221471   6.395   4.734   4.365 -0.2655 -2.5364  1.6654
 7176TIP3   OH221472   4.484   1.832   5.981 -0.2983 -0.3599  0.2010
 7176TIP3    H121473   4.527   1.786   6.054  1.8841  0.5489 -0.4259
 7176TIP3    H221474   4.510   1.924   5.993 -0.6645 -0.0587 -1.2152
 7177TIP3   OH221475   1.274   2.039   0.553  0.3711  0.0125 -0.5971
 7177TIP3    H121476   1.201   2.078   0.601  0.8646 -1.1195  1.1847
 7177TIP3    H221477   1.335   2.112   0.539 -0.0331  0.4849  0.0238
 7178TIP3   OH221478   3.894   2.212   4.570 -0.2150  0.0626 -0.4892
 7178TIP3    H121479   3.888   2.281   4.635 -0.0202  1.1813 -1.6074
 7178TIP3    H221480   3.890   2.130   4.620  0.6223  0.8752  0.9664
 7179TIP3   OH221481   0.623   4.508   3.218  0.4328  0.0819 -0.0557
 7179TIP3    H121482   0.537   4.514   3.176  0.8734 -1.3489 -1.2577
 7179TIP3    H221483   0.627   4.585   3.275 -1.8984 -0.1469  0.5374
 7180TIP3   OH221484   6.207   1.676   4.202 -0.6888 -0.2165  0.3211
 7180TIP3    H121485   6.258   1.728   4.264  0.3980 -0.2006 -0.5567
 7180TIP3    H221486   6.208   1.588   4.238  1.1877 -0.5204 -0.3719
 7181TIP3   OH221487   6.561   7.243   3.861  0.1736  0.8466 -0.4423
 7181TIP3    H121488   6.487   7.296   3.831 -0.4807 -0.0841 -0.4854
 7181TIP3    H221489   6.542   7.223   3.953 -0.1500 -0.2715 -0.7453
 7182TIP3   OH221490   5.372   7.775   2.766  0.2397 -0.2710 -0.3032
 7182TIP3    H121491   5.410   7.856   2.730 -0.6918 -0.5582 -2.0347
 7182TIP3    H221492   5.446   7.729   2.805  0.4084  2.6340  3.3420
 7183TIP3   OH221493   2.377   6.749   1.926  0.3508 -0.2270 -0.1012
 7183TIP3    H121494   2.422   6.699   1.994 -1.0934  0.2043  1.2334
 7183TIP3    H221495   2.439   6.750   1.853  1.6736 -1.3107  0.9304
 7184TIP3   OH221496   3.055   0.802   0.467  0.6799 -0.0798  0.6935
 7184TIP3    H121497   2.995   0.851   0.523 -0.6482  0.0541 -0.7771
 7184TIP3    H221498   3.113   0.869   0.429  0.8257 -0.0257  1.0122
 7185TIP3   OH221499   4.552   0.825   4.870  0.9191 -0.9227  0.0972
 7185TIP3    H121500   4.471   0.776   4.854 -0.6288  1.7157 -0.8538
 7185TIP3    H221501   4.542   0.858   4.960  1.3018 -1.2326  0.2521
 7186TIP3   OH221502   2.370   0.654   4.146  0.1760 -0.5472  0.0113
 7186TIP3    H121503   2.318   0.577   4.169 -0.9016  0.5492  1.4222
 7186TIP3    H221504   2.414   0.679   4.228  1.6014 -0.4517 -0.7569
 7187TIP3   OH221505   5.812   3.013   1.713 -0.6160  0.1602  0.1820
 7187TIP3    H121506   5.855   3.087   1.755  1.8827 -1.4201  0.6128
 7187TIP3    H221507   5.847   3.012   1.624 -1.5239  0.1425 -0.1891
 7188TIP3   OH221508   0.258   3.336   4.693 -0.1301  0.3920  0.3366
 7188TIP3    H121509   0.209   3.284   4.629 -0.3929  0.5503  0.4104
 7188TIP3    H221510   0.293   3.272   4.754  1.4926  0.0589 -0.8708
 7189TIP3   OH221511   7.311   3.652   2.345  0.2862  0.1252 -0.7308
 7189TIP3    H121512   7.288   3.744   2.354  1.3684  0.2239  1.3755
 7189TIP3    H221513   7.337   3.624   2.432 -0.3638 -2.2996 -1.2254
 7190TIP3   OH221514   3.766   2.694   2.456 -0.1651 -0.2046 -0.7170
 7190TIP3    H121515   3.767   2.753   2.531  1.1401  1.8672 -2.2564
 7190TIP3    H221516   3.856   2.661   2.450 -0.5687 -1.3583 -0.6565
 7191TIP3   OH221517   5.411   7.064   2.987 -0.4224  0.3844 -0.1947
 7191TIP3    H121518   5.374   7.140   2.941  0.0371  0.7425  0.0128
 7191TIP3    H221519   5.437   7.098   3.072  1.0132  0.3285 -0.5708
 7192TIP3   OH221520   1.433   1.724   3.655 -0.2139  0.5393  0.7311
 7192TIP3    H121521   1.490   1.783   3.606  0.7412 -2.4808 -2.2533
 7192TIP3    H221522   1.360   1.707   3.595 -0.2394 -1.5214  1.2678
 7193TIP3   OH221523   3.982   7.091   4.778  0.1116 -0.1954 -0.1425
 7193TIP3    H121524   4.026   7.154   4.835  0.6173 -1.0163  0.3910
 7193TIP3    H221525   3.888   7.106   4.794  0.2267  0.4129 -0.0176
 7194TIP3   OH221526   1.227   5.115   3.664  0.2751  0.8372  0.2025
 7194TIP3    H121527   1.155   5.071   3.620 -0.6318  2.8395 -0.3963
 7194TIP3    H221528   1.303   5.059   3.646 -1.0325 -1.2827  0.7943
 7195TIP3   OH221529   3.171   2.376   3.461  0.1427 -0.0689  0.7490
 7195TIP3    H121530   3.250   2.346   3.505 -0.0285 -1.8580 -0.0925
 7195TIP3    H221531   3.113   2.300   3.461 -0.2091  0.1156 -1.7326
 7196TIP3   OH221532   3.596   3.309   1.205  0.4269  0.1739  0.4730
 7196TIP3    H121533   3.572   3.286   1.115  2.3493  0.8811 -0.2708
 7196TIP3    H221534   3.664   3.376   1.195  0.6657  0.2760  2.4654
 7197TIP3   OH221535   5.693   6.456   6.084 -0.6497 -0.1060 -0.0449
 7197TIP3    H121536   5.718   6.506   6.162 -2.6939 -0.6919  1.0643
 7197TIP3    H221537   5.739   6.373   6.092  0.9244  0.6725 -0.6820
 7198TIP3   OH221538   6.516   3.686   2.284  0.1557  0.3641  0.4326
 7198TIP3    H121539   6.426   3.663   2.265  0.7519  0.3021 -2.9892
 7198TIP3    H221540   6.559   3.604   2.306  0.1338 -0.3136 -1.8172
 7199TIP3   OH221541   3.725   4.021   2.653  0.8137  0.3576 -0.4247
 7199TIP3    H121542   3.665   4.070   2.596  0.5129  0.1214 -0.3134
 7199TIP3    H221543   3.671   3.994   2.727  0.8848 -0.4507 -0.6562
 7200TIP3   OH221544   0.999   6.269   6.451  0.9313  0.1947  0.1025
 7200TIP3    H121545   1.066   6.273   6.519  2.0361 -2.2819 -0.7308
 7200TIP3    H221546   1.042   6.303   6.372  1.5027 -1.9625 -0.5812
 7201TIP3   OH221547   7.992   4.084   4.159  0.1029  0.5670  0.3523
 7201TIP3    H121548   8.018   4.176   4.155 -4.2321  2.0598  1.0033
 7201TIP3    H221549   7.989   4.056   4.068 -1.6133  2.2310 -0.1851
 7202TIP3   OH221550   1.388   2.089   0.859  0.0235  0.1118 -0.2347
 7202TIP3    H121551   1.327   2.035   0.910  0.5438 -1.8196 -1.5368
 7202TIP3    H221552   1.463   2.101   0.916  0.4895 -1.7974 -0.3878
 7203TIP3   OH221553   8.260   0.930   0.578 -0.0339 -0.0399 -0.2951
 7203TIP3    H121554   8.331   0.971   0.528  0.6511  0.0087  0.6850
 7203TIP3    H221555   8.253   0.982   0.657 -0.7557 -0.4235 -0.0957
 7204TIP3   OH221556   4.697   2.683   1.523  0.2652 -0.0961 -0.0434
 7204TIP3    H121557   4.750   2.623   1.575 -0.0401 -0.7199 -0.4411
 7204TIP3    H221558   4.713   2.657   1.433  0.7636  0.9558 -0.2754
 7205TIP3   OH221559   6.955   3.075   6.654 -0.1164 -0.2143 -0.6501
 7205TIP3    H121560   7.027   3.018   6.680  0.8496  1.0439 -0.4685
 7205TIP3    H221561   6.884   3.053   6.714  0.2976 -1.0508 -0.4477
 7206TIP3   OH221562   2.471   2.957   4.646  0.7866 -0.0558  0.4888
 7206TIP3    H121563   2.535   3.026   4.666  0.0769  0.8613 -0.3462
 7206TIP3    H221564   2.387   3.001   4.649  0.3293 -0.8693 -0.1795
 7207TIP3   OH221565   7.517   4.245   5.161 -0.0657 -0.1004  0.4816
 7207TIP3    H121566   7.587   4.192   5.200  0.6162  0.7857  0.4966
 7207TIP3    H221567   7.555   4.332   5.153 -1.0928  0.3378  0.2455
 7208TIP3   OH221568   3.665   5.785   2.334 -0.5050 -0.2313  0.3425
 7208TIP3    H121569   3.728   5.855   2.351  1.1569 -1.1253 -1.7623
 7208TIP3    H221570   3.593   5.803   2.394  0.3945  2.5825  0.7145
 7209TIP3   OH221571   6.002   6.888   0.556  0.3183  0.0959  0.0472
 7209TIP3    H121572   5.932   6.888   0.621  0.3090 -0.3373  0.0452
 7209TIP3    H221573   6.015   6.980   0.533 -0.4486  0.1527 -0.1660
 7210TIP3   OH221574   3.196   4.368   0.919 -0.1948  0.3103  0.0648
 7210TIP3    H121575   3.224   4.454   0.949  0.4537  0.4457 -0.9169
 7210TIP3    H221576   3.249   4.306   0.969 -1.6311  0.3923  1.8105
 7211TIP3   OH221577   0.063   1.962   4.264 -0.4086  0.2729  0.1385
 7211TIP3    H121578   0.153   1.931   4.259 -0.2120  0.7388  0.7710
 7211TIP3    H221579   0.019   1.901   4.322 -0.4889  0.0870 -0.1138
 7212TIP3   OH221580   4.891   2.483   1.050  0.1082 -0.3092 -0.1053
 7212TIP3    H121581   4.906   2.504   0.958  1.4252 -0.2143  0.1187
 7212TIP3    H221582   4.938   2.401   1.064 -1.1544 -1.0145  0.1789
 7213TIP3   OH221583   0.292   0.075   4.530 -0.2785  0.1623  0.1934
 7213TIP3    H121584   0.371   0.024   4.548  0.1407  1.0001  0.7813
 7213TIP3    H221585   0.220   0.019   4.557  0.1391 -0.4047  0.1411
 7214TIP3   OH221586   6.072   6.933   2.140  0.3450  0.2692 -0.2537
 7214TIP3    H121587   6.146   6.938   2.079  1.1482 -1.0008  0.5701
 7214TIP3    H221588   6.089   6.855   2.192 -1.0487  0.5449  0.6706
 7215TIP3   OH221589   7.002   4.517   0.033  0.2401  0.0484 -0.1304
 7215TIP3    H121590   6.989   4.583  -0.035 -1.1982  1.4767  1.4409
 7215TIP3    H221591   7.089   4.482   0.016  0.4516  1.3160 -1.8889
 7216TIP3   OH221592   4.292   7.105   4.328 -0.2361  0.2026  0.2975
 7216TIP3    H121593   4.375   7.146   4.352  1.0353 -2.1922  0.3577
 7216TIP3    H221594   4.229   7.139   4.391  0.8893  1.4615  0.7841
 7217TIP3   OH221595   2.094   0.497   6.447 -0.7972 -0.4080  0.1628
 7217TIP3    H121596   2.085   0.590   6.466  0.7285 -0.1768 -0.0826
 7217TIP3    H221597   2.118   0.494   6.354 -2.5116 -1.1691 -0.2970
 7218TIP3   OH221598   1.388   2.055   3.159  0.0865  0.2658  0.0057
 7218TIP3    H121599   1.404   2.102   3.077 -1.0474 -0.9690 -0.9887
 7218TIP3    H221600   1.294   2.064   3.173  0.2194  0.1801  0.9989
 7219TIP3   OH221601   0.168   5.564   0.719  0.3166 -0.4392 -0.2228
 7219TIP3    H121602   0.190   5.517   0.639  0.1166  0.7795 -1.0062
 7219TIP3    H221603   0.192   5.503   0.789 -1.0696 -2.2165 -1.2045
 7220TIP3   OH221604   3.903   7.438   0.310 -0.3174  0.2884 -0.2444
 7220TIP3    H121605   3.859   7.473   0.232 -1.2394 -2.0264 -0.8523
 7220TIP3    H221606   3.882   7.501   0.379 -1.1171  1.3945 -1.4364
 7221TIP3   OH221607   2.117   4.373   1.835  0.2749 -0.7117 -0.3154
 7221TIP3    H121608   2.029   4.346   1.861 -0.3453  0.5670 -1.0101
 7221TIP3    H221609   2.107   4.464   1.805  1.2298 -1.5276 -3.4250
 7222TIP3   OH221610   0.768   6.315   5.322 -0.8574 -0.3480 -0.0639
 7222TIP3    H121611   0.703   6.292   5.388  0.5974 -1.8451  0.9276
 7222TIP3    H221612   0.823   6.381   5.364 -0.4482 -0.6698 -0.0844
 7223TIP3   OH221613   5.063   0.610   2.850 -0.1378 -0.1938  0.6630
 7223TIP3    H121614   5.096   0.681   2.905  2.4212  0.1474 -1.1141
 7223TIP3    H221615   4.970   0.632   2.836  0.2805  2.1747  1.1098
 7224TIP3   OH221616  -0.010   3.525   4.311 -0.3687 -0.5734  0.2183
 7224TIP3    H121617   0.077   3.484   4.318  0.7492  1.4343 -0.9234
 7224TIP3    H221618   0.002   3.612   4.349 -1.1159  0.7017 -2.2643
 7225TIP3   OH221619   3.515   7.794   6.097 -0.0156 -0.2730 -0.3059
 7225TIP3    H121620   3.515   7.829   6.186  0.5634 -0.5347 -0.1929
 7225TIP3    H221621   3.452   7.721   6.100 -0.7412  0.3446 -0.3774
 7226TIP3   OH221622   7.326  -0.001   5.362 -0.1039  0.0478  0.2354
 7226TIP3    H121623   7.295   0.088   5.378 -1.1770 -0.2670 -0.0292
 7226TIP3    H221624   7.254  -0.043   5.315 -0.0332 -1.2548  1.2435
 7227TIP3   OH221625   4.574   7.018   6.067  0.3696 -0.0259  0.0512
 7227TIP3    H121626   4.569   7.089   6.003  0.3483  0.3550  0.4696
 7227TIP3    H221627   4.645   7.044   6.126 -1.2999  0.9415  1.7463
 7228TIP3   OH221628   4.293   1.724   5.151  0.2731  0.1641 -0.2527
 7228TIP3    H121629   4.266   1.768   5.071  1.3524  0.7578 -0.3141
 7228TIP3    H221630   4.229   1.750   5.217  0.3107  0.9930 -0.5403
 7229TIP3   OH221631   3.569   1.169   0.102 -0.0971  0.9105  0.8524
 7229TIP3    H121632   3.488   1.218   0.089 -0.3152  0.6808  1.3061
 7229TIP3    H221633   3.541   1.077   0.104  0.3937  0.7021 -0.6768
 7230TIP3   OH221634   3.182   4.996   3.090  0.6472 -0.7157 -0.6955
 7230TIP3    H121635   3.189   4.992   3.185  1.6799 -2.4154 -0.7977
 7230TIP3    H221636   3.124   5.070   3.073 -0.5640 -1.1307  1.2912
 7231TIP3   OH221637   3.642   6.378   5.190  0.8687 -0.9950  0.1502
 7231TIP3    H121638   3.702   6.305   5.205  2.0847 -0.1024 -0.1543
 7231TIP3    H221639   3.688   6.433   5.126 -0.1334 -0.0996  0.1808
 7232TIP3   OH221640   6.171   0.195   4.012  0.2851  0.2103 -0.3310
 7232TIP3    H121641   6.239   0.258   4.035  0.6094 -0.4939  0.7185
 7232TIP3    H221642   6.091   0.230   4.051  0.6530 -0.4957  1.1187
 7233TIP3   OH221643   4.410   7.736   4.632 -0.3938 -0.6588  0.5919
 7233TIP3    H121644   4.366   7.799   4.689  0.1619 -0.5992  0.9681
 7233TIP3    H221645   4.472   7.691   4.690  0.1062 -0.6719  0.0546
 7234TIP3   OH221646   7.121   4.995   5.212  0.7546  0.4010  0.4953
 7234TIP3    H121647   7.185   5.055   5.174  0.6571  0.2112  0.0268
 7234TIP3    H221648   7.162   4.964   5.293  0.1894  2.2232  1.5310
 7235TIP3   OH221649   7.245   5.878   3.266  0.2718  0.5566  0.3797
 7235TIP3    H121650   7.299   5.857   3.342  0.0109 -0.1100  0.3943
 7235TIP3    H221651   7.232   5.794   3.222 -0.4061  0.7677  0.1541
 7236TIP3   OH221652   5.566   4.773   1.704 -0.7852  0.0058 -0.1730
 7236TIP3    H121653   5.580   4.862   1.737  1.4697  1.2497 -3.8640
 7236TIP3    H221654   5.484   4.777   1.656 -1.4822 -0.3921  0.9565
 7237TIP3   OH221655   3.347   6.069   1.572 -0.5758  0.0670 -0.2928
 7237TIP3    H121656   3.272   6.077   1.631 -0.4729 -1.7577  0.1415
 7237TIP3    H221657   3.353   6.154   1.529 -1.7911  0.8339  0.9767
 7238TIP3   OH221658   1.013   7.400   5.907 -0.1070  0.2959 -0.2291
 7238TIP3    H121659   1.056   7.342   5.970 -0.1098  0.6084  0.0640
 7238TIP3    H221660   1.045   7.488   5.928 -1.0098  0.5611  0.1081
 7239TIP3   OH221661   2.548   4.804   3.240 -0.1346  0.1248  0.3956
 7239TIP3    H121662   2.601   4.883   3.251 -1.9824  1.3764  0.8050
 7239TIP3    H221663   2.589   4.739   3.298  1.4242  0.7418  0.0366
 7240TIP3   OH221664   0.589   4.828   5.229 -0.4915  0.1265  0.1662
 7240TIP3    H121665   0.606   4.916   5.197  0.9526 -0.3561 -0.5047
 7240TIP3    H221666   0.647   4.817   5.304 -0.8870 -0.1460  0.4375
 7241TIP3   OH221667   4.358   7.673   5.897  0.3326  0.2222  0.7786
 7241TIP3    H121668   4.321   7.665   5.809  0.7493 -1.8760  0.7514
 7241TIP3    H221669   4.326   7.757   5.929 -0.8326  0.4596 -0.9132
 7242TIP3   OH221670   7.230   4.816   0.752  0.3232 -0.3550 -0.5403
 7242TIP3    H121671   7.235   4.781   0.663  0.8673 -0.2272 -0.5601
 7242TIP3    H221672   7.199   4.742   0.804 -2.4065  0.2254 -1.2082
 7243TIP3   OH221673   4.260   3.647   5.996 -0.2396  0.1659 -0.3945
 7243TIP3    H121674   4.336   3.612   5.950  0.7907 -0.7853  1.9110
 7243TIP3    H221675   4.279   3.740   6.007  0.6202 -0.0737  0.2051
 7244TIP3   OH221676   1.282   7.210   3.233 -0.0144 -0.4608  0.4551
 7244TIP3    H121677   1.294   7.167   3.318  1.1992  0.5924  0.8503
 7244TIP3    H221678   1.229   7.287   3.253  0.8287  0.1469  0.3848
 7245TIP3   OH221679   2.749   0.582   6.691  0.0835  0.2343 -0.2699
 7245TIP3    H121680   2.745   0.619   6.603 -1.3111 -0.9856 -0.7623
 7245TIP3    H221681   2.738   0.488   6.679  0.7970 -0.0633  1.1451
 7246TIP3   OH221682   7.147   1.011   3.716 -0.0794 -0.3310 -0.5291
 7246TIP3    H121683   7.214   0.946   3.738  1.6143  1.4130 -0.2782
 7246TIP3    H221684   7.074   0.989   3.774  1.8904  0.2459  2.4194
 7247TIP3   OH221685   0.838   5.904   4.141  0.2991  0.0196 -0.2881
 7247TIP3    H121686   0.788   5.964   4.084  1.3752  0.8771 -0.3649
 7247TIP3    H221687   0.872   5.837   4.081  0.7654  0.4753 -0.5456
 7248TIP3   OH221688   7.461   6.383   3.577  0.0208 -0.1110 -0.3010
 7248TIP3    H121689   7.379   6.412   3.618 -0.5627  0.3076 -1.6976
 7248TIP3    H221690   7.484   6.302   3.623  0.1091  0.9899  1.7019
 7249TIP3   OH221691   2.478   1.683   0.937  0.1538 -0.0765  0.5157
 7249TIP3    H121692   2.452   1.656   1.025 -1.8312  1.9866  0.6515
 7249TIP3    H221693   2.536   1.758   0.951 -1.8550  1.6485  0.1541
 7250TIP3   OH221694   7.389   4.969   6.429 -0.0314  0.7458 -0.5861
 7250TIP3    H121695   7.297   4.948   6.414 -0.0860 -1.7263  2.2602
 7250TIP3    H221696   7.436   4.917   6.364 -0.6012 -0.5564 -0.0081
 7251TIP3   OH221697   4.779   5.133   5.353  0.2433  0.0233  0.4568
 7251TIP3    H121698   4.867   5.095   5.359  0.7177  0.8925 -0.4572
 7251TIP3    H221699   4.720   5.059   5.354  1.1240 -0.7425 -1.0537
 7252TIP3   OH221700   5.393   7.451   3.637 -0.0241 -1.0063 -0.4044
 7252TIP3    H121701   5.420   7.541   3.619  0.4108 -1.0879 -0.1638
 7252TIP3    H221702   5.419   7.402   3.559 -1.0952 -0.7653 -0.9390
 7253TIP3   OH221703   1.561   1.620   1.982 -0.1011  0.7546  0.9836
 7253TIP3    H121704   1.601   1.536   1.962 -0.4190  1.0468 -1.1264
 7253TIP3    H221705   1.561   1.625   2.077  0.2425 -1.4637  1.1436
 7254TIP3   OH221706   5.852   7.793   2.819 -0.0122 -0.3800  0.5944
 7254TIP3    H121707   5.869   7.823   2.908 -0.3547  2.3489 -0.1586
 7254TIP3    H221708   5.925   7.827   2.768 -0.4972 -0.7555 -0.3806
 7255TIP3   OH221709   7.610   3.428   2.295  0.1247  0.5082 -0.2656
 7255TIP3    H121710   7.692   3.379   2.290 -0.1482  0.1379 -1.5056
 7255TIP3    H221711   7.626   3.508   2.244  0.3917  1.5003  1.2935
 7256TIP3   OH221712   6.285   5.775   0.335 -0.7328  0.0680  0.0533
 7256TIP3    H121713   6.349   5.744   0.272 -1.5032 -0.5784 -0.4341
 7256TIP3    H221714   6.214   5.711   0.330 -0.3059 -0.6751  2.4348
 7257TIP3   OH221715   4.960   0.277   6.715 -0.0376 -0.0212  0.0098
 7257TIP3    H121716   5.034   0.316   6.762  2.7811 -1.9300 -2.3759
 7257TIP3    H221717   4.938   0.199   6.765 -1.0132  0.9154  1.1068
 7258TIP3   OH221718   0.282   0.553   1.050  0.5750  0.2593  0.1342
 7258TIP3    H121719   0.232   0.506   1.117  0.8644  0.1069  0.2420
 7258TIP3    H221720   0.235   0.534   0.968 -0.4402  1.3593  0.4308
 7259TIP3   OH221721   0.143   6.482   3.093 -0.4490 -0.0446 -0.9439
 7259TIP3    H121722   0.221   6.534   3.077 -1.0056  0.8216 -0.8955
 7259TIP3    H221723   0.123   6.496   3.186  0.3671 -1.7176 -0.4804
 7260TIP3   OH221724   0.589   4.811   5.834 -0.3782  0.4990 -0.1369
 7260TIP3    H121725   0.670   4.777   5.796 -0.1268 -0.1307  0.9236
 7260TIP3    H221726   0.519   4.760   5.793 -0.1175 -0.1369  0.1996
 7261TIP3   OH221727   7.658   6.213   5.920 -0.0921 -0.4884 -0.0576
 7261TIP3    H121728   7.635   6.218   5.828 -2.7365  1.9525  0.6140
 7261TIP3    H221729   7.723   6.283   5.933  0.6318 -1.1330 -0.1162
 7262TIP3   OH221730   2.561   4.799   5.955 -0.2415 -0.3594 -0.6538
 7262TIP3    H121731   2.608   4.724   5.990  0.3138  0.3045  0.0695
 7262TIP3    H221732   2.505   4.763   5.886  0.9447 -1.2409 -1.1869
 7263TIP3   OH221733   7.299   3.084   4.378 -0.1463 -0.2098  0.1373
 7263TIP3    H121734   7.242   3.115   4.308 -1.4012 -2.6093  0.0162
 7263TIP3    H221735   7.296   3.154   4.444 -2.4394  0.1692 -0.3035
 7264TIP3   OH221736   2.495   1.452   3.482 -0.6349  0.5502 -0.1171
 7264TIP3    H121737   2.589   1.462   3.467 -0.8805  0.6859 -1.8303
 7264TIP3    H221738   2.475   1.509   3.556  0.7971 -0.3180  0.9806
 7265TIP3   OH221739   2.451   3.051   5.422  0.2078  0.8064 -0.0465
 7265TIP3    H121740   2.505   3.128   5.441  0.1214  0.9742 -0.4588
 7265TIP3    H221741   2.513   2.980   5.410  0.3817  1.1060 -1.0310
 7266TIP3   OH221742   7.276   4.519   1.676 -0.2131 -0.0385 -0.2241
 7266TIP3    H121743   7.286   4.614   1.686  3.0960 -0.1339 -1.5159
 7266TIP3    H221744   7.220   4.509   1.599 -0.2260  0.8573 -0.3436
 7267TIP3   OH221745   0.597   5.864   6.160  0.5752  0.1110  0.1414
 7267TIP3    H121746   0.686   5.853   6.126 -0.0292 -1.1026 -1.1445
 7267TIP3    H221747   0.573   5.953   6.133  1.0363  0.0855 -0.3981
 7268TIP3   OH221748   1.029   3.630   2.204  0.2623  0.0677 -0.4923
 7268TIP3    H121749   1.078   3.555   2.236 -0.4100  0.1146  0.6977
 7268TIP3    H221750   0.974   3.657   2.278 -0.0598  1.2650 -1.1337
 7269TIP3   OH221751   2.726   4.163   5.054 -0.4550 -0.2583  0.1516
 7269TIP3    H121752   2.808   4.187   5.010  0.9118 -2.6496  1.1878
 7269TIP3    H221753   2.744   4.179   5.147 -1.8446  0.8880  0.2529
 7270TIP3   OH221754   6.012   7.203   1.860  0.2177  0.1678  0.1467
 7270TIP3    H121755   6.075   7.246   1.918  1.7028  0.3805 -1.5522
 7270TIP3    H221756   6.004   7.262   1.785 -1.3469 -0.2902 -0.0853
 7271TIP3   OH221757   8.158   6.224   2.706 -0.1983  0.5020  0.6444
 7271TIP3    H121758   8.159   6.317   2.727 -0.6105  0.3813  1.2178
 7271TIP3    H221759   8.210   6.183   2.776 -3.0554 -0.1124  2.5414
 7272TIP3   OH221760   5.902   7.676   6.393  0.2208  0.0491  0.1502
 7272TIP3    H121761   5.927   7.761   6.429  1.2634  0.9170 -2.3911
 7272TIP3    H221762   5.829   7.647   6.448  1.6284  1.2311  2.8307
 7273TIP3   OH221763   1.634   5.737   4.700 -0.1797  0.0506 -0.3731
 7273TIP3    H121764   1.696   5.665   4.715 -3.0555 -2.2472  1.3719
 7273TIP3    H221765   1.669   5.809   4.753  1.6738 -0.6851 -0.4919
 7274TIP3   OH221766   2.457   0.325   5.732 -0.1237  0.9211  0.2466
 7274TIP3    H121767   2.411   0.360   5.808 -1.0406  1.7027 -0.6506
 7274TIP3    H221768   2.388   0.291   5.675  0.5739  0.0276 -0.1027
 7275TIP3   OH221769   7.785   1.853   1.768  0.3528 -0.0264 -0.2028
 7275TIP3    H121770   7.692   1.877   1.773  0.3350 -0.0352 -0.4820
 7275TIP3    H221771   7.831   1.937   1.766  0.2607  0.0147 -1.7674
 7276TIP3   OH221772   1.169   6.648   2.863  1.0684 -0.2322 -0.6400
 7276TIP3    H121773   1.232   6.717   2.842  0.6121 -0.0174 -1.3332
 7276TIP3    H221774   1.153   6.604   2.780  2.5113 -2.2018  0.0566
 7277TIP3   OH221775   6.315   4.904   2.153 -0.4742  0.2995 -0.0607
 7277TIP3    H121776   6.243   4.944   2.202 -0.5848 -0.0549  0.0696
 7277TIP3    H221777   6.364   4.854   2.218 -0.9718 -0.6725 -0.4090
 7278TIP3   OH221778   0.952   1.839   2.182 -0.0194  0.0947  0.4366
 7278TIP3    H121779   0.940   1.914   2.240 -0.4902 -1.4164  2.4327
 7278TIP3    H221780   0.878   1.782   2.202  0.8899 -1.3723 -0.2000
 7279TIP3   OH221781   0.839   5.447   1.361  0.9341 -0.0274 -0.1054
 7279TIP3    H121782   0.752   5.444   1.400  0.8986  0.5844 -0.1185
 7279TIP3    H221783   0.893   5.390   1.416  0.9006  0.8612  0.8868
 7280TIP3   OH221784   6.626   3.934   2.717  0.0407  0.2912  0.3556
 7280TIP3    H121785   6.532   3.937   2.734 -0.1275 -0.1464 -0.4060
 7280TIP3    H221786   6.643   4.010   2.661 -0.3148 -0.8623 -1.4246
 7281TIP3   OH221787   6.567   3.577   3.246  0.0008 -0.4905 -0.0693
 7281TIP3    H121788   6.499   3.577   3.313  0.8949  0.8312  0.8849
 7281TIP3    H221789   6.570   3.668   3.215  0.8059 -0.7079 -0.6463
 7282TIP3   OH221790   2.251   1.209   2.460  0.2818  0.1344  0.3564
 7282TIP3    H121791   2.208   1.123   2.458 -0.8557  0.6874  0.7121
 7282TIP3    H221792   2.304   1.207   2.539 -0.0397 -0.1019  0.5683
 7283TIP3   OH221793   0.130   1.825   3.580 -0.4623 -0.3236  0.5428
 7283TIP3    H121794   0.208   1.777   3.608 -1.0058 -1.2734  0.4723
 7283TIP3    H221795   0.087   1.767   3.518 -1.3833  0.0653  0.8007
 7284TIP3   OH221796   8.197   1.556   2.003  0.3375 -0.0890 -0.8198
 7284TIP3    H121797   8.104   1.579   2.011  0.4577  0.4873 -1.0264
 7284TIP3    H221798   8.237   1.634   1.965  1.2357  0.3870  1.0022
 7285TIP3   OH221799   1.061   0.147   1.784  0.0309  0.0165  0.1369
 7285TIP3    H121800   1.049   0.237   1.754  1.5827 -0.1188 -1.0249
 7285TIP3    H221801   1.135   0.152   1.845  0.3833 -0.5262 -0.2413
 7286TIP3   OH221802   4.198   5.824   5.287  0.1046  0.5119 -0.4917
 7286TIP3    H121803   4.171   5.844   5.198  0.6953 -1.1869 -1.0880
 7286TIP3    H221804   4.258   5.751   5.278 -0.7745 -0.5198  1.3949
 7287TIP3   OH221805   4.409   2.112   1.040  0.0393  0.2688 -0.3234
 7287TIP3    H121806   4.504   2.115   1.047  0.1609 -1.3758 -0.8242
 7287TIP3    H221807   4.388   2.164   0.962  0.5679  0.1622 -0.5377
 7288TIP3   OH221808   4.685   4.626   4.586  0.0401 -0.8700  0.0444
 7288TIP3    H121809   4.768   4.674   4.593  0.1535 -1.2373  1.4780
 7288TIP3    H221810   4.651   4.624   4.675 -1.4664 -0.8471 -0.4972
 7289TIP3   OH221811   2.116   5.450   4.475  0.3689 -0.6884  0.1150
 7289TIP3    H121812   2.182   5.387   4.505  1.2164 -0.3210 -0.9327
 7289TIP3    H221813   2.166   5.525   4.445 -0.5372 -0.3739 -0.6362
 7290TIP3   OH221814   2.336   5.019   4.630 -0.1271 -0.1164 -0.1007
 7290TIP3    H121815   2.383   4.979   4.702  0.0023  1.6427  0.8533
 7290TIP3    H221816   2.324   4.949   4.567  3.8875 -0.6795 -0.5051
 7291TIP3   OH221817   0.643   4.031   3.346 -0.3072 -0.1724 -0.0806
 7291TIP3    H121818   0.682   4.037   3.433 -0.6676  1.0932  0.0073
 7291TIP3    H221819   0.618   4.120   3.324  0.4570 -0.3353 -1.8036
 7292TIP3   OH221820   5.778   5.413   2.590 -0.2800 -0.0826 -0.2367
 7292TIP3    H121821   5.848   5.349   2.595 -0.9041 -0.7472  0.2043
 7292TIP3    H221822   5.739   5.400   2.504  0.8483  1.0815 -0.9707
 7293TIP3   OH221823   2.782   1.017   0.929  0.2199 -0.2458 -0.2774
 7293TIP3    H121824   2.695   0.979   0.932  0.8779 -2.2035 -2.6994
 7293TIP3    H221825   2.770   1.102   0.886 -0.2786 -1.5083 -2.7875
 7294TIP3   OH221826   8.201   4.693   3.200 -0.4415 -0.1404  0.2988
 7294TIP3    H121827   8.169   4.614   3.157 -0.9965 -0.6842  1.6429
 7294TIP3    H221828   8.130   4.717   3.260  0.2385  0.6618  0.8007
 7295TIP3   OH221829   1.345   5.368   0.935  0.3241 -0.0105 -0.3460
 7295TIP3    H121830   1.435   5.368   0.902  0.2968 -0.5127 -0.4272
 7295TIP3    H221831   1.352   5.403   1.024  0.4628  0.8906 -0.7052
 7296TIP3   OH221832   6.380   5.997   1.264  0.0615  0.0950  1.2823
 7296TIP3    H121833   6.472   5.973   1.257  0.6648  1.6479  2.9728
 7296TIP3    H221834   6.338   5.955   1.189  2.5674  1.3446 -0.9884
 7297TIP3   OH221835   0.219   5.890   0.997  0.0315 -0.4756  0.2072
 7297TIP3    H121836   0.220   5.820   1.063  0.0205 -1.1700 -0.5113
 7297TIP3    H221837   0.236   5.845   0.914  0.1729  0.4009 -0.2523
 7298TIP3   OH221838   7.275   5.899   6.612  0.0265 -0.5100  0.4349
 7298TIP3    H121839   7.188   5.886   6.576 -0.5686  2.0641  0.7428
 7298TIP3    H221840   7.333   5.849   6.554 -1.6367 -2.6001  0.4683
 7299TIP3   OH221841   6.836   6.160   4.169  0.3328  0.0796  0.7269
 7299TIP3    H121842   6.913   6.105   4.159  0.7876  0.9233 -0.6892
 7299TIP3    H221843   6.871   6.247   4.188  0.0781  1.4455 -3.8944
 7300TIP3   OH221844   2.319   1.361   4.783 -0.5536  0.5094  0.0150
 7300TIP3    H121845   2.366   1.422   4.727 -0.5976  0.0525 -0.5280
 7300TIP3    H221846   2.377   1.286   4.792 -1.2357 -0.1390 -0.8125
 7301TIP3   OH221847   8.190   3.437   2.080 -0.1757 -0.0714 -0.2060
 7301TIP3    H121848   8.102   3.416   2.050 -0.8916  0.1972  1.5619
 7301TIP3    H221849   8.212   3.518   2.035 -1.8415  1.1642  1.0494
 7302TIP3   OH221850   1.596   6.346   4.135 -0.1313 -0.6352 -0.0174
 7302TIP3    H121851   1.672   6.405   4.140 -0.2077 -0.3401 -1.6878
 7302TIP3    H221852   1.531   6.396   4.086 -1.6339 -0.6961  1.8099
 7303TIP3   OH221853   0.324   6.014   2.240  0.1743  0.9706 -0.0448
 7303TIP3    H121854   0.384   5.945   2.267  0.3897  1.4046  0.6121
 7303TIP3    H221855   0.242   5.969   2.222  0.3872  0.5121  0.1200
 7304TIP3   OH221856   0.807   2.832   6.081 -0.2578 -0.1632 -0.7001
 7304TIP3    H121857   0.816   2.742   6.049  0.3787 -0.3108 -0.1275
 7304TIP3    H221858   0.897   2.861   6.096 -0.3997  0.8703 -1.6722
 7305TIP3   OH221859   0.738   5.536   0.621  0.5436  0.1813 -0.1502
 7305TIP3    H121860   0.730   5.499   0.533  0.3399 -1.3791  0.4814
 7305TIP3    H221861   0.828   5.567   0.626  1.0541 -1.1734 -0.4089
 7306TIP3   OH221862   5.324   5.841   4.926 -0.3626  0.2285  0.4291
 7306TIP3    H121863   5.233   5.868   4.914 -0.4703  0.0909  0.9339
 7306TIP3    H221864   5.374   5.922   4.920 -0.5243  0.3147  0.2326
 7307TIP3   OH221865   5.917   2.409   5.282 -0.2432  0.7711 -0.0241
 7307TIP3    H121866   5.980   2.352   5.239 -0.1498  2.6388 -2.5827
 7307TIP3    H221867   5.836   2.357   5.287  0.5369 -0.4598  0.1735
 7308TIP3   OH221868   5.330   0.258   6.570  0.4662 -0.3413  0.5915
 7308TIP3    H121869   5.286   0.342   6.583  1.0356  0.2857 -1.2840
 7308TIP3    H221870   5.422   0.281   6.557  0.8691 -1.3889  1.4028
 7309TIP3   OH221871   1.060   0.046   2.210 -0.3300  0.2834  0.4239
 7309TIP3    H121872   1.002   0.087   2.274 -1.6411  1.7097 -1.5470
 7309TIP3    H221873   1.130   0.110   2.196 -1.0983  0.8772 -0.9208
 7310TIP3   OH221874   6.097   6.253   6.157 -0.0911  0.1873  0.1605
 7310TIP3    H121875   6.189   6.229   6.166 -0.4438 -1.2441  0.1983
 7310TIP3    H221876   6.051   6.169   6.149 -1.4042  0.8699  0.2739
 7311TIP3   OH221877   6.624   3.598   3.947 -0.1321 -0.0614 -0.5576
 7311TIP3    H121878   6.647   3.656   4.019  0.4679  0.1875 -0.9327
 7311TIP3    H221879   6.530   3.611   3.934  0.1102  1.4278 -1.1252
 7312TIP3   OH221880   5.518   2.875   6.718  0.1842 -0.2038  0.3167
 7312TIP3    H121881   5.560   2.924   6.789  0.2614 -1.2496  1.0199
 7312TIP3    H221882   5.499   2.941   6.651  0.6272  0.7119  1.0674
 7313TIP3   OH221883   1.299   0.212   2.243  0.2807 -0.4616  0.4154
 7313TIP3    H121884   1.249   0.282   2.286  1.1139 -0.4815  1.4583
 7313TIP3    H221885   1.360   0.258   2.185 -0.5043 -0.4135 -0.3848
 7314TIP3   OH221886   2.535   4.830   5.391  0.2583  0.0867  0.3402
 7314TIP3    H121887   2.453   4.862   5.428  0.5346  2.1399 -0.6456
 7314TIP3    H221888   2.603   4.862   5.450  0.3626 -2.9208  2.0193
 7315TIP3   OH221889   6.902   3.322   5.046  1.0238  0.1971 -0.2998
 7315TIP3    H121890   6.810   3.296   5.039  0.4416  1.7690  0.7502
 7315TIP3    H221891   6.936   3.273   5.121  1.0520 -0.3820 -0.6866
 7316TIP3   OH221892   2.785   4.276   0.528  0.3171 -0.5753 -0.4515
 7316TIP3    H121893   2.724   4.205   0.508 -0.4869 -0.1939  0.5687
 7316TIP3    H221894   2.782   4.332   0.450 -0.7861 -0.4766 -0.3666
 7317TIP3   OH221895   6.031   0.583   4.950  0.2813  0.6153  0.3325
 7317TIP3    H121896   5.963   0.573   5.017 -0.4024 -0.4478 -0.4914
 7317TIP3    H221897   6.111   0.598   5.000 -0.2424  0.0137  1.3913
 7318TIP3   OH221898   3.744   6.620   6.002  0.0438 -0.5242 -0.7534
 7318TIP3    H121899   3.693   6.540   6.015 -0.1399 -0.4522 -1.0209
 7318TIP3    H221900   3.827   6.590   5.965  0.2900 -0.6619 -0.1059
 7319TIP3   OH221901   5.585   5.621   4.634 -0.4796 -0.0853  0.3873
 7319TIP3    H121902   5.507   5.674   4.649 -0.4001  0.0939  0.1826
 7319TIP3    H221903   5.644   5.643   4.707 -1.3911 -1.7239  1.6894
 7320TIP3   OH221904   0.044   6.852   6.726 -1.0205  0.0079  0.5819
 7320TIP3    H121905   0.109   6.812   6.785 -0.0107  0.3257 -0.2860
 7320TIP3    H221906  -0.034   6.799   6.737 -0.3781 -0.8624  1.0849
 7321TIP3   OH221907   2.697   7.015   1.565  0.2760 -0.5319  0.4306
 7321TIP3    H121908   2.788   7.013   1.594 -0.7703  1.1441  4.7233
 7321TIP3    H221909   2.677   7.108   1.554 -1.3386 -0.6628  1.7087
 7322TIP3   OH221910   7.836   5.404   6.726 -0.2707 -0.0868  0.3841
 7322TIP3    H121911   7.869   5.442   6.644  0.7372 -1.2010  0.2413
 7322TIP3    H221912   7.755   5.360   6.701  0.2038 -0.7031 -0.0967
 7323TIP3   OH221913   3.322   5.449   5.384  0.2541  0.3406  0.0925
 7323TIP3    H121914   3.338   5.355   5.384  0.9454  0.4549 -0.2488
 7323TIP3    H221915   3.240   5.460   5.433 -0.2624 -0.5092 -0.5732
 7324TIP3   OH221916   5.145   5.344   6.623  0.5832  0.1897 -0.0335
 7324TIP3    H121917   5.064   5.303   6.654 -0.2251  2.0907  0.4972
 7324TIP3    H221918   5.128   5.364   6.531  0.6070  0.2615 -0.0221
 7325TIP3   OH221919   1.165   6.245   6.134  0.1653  0.0751  0.2663
 7325TIP3    H121920   1.087   6.238   6.079  0.7625 -0.9279 -0.4824
 7325TIP3    H221921   1.224   6.302   6.084 -1.0723  3.2733  2.0867
 7326TIP3   OH221922   0.629   0.243   6.064  0.3042 -0.3604  0.4861
 7326TIP3    H121923   0.642   0.313   6.000 -0.9723  0.7433  1.3752
 7326TIP3    H221924   0.707   0.188   6.055  1.5527  1.3854  0.0226
 7327TIP3   OH221925   3.671   5.118   6.729  0.6480  0.4046  0.1212
 7327TIP3    H121926   3.741   5.180   6.704  0.7334  1.2629  2.3132
 7327TIP3    H221927   3.591   5.170   6.726  0.0858 -0.4480 -1.8599
 7328TIP3   OH221928   7.450   1.993   5.442  0.5741  0.2365  0.0593
 7328TIP3    H121929   7.408   2.073   5.475 -0.6584  0.3548 -1.6960
 7328TIP3    H221930   7.401   1.922   5.482 -1.4282  0.3721 -1.9418
 7329TIP3   OH221931   7.871   4.932   0.929  0.0584 -0.0107  0.0931
 7329TIP3    H121932   7.885   4.838   0.937  0.2445  0.1460  2.1416
 7329TIP3    H221933   7.843   4.960   1.016  3.9140  2.4483  0.8336
 7330TIP3   OH221934   6.327   3.531   6.477 -0.5187 -0.1970  0.2578
 7330TIP3    H121935   6.340   3.455   6.419  0.0026 -0.5526  0.8203
 7330TIP3    H221936   6.235   3.554   6.466 -0.2158  0.3489 -1.4275
 7331TIP3   OH221937   6.071   0.855   3.376 -0.9809 -0.0348 -0.6587
 7331TIP3    H121938   6.007   0.790   3.345 -1.1581  0.5954 -1.6493
 7331TIP3    H221939   6.084   0.833   3.469 -3.3096  0.3561 -0.1652
 7332TIP3   OH221940   3.633   2.721   2.233 -0.3737 -0.2900  0.3667
 7332TIP3    H121941   3.675   2.722   2.319  2.1141 -1.9058 -0.7345
 7332TIP3    H221942   3.697   2.760   2.174 -2.0607  0.8496 -0.7917
 7333TIP3   OH221943   7.136   4.321   5.739 -0.0287 -0.1869  0.1352
 7333TIP3    H121944   7.115   4.265   5.814 -0.3168 -2.3089 -1.4470
 7333TIP3    H221945   7.155   4.406   5.778 -2.1981 -0.6476  2.4423
 7334TIP3   OH221946   3.218   1.719   5.364 -0.0254 -0.2327 -0.2837
 7334TIP3    H121947   3.261   1.659   5.303 -0.0269 -0.7971  0.2566
 7334TIP3    H221948   3.210   1.669   5.445  0.2610  0.6049  0.2776
 7335TIP3   OH221949   5.523   6.850   4.318 -0.0963  0.3560 -0.0768
 7335TIP3    H121950   5.508   6.759   4.293  1.6487  0.2498 -0.8192
 7335TIP3    H221951   5.607   6.873   4.280 -0.3027  2.1715  0.4447
 7336TIP3   OH221952   0.114   3.379   5.937  0.0992 -0.5155 -0.1005
 7336TIP3    H121953   0.149   3.445   5.877  0.5616 -1.8308 -1.3307
 7336TIP3    H221954   0.180   3.371   6.005 -0.6730  1.3785  0.9511
 7337TIP3   OH221955   8.105   3.166   5.046 -0.0061  0.3663  0.3843
 7337TIP3    H121956   8.106   3.251   5.003 -0.6538  0.4633  0.5505
 7337TIP3    H221957   8.127   3.184   5.137  2.1976  0.0642 -0.0212
 7338TIP3   OH221958   5.986   4.750   5.879 -0.1155 -0.0652 -0.3148
 7338TIP3    H121959   5.903   4.778   5.918  0.5539 -0.2264  1.2991
 7338TIP3    H221960   6.037   4.831   5.873 -0.1013 -0.0933 -0.5548
 7339TIP3   OH221961   3.220   3.228   0.370 -0.1960  0.0872  0.2918
 7339TIP3    H121962   3.210   3.167   0.297 -0.3640 -1.4310  1.5456
 7339TIP3    H221963   3.250   3.175   0.443  1.4478  1.8306  0.9793
 7340TIP3   OH221964   5.332   3.816   5.596  0.1289  0.5525 -0.4773
 7340TIP3    H121965   5.347   3.871   5.519 -0.9012 -0.4705 -1.4490
 7340TIP3    H221966   5.237   3.815   5.606  0.2090 -0.0374  0.2857
 7341TIP3   OH221967   4.701   6.758   6.300  0.2262  0.7872  0.1520
 7341TIP3    H121968   4.620   6.736   6.253  0.0118  0.5796  0.6076
 7341TIP3    H221969   4.768   6.704   6.258 -0.0771  0.1422  0.4775
 7342TIP3   OH221970   8.258   5.432   4.574 -0.1620 -0.9928  0.5083
 7342TIP3    H121971   8.352   5.441   4.588 -0.1094 -1.7527  0.6937
 7342TIP3    H221972   8.225   5.521   4.572  0.5454 -0.7257  0.5742
 7343TIP3   OH221973   5.650   7.046   1.206 -0.7153  0.0937  0.0351
 7343TIP3    H121974   5.592   6.980   1.245  2.2844 -2.1407  1.0338
 7343TIP3    H221975   5.680   7.099   1.280 -1.0750  0.9621 -0.4174
 7344TIP3   OH221976   2.230   1.005   0.390 -0.7683 -0.1527 -0.6637
 7344TIP3    H121977   2.140   0.981   0.412 -0.5505 -0.3548  0.0354
 7344TIP3    H221978   2.284   0.949   0.445 -0.2086 -0.0664 -1.1144
 7345TIP3   OH221979   0.772   5.236   5.470  0.1146  0.2724 -0.1221
 7345TIP3    H121980   0.820   5.159   5.500  1.1809  1.1599  0.5352
 7345TIP3    H221981   0.688   5.233   5.515  1.1534  0.8484  1.9605
 7346TIP3   OH221982   2.648   5.951   4.250  0.3608  0.2408 -0.2138
 7346TIP3    H121983   2.641   5.856   4.252 -1.5868  0.3437 -0.0848
 7346TIP3    H221984   2.738   5.969   4.277  0.7292 -1.5454 -0.1270
 7347TIP3   OH221985   3.137   6.960   0.349  0.1342 -0.2030  0.5943
 7347TIP3    H121986   3.071   6.913   0.399 -1.9780  1.5810 -0.3811
 7347TIP3    H221987   3.088   7.018   0.292  2.5495  0.7741 -0.6446
 7348TIP3   OH221988   3.317   6.569   4.508 -0.6651  0.0280  0.4199
 7348TIP3    H121989   3.333   6.494   4.566  2.6158  0.2293 -0.0104
 7348TIP3    H221990   3.334   6.536   4.420 -1.2524  0.7765  0.0135
 7349TIP3   OH221991   8.245   3.327   3.997  0.5329 -0.5310 -0.1754
 7349TIP3    H121992   8.289   3.315   3.913  0.6109 -1.4832 -0.0021
 7349TIP3    H221993   8.300   3.281   4.061 -0.5469 -1.5088  0.0861
 7350TIP3   OH221994   4.012   4.375   1.510 -0.0491  0.9210  0.2994
 7350TIP3    H121995   3.930   4.326   1.513 -0.9221  2.0969 -1.8000
 7350TIP3    H221996   3.987   4.461   1.477  2.2799  0.6225 -2.6362
 7351TIP3   OH221997   7.030   3.228   0.107  0.4309 -0.0095  0.1688
 7351TIP3    H121998   7.077   3.305   0.139  1.0097 -0.5017  0.5068
 7351TIP3    H221999   7.068   3.211   0.021  0.0959  0.2468 -0.0379
 7352TIP3   OH222000   8.146   1.419   1.429  0.4387 -0.2568  0.0331
 7352TIP3    H122001   8.166   1.497   1.377  2.5094  0.2173  1.4316
 7352TIP3    H222002   8.231   1.377   1.443  0.0218 -0.2846  3.1207
 7353TIP3   OH222003   6.822   1.081   2.056 -0.3382 -0.3557  0.2580
 7353TIP3    H122004   6.881   1.133   2.002  0.0902 -1.1475 -0.0432
 7353TIP3    H222005   6.752   1.054   1.995 -0.7121  0.0928  0.4796
 7354TIP3   OH222006   3.601   6.941   0.249 -0.2925 -0.1429 -0.1120
 7354TIP3    H122007   3.555   6.929   0.166 -0.2295  2.6781 -0.6365
 7354TIP3    H222008   3.536   6.916   0.315 -0.9848 -0.5922 -0.9380
 7355TIP3   OH222009   5.990   6.714   4.159 -0.6077  0.3797  0.4044
 7355TIP3    H122010   6.036   6.744   4.237 -0.4515  1.4351 -0.0746
 7355TIP3    H222011   6.058   6.709   4.092 -0.7017 -0.7172  0.3689
 7356TIP3   OH222012   2.296   2.690   5.344  0.1270  0.3203 -0.0446
 7356TIP3    H122013   2.273   2.679   5.252  3.2385 -0.3429 -0.8578
 7356TIP3    H222014   2.213   2.708   5.388 -2.0147 -2.7127 -2.4140
 7357TIP3   OH222015   5.332   7.663   3.226 -0.6002  0.0569  0.5309
 7357TIP3    H122016   5.282   7.581   3.227  0.5800 -0.6756  0.2185
 7357TIP3    H222017   5.265   7.731   3.236 -1.5716 -0.9467  1.0993
 7358TIP3   OH222018   6.333   0.639   2.743  0.4567 -0.9247  0.0391
 7358TIP3    H122019   6.277   0.607   2.673  0.5425 -1.6714  0.3042
 7358TIP3    H222020   6.377   0.561   2.777  0.6128 -0.5399  0.7454
 7359TIP3   OH222021   2.110   5.342   2.043  0.3841 -0.3456  0.2513
 7359TIP3    H122022   2.115   5.266   2.101 -0.1389  0.2157  1.0599
 7359TIP3    H222023   2.166   5.407   2.084 -0.1727  0.1381  0.2493
 7360TIP3   OH222024   4.201   5.937   3.940  0.2242 -0.7945 -0.4096
 7360TIP3    H122025   4.241   5.851   3.931  1.2440 -0.4700  0.9164
 7360TIP3    H222026   4.242   5.990   3.871 -0.0095 -1.2080 -0.8739
 7361TIP3   OH222027   7.318   3.471   3.607  0.6337  0.0849 -0.7735
 7361TIP3    H122028   7.278   3.495   3.691 -0.1816 -1.4638 -0.6620
 7361TIP3    H222029   7.402   3.433   3.631  0.5806  0.0229 -0.6795
 7362TIP3   OH222030   7.814   1.020   6.529  0.1945 -0.5849 -0.1272
 7362TIP3    H122031   7.846   0.997   6.616  1.4752 -1.8438 -0.8939
 7362TIP3    H222032   7.789   1.112   6.537  1.4644 -0.3115  1.2396
 7363TIP3   OH222033   4.551   7.372   4.190 -0.0736  0.0962  0.1293
 7363TIP3    H122034   4.642   7.366   4.163  0.0738  0.1787  0.6138
 7363TIP3    H222035   4.506   7.305   4.138 -0.1553  1.5888 -1.8445
 7364TIP3   OH222036   5.428   2.871   2.673  0.3780 -0.0396  0.1123
 7364TIP3    H122037   5.390   2.954   2.701  2.2785  1.1890 -0.7789
 7364TIP3    H222038   5.408   2.865   2.580 -1.1510 -1.4292  0.4795
 7365TIP3   OH222039   2.515   4.628   4.455  0.8922  0.4140  0.2261
 7365TIP3    H122040   2.520   4.532   4.456 -0.6045  0.3170  1.5259
 7365TIP3    H222041   2.567   4.655   4.530 -0.1988  0.5024  0.9688
 7366TIP3   OH222042   5.413   7.196   1.574  0.0692  0.1929  0.0662
 7366TIP3    H122043   5.432   7.226   1.663  2.3328  0.5606 -0.4770
 7366TIP3    H222044   5.408   7.101   1.582  1.3291  0.1415  0.4294
 7367TIP3   OH222045   3.431   4.837   4.163  0.3062  0.4413 -0.6977
 7367TIP3    H122046   3.471   4.778   4.227  0.2576  0.0162 -1.0517
 7367TIP3    H222047   3.367   4.887   4.213 -0.5573 -0.6981 -0.6304
 7368TIP3   OH222048   6.098   2.268   5.130  1.0779 -0.1041  0.5382
 7368TIP3    H122049   6.080   2.189   5.080  0.1543  1.5730 -2.0057
 7368TIP3    H222050   6.181   2.250   5.174  0.5927 -2.6645  0.5541
 7369TIP3   OH222051   4.120   7.254   6.447 -0.1938 -0.1042 -0.2250
 7369TIP3    H122052   4.110   7.195   6.522 -2.9889  2.3157  1.5528
 7369TIP3    H222053   4.205   7.295   6.460 -0.2239 -0.4193  1.1703
 7370TIP3   OH222054   5.451   3.484   0.736  0.8913  0.4090  0.2037
 7370TIP3    H122055   5.511   3.426   0.689  0.0112 -0.3565 -0.0093
 7370TIP3    H222056   5.488   3.491   0.824 -0.0599 -2.2542  0.9348
 7371TIP3   OH222057   1.672   7.086   0.721  0.1477  0.2630 -0.1128
 7371TIP3    H122058   1.705   7.065   0.808 -0.0098 -3.5322 -0.8072
 7371TIP3    H222059   1.580   7.109   0.735  0.8556  2.9230  0.9331
 7372TIP3   OH222060   0.464   7.803   4.577  0.2173 -0.2143  0.4434
 7372TIP3    H122061   0.484   7.775   4.666  1.1540  1.7257  0.9035
 7372TIP3    H222062   0.550   7.818   4.537 -0.1912  1.0665 -0.0201
 7373TIP3   OH222063   1.439   4.318   0.685 -0.2129 -0.0118  0.5030
 7373TIP3    H122064   1.485   4.284   0.762  0.5731  0.8672  0.4373
 7373TIP3    H222065   1.351   4.281   0.692  0.6141 -2.1642  0.3688
 7374TIP3   OH222066   5.422   2.285   5.773 -0.4395  0.1743 -0.6741
 7374TIP3    H122067   5.463   2.372   5.781  0.1705 -0.2527  1.7830
 7374TIP3    H222068   5.334   2.298   5.809 -0.3481 -0.2131 -0.3088
 7375TIP3   OH222069   4.690   0.619   4.033  0.0858  0.0861 -0.2952
 7375TIP3    H122070   4.669   0.528   4.013 -0.2548 -0.2735  1.5431
 7375TIP3    H222071   4.697   0.661   3.947  0.8155 -1.7740 -1.2012
 7376TIP3   OH222072   4.006   0.100   3.144 -0.4636 -0.1151 -0.3555
 7376TIP3    H122073   3.978   0.086   3.054  0.6056 -0.8007 -0.5950
 7376TIP3    H222074   3.945   0.167   3.178 -0.6492  0.4192 -1.6869
 7377TIP3   OH222075   2.349   4.059   3.440 -0.4610  0.1496 -0.6421
 7377TIP3    H122076   2.336   4.090   3.530  1.6715 -0.0776 -0.2005
 7377TIP3    H222077   2.290   3.984   3.432 -0.0268 -0.3988  0.9049
 7378TIP3   OH222078   2.100   6.533   1.520  0.1947  0.1372 -0.5141
 7378TIP3    H122079   2.138   6.537   1.608 -0.9404  2.3754 -0.0612
 7378TIP3    H222080   2.113   6.442   1.493  0.9411 -0.5136  1.7916
 7379TIP3   OH222081   2.478   5.453   4.127 -0.1512  0.2443 -0.4478
 7379TIP3    H122082   2.419   5.498   4.188 -0.5005 -1.7723  0.7952
 7379TIP3    H222083   2.566   5.472   4.161 -0.3657 -1.4400  1.2003
 7380TIP3   OH222084   6.167   5.428   4.146  0.2182 -0.3996  0.0849
 7380TIP3    H122085   6.141   5.407   4.236 -0.2097 -1.5361 -0.2769
 7380TIP3    H222086   6.115   5.368   4.092  0.9989 -0.2388 -0.8797
 7381TIP3   OH222087   3.177   1.301   6.188 -0.0811 -0.0152 -0.1792
 7381TIP3    H122088   3.195   1.208   6.202  0.2671  0.1392  0.4693
 7381TIP3    H222089   3.091   1.303   6.145 -0.0282 -0.6409 -0.3159
 7382TIP3   OH222090   1.640   6.402   3.325  0.0678 -0.1670  0.1815
 7382TIP3    H122091   1.684   6.348   3.391 -1.2792  0.1789  1.4022
 7382TIP3    H222092   1.637   6.347   3.247  1.9543 -0.4804  0.2849
 7383TIP3   OH222093   7.087   1.560   2.295 -0.1982 -0.0794 -0.1162
 7383TIP3    H122094   7.107   1.626   2.229  0.1063 -0.5261 -0.4745
 7383TIP3    H222095   7.000   1.583   2.327 -0.5821 -0.1771 -1.0618
 7384TIP3   OH222096   1.174   4.628   2.637 -0.1207 -0.8565 -0.4687
 7384TIP3    H122097   1.246   4.689   2.618  0.6055 -1.9043 -1.2082
 7384TIP3    H222098   1.187   4.604   2.729 -0.9807  0.7915  0.1356
 7385TIP3   OH222099   0.719   5.472   3.702 -0.6708 -0.3868 -0.0075
 7385TIP3    H122100   0.800   5.438   3.664  0.0970  1.4851 -0.1561
 7385TIP3    H222101   0.664   5.493   3.626  0.2801  1.9604 -0.1274
 7386TIP3   OH222102   7.339   3.457   5.907 -0.1757 -0.6621  0.1815
 7386TIP3    H122103   7.404   3.460   5.837 -0.7089 -2.4774 -0.4436
 7386TIP3    H222104   7.257   3.484   5.865 -0.2080 -0.2732  0.4873
 7387TIP3   OH222105   1.804   1.364   2.240  0.6014  0.8522  0.3174
 7387TIP3    H122106   1.736   1.376   2.175  0.4316  0.8591  0.4942
 7387TIP3    H222107   1.886   1.370   2.191  0.4664  0.4132  0.0354
 7388TIP3   OH222108   1.810   3.946   6.417  0.1417 -0.1609 -0.1169
 7388TIP3    H122109   1.820   3.960   6.511 -1.5805 -1.4832  0.3088
 7388TIP3    H222110   1.786   4.032   6.382 -2.1531 -0.2273  1.1456
 7389TIP3   OH222111   4.143   2.525   0.546  0.4968 -0.1303  0.3681
 7389TIP3    H122112   4.049   2.528   0.562  0.6254 -1.1135  1.4616
 7389TIP3    H222113   4.178   2.602   0.591  0.4026 -0.7578  1.5446
 7390TIP3   OH222114   2.511  -0.012   6.463  0.0057 -0.1473  0.7825
 7390TIP3    H122115   2.483   0.079   6.451  1.1403  0.1512  0.2257
 7390TIP3    H222116   2.600  -0.005   6.498  0.3288 -1.0409  0.1794
 7391TIP3   OH222117   6.744   2.764   2.249 -0.3355 -0.3191 -0.2879
 7391TIP3    H122118   6.714   2.703   2.317 -0.2078 -0.8462 -0.7023
 7391TIP3    H222119   6.823   2.803   2.286  0.4042 -1.4827 -0.6155
 7392TIP3   OH222120   1.790   2.525   2.968 -0.9667  0.4410  0.2043
 7392TIP3    H122121   1.768   2.572   3.049  0.3162  1.9572 -0.2784
 7392TIP3    H222122   1.724   2.456   2.962 -1.6481  0.8709  2.0583
 7393TIP3   OH222123   1.658   5.380   4.923 -0.2244 -0.0019  0.1310
 7393TIP3    H122124   1.675   5.456   4.866 -2.1118  0.3944  0.0245
 7393TIP3    H222125   1.745   5.351   4.950  0.5892  1.9353 -0.1810
 7394TIP3   OH222126   0.648   5.358   6.072  0.4143 -0.1248 -0.1031
 7394TIP3    H122127   0.604   5.434   6.034  0.8604 -0.2776 -0.9543
 7394TIP3    H222128   0.612   5.283   6.024 -0.1013 -0.4692  0.8017
 7395TIP3   OH222129   6.297   4.546   1.355  0.1245 -0.2049 -0.3583
 7395TIP3    H122130   6.231   4.522   1.420  1.2189  0.1109  0.9101
 7395TIP3    H222131   6.351   4.468   1.345 -0.4169 -0.4582 -1.3817
 7396TIP3   OH222132   7.594   4.135   1.604 -0.2007  0.1238 -0.5600
 7396TIP3    H122133   7.623   4.198   1.537 -0.5829 -1.6367 -2.4895
 7396TIP3    H222134   7.503   4.159   1.621  0.2253  1.2752  0.2020
 7397TIP3   OH222135   1.415   3.593   5.214 -0.9283  0.1402  0.2821
 7397TIP3    H122136   1.386   3.544   5.138 -0.1560  2.4703 -1.6295
 7397TIP3    H222137   1.357   3.669   5.217 -0.5551  0.3982  1.6749
 7398TIP3   OH222138   0.749   7.177   5.973  0.4274 -0.1724  0.3079
 7398TIP3    H122139   0.837   7.174   6.010 -0.0629 -0.3417  1.4975
 7398TIP3    H222140   0.697   7.120   6.029 -0.9618  1.7198  1.0508
 7399TIP3   OH222141   5.750   2.252   1.562  0.8662  0.1775  0.1904
 7399TIP3    H122142   5.786   2.276   1.647  1.1449  2.4397 -0.4919
 7399TIP3    H222143   5.817   2.196   1.522  1.2941  0.1380  0.9512
 7400TIP3   OH222144   6.719   2.713   3.706 -0.4907  0.0676 -0.7138
 7400TIP3    H122145   6.733   2.625   3.742 -3.0906 -0.5803 -1.0590
 7400TIP3    H222146   6.706   2.768   3.783  0.5030  0.0603 -0.5198
 7401TIP3   OH222147   0.061   1.928   5.579 -0.3842 -0.3035  0.3549
 7401TIP3    H122148   0.135   1.961   5.630  2.0328 -0.8563 -2.5342
 7401TIP3    H222149   0.032   1.850   5.626  1.6746 -0.7581  0.9291
 7402TIP3   OH222150   7.935   0.957   3.100 -0.3158  0.0404 -0.3402
 7402TIP3    H122151   7.956   0.878   3.051 -0.7531 -0.8736  0.9062
 7402TIP3    H222152   7.958   1.029   3.040  1.8319 -0.9592 -0.8257
 7403TIP3   OH222153   1.279   5.585   4.892 -0.5798 -0.5597  0.4938
 7403TIP3    H122154   1.330   5.509   4.922 -0.7120 -0.3082  1.3662
 7403TIP3    H222155   1.322   5.611   4.810 -1.0742 -2.1202 -0.3225
 7404TIP3   OH222156   6.736   0.049   0.670 -0.1518  0.2049 -0.3288
 7404TIP3    H122157   6.656  -0.003   0.671 -0.9205  1.2996  2.2060
 7404TIP3    H222158   6.709   0.135   0.638  0.9896 -0.5552 -3.8667
 7405TIP3   OH222159   6.654   0.552   3.856  0.3380  0.4821  0.7188
 7405TIP3    H122160   6.628   0.497   3.930  1.3844 -0.8254  0.1560
 7405TIP3    H222161   6.581   0.544   3.794  1.0084 -1.3432  0.1011
 7406TIP3   OH222162   1.945   2.397   2.444  0.8838  0.0833  0.0124
 7406TIP3    H122163   2.026   2.448   2.445  2.2037 -1.8751 -0.4171
 7406TIP3    H222164   1.875   2.461   2.460  2.3931  2.0287 -0.8514
 7407TIP3   OH222165   6.662   0.833   0.733 -0.0961 -0.5432 -0.2057
 7407TIP3    H122166   6.714   0.774   0.679 -0.7333 -0.9584 -0.3644
 7407TIP3    H222167   6.622   0.894   0.671 -0.5038 -0.7689 -0.1655
 7408TIP3   OH222168   8.144   7.362   0.211  0.0012  0.1915  0.1317
 7408TIP3    H122169   8.077   7.424   0.182 -0.3345 -0.1757  0.0984
 7408TIP3    H222170   8.094   7.282   0.231  0.5877 -0.5674 -1.2805
 7409TIP3   OH222171   0.218   1.842   1.130 -0.5181 -0.3270  0.4651
 7409TIP3    H122172   0.253   1.904   1.065  2.6702 -0.6251  1.7324
 7409TIP3    H222173   0.191   1.766   1.078 -0.2413  0.3503 -0.7195
 7410TIP3   OH222174   1.790   1.007   3.587  0.0507  0.2896  0.2968
 7410TIP3    H122175   1.708   1.040   3.623  1.1420 -0.0676  3.4222
 7410TIP3    H222176   1.853   1.017   3.658  1.8540 -2.8929 -0.6566
 7411TIP3   OH222177   0.710   1.857   4.635 -0.6292 -0.1203 -0.7344
 7411TIP3    H122178   0.770   1.924   4.668 -0.8160 -0.2119 -0.2027
 7411TIP3    H222179   0.698   1.879   4.542  1.5853 -1.0834 -1.3184
 7412TIP3   OH222180   6.199   1.128   1.698 -0.6176  0.4631 -0.1686
 7412TIP3    H122181   6.121   1.183   1.685 -1.8052 -0.9261  0.8291
 7412TIP3    H222182   6.168   1.039   1.681  1.1711  0.0174 -1.3381
 7413TIP3   OH222183   2.077   1.134   3.345 -0.2725 -0.0799 -0.1930
 7413TIP3    H122184   2.139   1.064   3.368 -0.6482 -0.3354  0.0543
 7413TIP3    H222185   2.117   1.213   3.380 -0.3299 -0.3182  0.4284
 7414TIP3   OH222186   8.250   0.993   3.046 -0.5056 -0.5637  0.1428
 7414TIP3    H122187   8.221   1.084   3.041 -2.0487 -1.0851 -1.7154
 7414TIP3    H222188   8.343   0.996   3.021 -0.4678  0.5208  0.3811
 7415TIP3   OH222189   5.975   7.775   1.788 -0.4849 -0.0629  0.2031
 7415TIP3    H122190   5.920   7.795   1.712  0.2133  2.7421  0.3260
 7415TIP3    H222191   5.960   7.847   1.848  1.1948 -0.7062  1.4747
 7416TIP3   OH222192   1.366   4.153   4.310  0.6929 -0.1776  0.7339
 7416TIP3    H122193   1.322   4.077   4.348 -1.0732  0.4943  0.1648
 7416TIP3    H222194   1.422   4.116   4.242 -1.0110 -0.9630 -0.3426
 7417TIP3   OH222195   1.811   4.108   3.505 -0.5504  0.0140  0.2946
 7417TIP3    H122196   1.846   4.056   3.577  1.8622 -1.6330 -1.8787
 7417TIP3    H222197   1.756   4.047   3.456  0.0643  0.2825 -0.7489
 7418TIP3   OH222198   0.264   7.562   6.283 -0.0099  0.3730  0.1377
 7418TIP3    H122199   0.228   7.646   6.253  1.1931  1.1002  0.6423
 7418TIP3    H222200   0.326   7.586   6.352  0.8113 -0.8915 -0.1313
 7419TIP3   OH222201   6.911   4.137   3.155  0.3423  0.2179 -0.6502
 7419TIP3    H122202   6.945   4.215   3.199 -0.7221  0.6554 -0.5813
 7419TIP3    H222203   6.990   4.091   3.124  0.9712  1.4997 -1.0163
 7420TIP3   OH222204   7.820   7.492   3.388 -0.1855  0.5150 -0.0427
 7420TIP3    H122205   7.724   7.488   3.392 -0.1519  0.4144  1.2104
 7420TIP3    H222206   7.849   7.435   3.459  0.8485 -0.6120 -1.3312
 7421TIP3   OH222207   2.478   7.128   1.094 -0.2373  0.1413  0.2138
 7421TIP3    H122208   2.461   7.049   1.043  2.0494 -0.8138  0.8486
 7421TIP3    H222209   2.441   7.109   1.180  0.9067 -0.5562  0.5722
 7422TIP3   OH222210   3.849   7.645   5.678 -0.0618  0.3373 -0.0803
 7422TIP3    H122211   3.905   7.722   5.666  0.3665 -0.1019 -1.0550
 7422TIP3    H222212   3.906   7.571   5.656 -0.5053 -0.2581  0.7078
 7423TIP3   OH222213   6.037   4.055   4.706 -0.0799  0.2096  0.1398
 7423TIP3    H122214   6.084   4.130   4.669  1.7108 -0.4079  1.0654
 7423TIP3    H222215   6.093   4.023   4.777 -1.4558 -1.1769  0.6817
 7424TIP3   OH222216   0.866   7.125   5.488 -0.3334  0.9715  0.5132
 7424TIP3    H122217   0.775   7.099   5.503 -0.4342  1.8455  1.5751
 7424TIP3    H222218   0.914   7.090   5.564  0.8226 -2.0949 -1.4535
 7425TIP3   OH222219   0.547   0.787   5.574 -0.1474 -0.1294  0.6186
 7425TIP3    H122220   0.609   0.770   5.645  0.9511  0.3680 -0.1974
 7425TIP3    H222221   0.470   0.735   5.597 -0.3893  1.0918  2.8916
 7426TIP3   OH222222   3.624   4.914   1.421 -0.8728  0.2058 -0.1608
 7426TIP3    H122223   3.678   4.864   1.483  0.6316  0.8051 -0.9509
 7426TIP3    H222224   3.642   5.005   1.442 -0.3502  0.4185 -1.4759
 7427TIP3   OH222225   6.501   4.981   0.895 -0.5814  0.0415 -0.0869
 7427TIP3    H122226   6.407   4.982   0.880 -0.5038 -0.6917 -0.6607
 7427TIP3    H222227   6.511   4.951   0.986 -0.8632 -1.0330 -0.4083
 7428TIP3   OH222228   5.360   4.891   2.076  0.2585 -0.7615 -0.2217
 7428TIP3    H122229   5.349   4.813   2.022  0.4106 -1.3425  0.5665
 7428TIP3    H222230   5.299   4.955   2.039 -0.3077 -1.4536 -0.5067
 7429TIP3   OH222231   5.686   6.513   0.911 -0.5889 -0.4124 -0.2410
 7429TIP3    H122232   5.655   6.593   0.952  1.6247 -0.3061  1.3944
 7429TIP3    H222233   5.721   6.541   0.826  0.0736  0.3515  0.2746
 7430TIP3   OH222234   5.444   3.856   3.481  0.6580 -0.3809 -0.3535
 7430TIP3    H122235   5.463   3.764   3.495  0.0412 -0.8913 -2.4760
 7430TIP3    H222236   5.368   3.874   3.537 -1.5659 -2.2085 -2.5302
 7431TIP3   OH222237   6.955   1.383   0.544 -0.1795  0.4505  0.3134
 7431TIP3    H122238   6.886   1.402   0.608 -0.0720  1.0127  0.2706
 7431TIP3    H222239   6.979   1.469   0.509 -0.6189  0.0942 -0.8996
 7432TIP3   OH222240   1.318   5.694   0.853  0.6800  0.0086 -0.6742
 7432TIP3    H122241   1.295   5.602   0.841  1.9614 -0.1011 -2.7128
 7432TIP3    H222242   1.350   5.722   0.767 -0.5428  2.6275 -0.3611
 7433TIP3   OH222243  -0.003   2.352   3.368 -0.3119  0.1614 -0.1837
 7433TIP3    H122244   0.008   2.257   3.366  0.5177  0.2428 -2.2545
 7433TIP3    H222245   0.085   2.387   3.359 -0.4931  1.1879  1.5680
 7434TIP3   OH222246   7.532   5.052   3.780  0.2339 -0.2758  0.2901
 7434TIP3    H122247   7.486   5.006   3.850  0.2988 -0.1028  0.4506
 7434TIP3    H222248   7.578   4.984   3.731 -1.5488 -0.6551 -0.9326
 7435TIP3   OH222249   0.450   4.241   2.929  0.5215  0.2711  0.3649
 7435TIP3    H122250   0.389   4.305   2.965 -0.7128 -1.3369  1.3167
 7435TIP3    H222251   0.393   4.173   2.893  1.7806  0.0678 -1.3218
 7436TIP3   OH222252   2.360   0.903   5.960 -0.3595 -0.5017  0.4245
 7436TIP3    H122253   2.309   0.977   5.927 -0.6287 -0.3667  1.1322
 7436TIP3    H222254   2.410   0.939   6.033  0.5180 -0.7106 -0.0637
 7437TIP3   OH222255   7.527   7.237   0.647  0.2712  0.0811 -0.1712
 7437TIP3    H122256   7.494   7.202   0.564  0.4226 -0.7441  0.1108
 7437TIP3    H222257   7.464   7.305   0.671  0.3922  0.5405 -1.1111
 7438TIP3   OH222258   0.606   2.171   5.829  0.3064  0.5839 -0.0357
 7438TIP3    H122259   0.621   2.123   5.747  0.5515 -1.7495  1.2864
 7438TIP3    H222260   0.693   2.175   5.870 -0.0383  0.5939  0.6933
 7439TIP3   OH222261   5.841   3.503   6.327  0.1340 -0.6976  0.4314
 7439TIP3    H122262   5.888   3.572   6.375  0.6101  0.4609 -1.5521
 7439TIP3    H222263   5.891   3.423   6.345  1.9888  0.2174 -0.3196
 7440TIP3   OH222264   3.298   5.814   4.239  0.6700 -0.4987  0.3583
 7440TIP3    H122265   3.271   5.751   4.172  1.5305 -0.2140 -0.2722
 7440TIP3    H222266   3.253   5.785   4.319 -0.2510 -0.9348 -0.2985
 7441TIP3   OH222267   4.971   4.578   2.656 -0.0395 -0.0134  0.4321
 7441TIP3    H122268   5.045   4.527   2.690  0.1958 -0.1279 -0.2252
 7441TIP3    H222269   4.962   4.652   2.716 -0.7460 -1.1110  1.7427
 7442TIP3   OH222270   3.884   3.217   2.321  0.5014 -0.6251  0.0446
 7442TIP3    H122271   3.938   3.138   2.329  1.7416  0.1260 -0.4761
 7442TIP3    H222272   3.831   3.219   2.400 -0.1144 -2.3720 -0.2902
 7443TIP3   OH222273   1.089   4.310   2.544 -0.1209 -0.0893 -0.7120
 7443TIP3    H122274   1.025   4.343   2.607  0.6896  2.8652 -1.2856
 7443TIP3    H222275   1.149   4.383   2.530  2.8299 -2.3361 -0.9761
 7444TIP3   OH222276   4.469   2.278   4.022  0.4934  0.6249 -0.3263
 7444TIP3    H122277   4.474   2.368   4.053 -3.0699  0.2402  1.8437
 7444TIP3    H222278   4.472   2.225   4.101 -0.3851 -0.9766 -1.3134
 7445TIP3   OH222279   3.474   2.326   2.267  0.2442 -0.3730  0.3725
 7445TIP3    H122280   3.518   2.397   2.315  1.7837 -0.2515 -1.1202
 7445TIP3    H222281   3.489   2.248   2.321  0.8152 -0.0199  0.7402
 7446TIP3   OH222282   7.864   1.291   4.199 -0.3848  0.1508  1.2707
 7446TIP3    H122283   7.859   1.371   4.147 -0.8410  0.2033  1.3898
 7446TIP3    H222284   7.774   1.273   4.224 -0.1413  0.2766  2.2754
 7447TIP3   OH222285   2.699   3.961   1.892  0.3691  0.4128 -0.2949
 7447TIP3    H122286   2.682   3.896   1.824  0.2200  1.4396 -1.2777
 7447TIP3    H222287   2.618   3.966   1.942  0.0390  0.5615 -0.8428
 7448TIP3   OH222288   7.384   4.387   4.415 -0.1343 -0.6924  0.2299
 7448TIP3    H122289   7.368   4.421   4.327  1.8127  0.9143  0.4205
 7448TIP3    H222290   7.299   4.395   4.459 -0.4891  1.1067 -0.6789
 7449TIP3   OH222291   7.786   7.826   6.096 -0.5508  0.8312 -0.0555
 7449TIP3    H122292   7.718   7.805   6.032  0.4062 -2.2491 -0.2240
 7449TIP3    H222293   7.811   7.741   6.133  1.4439  2.1289  1.8188
 7450TIP3   OH222294   5.444   1.856   3.653 -0.8451 -0.0712  0.1452
 7450TIP3    H122295   5.469   1.846   3.562  0.7808  0.5708  0.4790
 7450TIP3    H222296   5.401   1.942   3.657 -2.1546 -0.6898 -0.2346
 7451TIP3   OH222297   6.236   6.329   0.906  0.2811  0.1221  0.4018
 7451TIP3    H122298   6.305   6.386   0.871  0.1544  0.7878  1.2212
 7451TIP3    H222299   6.201   6.284   0.829 -0.3905  1.9855 -0.4461
 7452TIP3   OH222300   0.333   6.544   6.379  0.1646  0.5651 -0.2231
 7452TIP3    H122301   0.265   6.487   6.413 -0.0230  1.4661  0.9694
 7452TIP3    H222302   0.412   6.490   6.378  0.3254  0.6370  2.2925
 7453TIP3   OH222303   2.692   6.173   3.414  0.2291  0.0532 -0.5088
 7453TIP3    H122304   2.597   6.170   3.425  0.0286 -1.6957 -2.1243
 7453TIP3    H222305   2.707   6.250   3.360 -0.6082 -1.0793 -2.4591
 7454TIP3   OH222306   5.061   3.162   2.556  0.4986 -0.2882 -0.2437
 7454TIP3    H122307   5.049   3.151   2.462  0.0649  0.7616 -0.3349
 7454TIP3    H222308   4.980   3.129   2.595  0.3516 -0.0054 -0.3051
 7455TIP3   OH222309   0.379   0.851   2.687  0.2145 -0.0498 -0.0865
 7455TIP3    H122310   0.288   0.877   2.672  0.2911  1.3991  1.5555
 7455TIP3    H222311   0.382   0.828   2.780  1.3382 -1.0284 -0.3381
 7456TIP3   OH222312   5.109   7.463   4.409 -0.4253  0.1021 -0.2265
 7456TIP3    H122313   5.021   7.456   4.370  0.3413 -0.3934 -1.9474
 7456TIP3    H222314   5.124   7.378   4.450 -0.2894 -0.2407 -0.9718
 7457TIP3   OH222315   4.937   6.492   6.460 -0.2738  0.1688  0.2518
 7457TIP3    H122316   4.929   6.568   6.403  1.5057  0.5738  0.4818
 7457TIP3    H222317   5.029   6.465   6.452 -0.2844 -0.5260  1.9421
 7458TIP3   OH222318   2.988   3.083   2.033  0.4467  0.4480 -0.3291
 7458TIP3    H122319   3.063   3.132   2.067  1.4528  0.2829 -2.1531
 7458TIP3    H222320   3.021   2.994   2.022  0.5575  0.7038 -2.6465
 7459TIP3   OH222321   6.584   2.829   2.008  0.1482  0.2371 -0.0846
 7459TIP3    H122322   6.645   2.808   2.080  0.2666  0.2127 -0.1916
 7459TIP3    H222323   6.631   2.804   1.929  0.8374  2.1391 -0.3126
 7460TIP3   OH222324   4.664   4.473   1.071  0.4641  0.2901 -0.5210
 7460TIP3    H122325   4.695   4.515   0.991  0.7154  0.2590 -0.4387
 7460TIP3    H222326   4.685   4.536   1.140  2.4704 -0.7058 -0.1458
 7461TIP3   OH222327   3.849   2.800   4.457 -0.0898 -0.0521 -1.1215
 7461TIP3    H122328   3.780   2.844   4.507  1.3795  0.3347  0.6902
 7461TIP3    H222329   3.836   2.707   4.474  0.0503  0.0446 -0.4413
 7462TIP3   OH222330   8.101   1.713   0.390  0.2062  0.4479  0.2087
 7462TIP3    H122331   8.049   1.792   0.407  1.8461  1.3234  1.4866
 7462TIP3    H222332   8.187   1.746   0.365  0.9245 -0.9397  0.7555
 7463TIP3   OH222333   6.340   1.040   1.006  0.5926 -0.0764 -0.2087
 7463TIP3    H122334   6.276   1.088   0.952  0.0744 -0.2904  0.2088
 7463TIP3    H222335   6.357   0.960   0.957 -0.6918 -0.7727  0.4417
 7464TIP3   OH222336   2.761   7.306   5.139  0.0526  0.1826  0.1996
 7464TIP3    H122337   2.707   7.384   5.134 -1.4706 -0.8535 -0.3788
 7464TIP3    H222338   2.812   7.317   5.219 -1.4337  0.9755  1.0875
 7465TIP3   OH222339   0.278   2.090   0.648 -0.4170  0.4770  0.8608
 7465TIP3    H122340   0.348   2.027   0.628 -0.6913  0.3532  0.2769
 7465TIP3    H222341   0.304   2.170   0.603 -1.4377 -0.0415 -0.7195
 7466TIP3   OH222342   2.539   3.178   2.157 -0.5158  0.6563 -0.1613
 7466TIP3    H122343   2.574   3.215   2.238 -0.1565 -0.0784  0.0315
 7466TIP3    H222344   2.611   3.185   2.095  0.0525 -0.9387  0.2599
 7467TIP3   OH222345   6.280   0.848   5.054  0.3476  0.2817  0.5904
 7467TIP3    H122346   6.210   0.869   4.993 -0.6954  3.2347  2.5838
 7467TIP3    H222347   6.240   0.788   5.117  0.3393  0.0727  0.3857
 7468TIP3   OH222348   0.429   7.774   1.155  0.1825 -0.3729  0.5500
 7468TIP3    H122349   0.351   7.804   1.107 -0.0405 -1.3013  0.3180
 7468TIP3    H222350   0.481   7.728   1.090 -0.1205 -1.6434  1.1759
 7469TIP3   OH222351   7.321   3.685   1.477 -0.4277 -0.1239 -0.1800
 7469TIP3    H122352   7.337   3.643   1.562 -1.2857  0.1528  0.1353
 7469TIP3    H222353   7.244   3.639   1.442 -2.2985  2.0202  0.8141
 7470TIP3   OH222354   2.354   6.296   1.796 -0.1587 -0.5674  0.1144
 7470TIP3    H122355   2.449   6.300   1.790 -0.1051 -0.6923  0.7720
 7470TIP3    H222356   2.333   6.202   1.795 -0.2657 -0.5434  0.0582
 7471TIP3   OH222357   1.177   6.151   5.548  0.0476 -0.4267  0.1224
 7471TIP3    H122358   1.084   6.172   5.550 -0.1228 -1.1457  1.8578
 7471TIP3    H222359   1.207   6.169   5.638  1.1724 -1.9339  0.0824
 7472TIP3   OH222360   0.781   2.671   3.547  0.2927  0.0338 -0.4788
 7472TIP3    H122361   0.756   2.582   3.521  0.8386 -0.7215  1.3745
 7472TIP3    H222362   0.823   2.708   3.470 -1.9556 -0.4582 -2.0332
 7473TIP3   OH222363   2.054   3.308   2.670  0.1717 -0.0225 -0.9028
 7473TIP3    H122364   2.063   3.384   2.612 -0.9994 -0.0812 -1.1748
 7473TIP3    H222365   2.026   3.237   2.613  1.6800 -0.8090 -0.7258
 7474TIP3   OH222366   7.778   7.442   5.617  0.2199 -0.2246 -0.0900
 7474TIP3    H122367   7.806   7.377   5.682  1.5295 -0.2418 -0.6597
 7474TIP3    H222368   7.801   7.404   5.533 -0.3576  0.3429 -0.5138
 7475TIP3   OH222369   3.408   5.096   4.878  0.0304  0.2140  0.0188
 7475TIP3    H122370   3.488   5.136   4.913 -0.7585  1.2465  0.6876
 7475TIP3    H222371   3.416   5.104   4.783  0.6622  0.4179  0.0861
 7476TIP3   OH222372   2.405   5.271   5.566  0.3240 -0.0687  0.1639
 7476TIP3    H122373   2.430   5.179   5.563  0.4704 -0.1204  1.9717
 7476TIP3    H222374   2.392   5.295   5.474  2.7930 -1.1983 -0.5783
 7477TIP3   OH222375   6.599   1.879   1.752 -0.2762 -0.4017  0.7058
 7477TIP3    H122376   6.645   1.939   1.694  0.1061 -0.6675  0.7338
 7477TIP3    H222377   6.650   1.879   1.833  0.3041 -1.5426  0.3515
 7478TIP3   OH222378   5.023   2.846   6.038 -0.2173 -0.5657 -0.2063
 7478TIP3    H122379   5.022   2.935   6.003 -1.5076 -1.0384 -1.4500
 7478TIP3    H222380   4.987   2.792   5.968  0.1584 -2.0234  0.6803
 7479TIP3   OH222381   6.232   1.765   5.749  0.2222  0.0558  0.2154
 7479TIP3    H122382   6.310   1.758   5.694 -0.2332  0.3887 -0.4757
 7479TIP3    H222383   6.240   1.692   5.812  0.9596 -0.0594 -0.0082
 7480TIP3   OH222384   0.978   5.850   3.048  0.4807 -0.0182 -0.1624
 7480TIP3    H122385   0.905   5.789   3.040 -0.5333  1.2548 -1.2252
 7480TIP3    H222386   0.992   5.859   3.142 -2.4627  1.6044  0.2488
 7481TIP3   OH222387   6.957   2.532   6.737  0.1741  0.0868 -0.1311
 7481TIP3    H122388   6.943   2.502   6.827 -0.5066 -0.0371 -0.2720
 7481TIP3    H222389   6.902   2.610   6.729 -0.4807 -0.4316 -0.7157
 7482TIP3   OH222390   4.433   4.208   4.076  0.2699  0.0981 -0.1214
 7482TIP3    H122391   4.472   4.139   4.130 -0.1764  0.4360  0.6438
 7482TIP3    H222392   4.388   4.160   4.006 -0.3669 -0.4080  0.6267
 7483TIP3   OH222393   4.856   5.707   2.274 -0.0586 -0.0071 -0.8980
 7483TIP3    H122394   4.949   5.704   2.251 -0.1567  1.3335 -1.5979
 7483TIP3    H222395   4.831   5.616   2.285  1.7086 -0.3430  0.8709
 7484TIP3   OH222396   0.809   2.551   5.972 -0.1014  0.0440  0.1395
 7484TIP3    H122397   0.879   2.534   5.909 -0.3070  2.7535 -0.9904
 7484TIP3    H222398   0.738   2.491   5.947  0.4448 -0.0961 -1.1649
 7485TIP3   OH222399   5.870   1.998   6.595  0.1124 -0.2309  0.9736
 7485TIP3    H122400   5.876   1.952   6.511 -2.7627 -0.4261  0.7658
 7485TIP3    H222401   5.862   2.090   6.572  1.3994 -0.0630  1.1617
 7486TIP3   OH222402   3.426   6.982   3.354  0.0895  0.0812 -0.4717
 7486TIP3    H122403   3.367   6.927   3.406 -1.7449  0.8823 -1.6055
 7486TIP3    H222404   3.372   7.057   3.328  1.8815  1.2901 -0.8347
 7487TIP3   OH222405   0.510   5.963   1.998  0.2871  0.5244  0.3885
 7487TIP3    H122406   0.455   6.027   1.953  1.0113 -0.0235 -1.3391
 7487TIP3    H222407   0.447   5.908   2.046 -1.1093 -1.5958 -3.3883
 7488TIP3   OH222408   2.752   4.582   2.065 -0.6707  0.2400  0.1458
 7488TIP3    H122409   2.763   4.510   2.127  0.9658 -0.6088 -1.0380
 7488TIP3    H222410   2.674   4.558   2.015 -0.6524 -0.2682  0.3487
 7489TIP3   OH222411   1.884   5.801   4.402  0.1115  0.1692  0.7932
 7489TIP3    H122412   1.949   5.838   4.342  0.5938 -1.0938  0.4961
 7489TIP3    H222413   1.929   5.795   4.486  0.0597  0.2183  0.8239
 7490TIP3   OH222414   2.768   4.727   0.608  0.2770 -0.0019 -0.4267
 7490TIP3    H122415   2.753   4.637   0.637  0.4625  0.2375  0.4560
 7490TIP3    H222416   2.856   4.747   0.639 -0.3905  1.0460  0.8989
 7491TIP3   OH222417   7.759   3.748   5.266 -0.4489 -0.4925 -0.3837
 7491TIP3    H122418   7.853   3.731   5.260  0.1961  1.5612  2.0951
 7491TIP3    H222419   7.739   3.802   5.189 -0.2593 -3.0301 -2.3475
 7492TIP3   OH222420   7.135   6.521   6.475  0.4196  0.2987 -0.7979
 7492TIP3    H122421   7.119   6.574   6.397  0.3416  0.3376 -0.7552
 7492TIP3    H222422   7.091   6.568   6.546  0.2376  0.1075 -0.7837
 7493TIP3   OH222423   7.360   6.070   2.239 -0.1036 -0.7721  0.4753
 7493TIP3    H122424   7.422   6.003   2.269 -0.7394 -0.6500  2.2155
 7493TIP3    H222425   7.331   6.040   2.153  1.3463 -1.5242  0.2224
 7494TIP3   OH222426   2.086   7.799   3.261  0.2433  0.0122 -0.3140
 7494TIP3    H122427   2.068   7.814   3.168 -0.0738 -0.9957 -0.4331
 7494TIP3    H222428   2.181   7.801   3.268  0.2775 -0.1196 -0.7025
 7495TIP3   OH222429   0.182   2.029   2.753  0.0574  0.6426 -0.1809
 7495TIP3    H122430   0.207   2.006   2.843  1.5197  0.2990 -0.6466
 7495TIP3    H222431   0.130   1.955   2.723  0.7661  0.0990 -0.0863
 7496TIP3   OH222432   4.496   2.240   3.143  0.0099 -0.2299  0.3376
 7496TIP3    H122433   4.549   2.301   3.195  0.1319 -0.9648  1.0970
 7496TIP3    H222434   4.464   2.176   3.206  0.3414 -1.2831 -0.5250
 7497TIP3   OH222435   2.730   1.958   6.635 -0.5457  0.6858 -0.5084
 7497TIP3    H122436   2.690   1.871   6.631  0.9491 -0.3594  3.1471
 7497TIP3    H222437   2.798   1.956   6.567  0.2550 -1.5153  0.2460
 7498TIP3   OH222438   5.029   7.206   5.843  0.2812 -0.4452 -0.6421
 7498TIP3    H122439   4.949   7.252   5.869 -0.1419 -0.3758 -2.0127
 7498TIP3    H222440   5.058   7.250   5.763  1.4702 -0.7359 -0.3946
 7499TIP3   OH222441   7.391   4.845   1.443  0.1708  0.6988 -0.4899
 7499TIP3    H122442   7.303   4.856   1.479  0.4173  2.7147 -0.3538
 7499TIP3    H222443   7.377   4.839   1.348 -0.0421  3.9247 -0.7802
 7500TIP3   OH222444   0.763   6.595   3.434 -0.1637 -0.4584 -0.0100
 7500TIP3    H122445   0.854   6.584   3.407 -0.0152 -0.1743  0.3527
 7500TIP3    H222446   0.711   6.569   3.358  0.2399  0.5004 -0.6315
 7501TIP3   OH222447   0.906   4.789   3.737  0.1913 -0.3290 -0.4384
 7501TIP3    H122448   0.881   4.749   3.821 -0.0083  0.7486  0.0294
 7501TIP3    H222449   0.836   4.763   3.677 -2.4114  2.8165  0.9049
 7502TIP3   OH222450   4.388   3.447   0.942 -0.0236  0.3330  0.3429
 7502TIP3    H122451   4.412   3.407   1.026  1.7589  3.7964  1.7003
 7502TIP3    H222452   4.466   3.439   0.889 -0.4879 -0.1015 -0.2881
 7503TIP3   OH222453   1.856   6.988   2.524 -0.5159 -0.1955  0.0896
 7503TIP3    H122454   1.889   6.902   2.499 -1.3274 -0.1097 -1.4240
 7503TIP3    H222455   1.765   6.973   2.549 -0.8756  0.3015 -0.8593
 7504TIP3   OH222456   6.312   6.508   6.617  0.6690  0.0790 -0.2609
 7504TIP3    H122457   6.308   6.591   6.664 -0.5824 -0.4389  0.6317
 7504TIP3    H222458   6.362   6.526   6.538 -0.6879  2.0196 -0.7450
 7505TIP3   OH222459   5.641   0.935   1.166  0.3031  0.0507  0.2625
 7505TIP3    H122460   5.668   0.843   1.176 -2.6579 -0.9783 -0.1803
 7505TIP3    H222461   5.663   0.956   1.075  0.6899 -0.3130  0.2650
 7506TIP3   OH222462   1.114   3.619   3.898  0.0417  0.3294  0.7198
 7506TIP3    H122463   1.032   3.575   3.919 -0.1505  0.4083  0.1461
 7506TIP3    H222464   1.093   3.712   3.906 -0.7233  0.4918 -2.1137
 7507TIP3   OH222465   0.755   7.769   5.571 -0.5237  0.3238 -0.1955
 7507TIP3    H122466   0.832   7.717   5.549 -0.2537  0.0864  1.2586
 7507TIP3    H222467   0.780   7.819   5.648 -1.7088  0.4887  0.1100
 7508TIP3   OH222468   1.561   3.490   3.086 -0.5402  0.2519  0.5416
 7508TIP3    H122469   1.646   3.532   3.072 -0.1123  0.3349  2.9139
 7508TIP3    H222470   1.499   3.541   3.035  0.6489  0.9395 -0.2489
 7509TIP3   OH222471   6.490   3.531   0.783  0.3744  0.1452  0.0429
 7509TIP3    H122472   6.485   3.612   0.732 -0.0998  1.6807  2.4003
 7509TIP3    H222473   6.414   3.534   0.840 -0.3985 -2.6675 -0.7123
 7510TIP3   OH222474   4.649   3.442   2.839 -0.1689 -0.2621 -0.1465
 7510TIP3    H122475   4.601   3.472   2.916  0.8258 -1.3417  0.9336
 7510TIP3    H222476   4.717   3.385   2.874 -0.0494 -1.2518 -1.8749
 7511TIP3   OH222477   1.388   5.345   4.896  0.5093  0.4646  0.4511
 7511TIP3    H122478   1.361   5.263   4.936  0.4891 -0.3849 -1.2103
 7511TIP3    H222479   1.483   5.345   4.902  0.6787 -0.7839 -1.4939
 7512TIP3   OH222480   6.876   2.689   4.123  0.2866  0.2741  0.0366
 7512TIP3    H122481   6.853   2.618   4.182  0.2756 -0.4057 -0.7626
 7512TIP3    H222482   6.881   2.767   4.179 -2.6112  0.2243  0.4802
 7513TIP3   OH222483   3.045   3.432   6.290  0.5053  0.3402 -0.9832
 7513TIP3    H122484   3.074   3.386   6.211  0.0462 -0.6951 -0.5619
 7513TIP3    H222485   2.950   3.430   6.285  0.4704 -0.0648 -0.2174
 7514TIP3   OH222486   5.618   0.656   0.633 -0.1606 -0.1597 -0.2359
 7514TIP3    H122487   5.573   0.665   0.549  0.0440 -1.4868 -0.5054
 7514TIP3    H222488   5.692   0.715   0.627 -1.0873  1.0370 -0.3153
 7515TIP3   OH222489   6.208   5.598   6.701 -0.3544 -0.1281  0.2927
 7515TIP3    H122490   6.273   5.541   6.742 -1.4807 -1.2244  0.6249
 7515TIP3    H222491   6.211   5.575   6.608 -0.2400 -0.1644  0.3059
 7516TIP3   OH222492   7.366   7.299   3.995 -0.7485 -0.1447 -0.0227
 7516TIP3    H122493   7.310   7.338   3.928 -1.4301 -0.4533  0.3603
 7516TIP3    H222494   7.358   7.204   3.980 -0.9557 -0.2181  0.5341
 7517TIP3   OH222495   4.814   1.399   5.085  0.0797 -0.1633  1.0275
 7517TIP3    H122496   4.767   1.482   5.094 -0.7205 -0.4263 -0.4060
 7517TIP3    H222497   4.809   1.359   5.171 -2.1221 -0.0595  0.9974
 7518TIP3   OH222498   5.712   1.038   0.854  0.2544  0.5156  0.2871
 7518TIP3    H122499   5.700   1.126   0.890  0.9471 -0.2922  2.6349
 7518TIP3    H222500   5.633   1.022   0.804  0.4661  2.7660 -0.9134
 7519TIP3   OH222501   1.862   4.504   4.135 -0.0198  0.6180  0.3136
 7519TIP3    H122502   1.887   4.481   4.045  2.8164 -1.7707  1.5396
 7519TIP3    H222503   1.813   4.428   4.166  0.7178  0.5493  1.3589
 7520TIP3   OH222504   0.916   5.184   5.222 -0.3763  0.2157 -0.0510
 7520TIP3    H122505   0.906   5.139   5.306 -2.4022 -0.5681 -0.6712
 7520TIP3    H222506   0.909   5.115   5.157  0.5678  0.9045 -0.9056
 7521TIP3   OH222507   3.523   3.339   6.706  0.1478  0.1018 -0.0855
 7521TIP3    H122508   3.576   3.378   6.775  0.3862  0.0626 -0.2445
 7521TIP3    H222509   3.442   3.391   6.705  0.3084  0.3536 -0.0453
 7522TIP3   OH222510   3.859   4.879   1.653  0.2620  0.1818  0.0691
 7522TIP3    H122511   3.952   4.864   1.669  0.4345 -0.8866 -1.6506
 7522TIP3    H222512   3.816   4.852   1.733  1.3307 -0.7143  0.3727
 7523TIP3   OH222513   2.972   3.358   1.651  0.1675 -0.3637  0.6245
 7523TIP3    H122514   2.884   3.328   1.628  0.0011 -0.3532  1.2200
 7523TIP3    H222515   2.964   3.453   1.654  0.3854 -0.3209 -0.0402
 7524TIP3   OH222516   6.783   4.971   2.869 -0.2258  0.1770  0.0246
 7524TIP3    H122517   6.801   5.030   2.795  1.3850  0.9091  0.9206
 7524TIP3    H222518   6.793   4.883   2.834  1.2427  0.5275 -0.5044
 7525TIP3   OH222519   2.419   7.533   1.863 -0.7310 -0.3907 -0.0093
 7525TIP3    H122520   2.441   7.440   1.874  0.6523 -0.4357 -2.2781
 7525TIP3    H222521   2.361   7.534   1.787  1.9327  0.7321 -2.2237
 7526TIP3   OH222522   7.152   7.736   2.733 -0.3651 -0.2983 -0.0431
 7526TIP3    H122523   7.192   7.770   2.653 -1.7340  2.5881  0.3706
 7526TIP3    H222524   7.208   7.770   2.804 -0.5917 -0.6685  0.3138
 7527TIP3   OH222525   2.419   3.734   2.209  0.2011  0.4868  0.0691
 7527TIP3    H122526   2.348   3.687   2.251  0.0161 -0.3432 -1.1121
 7527TIP3    H222527   2.481   3.753   2.279  0.1702 -1.3336  0.6404
 7528TIP3   OH222528   1.085   0.624   6.137  0.3257 -0.0562  0.2049
 7528TIP3    H122529   1.042   0.703   6.106  1.6820  0.7695  0.3497
 7528TIP3    H222530   1.027   0.553   6.111 -0.7578  0.9521 -0.2160
 7529TIP3   OH222531   1.647   3.532   6.641 -0.0626 -0.0621 -0.0544
 7529TIP3    H122532   1.671   3.466   6.705 -1.4149  0.8694  1.4865
 7529TIP3    H222533   1.726   3.542   6.586  0.4781 -2.2183  0.2425
 7530TIP3   OH222534   1.144   5.338   2.921  0.0327 -0.2665  0.3418
 7530TIP3    H122535   1.191   5.310   2.999  1.3101  0.8335  0.0035
 7530TIP3    H222536   1.176   5.427   2.904 -0.8145 -0.1828 -0.9689
 7531TIP3   OH222537   0.662   5.627   3.938 -0.1491 -0.1103  0.6641
 7531TIP3    H122538   0.676   5.569   3.863  0.1698 -1.1412  1.4922
 7531TIP3    H222539   0.750   5.654   3.963 -0.2103 -0.2219  1.0050
 7532TIP3   OH222540   3.616   1.891   3.795  0.0951 -0.0487 -0.1243
 7532TIP3    H122541   3.575   1.830   3.856 -0.9112  1.0429  0.3361
 7532TIP3    H222542   3.672   1.837   3.740  0.3983 -1.1773  1.2342
 7533TIP3   OH222543   0.933   1.918   0.700 -0.2358 -0.1489 -0.3311
 7533TIP3    H122544   0.961   2.006   0.674 -0.5143 -0.0031 -0.1355
 7533TIP3    H222545   0.840   1.915   0.678 -0.9404  0.5833  2.2273
 7534TIP3   OH222546   4.390   6.396   6.226  0.7002  0.0776 -0.6078
 7534TIP3    H122547   4.295   6.398   6.230  0.7061 -0.4824  0.0196
 7534TIP3    H222548   4.411   6.315   6.179  0.8633  0.1856 -0.7227
 7535TIP3   OH222549   1.901   7.453   5.022  1.0160  0.0951  0.2033
 7535TIP3    H122550   1.863   7.379   4.973  1.1063  0.4657 -0.4411
 7535TIP3    H222551   1.995   7.440   5.016  1.0204 -0.1605  0.7632
 7536TIP3   OH222552   0.269   5.207   5.667 -0.2919  0.0810  0.2036
 7536TIP3    H122553   0.187   5.199   5.618  0.2199  0.9955 -0.8576
 7536TIP3    H222554   0.270   5.131   5.725 -0.5523 -1.5173 -1.7745
 7537TIP3   OH222555   0.126   4.378   4.833 -0.7463 -0.2579 -0.0809
 7537TIP3    H122556   0.211   4.356   4.795 -1.6415 -0.9527 -1.7897
 7537TIP3    H222557   0.147   4.439   4.905  1.2063 -0.8417 -0.0999
 7538TIP3   OH222558   6.762   6.914   1.634 -0.3836 -0.3681 -0.1287
 7538TIP3    H122559   6.685   6.903   1.691 -0.5702 -1.7392 -0.6174
 7538TIP3    H222560   6.803   6.994   1.666 -2.0958  0.4991  0.0533
 7539TIP3   OH222561   8.298  -0.028   4.160  0.2805  0.4243  0.5634
 7539TIP3    H122562   8.210  -0.003   4.131 -0.0893  0.9353  2.0161
 7539TIP3    H222563   8.333   0.052   4.201  1.7833  0.4981 -0.7468
 7540TIP3   OH222564   8.204   1.843   2.841 -0.3671 -0.0391 -0.3082
 7540TIP3    H122565   8.223   1.863   2.749  1.1280  2.2608  0.4063
 7540TIP3    H222566   8.194   1.929   2.882 -1.5458 -1.0288  1.6115
 7541TIP3   OH222567   1.495   1.189   0.475  0.4572  0.3666 -0.3518
 7541TIP3    H122568   1.468   1.138   0.552  0.4040  0.7273 -0.1321
 7541TIP3    H222569   1.582   1.154   0.453  0.7544  0.6966  0.2637
 7542TIP3   OH222570   6.047   2.694   1.916  0.1549 -0.1754 -0.1129
 7542TIP3    H122571   6.078   2.729   2.000  1.8407 -2.2664  0.2323
 7542TIP3    H222572   5.987   2.624   1.940 -0.6158  0.2666 -0.7072
 7543TIP3   OH222573   6.124   3.357   6.015  0.3327 -0.0514  0.3833
 7543TIP3    H122574   6.083   3.389   5.935 -0.0827 -1.0386  0.1828
 7543TIP3    H222575   6.128   3.434   6.072 -0.8948  0.3069  0.0263
 7544TIP3   OH222576   1.982   2.427   4.190  0.4049  0.0401 -0.4289
 7544TIP3    H122577   1.908   2.412   4.248  0.8605 -1.5697 -0.2120
 7544TIP3    H222578   2.045   2.359   4.212  0.9789 -0.0690 -2.1852
 7545TIP3   OH222579   6.994   3.590   3.008 -0.2642  0.4190  0.1014
 7545TIP3    H122580   7.079   3.587   2.965  0.2688 -0.4996  1.1672
 7545TIP3    H222581   7.000   3.525   3.078 -1.7919  0.4479  0.2982
 7546TIP3   OH222582   5.132   0.711   5.048 -0.0762 -0.1438  0.0857
 7546TIP3    H122583   5.218   0.691   5.085 -1.0272 -1.1861  1.8863
 7546TIP3    H222584   5.136   0.677   4.959  0.2923 -3.3785  1.2196
 7547TIP3   OH222585   7.437   3.819   6.010 -0.0067  0.1014 -0.3867
 7547TIP3    H122586   7.498   3.753   6.042  1.0157  1.3112  0.2562
 7547TIP3    H222587   7.436   3.808   5.915 -0.4660 -1.3374 -0.2283
 7548TIP3   OH222588   3.176   1.282   3.809  0.0956 -0.2621 -0.2900
 7548TIP3    H122589   3.146   1.347   3.873  0.7991 -0.6408  0.4331
 7548TIP3    H222590   3.209   1.209   3.862 -2.5159 -2.1473 -1.0403
 7549TIP3   OH222591   7.270   2.399   3.792  0.2866  0.2852 -0.4747
 7549TIP3    H122592   7.228   2.327   3.838 -0.4141  0.9021 -0.1280
 7549TIP3    H222593   7.324   2.441   3.858  2.8694 -1.5141 -1.2994
 7550TIP3   OH222594   4.230   4.212   0.008  0.2529 -0.0465  0.1470
 7550TIP3    H122595   4.241   4.224   0.102  0.7452 -0.5545  0.1624
 7550TIP3    H222596   4.308   4.253  -0.030 -0.0263  0.3040 -0.0524
 7551TIP3   OH222597   6.027   7.401   1.658 -0.4776 -0.1239 -0.1119
 7551TIP3    H122598   6.033   7.350   1.577 -2.9028  0.0657 -0.4849
 7551TIP3    H222599   6.093   7.470   1.648 -1.2291  0.3642 -2.3255
 7552TIP3   OH222600   8.256   1.918   3.785 -0.4482 -0.0758  0.5364
 7552TIP3    H122601   8.328   1.875   3.738 -0.0472 -0.2477  1.3003
 7552TIP3    H222602   8.268   1.893   3.876  0.6677  2.7834  1.2932
 7553TIP3   OH222603   5.996   0.847   3.091 -0.0276 -0.2296 -0.1867
 7553TIP3    H122604   6.011   0.875   3.181 -1.2012 -0.9575  0.2652
 7553TIP3    H222605   5.953   0.921   3.049 -0.4288 -0.2706  0.1515
 7554TIP3   OH222606   0.009   7.514   4.398  0.5176  0.3221  0.1038
 7554TIP3    H122607   0.095   7.555   4.383  0.0115  0.6928 -1.9863
 7554TIP3    H222608   0.027   7.420   4.402  1.0554  0.4191 -0.0083
 7555TIP3   OH222609   3.995   0.955   4.223  0.4544 -0.2283  0.1604
 7555TIP3    H122610   3.959   0.985   4.140  0.3115  0.8045  0.5902
 7555TIP3    H222611   3.948   0.873   4.241 -0.3924  0.1708 -0.1749
 7556TIP3   OH222612   8.040   1.717   6.596 -0.1420  0.2598 -0.1389
 7556TIP3    H122613   8.117   1.752   6.641  0.3763  1.3419 -1.8085
 7556TIP3    H222614   8.064   1.627   6.574 -0.5138 -0.4065  1.8998
 7557TIP3   OH222615   8.188   7.014   2.984 -0.5510  0.8676 -0.2423
 7557TIP3    H122616   8.181   6.948   2.915 -0.5459 -0.4057  0.9347
 7557TIP3    H222617   8.282   7.032   2.990 -0.4580  0.3308  0.0048
 7558TIP3   OH222618   0.464   7.347   4.325  0.9022  0.3522 -0.0096
 7558TIP3    H122619   0.500   7.435   4.330 -0.5590  0.9345  3.8768
 7558TIP3    H222620   0.521   7.294   4.381 -1.0135  0.0797  1.8068
 7559TIP3   OH222621   8.077   1.254   0.257  0.1794 -0.3761  0.1426
 7559TIP3    H122622   8.080   1.340   0.300 -0.6539 -0.4599  0.3827
 7559TIP3    H222623   8.012   1.204   0.307 -0.5311 -0.6049 -0.9730
 7560TIP3   OH222624   7.524   7.148   1.035 -0.1040  0.2309  0.1372
 7560TIP3    H122625   7.572   7.155   1.117  0.7061 -1.5092 -0.1587
 7560TIP3    H222626   7.591   7.136   0.968 -0.8119  0.5116 -0.6410
 7561TIP3   OH222627   3.815   4.819   1.913  0.7794  0.1411 -0.3404
 7561TIP3    H122628   3.871   4.828   1.991  1.4533 -0.4912 -0.7401
 7561TIP3    H222629   3.787   4.728   1.914  0.7652  0.1382 -0.8220
 7562TIP3   OH222630   4.078   6.603   6.686  0.1115  0.0133 -0.3050
 7562TIP3    H122631   4.108   6.516   6.713 -2.2755 -0.7270  0.2245
 7562TIP3    H222632   4.067   6.651   6.768  1.3068  0.7998 -0.5915
 7563TIP3   OH222633   6.054   3.243   6.402  0.3811  0.0278 -0.3331
 7563TIP3    H122634   6.037   3.218   6.312  0.6507 -0.4364 -0.2568
 7563TIP3    H222635   6.145   3.218   6.418  0.8051  1.4426 -0.3823
 7564TIP3   OH222636   8.207   5.813   1.348  0.2857  0.4310 -0.0967
 7564TIP3    H122637   8.113   5.805   1.332  0.2906  2.5518 -1.5211
 7564TIP3    H222638   8.238   5.723   1.357 -1.7091 -0.3466 -0.6503
 7565TIP3   OH222639   5.619   7.360   4.595  0.0313 -0.2105  0.1505
 7565TIP3    H122640   5.647   7.268   4.586  1.3934  0.1886  0.0087
 7565TIP3    H222641   5.675   7.394   4.665 -0.4949  0.5100  0.2278
 7566TIP3   OH222642   2.798   1.504   3.441 -0.3889  0.2035 -0.7703
 7566TIP3    H122643   2.763   1.542   3.360 -1.0844  0.1305 -0.5141
 7566TIP3    H222644   2.846   1.426   3.413 -1.7436 -0.5816 -1.0129
 7567TIP3   OH222645   7.089   6.725   3.918  0.1355 -0.3647 -0.1227
 7567TIP3    H122646   7.176   6.691   3.939  0.2100 -1.7862 -2.3902
 7567TIP3    H222647   7.029   6.670   3.969  0.4919 -0.4384  0.2229
 7568TIP3   OH222648   4.972   1.206   2.775  0.2379  0.1297 -0.0563
 7568TIP3    H122649   4.901   1.178   2.717  0.1191 -2.0065  1.0123
 7568TIP3    H222650   5.041   1.236   2.716 -0.2118 -1.1328 -1.2933
 7569TIP3   OH222651   4.668   1.620   5.126  0.4401 -0.2664 -0.1325
 7569TIP3    H122652   4.621   1.664   5.055  0.1709 -1.1880 -0.5405
 7569TIP3    H222653   4.621   1.645   5.205 -0.5946 -0.9853 -0.5108
 7570TIP3   OH222654   2.112   5.169   4.572  0.3086  0.1418  0.0436
 7570TIP3    H122655   2.024   5.147   4.602 -0.0749  2.0368  0.4513
 7570TIP3    H222656   2.170   5.128   4.636 -0.2477 -1.1340 -0.2390
 7571TIP3   OH222657   0.603   3.261   4.163  0.3420 -0.3212 -0.3451
 7571TIP3    H122658   0.597   3.197   4.093 -0.8355  0.5683 -1.1072
 7571TIP3    H222659   0.597   3.346   4.119 -0.1158  0.2654  0.7833
 7572TIP3   OH222660   8.144   1.147   2.007 -0.3803  0.7838 -0.4864
 7572TIP3    H122661   8.098   1.138   1.924 -0.6011  0.0970 -0.2979
 7572TIP3    H222662   8.187   1.062   2.021  0.2963  1.1547 -0.2769
 7573TIP3   OH222663   6.097   1.445   6.139 -0.4220  0.1776 -0.0645
 7573TIP3    H122664   6.112   1.394   6.219  0.0907  0.1984 -0.1417
 7573TIP3    H222665   6.123   1.534   6.162 -1.1822  0.3857  0.0260
 7574TIP3   OH222666   3.691   3.583   5.444 -0.4951  0.5035 -0.0815
 7574TIP3    H122667   3.647   3.635   5.378  0.3804  0.0832 -1.0228
 7574TIP3    H222668   3.753   3.529   5.395 -1.1303 -1.1868  0.8859
 7575TIP3   OH222669   4.386   7.139   4.047 -0.1530  0.1797 -0.3617
 7575TIP3    H122670   4.330   7.135   4.125 -0.0601  0.8427 -0.2541
 7575TIP3    H222671   4.414   7.049   4.033 -0.1040  0.0618  0.4256
 7576TIP3   OH222672   7.179   1.043   6.448 -0.0285 -0.3492  0.0258
 7576TIP3    H122673   7.235   0.965   6.451 -2.1274 -1.9299  1.1522
 7576TIP3    H222674   7.113   1.022   6.381 -0.3148  0.7183 -0.0456
 7577TIP3   OH222675   8.046   2.688   2.503 -0.5841  0.0913 -0.3076
 7577TIP3    H122676   7.951   2.685   2.490 -0.6972 -0.6214  0.6178
 7577TIP3    H222677   8.081   2.635   2.432 -0.7329  1.7965 -1.7383
 7578TIP3   OH222678   7.446   6.856   5.506  0.1858  0.1351  0.6380
 7578TIP3    H122679   7.522   6.825   5.457 -1.5016  0.5450 -2.4997
 7578TIP3    H222680   7.482   6.920   5.567  2.7347 -2.2289  1.8439
 7579TIP3   OH222681   4.186   6.127   2.662 -0.0717 -0.3766 -0.6255
 7579TIP3    H122682   4.171   6.043   2.619  0.4912 -0.9092  0.1801
 7579TIP3    H222683   4.227   6.104   2.746  1.4620  0.7635 -1.0121
 7580TIP3   OH222684   4.636   0.410   0.537 -0.5412 -0.1706 -0.0378
 7580TIP3    H122685   4.624   0.353   0.461 -1.6224 -1.6740  1.1968
 7580TIP3    H222686   4.552   0.456   0.546 -0.3441  0.1577  0.1353
 7581TIP3   OH222687   0.310   6.269   5.665  0.0558 -0.0110  0.3819
 7581TIP3    H122688   0.291   6.326   5.740 -0.2719  1.4159 -0.7487
 7581TIP3    H222689   0.224   6.242   5.634 -0.0911  2.4344 -1.6979
 7582TIP3   OH222690   3.354   0.299   4.160 -0.0538  0.0419 -0.3937
 7582TIP3    H122691   3.348   0.345   4.243  0.3770  1.2770 -1.0226
 7582TIP3    H222692   3.319   0.212   4.178 -1.5178  0.8052  0.6662
 7583TIP3   OH222693   1.936   5.296   5.002  0.0463  0.0236 -0.7818
 7583TIP3    H122694   1.984   5.216   5.025  0.7278  0.0467 -2.0027
 7583TIP3    H222695   1.998   5.345   4.949 -0.6191  1.0511 -0.6199
 7584TIP3   OH222696   5.316   3.382   2.171 -0.0582  0.0201 -0.2649
 7584TIP3    H122697   5.345   3.450   2.232 -1.0988 -0.6053  0.9723
 7584TIP3    H222698   5.388   3.375   2.108  1.4284  0.1480  1.3217
 7585TIP3   OH222699   3.731   4.977   3.081 -0.0337  0.5351  0.5190
 7585TIP3    H122700   3.673   4.902   3.067  0.3004  0.0801  1.4585
 7585TIP3    H222701   3.678   5.039   3.132  0.0017  0.5293  0.5625
 7586TIP3   OH222702   7.640   7.076   5.191  0.2805 -0.0814 -0.1831
 7586TIP3    H122703   7.725   7.054   5.153  0.7372  1.3360 -0.0420
 7586TIP3    H222704   7.596   6.992   5.203  1.8727 -0.8864  0.2445
 7587TIP3   OH222705   0.558   0.465   5.035 -0.4340 -0.4851 -0.0621
 7587TIP3    H122706   0.617   0.403   4.993  1.6582  1.1679  0.2421
 7587TIP3    H222707   0.494   0.488   4.968 -0.3325 -1.7927 -0.6333
 7588TIP3   OH222708   0.876   0.589   4.405 -0.3376 -0.0811  0.5130
 7588TIP3    H122709   0.933   0.659   4.375  0.3741 -1.1905 -0.8526
 7588TIP3    H222710   0.788   0.626   4.399 -0.1435  0.1381 -1.9867
 7589TIP3   OH222711   7.866   5.053   1.529  0.0470  0.2009 -0.1299
 7589TIP3    H122712   7.953   5.056   1.570 -1.0007 -1.6732  2.4731
 7589TIP3    H222713   7.850   4.960   1.513 -0.8478  0.6460 -2.2252
 7590TIP3   OH222714   5.098   2.692   3.644  0.0096 -0.2317 -0.2464
 7590TIP3    H122715   5.134   2.757   3.584 -0.0886  0.0614  0.0097
 7590TIP3    H222716   5.048   2.743   3.707 -1.4326 -0.6809 -0.9902
 7591TIP3   OH222717   7.976   5.708   1.259  0.0903 -0.6058 -0.0419
 7591TIP3    H122718   7.962   5.618   1.230 -0.2904 -1.0577  1.4620
 7591TIP3    H222719   7.959   5.761   1.181  3.5449 -1.9540 -1.9350
 7592TIP3   OH222720   0.891   5.245   1.551 -0.7896  0.3390 -0.6439
 7592TIP3    H122721   0.905   5.150   1.544  0.3943  0.3888  0.5521
 7592TIP3    H222722   0.852   5.257   1.638  1.0703  1.0865  0.1484
 7593TIP3   OH222723   2.053   7.602   3.666 -0.0967 -0.0749 -0.0426
 7593TIP3    H122724   2.000   7.523   3.653  0.3661 -0.3167 -0.4941
 7593TIP3    H222725   2.010   7.648   3.738  1.1450 -2.1014  2.1208
 7594TIP3   OH222726   5.533   2.240   2.089 -0.2072 -0.3761  0.0197
 7594TIP3    H122727   5.486   2.182   2.028  1.8682  0.6873 -2.8283
 7594TIP3    H222728   5.493   2.326   2.076  1.4644  0.2521 -1.4166
 7595TIP3   OH222729   1.799   7.224   4.371 -0.2348 -0.3262 -0.1917
 7595TIP3    H122730   1.835   7.194   4.454 -0.2887 -1.6356 -0.6290
 7595TIP3    H222731   1.714   7.263   4.394 -1.3991 -2.8654  0.1322
 7596TIP3   OH222732   6.718   0.320   4.672 -0.1445  0.1589  0.4438
 7596TIP3    H122733   6.745   0.367   4.751  0.9124  0.4388 -0.0793
 7596TIP3    H222734   6.668   0.245   4.706 -0.2192  0.5961  1.3476
 7597TIP3   OH222735   6.597   3.426   4.957 -0.2567 -0.1193 -0.3831
 7597TIP3    H122736   6.529   3.391   4.899  0.0859  0.0495 -0.8941
 7597TIP3    H222737   6.628   3.504   4.912  0.9283 -0.7059 -0.6250
 7598TIP3   OH222738   3.081   2.248   3.114 -0.0666 -0.3788 -0.9617
 7598TIP3    H122739   3.167   2.234   3.155  0.2699  1.1799 -1.0535
 7598TIP3    H222740   3.073   2.343   3.108 -2.7769 -0.3360  1.0980
 7599TIP3   OH222741   7.245   0.504   3.815 -0.2642  0.2887 -0.0170
 7599TIP3    H122742   7.166   0.477   3.769 -0.1486  0.4877 -0.3354
 7599TIP3    H222743   7.217   0.515   3.906 -0.8501  1.4165 -0.3246
 7600TIP3   OH222744   7.771   2.673   3.205  0.2844  0.3799 -0.3038
 7600TIP3    H122745   7.817   2.728   3.142  0.3213 -0.6639 -1.2068
 7600TIP3    H222746   7.790   2.583   3.178  1.0029 -0.1345  1.6980
 7601TIP3   OH222747   2.692   3.738   3.575 -0.0006  0.5301  0.2096
 7601TIP3    H122748   2.693   3.653   3.531 -1.0626 -0.1663  1.4487
 7601TIP3    H222749   2.764   3.733   3.638  0.3187  0.7966 -0.1277
 7602TIP3   OH222750   6.566   4.352   5.233 -0.6560 -0.5315 -0.0526
 7602TIP3    H122751   6.479   4.387   5.252 -0.2835 -0.2200  1.1745
 7602TIP3    H222752   6.588   4.300   5.311 -0.5205 -2.1773 -1.1483
 7603TIP3   OH222753   5.831   6.906   4.680 -0.1467 -0.5585  0.1517
 7603TIP3    H122754   5.810   6.818   4.648  0.4218 -1.6632  2.5854
 7603TIP3    H222755   5.761   6.961   4.645 -1.9757 -2.4413  0.6258
 7604TIP3   OH222756   0.632   7.761   2.604  0.7945  0.3252 -0.1062
 7604TIP3    H122757   0.608   7.765   2.697 -0.7376  1.2776 -0.5139
 7604TIP3    H222758   0.605   7.846   2.569  1.5462  0.0480 -1.3959
 7605TIP3   OH222759   6.673   5.856   2.630  0.0767  0.1605 -0.2787
 7605TIP3    H122760   6.758   5.896   2.609 -0.4986  1.6186  0.1153
 7605TIP3    H222761   6.697   5.773   2.672  1.2773 -0.5979 -2.3031
 7606TIP3   OH222762   7.546   1.188   2.599 -0.5419  0.8479  0.4742
 7606TIP3    H122763   7.531   1.252   2.529  1.1343  0.6014 -0.1596
 7606TIP3    H222764   7.626   1.142   2.573 -1.9018 -1.8434  0.7010
 7607TIP3   OH222765   6.675   2.234   0.284  0.3199 -0.1744  0.7618
 7607TIP3    H122766   6.654   2.178   0.208  1.8979 -1.7541  1.4189
 7607TIP3    H222767   6.729   2.304   0.247 -0.3403  0.0350  0.1692
 7608TIP3   OH222768   4.327   7.448   0.219  0.2209  0.4144 -0.0410
 7608TIP3    H122769   4.288   7.400   0.293  1.3212 -0.2659  0.1120
 7608TIP3    H222770   4.360   7.379   0.162 -0.3949  0.9504 -1.0632
 7609TIP3   OH222771   2.720   4.631   6.168 -0.1553 -0.4468 -0.4610
 7609TIP3    H122772   2.732   4.682   6.248  0.4504 -0.6310 -0.4255
 7609TIP3    H222773   2.794   4.570   6.167  0.1835 -0.0450 -1.4539
 7610TIP3   OH222774   5.373   4.651   1.897 -0.0493  0.6504 -0.2282
 7610TIP3    H122775   5.397   4.637   1.805  0.6685 -1.1950  0.1831
 7610TIP3    H222776   5.282   4.624   1.902 -0.2678  1.3241 -0.5057
 7611TIP3   OH222777   4.202   4.537   3.123  0.3247  0.1997 -0.1566
 7611TIP3    H122778   4.213   4.467   3.187  1.9501  0.5349 -0.0256
 7611TIP3    H222779   4.187   4.492   3.040 -0.2959 -0.2572  0.1939
 7612TIP3   OH222780   4.985   0.495   3.745 -0.3626  0.0683  0.4082
 7612TIP3    H122781   4.944   0.578   3.770  0.2689  0.5995 -0.2552
 7612TIP3    H222782   5.079   0.515   3.742 -0.3382 -0.1429 -1.5491
 7613TIP3   OH222783   6.486   7.742   3.383  0.5301  0.1223 -0.2943
 7613TIP3    H122784   6.539   7.770   3.309  1.8011 -0.2993  0.4282
 7613TIP3    H222785   6.531   7.776   3.460 -0.9127  0.7781  0.2900
 7614TIP3   OH222786   0.419   7.222   4.992 -0.3584  0.2858  0.1529
 7614TIP3    H122787   0.357   7.153   4.969 -0.3993  0.6577 -0.9087
 7614TIP3    H222788   0.457   7.194   5.076 -2.1146  0.1479  0.9503
 7615TIP3   OH222789   6.902   0.179   1.893  0.5026 -0.5614  0.6621
 7615TIP3    H122790   6.867   0.129   1.967  0.5547 -0.1943  0.9383
 7615TIP3    H222791   6.843   0.253   1.883  0.4008 -0.6993  0.2250
 7616TIP3   OH222792   0.695   6.511   1.293  0.2982 -0.1700 -0.3092
 7616TIP3    H122793   0.640   6.493   1.369  0.6126  0.9172  0.1900
 7616TIP3    H222794   0.695   6.606   1.285  1.9616 -0.1576 -0.4050
 7617TIP3   OH222795   4.443   2.692   6.377  0.6241 -0.6402  0.6936
 7617TIP3    H122796   4.486   2.643   6.448  0.8471 -0.2038  0.8621
 7617TIP3    H222797   4.373   2.740   6.421 -1.3153 -2.8164  0.1596
 7618TIP3   OH222798   1.045   4.099   1.288 -0.4821 -0.3987  0.1982
 7618TIP3    H122799   1.014   4.069   1.202 -0.7085  0.4131 -0.0213
 7618TIP3    H222800   0.965   4.116   1.337 -0.3851  0.4377  0.0888
 7619TIP3   OH222801   4.787   3.494   4.721  0.0956 -0.4383  0.0805
 7619TIP3    H122802   4.803   3.402   4.738  0.8558 -0.3396 -0.0427
 7619TIP3    H222803   4.704   3.496   4.673 -0.2009 -1.0080  0.5664
 7620TIP3   OH222804   4.164   2.050   0.291 -0.6443  0.2606 -0.0058
 7620TIP3    H122805   4.197   1.961   0.303  0.9463  0.8934  0.7263
 7620TIP3    H222806   4.175   2.067   0.197 -0.6774 -0.2035 -0.0975
 7621TIP3   OH222807   6.227   1.423   4.302 -0.0855 -0.1790 -0.0312
 7621TIP3    H122808   6.207   1.375   4.383  0.9200  1.1066  1.0279
 7621TIP3    H222809   6.289   1.367   4.256 -0.5648 -0.8656  0.1503
 7622TIP3   OH222810   1.275   6.005   1.959  0.4175  0.2980 -0.4105
 7622TIP3    H122811   1.215   5.941   1.996  0.7410  0.3882  0.2928
 7622TIP3    H222812   1.266   5.995   1.864 -2.5126  1.9496 -0.4318
 7623TIP3   OH222813   4.135   5.050   4.956  0.6109 -0.2733 -0.5547
 7623TIP3    H122814   4.184   4.976   4.992 -0.6302 -1.0140 -0.3395
 7623TIP3    H222815   4.203   5.108   4.920  1.7323 -0.6465  0.8314
 7624TIP3   OH222816   1.258   7.781   0.262  0.0050 -0.4593 -0.1619
 7624TIP3    H122817   1.291   7.808   0.348  1.0438 -0.0434 -0.6665
 7624TIP3    H222818   1.334   7.788   0.204 -0.2239 -2.4055 -0.7787
 7625TIP3   OH222819   4.898   4.509   3.903 -0.3213 -0.1959  0.0914
 7625TIP3    H122820   4.877   4.587   3.851  1.9450  0.0889 -0.5292
 7625TIP3    H222821   4.813   4.473   3.928 -1.4481  2.2467  0.0782
 7626TIP3   OH222822   1.718   0.302   3.661  0.7679 -0.3578  0.4876
 7626TIP3    H122823   1.791   0.254   3.622 -0.0108 -2.3479  1.2930
 7626TIP3    H222824   1.654   0.233   3.682 -1.0386  1.2267  0.4333
 7627TIP3   OH222825   7.506   4.699   2.553 -0.5892  0.7181  0.3993
 7627TIP3    H122826   7.506   4.779   2.605 -0.8256  0.2772  1.0919
 7627TIP3    H222827   7.436   4.645   2.591 -0.2216  0.0505  0.1507
 7628TIP3   OH222828   4.957   4.055   6.264 -0.0101  0.0296 -0.2545
 7628TIP3    H122829   4.864   4.072   6.254  0.3002  2.7934  0.7306
 7628TIP3    H222830   4.987   4.120   6.328  2.1140 -2.4506  1.4976
 7629TIP3   OH222831   6.754   4.032   4.522  0.0414 -0.3848 -0.2306
 7629TIP3    H122832   6.747   4.122   4.491 -1.8993 -0.9086 -1.4934
 7629TIP3    H222833   6.840   4.003   4.492 -0.1419  0.4208 -1.6161
 7630TIP3   OH222834   2.458   6.650   5.370 -0.3515  0.0207 -0.3103
 7630TIP3    H122835   2.432   6.742   5.370 -0.9027 -0.1228  0.5854
 7630TIP3    H222836   2.552   6.653   5.388 -0.4534  0.3979  0.1986
 7631TIP3   OH222837   1.732   6.701   2.047 -0.2556 -0.1466 -0.3386
 7631TIP3    H122838   1.744   6.748   1.964 -2.5346  1.3144  0.0660
 7631TIP3    H222839   1.660   6.640   2.030 -1.5673  1.0004  0.7989
 7632TIP3   OH222840   8.251   0.347   3.262  0.0722 -0.5234 -0.4707
 7632TIP3    H122841   8.278   0.256   3.254  0.6180 -0.4648  0.5183
 7632TIP3    H222842   8.171   0.344   3.313 -1.2118 -0.6034 -2.3995
 7633TIP3   OH222843   6.350   1.029   1.908  0.0733  0.0088 -0.9148
 7633TIP3    H122844   6.293   1.079   1.849  0.1941 -1.0085 -1.9304
 7633TIP3    H222845   6.302   0.948   1.925  0.7131 -0.3670 -0.8583
 7634TIP3   OH222846   4.803   0.715   2.830 -0.1794 -0.7487 -0.8200
 7634TIP3    H122847   4.759   0.777   2.888  0.7351  0.1180 -1.0159
 7634TIP3    H222848   4.749   0.714   2.751  0.4953  0.9139 -1.3706
 7635TIP3   OH222849   4.884   0.656   2.079  0.2100  0.4560 -0.5351
 7635TIP3    H122850   4.877   0.745   2.115 -0.2737  0.9236 -1.7232
 7635TIP3    H222851   4.914   0.669   1.989 -1.3454 -0.4680 -1.2318
 7636TIP3   OH222852   5.294   1.492   2.020  0.2015  0.2625  0.2738
 7636TIP3    H122853   5.257   1.566   1.972 -2.0391  0.3351  1.9391
 7636TIP3    H222854   5.228   1.422   2.010  0.3740 -0.1813  1.9507
 7637TIP3   OH222855   6.730   1.394   5.671  0.1285  0.3492 -0.1394
 7637TIP3    H122856   6.804   1.361   5.722  0.6605  0.1466 -1.0281
 7637TIP3    H222857   6.720   1.331   5.600 -0.6395  0.6007 -0.2627
 7638TIP3   OH222858   5.665   7.072   4.489 -0.2490  0.0124  0.4246
 7638TIP3    H122859   5.598   7.099   4.426 -0.3371  1.0659  0.9580
 7638TIP3    H222860   5.748   7.099   4.448 -0.2062 -0.4182  0.2123
 7639TIP3   OH222861   6.042   3.177   4.607 -0.6032  0.2067  0.8118
 7639TIP3    H122862   6.018   3.251   4.662  0.0622  1.3127 -0.3229
 7639TIP3    H222863   5.959   3.133   4.588 -1.0514  0.8562  1.2300
 7640TIP3   OH222864   0.589   7.714   0.150  0.0217 -0.0858  0.0036
 7640TIP3    H122865   0.620   7.788   0.098  0.7736 -1.4964 -1.6816
 7640TIP3    H222866   0.659   7.697   0.213  0.5126 -0.2384 -0.5727
 7641TIP3   OH222867   4.329   6.889   3.024  0.3098 -0.4094 -0.6881
 7641TIP3    H122868   4.324   6.841   3.107  0.1612  1.2487  0.3155
 7641TIP3    H222869   4.263   6.848   2.968  0.5785 -1.7189 -0.0980
 7642TIP3   OH222870   1.477   2.902   1.726 -0.2864 -0.4529 -0.1786
 7642TIP3    H122871   1.419   2.881   1.653 -3.7999  0.6739  2.0854
 7642TIP3    H222872   1.461   2.995   1.743  1.3844 -0.3777  1.3128
 7643TIP3   OH222873   0.147   2.954   3.880 -0.3190  0.0253  0.4773
 7643TIP3    H122874   0.141   2.871   3.927  0.8300  0.3388  1.2287
 7643TIP3    H222875   0.222   2.998   3.920 -1.0534  1.5267  0.2504
 7644TIP3   OH222876   6.757   2.692   5.045 -0.1565 -0.2573 -0.0893
 7644TIP3    H122877   6.821   2.756   5.078 -1.6955  0.9254  0.7408
 7644TIP3    H222878   6.731   2.642   5.122 -0.7682 -0.2457 -0.2871
 7645TIP3   OH222879   4.996   4.198   3.399 -0.5260  0.5171  0.1595
 7645TIP3    H122880   4.918   4.249   3.376 -1.3921 -0.1829  1.3838
 7645TIP3    H222881   4.999   4.129   3.333  0.2260  1.6660 -1.0648
 7646TIP3   OH222882   1.656   2.489   3.745  0.0047  0.4004 -0.5965
 7646TIP3    H122883   1.571   2.486   3.702  0.1436  0.3767 -0.8730
 7646TIP3    H222884   1.636   2.495   3.839 -0.2971  0.2070 -0.6492
 7647TIP3   OH222885   0.104   6.161   0.234  0.1452  0.3572  0.2615
 7647TIP3    H122886   0.162   6.085   0.229 -0.9481 -0.6118  1.6149
 7647TIP3    H222887   0.150   6.222   0.291 -0.4792 -0.7594  2.0389
 7648TIP3   OH222888   1.512   5.728   3.366  0.0121 -0.1274 -0.1346
 7648TIP3    H122889   1.607   5.739   3.363  0.1717 -1.1519  0.5569
 7648TIP3    H222890   1.493   5.719   3.459 -1.0507  2.1622 -0.0638
 7649TIP3   OH222891   2.034   6.679   4.561 -0.4928 -0.6354  0.1056
 7649TIP3    H122892   1.962   6.705   4.617 -1.7071 -1.2076 -1.1410
 7649TIP3    H222893   2.033   6.743   4.490 -0.2016 -1.0487 -0.2765
 7650TIP3   OH222894   8.256   5.746   5.377  0.4939 -0.2166  0.4476
 7650TIP3    H122895   8.262   5.654   5.403 -0.8690  0.1220  2.1359
 7650TIP3    H222896   8.192   5.747   5.306  0.9815 -0.6241 -0.0117
 7651TIP3   OH222897   7.590   1.603   4.295  0.1634 -0.3894 -0.3205
 7651TIP3    H122898   7.588   1.689   4.254  3.9222  1.6621  3.1425
 7651TIP3    H222899   7.525   1.608   4.366 -0.0034 -0.6333 -0.4525
 7652TIP3   OH222900   4.238   0.595   6.315 -0.4852  0.4451  0.1797
 7652TIP3    H122901   4.235   0.629   6.225  0.3699  1.9454  0.6938
 7652TIP3    H222902   4.329   0.607   6.342 -0.4066 -1.2387  0.8191
 7653TIP3   OH222903   6.611   4.464   4.028 -0.0497 -0.3225  0.1466
 7653TIP3    H122904   6.661   4.543   4.010 -2.5905  1.3710  0.0459
 7653TIP3    H222905   6.673   4.406   4.071  2.0467  1.5004 -0.2290
 7654TIP3   OH222906   6.798   1.168   3.380  0.2921 -0.5380  0.0074
 7654TIP3    H122907   6.872   1.209   3.423 -1.4050  1.2424  1.4010
 7654TIP3    H222908   6.786   1.084   3.426  0.7033 -0.2827  0.5864
 7655TIP3   OH222909   0.474   6.650   4.205 -0.1437 -0.2777 -0.4163
 7655TIP3    H122910   0.480   6.745   4.197  1.7221 -0.1900  1.2903
 7655TIP3    H222911   0.380   6.633   4.216 -0.9450  0.9747 -3.9354
 7656TIP3   OH222912   4.685   7.391   4.928  0.7204 -0.0275 -0.0013
 7656TIP3    H122913   4.758   7.426   4.877  0.5338 -0.8036 -0.8094
 7656TIP3    H222914   4.727   7.350   5.004  0.9704  1.5332  0.7502
 7657TIP3   OH222915   3.248   6.786   5.633 -0.7065  0.0091  0.5056
 7657TIP3    H122916   3.154   6.784   5.614 -0.4401 -1.7011 -0.9820
 7657TIP3    H222917   3.283   6.713   5.582  1.3760  0.3487  1.3798
 7658TIP3   OH222918   7.814   1.677   1.189  0.3070 -0.7138  0.0580
 7658TIP3    H122919   7.855   1.701   1.106  1.0718 -1.7163  0.1222
 7658TIP3    H222920   7.780   1.589   1.174  0.7617 -1.0509  0.8958
 7659TIP3   OH222921   4.710   4.320   3.012 -0.4151  0.5076  0.1446
 7659TIP3    H122922   4.755   4.321   2.928 -0.7427  0.4002 -0.0342
 7659TIP3    H222923   4.622   4.287   2.992 -0.4010  0.1951  0.5761
 7660TIP3   OH222924   5.261   2.743   4.675  0.0283  0.0190  0.4168
 7660TIP3    H122925   5.352   2.763   4.654 -0.4549  1.8619 -0.1204
 7660TIP3    H222926   5.265   2.694   4.757  1.4433  1.4310  1.2584
 7661TIP3   OH222927   2.461   4.351   0.578  0.3914  0.3094  0.2274
 7661TIP3    H122928   2.450   4.443   0.555  0.8601  1.0630  2.6833
 7661TIP3    H222929   2.381   4.329   0.626 -1.0355 -1.4860 -2.7482
 7662TIP3   OH222930   6.657   0.169   2.669  0.1218 -0.3946 -0.5178
 7662TIP3    H122931   6.664   0.107   2.742  0.4570 -0.9356 -1.0082
 7662TIP3    H222932   6.683   0.253   2.708 -0.5910 -0.4969  0.2127
 7663TIP3   OH222933   1.720   0.736   2.210 -0.5160  0.0237 -0.2082
 7663TIP3    H122934   1.634   0.776   2.198 -1.1440 -1.1509  0.1792
 7663TIP3    H222935   1.750   0.768   2.294 -0.2626  0.9705 -0.6513
 7664TIP3   OH222936   2.065   1.482   4.948  0.3557  0.6184  0.5055
 7664TIP3    H122937   2.132   1.439   4.894  0.5241  0.1392  1.0789
 7664TIP3    H222938   2.014   1.410   4.983  0.0540  0.9441  0.7344
 7665TIP3   OH222939   5.028   3.253   1.873  0.4568  0.9324 -0.4181
 7665TIP3    H122940   4.965   3.322   1.852  1.7983  2.8649  1.5562
 7665TIP3    H222941   5.114   3.293   1.861  1.2688 -0.2988  0.9248
 7666TIP3   OH222942   6.560   6.035   0.162  0.2711  0.1009 -0.5986
 7666TIP3    H122943   6.511   5.965   0.120  1.0857 -1.0372  0.2925
 7666TIP3    H222944   6.493   6.095   0.196 -0.4221  1.1845 -3.5970
 7667TIP3   OH222945   6.241   1.693   3.356 -0.4872  0.2656  0.4083
 7667TIP3    H122946   6.191   1.620   3.392  1.6336 -0.5080  1.9869
 7667TIP3    H222947   6.227   1.765   3.418 -0.2664  0.2797  0.4437
 7668TIP3   OH222948   3.221   0.492   0.799 -0.3027  0.3784 -1.0732
 7668TIP3    H122949   3.220   0.537   0.714 -3.4377  1.8561 -0.4070
 7668TIP3    H222950   3.129   0.472   0.816  0.0833  0.9242  2.3511
 7669TIP3   OH222951   0.865   6.686   4.435  0.3776  0.3949  0.1476
 7669TIP3    H122952   0.895   6.605   4.393 -0.1330 -0.2005  0.9141
 7669TIP3    H222953   0.855   6.663   4.527 -1.5225  0.8357  0.0855
 7670TIP3   OH222954   2.295   7.313   4.220 -0.2332 -1.4331  0.6420
 7670TIP3    H122955   2.206   7.301   4.186  0.1863  0.0252 -1.1242
 7670TIP3    H222956   2.301   7.407   4.240  1.5932 -0.9692 -1.5846
 7671TIP3   OH222957   6.046  -0.026   6.675  0.9013  0.4723 -1.1122
 7671TIP3    H122958   6.079   0.063   6.690  0.2705  0.4672  0.5363
 7671TIP3    H222959   5.957  -0.013   6.642  0.8091  0.4501 -0.8711
 7672TIP3   OH222960   5.156   3.633   5.395 -0.3161  0.0596  0.5530
 7672TIP3    H122961   5.196   3.642   5.308  0.1409  0.1756  0.7735
 7672TIP3    H222962   5.218   3.581   5.445  1.0600  2.7138  1.8155
 7673TIP3   OH222963   0.803   0.100   5.063 -0.3521 -0.2274 -0.2280
 7673TIP3    H122964   0.793   0.141   5.149 -0.5863  0.4179 -0.5494
 7673TIP3    H222965   0.885   0.135   5.029 -0.4613 -0.1629 -0.4292
 7674TIP3   OH222966   6.903   3.861   6.590 -0.6001 -0.0875  0.3882
 7674TIP3    H122967   6.967   3.854   6.660  0.2722 -3.3377 -0.5758
 7674TIP3    H222968   6.825   3.816   6.623 -1.1242  0.6791  0.2269
 7675TIP3   OH222969   1.205   3.243   5.777  0.1544  0.0217 -0.0789
 7675TIP3    H122970   1.259   3.228   5.700 -0.1429 -0.5731 -0.1681
 7675TIP3    H222971   1.171   3.157   5.801 -0.5598  0.3509  0.1238
 7676TIP3   OH222972   7.075   7.438   6.517 -0.4145 -0.1796  0.5757
 7676TIP3    H122973   7.134   7.410   6.587  1.4004 -0.2082 -0.8848
 7676TIP3    H222974   7.078   7.368   6.453 -1.3431  0.2452  0.0462
 7677TIP3   OH222975   8.083   5.617   5.678  0.2211 -0.1467 -0.2887
 7677TIP3    H122976   8.060   5.552   5.744  1.0785 -0.7076 -0.5241
 7677TIP3    H222977   8.149   5.574   5.624  0.9761  1.0049 -0.3090
 7678TIP3   OH222978   2.467   0.446   5.157 -0.3570 -0.5545  0.0147
 7678TIP3    H122979   2.411   0.376   5.124 -1.7733  1.2348 -1.6822
 7678TIP3    H222980   2.526   0.403   5.219 -0.7493 -3.2974 -1.3676
 7679TIP3   OH222981   2.659   5.225   0.360 -0.7323  0.2030  0.3052
 7679TIP3    H122982   2.606   5.272   0.425  0.2852  0.3544  1.0519
 7679TIP3    H222983   2.631   5.134   0.368 -1.4044  0.3920  0.1618
 7680TIP3   OH222984   1.399   6.344   4.613 -0.3380  0.3026  0.3372
 7680TIP3    H122985   1.487   6.335   4.576 -0.1256 -0.7814  1.0674
 7680TIP3    H222986   1.389   6.269   4.671 -1.3801  0.9502  1.0344
 7681TIP3   OH222987   5.762   7.614   4.130  0.3432  0.4169 -0.0592
 7681TIP3    H122988   5.692   7.674   4.155 -0.9175  0.6508 -3.5460
 7681TIP3    H222989   5.825   7.669   4.084  0.4589 -0.4853 -1.0190
 7682TIP3   OH222990   1.500   0.180   1.343  0.0875 -0.3421 -0.2911
 7682TIP3    H122991   1.592   0.200   1.360 -0.0107  0.9930 -1.1742
 7682TIP3    H222992   1.456   0.195   1.426  0.4208  0.7216 -0.2913
 7683TIP3   OH222993   1.391   5.786   3.867 -0.2475  0.3891  0.3693
 7683TIP3    H122994   1.406   5.714   3.929  1.2328  0.2302 -0.1369
 7683TIP3    H222995   1.468   5.786   3.811 -1.5873  0.4315 -1.6109
 7684TIP3   OH222996   3.864   4.190   2.211 -0.0337  0.0504  0.3129
 7684TIP3    H122997   3.786   4.135   2.205 -0.0687  0.2262 -1.4020
 7684TIP3    H222998   3.832   4.271   2.251  0.0337 -1.1227  2.9106
 7685TIP3   OH222999   5.088   6.581   0.532  0.0435 -0.7764  0.6871
 7685TIP3    H123000   5.013   6.636   0.554  0.6494  1.2755 -1.8340
 7685TIP3    H223001   5.068   6.547   0.444  2.1804  0.1990 -0.2531
 7686TIP3   OH223002   2.345   6.194   3.210 -0.4729  0.1205 -0.1957
 7686TIP3    H123003   2.365   6.187   3.303 -0.9291 -0.1091 -0.1123
 7686TIP3    H223004   2.270   6.253   3.206  0.4919  1.3608 -0.5400
 7687TIP3   OH223005   5.655   3.166   5.045  0.0390  0.1660 -0.6495
 7687TIP3    H123006   5.631   3.215   4.966 -1.3768  1.5215  0.5508
 7687TIP3    H223007   5.616   3.079   5.033  2.2954 -0.6547 -2.6644
 7688TIP3   OH223008   7.949   5.851   5.581 -0.0304 -0.2144 -0.1716
 7688TIP3    H123009   7.992   5.766   5.588  0.3858  0.0065  0.0740
 7688TIP3    H223010   7.917   5.855   5.491  0.2308 -0.5017 -0.2791
 7689TIP3   OH223011   7.781   6.097   3.984 -0.3071  0.8272  0.7996
 7689TIP3    H123012   7.806   6.091   3.892  0.5352 -3.2945  1.1005
 7689TIP3    H223013   7.845   6.157   4.023  3.6232 -2.2399 -0.2514
 7690TIP3   OH223014   7.927   5.337   3.420  0.1405  0.3210 -0.0688
 7690TIP3    H123015   7.985   5.317   3.346 -0.5851  0.4705 -0.6843
 7690TIP3    H223016   7.845   5.293   3.399  0.0441  0.0604  0.8346
 7691TIP3   OH223017   5.670   4.785   2.128  0.1215 -0.3782  0.3387
 7691TIP3    H123018   5.638   4.868   2.093  1.0401 -0.6567 -1.2356
 7691TIP3    H223019   5.601   4.757   2.188 -1.2791  0.4112 -0.8281
 7692TIP3   OH223020   5.997   6.534   2.470  0.1854 -0.1394 -0.0531
 7692TIP3    H123021   5.998   6.582   2.553 -2.1159  0.6269 -0.4126
 7692TIP3    H223022   6.006   6.442   2.496  1.7752  0.2260  0.8397
 7693TIP3   OH223023   1.623   2.723   2.306 -0.5047  0.1409  0.2574
 7693TIP3    H123024   1.647   2.811   2.335 -1.5443  0.1161  1.2541
 7693TIP3    H223025   1.667   2.665   2.368  0.9064 -0.1035 -0.9263
 7694TIP3   OH223026   3.756   3.716   0.887  0.2674  0.0754  0.2543
 7694TIP3    H123027   3.751   3.781   0.957 -0.2583  0.9961 -0.6088
 7694TIP3    H223028   3.667   3.711   0.853  0.4604 -0.5645 -0.1766
 7695TIP3   OH223029   2.728   5.185   6.590  0.0061  0.0932 -0.0769
 7695TIP3    H123030   2.687   5.196   6.505 -0.8237  0.0698  0.3065
 7695TIP3    H223031   2.659   5.205   6.653  0.1748 -1.2985  0.6075
 7696TIP3   OH223032   3.090   6.682   4.665 -0.2591 -0.5203  0.0282
 7696TIP3    H123033   3.000   6.705   4.640  0.0295 -0.2270 -0.7679
 7696TIP3    H223034   3.130   6.648   4.584 -0.0616 -1.9721  0.7010
 7697TIP3   OH223035   0.936   0.605   3.182 -0.1100 -0.0254  0.5886
 7697TIP3    H123036   1.003   0.537   3.180  1.1157  1.1558  0.4098
 7697TIP3    H223037   0.863   0.565   3.229  0.0939 -1.8734 -0.5876
 7698TIP3   OH223038   4.957   5.140   3.716 -0.2875 -0.5081  0.0889
 7698TIP3    H123039   4.885   5.155   3.777  0.3310 -0.9928  0.9604
 7698TIP3    H223040   5.030   5.188   3.752  0.2662 -1.3254  0.0927
 7699TIP3   OH223041   7.134   1.286   3.191  0.3085  0.2391  0.0539
 7699TIP3    H123042   7.190   1.336   3.131 -0.1996  2.2385  1.1384
 7699TIP3    H223043   7.195   1.228   3.238  1.5362  2.1942  1.0434
 7700TIP3   OH223044   8.049   7.800   4.745 -1.0783 -0.9017 -0.1518
 7700TIP3    H123045   8.118   7.863   4.770 -3.6313  0.9672  2.9784
 7700TIP3    H223046   8.081   7.716   4.778  0.5373 -0.5001 -0.5851
 7701TIP3   OH223047   1.859   3.922   0.099 -0.3387  0.2130  0.2053
 7701TIP3    H123048   1.888   3.893   0.186 -1.1469 -1.5460 -0.0604
 7701TIP3    H223049   1.788   3.983   0.117 -1.5955 -1.3416  0.8495
 7702TIP3   OH223050   7.880   1.230   2.033 -0.1211 -0.5285 -0.9919
 7702TIP3    H123051   7.976   1.227   2.029  0.0091  1.2948 -0.2514
 7702TIP3    H223052   7.853   1.239   1.941  0.5029  0.2190 -1.1127
 7703TIP3   OH223053   3.381   1.919   1.828  0.4669 -0.4286  0.0094
 7703TIP3    H123054   3.451   1.854   1.816 -1.5025 -2.3577 -2.0249
 7703TIP3    H223055   3.302   1.867   1.844 -0.4934  1.6975  3.0351
 7704TIP3   OH223056   7.842   0.695   5.620 -0.1876  0.6787  0.1971
 7704TIP3    H123057   7.890   0.613   5.627  0.1548  0.7962 -0.6639
 7704TIP3    H223058   7.865   0.743   5.700  0.0226  0.1539  0.4559
 7705TIP3   OH223059   3.937   0.455   3.851  0.0359 -0.0704 -0.6166
 7705TIP3    H123060   3.853   0.478   3.811 -0.0841 -0.8332 -0.8180
 7705TIP3    H223061   3.914   0.393   3.920  0.3275  0.5938  0.0944
 7706TIP3   OH223062   2.354   0.305   1.158 -0.0901 -0.2027 -0.2413
 7706TIP3    H123063   2.288   0.334   1.221  0.9944 -0.4538  1.0342
 7706TIP3    H223064   2.385   0.385   1.117  0.3311  0.1173  0.6882
 7707TIP3   OH223065   3.417   6.859   2.944 -0.0153 -0.0808  0.3399
 7707TIP3    H123066   3.393   6.797   2.875  0.8445  1.7857 -1.7627
 7707TIP3    H223067   3.334   6.898   2.971 -0.1398  1.6533 -2.2186
 7708TIP3   OH223068   1.724   2.280   4.000  0.2189 -0.6808 -0.1173
 7708TIP3    H123069   1.679   2.357   4.035 -0.3920 -1.6464  1.2933
 7708TIP3    H223070   1.817   2.298   4.014  0.1041 -0.0901 -0.0640
 7709TIP3   OH223071   7.025   3.010   2.630 -0.2185 -0.2935  0.3578
 7709TIP3    H123072   6.938   3.047   2.640 -0.0714 -0.3447  2.1317
 7709TIP3    H223073   7.046   2.973   2.716  1.6625 -0.0201  0.0694
 7710TIP3   OH223074   5.404   3.583   5.061  0.1270 -1.2634 -0.3403
 7710TIP3    H123075   5.366   3.667   5.083 -2.6264 -2.1411 -1.3077
 7710TIP3    H223076   5.364   3.521   5.123  1.8011 -1.9674  0.1117
 7711TIP3   OH223077   8.139   1.341   5.034 -0.0946  0.1262  0.1711
 7711TIP3    H123078   8.184   1.423   5.054 -0.6257  0.4142  0.1988
 7711TIP3    H223079   8.140   1.292   5.116 -0.7613  0.5795  0.4518
 7712TIP3   OH223080   0.022   1.138   4.870  0.3310 -0.6125 -0.4888
 7712TIP3    H123081   0.102   1.147   4.922  1.1245  0.3918 -1.8245
 7712TIP3    H223082  -0.044   1.185   4.920  0.9408 -0.1481 -0.1062
 7713TIP3   OH223083   1.906   5.011   3.823 -0.2331 -0.2225 -0.3130
 7713TIP3    H123084   1.867   5.008   3.736 -0.5222  1.5192 -0.2656
 7713TIP3    H223085   2.000   4.999   3.808 -0.0683  1.7007 -1.0596
 7714TIP3   OH223086   2.288   4.796   4.457  0.1591  0.9110  0.4558
 7714TIP3    H123087   2.276   4.825   4.367 -1.2219 -0.9111 -0.0085
 7714TIP3    H223088   2.361   4.734   4.453 -1.4951 -1.1114  0.0496
 7715TIP3   OH223089   1.800   1.128   3.356 -0.6577  0.1969 -0.2258
 7715TIP3    H123090   1.890   1.123   3.324 -0.0929  4.0279  0.3305
 7715TIP3    H223091   1.804   1.090   3.444  0.2412 -0.2028 -0.4218
 7716TIP3   OH223092   4.274   4.299   3.679 -0.5261 -0.1620 -0.5109
 7716TIP3    H123093   4.226   4.253   3.611 -1.4553 -1.2991  0.8579
 7716TIP3    H223094   4.236   4.387   3.681 -1.5440 -0.5964 -0.4470
 7717TIP3   OH223095   3.074   3.563   4.784 -0.0977  0.6465 -0.4155
 7717TIP3    H123096   3.138   3.583   4.715 -1.0972 -0.0417 -1.5917
 7717TIP3    H223097   3.124   3.568   4.865  0.8913  2.5624 -1.0757
 7718TIP3   OH223098   2.702   2.194   5.667  0.2845  0.6250  0.1908
 7718TIP3    H123099   2.721   2.118   5.723  2.9036  1.5645  0.7445
 7718TIP3    H223100   2.633   2.241   5.713 -0.9223 -1.0377  0.1752
 7719TIP3   OH223101   6.496   5.005   5.181 -0.0188  0.9526 -0.4648
 7719TIP3    H123102   6.545   4.997   5.264  0.9311  0.0147 -1.0793
 7719TIP3    H223103   6.562   5.035   5.118 -0.3774  0.2685 -1.1787
 7720TIP3   OH223104   0.144   3.849   3.382 -0.0757 -0.3373  0.5162
 7720TIP3    H123105   0.222   3.860   3.436  0.1442  0.2326  0.0901
 7720TIP3    H223106   0.161   3.901   3.304 -1.2339  0.4847  0.7845
 7721TIP3   OH223107   1.089   2.261   2.036 -0.4015  0.3353 -0.1939
 7721TIP3    H123108   1.177   2.268   2.072  1.2650 -0.5168 -3.6624
 7721TIP3    H223109   1.076   2.166   2.024 -3.0900  0.1582  2.8524
 7722TIP3   OH223110   1.244   0.821   2.638  0.6715  0.4613 -0.0770
 7722TIP3    H123111   1.303   0.865   2.699  0.7949 -1.0129  0.9363
 7722TIP3    H223112   1.171   0.881   2.626  2.0558  2.0854 -0.9040
 7723TIP3   OH223113   6.710   0.771   5.732  0.5374  0.0339 -0.2280
 7723TIP3    H123114   6.632   0.748   5.783  0.9209 -1.9029 -0.4395
 7723TIP3    H223115   6.701   0.865   5.716 -1.0754  0.1120  0.8797
 7724TIP3   OH223116   0.018   3.846   2.600 -0.2936 -0.1130  0.5983
 7724TIP3    H123117  -0.026   3.854   2.515 -0.7791 -0.3212  0.8272
 7724TIP3    H223118   0.111   3.861   2.581 -0.5991  1.5895  0.2902
 7725TIP3   OH223119   4.328   0.728   2.560 -0.2085 -0.0343  0.3633
 7725TIP3    H123120   4.306   0.658   2.498 -0.4326 -0.2234  0.6526
 7725TIP3    H223121   4.246   0.776   2.571 -0.0463  0.2985  0.1382
 7726TIP3   OH223122   3.716   2.725   3.682 -0.2353 -0.2145  0.4983
 7726TIP3    H123123   3.785   2.690   3.738  0.5984  0.6915  0.0843
 7726TIP3    H223124   3.640   2.733   3.739  0.2291 -0.5242  1.1677
 7727TIP3   OH223125   1.206   7.398   6.127 -0.0666  0.3915  0.9660
 7727TIP3    H123126   1.137   7.459   6.155 -1.1797 -1.0007  1.3250
 7727TIP3    H223127   1.229   7.349   6.205 -1.2011 -1.5675  0.1607
 7728TIP3   OH223128   1.388   4.911   2.855  0.4212 -0.2902 -0.3142
 7728TIP3    H123129   1.409   4.826   2.816 -0.5149  0.1811 -1.9234
 7728TIP3    H223130   1.414   4.975   2.789  0.6517  0.6589  0.6705
 7729TIP3   OH223131   3.061   4.461   5.804  0.0450 -0.1585  0.0994
 7729TIP3    H123132   3.049   4.506   5.720  1.4589  1.8037  0.8789
 7729TIP3    H223133   3.059   4.368   5.782  0.4360  0.3112 -2.1222
 7730TIP3   OH223134   4.670   5.574   0.032  0.0084  0.0496 -0.3379
 7730TIP3    H123135   4.675   5.613   0.119 -0.3655  0.0564 -0.3151
 7730TIP3    H223136   4.746   5.517   0.027  0.2912  0.4131 -0.1873
 7731TIP3   OH223137   6.545   5.315   3.743  0.1976  0.0469 -0.1610
 7731TIP3    H123138   6.562   5.409   3.746 -1.2343  0.4369 -2.0698
 7731TIP3    H223139   6.615   5.280   3.687  0.7347 -0.0324  0.5544
 7732TIP3   OH223140   4.736   3.203   3.893 -1.0126  0.4625 -0.3014
 7732TIP3    H123141   4.643   3.179   3.892 -0.1633 -3.6045 -0.9391
 7732TIP3    H223142   4.766   3.175   3.980 -0.2379  1.1620 -0.3374
 7733TIP3   OH223143   7.121   2.027   0.961 -0.4039  0.2264  0.3001
 7733TIP3    H123144   7.098   1.998   1.049  0.5042 -2.4426 -0.2593
 7733TIP3    H223145   7.213   2.053   0.967 -0.7953  1.6880  0.4526
 7734TIP3   OH223146   6.868   5.151   4.318  0.0263  0.3717 -0.4309
 7734TIP3    H123147   6.952   5.160   4.273  1.4468 -0.0036  1.9655
 7734TIP3    H223148   6.832   5.240   4.319  0.2462  0.4902 -1.7155
 7735TIP3   OH223149   4.605   2.609   0.318 -0.1861  0.0968 -0.1804
 7735TIP3    H123150   4.690   2.633   0.354  0.1664 -0.8388 -0.3356
 7735TIP3    H223151   4.610   2.634   0.226 -0.0046 -0.1240 -0.2320
 7736TIP3   OH223152   6.204   6.145   3.909  0.0035 -0.4533 -0.3787
 7736TIP3    H123153   6.171   6.166   3.996  0.7798  0.5823 -0.3191
 7736TIP3    H223154   6.267   6.075   3.923  2.5270  1.8070  0.3770
 7737TIP3   OH223155   0.794   0.972   3.315 -0.0008  0.2446  0.5673
 7737TIP3    H123156   0.854   0.958   3.389 -0.7434 -1.0168  0.9604
 7737TIP3    H223157   0.772   0.883   3.285  1.2569  0.7031 -2.0002
 7738TIP3   OH223158   2.918   7.688   3.439 -0.3427  0.1494  0.3343
 7738TIP3    H123159   2.889   7.714   3.352 -1.1799 -1.8687 -0.0575
 7738TIP3    H223160   2.977   7.614   3.424 -2.4416 -1.9147  1.4668
 7739TIP3   OH223161   5.421   5.175   1.057  0.6372  0.1603  0.5024
 7739TIP3    H123162   5.469   5.095   1.037  0.2142  0.3242 -1.3032
 7739TIP3    H223163   5.372   5.195   0.977  1.3296  2.6588  0.6178
 7740TIP3   OH223164   6.409   7.562   4.970  0.1694 -0.4121  0.5336
 7740TIP3    H123165   6.486   7.570   5.027  1.7958 -0.3691 -1.5261
 7740TIP3    H223166   6.410   7.470   4.942  0.9042  0.1141 -1.3129
 7741TIP3   OH223167   6.805   2.335   2.066  0.1533 -0.1795  0.1603
 7741TIP3    H123168   6.878   2.276   2.050  1.1093  0.1035  3.0625
 7741TIP3    H223169   6.767   2.306   2.148 -1.7145  0.9882 -0.2248
 7742TIP3   OH223170   4.372   5.619   6.235  0.0688 -0.1441 -0.2372
 7742TIP3    H123171   4.453   5.571   6.253 -0.2762 -0.9203 -0.6812
 7742TIP3    H223172   4.374   5.634   6.141 -0.9333 -1.3886 -0.4841
 7743TIP3   OH223173   6.223   5.011   5.277  0.4450  0.1920 -0.6123
 7743TIP3    H123174   6.246   5.097   5.242  0.7244 -0.1744 -1.3384
 7743TIP3    H223175   6.285   4.951   5.237  1.1977 -0.1673  1.0046
 7744TIP3   OH223176   6.839   3.648   2.760 -0.5093  0.3385  0.4522
 7744TIP3    H123177   6.783   3.571   2.765  2.2844 -1.9392 -0.1257
 7744TIP3    H223178   6.884   3.650   2.845  0.4309  0.4673 -0.0329
 7745TIP3   OH223179   1.955   4.655   3.549 -0.4681 -0.7172  0.1383
 7745TIP3    H123180   1.896   4.586   3.580 -2.1389 -0.2370 -1.7210
 7745TIP3    H223181   1.915   4.686   3.467  1.0650  1.3704  0.0799
 7746TIP3   OH223182   2.862   1.423   0.654  0.0572 -0.4393  0.6717
 7746TIP3    H123183   2.798   1.435   0.724  1.0886 -0.7636  1.7095
 7746TIP3    H223184   2.818   1.455   0.575 -0.7894  0.8955  1.6353
 7747TIP3   OH223185   0.110   1.496   4.595  0.4890 -0.3918 -0.0406
 7747TIP3    H123186   0.086   1.444   4.518 -0.1210  0.6318 -0.5778
 7747TIP3    H223187   0.044   1.474   4.661  0.6962 -0.8777  0.0040
 7748TIP3   OH223188   7.990   5.016   5.491 -0.1641 -0.0332  0.2836
 7748TIP3    H123189   7.947   4.931   5.503 -0.4375  0.1434  0.5692
 7748TIP3    H223190   7.967   5.066   5.569  1.1203 -0.1559  0.7496
 7749TIP3   OH223191   5.016   2.120   1.810 -0.4728  0.5748  0.0417
 7749TIP3    H123192   4.962   2.192   1.779 -0.7238  0.7355  0.8241
 7749TIP3    H223193   4.957   2.066   1.863 -0.9156 -1.5214 -2.3816
 7750TIP3   OH223194   7.043   7.103   5.178 -0.5318 -0.3472 -0.2180
 7750TIP3    H123195   7.061   7.010   5.160 -3.5964 -1.3012  0.9083
 7750TIP3    H223196   7.050   7.146   5.093 -3.3476 -2.5458 -1.7619
 7751TIP3   OH223197   1.142   0.360   3.468  0.5478 -0.3469  0.0497
 7751TIP3    H123198   1.138   0.437   3.526  1.4758 -1.7409  2.1001
 7751TIP3    H223199   1.217   0.310   3.501  0.8249 -1.4610 -2.1243
 7752TIP3   OH223200   4.998   1.840   1.152  0.2904 -0.3522 -0.0164
 7752TIP3    H123201   4.965   1.854   1.063  0.9348 -2.8701 -0.7295
 7752TIP3    H223202   4.932   1.783   1.193  0.3928  0.1470  0.8564
 7753TIP3   OH223203   7.527   0.305   2.136 -0.7301 -0.1123 -0.0111
 7753TIP3    H123204   7.587   0.354   2.192  2.5540 -0.7891 -2.6089
 7753TIP3    H223205   7.537   0.343   2.049 -0.6427 -3.0638 -1.4430
 7754TIP3   OH223206   5.939   0.003   0.341  0.2182  0.1389  0.7981
 7754TIP3    H123207   5.923  -0.014   0.434  0.6229  0.8636  1.0018
 7754TIP3    H223208   6.031   0.025   0.335  0.7163 -1.9306 -0.0896
 7755TIP3   OH223209   2.728   3.933   5.423 -0.2115 -0.0583  0.5344
 7755TIP3    H123210   2.818   3.921   5.392 -0.6990  0.3428 -1.0957
 7755TIP3    H223211   2.700   3.845   5.448  0.9334 -0.0517  2.0228
 7756TIP3   OH223212   1.726   5.482   1.145 -0.3508 -0.6214 -0.6008
 7756TIP3    H123213   1.782   5.408   1.167  0.0038 -0.2926 -0.4052
 7756TIP3    H223214   1.752   5.552   1.205 -1.9753 -0.9170  0.5297
 7757TIP3   OH223215   1.101   6.806   0.909 -0.3321  0.0059  0.2199
 7757TIP3    H123216   1.157   6.822   0.984 -1.4405  1.9627  0.7069
 7757TIP3    H223217   1.110   6.884   0.855 -0.6185 -0.7745 -0.9994
 7758TIP3   OH223218   7.082   7.412   5.204 -0.8071  0.2781  0.4274
 7758TIP3    H123219   7.051   7.322   5.219  1.4211 -0.6566 -0.1430
 7758TIP3    H223220   7.073   7.424   5.110 -0.6849  0.4801  0.4423
 7759TIP3   OH223221   2.344   7.533   0.866 -0.0606  0.3863  0.0291
 7759TIP3    H123222   2.417   7.517   0.926 -0.4658  1.0038  0.7120
 7759TIP3    H223223   2.385   7.564   0.785  0.4277  0.9736  0.4897
 7760TIP3   OH223224   0.804   0.058   0.273  0.2202 -0.0284  0.2623
 7760TIP3    H123225   0.759   0.034   0.355  0.3950 -0.5904  0.1964
 7760TIP3    H223226   0.748   0.125   0.234 -0.7373 -0.9225  0.0391
 7761TIP3   OH223227  -0.017   3.974   4.057  0.5997  0.2268 -1.1231
 7761TIP3    H123228   0.046   3.902   4.056 -1.0639 -1.3189 -1.7349
 7761TIP3    H223229  -0.001   4.021   3.976  1.2431  0.1097 -1.0691
 7762TIP3   OH223230   5.748   7.520   3.526 -0.5159  0.1600 -0.4357
 7762TIP3    H123231   5.731   7.597   3.581 -1.7602 -0.4253  0.0269
 7762TIP3    H223232   5.704   7.539   3.443 -0.7994 -0.0407 -0.3310
 7763TIP3   OH223233   5.790   2.214   2.184 -0.2119 -0.4364  0.1553
 7763TIP3    H123234   5.821   2.139   2.133 -0.2383  0.3030 -0.9827
 7763TIP3    H223235   5.703   2.232   2.149  0.4134  1.1027 -0.7033
 7764TIP3   OH223236   1.877   3.685   0.811 -0.1460  0.5725  0.2407
 7764TIP3    H123237   1.949   3.695   0.872  0.8658  0.7122 -0.9258
 7764TIP3    H223238   1.852   3.775   0.788 -1.9829  0.5815  2.0471
 7765TIP3   OH223239   2.666   2.327   1.471 -0.0585  0.1419 -0.0241
 7765TIP3    H123240   2.637   2.401   1.524  1.2846  0.1619  0.7144
 7765TIP3    H223241   2.586   2.297   1.427 -1.2572  0.1352  1.9913
 7766TIP3   OH223242   1.104   2.731   6.157 -0.0699 -0.2790  0.4645
 7766TIP3    H123243   1.079   2.642   6.180 -0.4858  0.0017  1.1242
 7766TIP3    H223244   1.194   2.723   6.126 -0.4874 -1.0988 -0.6425
 7767TIP3   OH223245   7.896   7.695   4.337  0.0074 -0.0372  0.5610
 7767TIP3    H123246   7.857   7.781   4.355 -1.0119 -0.0326 -1.3748
 7767TIP3    H223247   7.978   7.715   4.293 -0.5130 -0.0094 -0.4383
 7768TIP3   OH223248   4.816   0.739   5.098  0.0034 -0.3096  0.3991
 7768TIP3    H123249   4.793   0.680   5.170 -0.0274 -2.6238 -1.4057
 7768TIP3    H223250   4.898   0.705   5.064  0.1063  0.8478 -0.5753
 7769TIP3   OH223251   3.246   3.814   2.848 -0.2509 -1.2628  0.1610
 7769TIP3    H123252   3.311   3.802   2.918  0.3577  1.9110  0.2923
 7769TIP3    H223253   3.299   3.832   2.770 -0.8982  0.7608  0.1413
 7770TIP3   OH223254   0.906   4.500   1.095 -0.0987 -0.0126 -0.2754
 7770TIP3    H123255   0.920   4.565   1.164  0.0248 -0.8555  0.5078
 7770TIP3    H223256   0.994   4.472   1.070 -0.1819 -1.3759  0.8548
 7771TIP3   OH223257   5.765   5.245   4.416  0.3258  0.0086  0.0079
 7771TIP3    H123258   5.771   5.306   4.489 -1.3190  1.1147 -0.7286
 7771TIP3    H223259   5.794   5.161   4.453 -1.2536  0.3430  2.1802
 7772TIP3   OH223260   2.439   5.228   3.403 -0.3550  0.1823 -0.0805
 7772TIP3    H123261   2.402   5.216   3.490  2.2283 -1.4539  0.8993
 7772TIP3    H223262   2.498   5.303   3.411  2.4259 -1.9032  0.6449
 7773TIP3   OH223263   2.973   6.170   6.433  0.3366  0.6470 -0.0073
 7773TIP3    H123264   2.941   6.258   6.455 -0.1425  0.3955  0.3049
 7773TIP3    H223265   3.006   6.135   6.516 -0.6290  0.0525  0.1368
 7774TIP3   OH223266   2.501   1.490   1.713  0.5339  0.4334  0.4935
 7774TIP3    H123267   2.503   1.506   1.618 -1.1455 -0.6485  0.2328
 7774TIP3    H223268   2.531   1.400   1.722 -0.4163  0.1433  0.8656
 7775TIP3   OH223269   5.721   3.141   2.864  0.0013  0.0035 -0.6793
 7775TIP3    H123270   5.777   3.121   2.789  1.3428  0.5729  0.1240
 7775TIP3    H223271   5.754   3.085   2.934  0.1365  0.9561  0.0404
 7776TIP3   OH223272   7.414   6.452   1.838 -0.0098  0.0987  0.1674
 7776TIP3    H123273   7.341   6.454   1.776  0.1565 -1.6890 -0.1382
 7776TIP3    H223274   7.492   6.443   1.783  0.4704  1.7854  0.5033
 7777TIP3   OH223275   2.712   6.894   5.990 -0.3301 -0.2085 -0.2307
 7777TIP3    H123276   2.636   6.842   6.017 -0.3596 -0.4586 -0.7808
 7777TIP3    H223277   2.787   6.840   6.015 -0.3486 -0.2954 -0.3651
 7778TIP3   OH223278   8.000   6.705   6.265  0.3219 -0.1592 -0.3527
 7778TIP3    H123279   7.969   6.706   6.174 -1.6564 -1.3016  0.2359
 7778TIP3    H223280   7.923   6.679   6.315  0.8057  2.4305  1.9011
 7779TIP3   OH223281   4.232   2.646   2.350 -0.4992  0.1233  0.0660
 7779TIP3    H123282   4.233   2.694   2.267 -1.5221  0.9546  0.5008
 7779TIP3    H223283   4.319   2.658   2.386 -0.2870  0.4142 -0.5256
 7780TIP3   OH223284   5.590   3.252   4.806  0.0058  0.7007  0.2381
 7780TIP3    H123285   5.575   3.345   4.788  0.9534  0.7933 -0.0945
 7780TIP3    H223286   5.658   3.225   4.743 -1.2393 -0.5713 -0.6389
 7781TIP3   OH223287   6.923   0.011   2.988  0.3143 -0.2098  0.0245
 7781TIP3    H123288   6.964  -0.051   2.927 -0.0091  0.2240 -0.6355
 7781TIP3    H223289   6.899   0.086   2.934  1.4005  0.8453  0.9421
 7782TIP3   OH223290   1.014   4.277   3.284  0.5258  0.2877  0.0098
 7782TIP3    H123291   0.969   4.207   3.238 -0.5867 -0.8684  2.6490
 7782TIP3    H223292   1.102   4.242   3.300  0.4532  0.1075  0.0153
 7783TIP3   OH223293   5.444   2.498   6.740  0.4427  0.3629  0.5442
 7783TIP3    H123294   5.375   2.492   6.806 -1.1820 -0.8985 -1.1444
 7783TIP3    H223295   5.431   2.585   6.700 -1.1307 -0.3782 -0.6679
 7784TIP3   OH223296   6.248   5.987   5.530  0.3870 -0.0613 -0.6537
 7784TIP3    H123297   6.155   5.989   5.554  0.6002 -1.1791  0.3226
 7784TIP3    H223298   6.288   6.055   5.584  0.0851  0.7602 -1.4247
 7785TIP3   OH223299   7.070   2.989   1.518  0.0584 -0.0757  0.3961
 7785TIP3    H123300   6.978   2.993   1.544 -0.3962  0.2054 -1.1334
 7785TIP3    H223301   7.088   2.895   1.506 -0.6555 -0.0459 -1.2419
 7786TIP3   OH223302   4.547   6.994   4.573 -0.0130  0.2847 -0.4130
 7786TIP3    H123303   4.549   7.038   4.487 -0.8711 -0.0505 -0.6201
 7786TIP3    H223304   4.638   6.973   4.591  0.2523  0.9086 -0.9592
 7787TIP3   OH223305   4.416   6.135   6.105  0.6643 -0.0870  0.2815
 7787TIP3    H123306   4.461   6.063   6.060  1.0541  0.1711  0.2556
 7787TIP3    H223307   4.413   6.108   6.196  0.8255 -0.1295  0.2740
 7788TIP3   OH223308   8.120   2.680   4.417 -0.1121 -0.1123 -0.4392
 7788TIP3    H123309   8.050   2.744   4.402 -0.2357 -0.1982 -0.2282
 7788TIP3    H223310   8.194   2.734   4.445 -0.5724 -0.1531  0.9551
 7789TIP3   OH223311   7.876   2.924   6.713 -0.3093 -0.1395 -0.1777
 7789TIP3    H123312   7.880   2.833   6.743  0.5572 -0.2964 -0.7368
 7789TIP3    H223313   7.821   2.921   6.634 -0.7585 -0.0748  0.1255
 7790TIP3   OH223314   2.893   2.828   0.434 -0.0251  0.2124 -0.0149
 7790TIP3    H123315   2.948   2.750   0.429  0.4802  0.5971 -0.5224
 7790TIP3    H223316   2.845   2.818   0.516  1.3866  0.2628  0.8456
 7791TIP3   OH223317   3.627   3.986   4.219  0.0744  0.1915 -0.6230
 7791TIP3    H123318   3.713   3.993   4.261  0.2850  0.2200 -1.0524
 7791TIP3    H223319   3.566   3.975   4.292  0.5486 -0.8196 -0.3473
 7792TIP3   OH223320   5.319   5.329   0.288 -0.2746 -0.0298  0.5251
 7792TIP3    H123321   5.401   5.287   0.264 -0.9879 -0.9878 -0.3901
 7792TIP3    H223322   5.344   5.410   0.332  1.1415 -0.1786  0.0346
 7793TIP3   OH223323   3.366   5.877   1.367 -0.3971 -0.2395 -0.2838
 7793TIP3    H123324   3.349   5.953   1.422 -0.2908  1.4871 -2.4728
 7793TIP3    H223325   3.419   5.819   1.421  0.0757  1.5418  1.2670
 7794TIP3   OH223326   3.700   6.860   3.742 -0.1692  0.0636  0.2742
 7794TIP3    H123327   3.676   6.944   3.702  0.3031 -0.4446 -1.1170
 7794TIP3    H223328   3.745   6.885   3.823  0.2457  1.1845 -0.2697
 7795TIP3   OH223329   3.617   6.090   1.778  0.0468 -0.4813  0.0141
 7795TIP3    H123330   3.569   6.107   1.696  2.1431 -0.3709 -1.2463
 7795TIP3    H223331   3.658   6.174   1.799  1.4633 -1.1152 -0.1562
 7796TIP3   OH223332   3.984   3.618   1.792 -0.0294  0.5861  0.1778
 7796TIP3    H123333   4.030   3.697   1.821 -1.4146  1.0976  1.1164
 7796TIP3    H223334   3.917   3.604   1.859 -0.5443 -0.7249 -0.5869
 7797TIP3   OH223335   7.759   7.538   5.011 -0.2865 -0.4428 -0.1461
 7797TIP3    H123336   7.711   7.467   4.970  0.0677 -0.5678 -0.3516
 7797TIP3    H223337   7.795   7.499   5.091  0.1954 -0.5963 -0.4327
 7798TIP3   OH223338   3.842   6.864   0.443 -0.0527 -0.3956 -0.5139
 7798TIP3    H123339   3.751   6.835   0.449 -0.1401 -0.1654 -0.6932
 7798TIP3    H223340   3.875   6.823   0.363 -0.3909  0.5564 -1.1679
 7799TIP3   OH223341   8.219   2.345   1.575  0.1164  0.6079  0.4622
 7799TIP3    H123342   8.289   2.339   1.641 -0.0286 -1.9781  0.4979
 7799TIP3    H223343   8.261   2.319   1.494 -0.4885  0.4096  0.2088
 7800TIP3   OH223344   1.549   6.729   0.123 -0.0125  0.4054 -0.7115
 7800TIP3    H123345   1.519   6.787   0.193  2.1374  0.9289 -0.1430
 7800TIP3    H223346   1.572   6.789   0.052 -0.3162  0.0222 -1.1352
 7801TIP3   OH223347   5.548   7.709   2.238  0.0731 -0.0258 -0.6020
 7801TIP3    H123348   5.584   7.740   2.155 -0.8109  0.1718 -0.9288
 7801TIP3    H223349   5.456   7.690   2.218  0.0850 -0.8624  0.1139
 7802TIP3   OH223350   4.501   1.820   1.874 -0.1519  0.2789  0.2341
 7802TIP3    H123351   4.441   1.753   1.907  1.4860 -1.0075  0.7387
 7802TIP3    H223352   4.481   1.898   1.926 -1.1985 -0.1921  0.5603
 7803TIP3   OH223353   4.635   7.058   1.717  0.6213  0.1523  0.3694
 7803TIP3    H123354   4.583   7.133   1.746  0.0909  0.3739 -1.0934
 7803TIP3    H223355   4.603   7.040   1.628  0.1356 -2.3341  0.9817
 7804TIP3   OH223356   0.463   5.581   4.433 -0.5863 -0.3469 -0.2153
 7804TIP3    H123357   0.471   5.609   4.342  0.7386  0.6161  0.1592
 7804TIP3    H223358   0.553   5.559   4.459 -0.6299  1.0924  1.3543
 7805TIP3   OH223359   7.384   0.506   5.328  0.2717 -0.2982 -0.0473
 7805TIP3    H123360   7.478   0.498   5.345  0.7414  0.8806 -1.7864
 7805TIP3    H223361   7.360   0.590   5.369  0.3343  0.1481 -0.9087
 7806TIP3   OH223362   8.243   0.627   4.653 -0.3472 -0.2735  0.0397
 7806TIP3    H123363   8.209   0.580   4.729  0.4416 -0.7049  0.1303
 7806TIP3    H223364   8.209   0.716   4.663  0.0166 -0.2428  1.0674
 7807TIP3   OH223365   3.667   6.360   1.776  0.1180  0.4276 -0.1567
 7807TIP3    H123366   3.597   6.422   1.795 -1.6768 -1.3063 -0.7816
 7807TIP3    H223367   3.747   6.405   1.802 -1.2330  2.4125  0.7698
 7808TIP3   OH223368   5.802   2.064   4.779  0.4131 -0.1056  0.3670
 7808TIP3    H123369   5.797   2.021   4.864 -0.9689 -1.9882 -0.5997
 7808TIP3    H223370   5.792   1.993   4.716  1.1282  1.2796 -1.3833
 7809TIP3   OH223371   8.029   6.287   1.038  0.0083  0.4319 -0.8088
 7809TIP3    H123372   8.117   6.276   1.075 -0.4251 -2.3234 -0.3464
 7809TIP3    H223373   7.983   6.341   1.102  0.6939 -0.1018  0.1675
 7810TIP3   OH223374   4.782   4.758   0.615  0.5040  0.2846 -0.4264
 7810TIP3    H123375   4.869   4.794   0.628  0.5845  0.1988 -0.7389
 7810TIP3    H223376   4.785   4.715   0.529 -0.4225  2.0446 -1.3874
 7811TIP3   OH223377   1.634   7.787   0.443 -0.0233 -0.3683  0.2684
 7811TIP3    H123378   1.648   7.736   0.363 -0.7911  0.1668 -0.2224
 7811TIP3    H223379   1.704   7.759   0.502  0.0607 -1.3703 -0.2868
 7812TIP3   OH223380   4.992   3.114   4.120 -0.4705 -0.6239 -0.2348
 7812TIP3    H123381   4.976   3.146   4.209  3.2482 -0.5232  0.5496
 7812TIP3    H223382   4.955   3.026   4.120 -1.3497 -0.2980  1.0862
 7813TIP3   OH223383   4.771   4.602   0.866 -0.8938 -0.0576 -0.0440
 7813TIP3    H123384   4.740   4.643   0.786 -1.1214 -2.6954 -1.4159
 7813TIP3    H223385   4.848   4.552   0.839 -0.3322 -0.1654  1.6248
 7814TIP3   OH223386   4.885   3.485   3.163 -0.2230  0.0811  0.2429
 7814TIP3    H123387   4.858   3.411   3.108  1.0134 -1.5061  1.6781
 7814TIP3    H223388   4.846   3.468   3.248 -1.9219  2.3944  0.0384
 7815TIP3   OH223389   5.351   4.597   6.648 -0.4492  0.0114  0.3271
 7815TIP3    H123390   5.392   4.587   6.562 -0.8524 -0.6146  0.2007
 7815TIP3    H223391   5.305   4.680   6.645 -0.3480  0.0527 -0.0174
 7816TIP3   OH223392   3.390   4.314   3.429 -0.5628 -0.4305 -0.3831
 7816TIP3    H123393   3.442   4.324   3.350 -1.9426 -0.3780 -1.3172
 7816TIP3    H223394   3.451   4.330   3.501  0.5699  0.1368 -1.4486
 7817TIP3   OH223395   6.201   1.732   2.261 -0.0123  0.1336 -0.3973
 7817TIP3    H123396   6.191   1.826   2.250 -0.4771  0.3504  1.5666
 7817TIP3    H223397   6.284   1.712   2.217  2.2172  2.1880  2.4723
 7818TIP3   OH223398   7.360   1.849   1.053  0.5394 -0.1531 -0.1026
 7818TIP3    H123399   7.315   1.787   1.110  1.6201 -0.5350  0.3666
 7818TIP3    H223400   7.325   1.831   0.966  0.1310 -0.7519  0.1802
 7819TIP3   OH223401   7.078   6.956   3.342  0.0442  0.5111  0.2715
 7819TIP3    H123402   7.036   7.042   3.344  1.1776  1.1334 -1.0873
 7819TIP3    H223403   7.005   6.894   3.337 -0.7663  1.5198 -1.2721
 7820TIP3   OH223404   0.348   6.924   5.210  0.2437 -0.2276  0.3750
 7820TIP3    H123405   0.368   6.831   5.224  0.3629 -0.3752 -0.6959
 7820TIP3    H223406   0.412   6.971   5.263  1.0808 -0.7480 -0.1624
 7821TIP3   OH223407   0.469   1.370   4.920 -0.2125 -0.1228  0.6191
 7821TIP3    H123408   0.537   1.356   4.853  0.4252  0.3109  1.1656
 7821TIP3    H223409   0.423   1.449   4.890  0.4629  0.4267  0.9911
 7822TIP3   OH223410   5.329   2.475   0.582 -0.2734 -0.4073  0.5416
 7822TIP3    H123411   5.385   2.434   0.516  1.9906  0.3801  1.8776
 7822TIP3    H223412   5.390   2.519   0.642 -2.3011 -0.0339  2.4589
 7823TIP3   OH223413   1.356   4.217   0.215 -0.4337 -0.1983  0.2298
 7823TIP3    H123414   1.444   4.180   0.227  0.8723  2.4067 -0.5462
 7823TIP3    H223415   1.319   4.219   0.304  1.7784  1.9293  1.2235
 7824TIP3   OH223416   4.158   5.425   2.981  0.3493 -0.5107 -0.3294
 7824TIP3    H123417   4.247   5.398   3.005  0.9952 -0.7033 -2.6921
 7824TIP3    H223418   4.170   5.509   2.937 -0.0603 -2.1613 -3.9577
 7825TIP3   OH223419   5.796   5.762   6.491 -0.6699  0.5313 -0.3613
 7825TIP3    H123420   5.866   5.760   6.426 -0.8097  1.6491 -0.5676
 7825TIP3    H223421   5.840   5.742   6.574 -0.4579 -0.7119 -0.7533
 7826TIP3   OH223422   3.774   6.028   6.314 -0.2129  0.6079 -0.0488
 7826TIP3    H123423   3.850   5.995   6.363  1.2128  2.9850 -0.4646
 7826TIP3    H223424   3.752   5.958   6.253  1.6050 -0.1951  0.1497
 7827TIP3   OH223425   0.119   5.655   2.495  0.0951 -0.4042 -0.1512
 7827TIP3    H123426   0.123   5.645   2.400 -0.9969  1.1092 -0.3857
 7827TIP3    H223427   0.026   5.643   2.517 -0.1467  1.9197  0.3456
 7828TIP3   OH223428   3.574   3.516   5.056 -0.0731  0.1404 -0.1206
 7828TIP3    H123429   3.500   3.479   5.103 -0.3783 -0.0834 -0.7660
 7828TIP3    H223430   3.534   3.573   4.990  0.3402  0.3479 -0.1963
 7829TIP3   OH223431   0.040   4.862   3.016 -0.4691 -0.8703  0.5824
 7829TIP3    H123432  -0.033   4.805   3.040 -1.0590 -1.4556 -2.2865
 7829TIP3    H223433   0.005   4.951   3.023 -1.6944 -1.1583 -1.2411
 7830TIP3   OH223434   1.105   7.573   0.404 -0.5098  0.0004  0.1456
 7830TIP3    H123435   1.152   7.642   0.356 -0.9311 -1.0460 -1.8974
 7830TIP3    H223436   1.058   7.525   0.336 -0.2669 -2.2893  1.5074
 7831TIP3   OH223437   5.064   6.487   0.252  0.2291  0.2671 -0.5506
 7831TIP3    H123438   5.017   6.408   0.277  2.1161 -0.6426  0.2616
 7831TIP3    H223439   5.144   6.456   0.210  1.5721  1.6859  0.8219
 7832TIP3   OH223440   0.049   0.590   0.319  0.0389  0.0383  0.0584
 7832TIP3    H123441   0.078   0.661   0.261 -0.2436 -1.9264 -2.7421
 7832TIP3    H223442  -0.046   0.598   0.320  0.0076 -0.2529 -0.2511
 7833TIP3   OH223443   5.255   2.354   6.108 -0.1192 -0.1565  0.1056
 7833TIP3    H123444   5.168   2.328   6.077  0.5022 -0.8294 -1.1194
 7833TIP3    H223445   5.252   2.338   6.203 -1.5121  0.3912  0.1842
 7834TIP3   OH223446   0.514   3.683   0.334 -0.6087  0.0314 -0.0816
 7834TIP3    H123447   0.455   3.726   0.395 -0.6543  0.7930 -0.6428
 7834TIP3    H223448   0.456   3.634   0.275 -0.7494  1.2635 -1.0056
 7835TIP3   OH223449   5.529   2.332   4.222 -0.3824  0.1957  0.6951
 7835TIP3    H123450   5.455   2.311   4.165  0.4229  1.2834 -0.8045
 7835TIP3    H223451   5.495   2.401   4.279 -0.9747 -0.3943  1.0768
 7836TIP3   OH223452   4.665   6.345   5.226 -0.1893  0.3415  0.6047
 7836TIP3    H123453   4.696   6.428   5.261 -1.0357  0.2948  1.4886
 7836TIP3    H223454   4.745   6.295   5.210  0.2501  0.3062  2.6258
 7837TIP3   OH223455   1.038   4.063   4.326 -0.0129 -0.4522  0.1134
 7837TIP3    H123456   0.992   4.027   4.250  0.7589 -0.7434 -0.2268
 7837TIP3    H223457   1.128   4.032   4.316  0.4039  0.6095  0.4378
 7838TIP3   OH223458   3.415   5.480   5.788  0.0328  0.2289  0.1675
 7838TIP3    H123459   3.430   5.426   5.710  0.7508  0.9852 -0.2309
 7838TIP3    H223460   3.471   5.440   5.855  1.2385  0.9631 -0.3633
 7839TIP3   OH223461   0.558   0.736   4.002 -0.0451 -0.0046 -0.2063
 7839TIP3    H123462   0.629   0.685   4.041 -1.2485 -0.5514  1.3365
 7839TIP3    H223463   0.548   0.813   4.059 -1.9920 -0.9443  0.8377
 7840TIP3   OH223464   0.691   7.279   5.352 -0.5605 -0.0035  0.5786
 7840TIP3    H123465   0.666   7.313   5.438  0.5353 -0.3336  1.0555
 7840TIP3    H223466   0.783   7.255   5.363 -0.4115 -0.0606 -0.6898
 7841TIP3   OH223467   1.685   1.609   4.353  0.1122  0.2509  0.2916
 7841TIP3    H123468   1.756   1.669   4.329 -0.5040  0.6053 -0.7062
 7841TIP3    H223469   1.631   1.660   4.413  0.3118  0.2279  0.4923
 7842TIP3   OH223470   3.008   7.287   5.747  0.4128 -0.3524 -0.0282
 7842TIP3    H123471   3.017   7.192   5.754  1.3631 -0.3004 -0.3818
 7842TIP3    H223472   3.056   7.321   5.823 -2.6873 -0.2037  2.0415
 7843TIP3   OH223473   5.750   2.902   3.352  0.3460  0.1377 -0.0917
 7843TIP3    H123474   5.668   2.899   3.302  1.3335 -1.5107 -1.7434
 7843TIP3    H223475   5.808   2.840   3.307  2.8693  1.9614  0.3879
 7844TIP3   OH223476   5.689   5.342   3.997 -0.3279  0.0892 -0.7617
 7844TIP3    H123477   5.725   5.267   4.044 -2.0751 -0.3859 -0.1124
 7844TIP3    H223478   5.722   5.418   4.046 -1.7934 -0.3809  1.0860
 7845TIP3   OH223479   5.848   1.988   2.039  0.4911 -0.0459  0.0257
 7845TIP3    H123480   5.794   1.937   2.100  0.5563  1.7895  1.6807
 7845TIP3    H223481   5.921   1.930   2.018  0.3403 -0.8061  1.4906
 7846TIP3   OH223482   1.582   7.093   2.264  0.0186 -0.2299  0.1044
 7846TIP3    H123483   1.623   7.142   2.193  0.6194  0.1122  0.6811
 7846TIP3    H223484   1.554   7.160   2.326 -1.1287 -0.4783 -0.1213
 7847TIP3   OH223485   4.488   2.113   4.261 -0.3317  0.5772  0.0308
 7847TIP3    H123486   4.521   2.084   4.347  1.1129 -1.0562 -1.0024
 7847TIP3    H223487   4.393   2.101   4.267 -0.3769  1.4244  1.6998
 7848TIP3   OH223488   1.578   7.475   1.144  0.7197 -0.0924 -0.1623
 7848TIP3    H123489   1.521   7.423   1.088  0.6307  0.4803 -0.6040
 7848TIP3    H223490   1.586   7.423   1.225  1.1751 -1.1147 -0.8414
 7849TIP3   OH223491   2.598   1.401   3.212 -0.4699 -0.4662  0.1712
 7849TIP3    H123492   2.561   1.410   3.299 -2.3006 -0.4825 -0.5617
 7849TIP3    H223493   2.603   1.491   3.178 -2.0183 -0.6280 -0.5618
 7850TIP3   OH223494   4.592   4.794   1.042  0.2616 -0.5983 -0.4837
 7850TIP3    H123495   4.667   4.761   0.993  1.8177 -0.8988  1.9082
 7850TIP3    H223496   4.515   4.766   0.992  1.6988 -1.7558 -2.1421
 7851TIP3   OH223497   2.654   2.934   1.799  0.1625 -0.0972  0.3048
 7851TIP3    H123498   2.745   2.961   1.813  1.0314 -2.6446  0.1368
 7851TIP3    H223499   2.651   2.904   1.709 -0.7820 -0.2784  0.3861
 7852TIP3   OH223500   1.257   4.315   6.485  0.1862 -0.8173  0.4572
 7852TIP3    H123501   1.249   4.229   6.443  0.4403 -0.5055 -0.2406
 7852TIP3    H223502   1.198   4.372   6.436  1.4053 -0.1591 -0.2816
 7853TIP3   OH223503   2.093   3.098   1.843  0.0834 -0.0983 -0.1967
 7853TIP3    H123504   2.107   3.016   1.891  2.5298  0.2415 -0.2243
 7853TIP3    H223505   2.041   3.152   1.902 -0.0302 -1.0210  0.5643
 7854TIP3   OH223506   1.956   1.124   0.800  0.0129  0.2607 -0.3433
 7854TIP3    H123507   1.861   1.114   0.799  0.0321  0.0772 -0.3137
 7854TIP3    H223508   1.989   1.042   0.764  0.2262 -0.5314  1.5749
 7855TIP3   OH223509   1.364   0.093   4.696 -0.2935  0.4212  0.2219
 7855TIP3    H123510   1.279   0.131   4.674 -0.5846  2.1081  3.6630
 7855TIP3    H223511   1.428   0.155   4.659 -0.6258  0.7893  0.2623
 7856TIP3   OH223512   3.007   3.163   4.822 -0.9330 -0.2712 -0.2129
 7856TIP3    H123513   2.977   3.160   4.731 -0.0243  0.0967 -0.5447
 7856TIP3    H223514   3.065   3.087   4.830 -0.1256  0.3174 -0.2916
 7857TIP3   OH223515   1.937   1.472   3.678 -0.1985  0.6694 -0.5285
 7857TIP3    H123516   2.006   1.407   3.665 -1.1142 -0.4073 -0.1204
 7857TIP3    H223517   1.959   1.513   3.762  0.4292  0.9774 -0.8295
 7858TIP3   OH223518   2.300   4.937   5.826 -0.1331 -0.3738  0.1204
 7858TIP3    H123519   2.226   4.938   5.887  0.2052  0.9896  0.5302
 7858TIP3    H223520   2.311   4.844   5.805 -0.4912 -0.8588  1.8517
 7859TIP3   OH223521   6.738   3.702   1.209 -0.1844  0.0251  0.7535
 7859TIP3    H123522   6.747   3.680   1.116  0.3808 -0.7331  0.9871
 7859TIP3    H223523   6.805   3.651   1.253 -0.3381  0.5084  1.5712
 7860TIP3   OH223524   3.357   2.707   1.688  0.7538 -0.3439 -0.1996
 7860TIP3    H123525   3.313   2.709   1.603  0.3089  0.0763  0.0380
 7860TIP3    H223526   3.360   2.798   1.716  0.9559 -0.4733  0.2061
 7861TIP3   OH223527   3.842   6.695   6.278  0.2742  0.2607  0.4360
 7861TIP3    H123528   3.838   6.600   6.264 -0.4223  0.3506 -0.0416
 7861TIP3    H223529   3.824   6.732   6.191  1.0782  0.8286  0.5091
 7862TIP3   OH223530   0.962   7.541   6.247 -0.3311 -0.3176  0.2141
 7862TIP3    H123531   0.955   7.542   6.342 -0.1376  1.8571  0.2636
 7862TIP3    H223532   0.875   7.517   6.216 -0.4776 -0.7333  0.9419
 7863TIP3   OH223533   4.200   5.580   1.231 -0.0736 -0.2077  0.3867
 7863TIP3    H123534   4.262   5.514   1.261 -2.3519 -1.8804  1.7277
 7863TIP3    H223535   4.201   5.647   1.299 -0.5717 -0.8091  0.9906
 7864TIP3   OH223536   2.277   1.107   3.908  0.4077  0.0911 -0.3653
 7864TIP3    H123537   2.325   1.120   3.826 -1.1126  4.3131 -0.8405
 7864TIP3    H223538   2.185   1.121   3.885 -0.0766  1.3162  1.9869
 7865TIP3   OH223539   6.458   1.574   1.567 -0.0602 -0.0196 -0.4447
 7865TIP3    H123540   6.534   1.542   1.517  0.3742  0.5206 -0.1413
 7865TIP3    H223541   6.477   1.549   1.657 -1.2904 -1.8441 -0.6413
 7866TIP3   OH223542   7.150   3.230   3.954 -0.1011 -0.4573  0.1725
 7866TIP3    H123543   7.182   3.203   3.868 -0.3878  0.5322 -0.2549
 7866TIP3    H223544   7.222   3.210   4.014  0.6615  0.1665 -0.5144
 7867TIP3   OH223545   2.615   4.645   0.164 -0.1423  0.5578  0.4485
 7867TIP3    H123546   2.542   4.593   0.130 -0.1034 -0.7269  2.2161
 7867TIP3    H223547   2.673   4.657   0.090 -0.5439 -1.2621 -0.1940
 7868TIP3   OH223548   4.437   5.313   6.226  0.1825 -0.2990 -0.3341
 7868TIP3    H123549   4.373   5.333   6.158  0.7539  2.5529 -0.1481
 7868TIP3    H223550   4.506   5.264   6.181 -0.0656  0.4218 -1.5289
 7869TIP3   OH223551   7.663   3.867   6.731 -0.0741  0.1751 -0.1925
 7869TIP3    H123552   7.663   3.799   6.664  2.3865 -0.7729  0.6488
 7869TIP3    H223553   7.697   3.944   6.686 -0.7681  0.2548 -0.6034
 7870TIP3   OH223554   3.327   2.858   0.887  0.0254 -0.0520 -0.0909
 7870TIP3    H123555   3.261   2.899   0.943 -0.7608 -1.4487  0.0402
 7870TIP3    H223556   3.392   2.825   0.948  0.5666  0.7847 -0.1883
 7871TIP3   OH223557   7.875   5.073   3.232 -0.5873  0.1171  0.4239
 7871TIP3    H123558   7.833   5.076   3.318 -0.5056  1.3786  0.4361
 7871TIP3    H223559   7.861   5.160   3.195 -1.0441 -0.5597 -1.0591
 7872TIP3   OH223560   4.467   0.240   1.269  0.4400  0.0637 -0.4532
 7872TIP3    H123561   4.373   0.235   1.284  0.7235  0.2180  1.6433
 7872TIP3    H223562   4.476   0.298   1.193 -1.1179  1.3025  0.2435
 7873TIP3   OH223563   4.722   4.262   4.251  0.1772 -0.6003 -0.0574
 7873TIP3    H123564   4.638   4.244   4.210  0.9266 -2.7288 -0.7835
 7873TIP3    H223565   4.729   4.197   4.321  0.7564  0.2724  0.7214
 7874TIP3   OH223566   5.710   3.117   6.685  0.1880 -0.3722  0.0124
 7874TIP3    H123567   5.717   3.038   6.631  0.0086 -0.4456  0.0953
 7874TIP3    H223568   5.690   3.187   6.623 -1.6802 -0.7334  0.1583
 7875TIP3   OH223569   3.680   3.180   0.653 -0.3175 -0.0288 -0.0631
 7875TIP3    H123570   3.614   3.148   0.591 -0.3118 -1.3183  0.5601
 7875TIP3    H223571   3.681   3.275   0.641 -1.3695 -0.1200 -0.9852
 7876TIP3   OH223572   2.840  -0.029   5.926 -0.4582  0.1423 -0.2628
 7876TIP3    H123573   2.755   0.014   5.936 -0.8601 -0.5849 -0.4957
 7876TIP3    H223574   2.902   0.043   5.914 -0.8475  0.7425  1.1804
 7877TIP3   OH223575   2.093   2.005   3.938  0.0152  0.0290 -0.2982
 7877TIP3    H123576   2.156   2.072   3.967 -0.7270  1.5217 -1.9122
 7877TIP3    H223577   2.044   1.983   4.017  1.6818 -0.2305  0.7202
 7878TIP3   OH223578   7.807   3.034   1.344  0.4332 -0.2331 -0.1306
 7878TIP3    H123579   7.887   3.081   1.321 -0.0572  0.3429 -0.6862
 7878TIP3    H223580   7.784   3.066   1.431  0.8516 -0.4636  0.0658
 7879TIP3   OH223581   2.835   7.808   1.777  0.1537  0.2648  0.7247
 7879TIP3    H123582   2.833   7.742   1.708 -0.5243  1.2690 -0.2711
 7879TIP3    H223583   2.928   7.818   1.797  0.2702 -0.8917  0.8094
 7880TIP3   OH223584   4.513   6.305   4.586  0.2972  0.1679 -0.0798
 7880TIP3    H123585   4.480   6.338   4.669 -0.3870  0.3304 -0.4102
 7880TIP3    H223586   4.524   6.211   4.600 -2.1751 -0.2606 -0.5250
 7881TIP3   OH223587   1.937   0.290   2.276 -0.2145 -0.4817 -0.7134
 7881TIP3    H123588   1.989   0.249   2.345  1.2728  0.1118 -1.4248
 7881TIP3    H223589   1.875   0.222   2.249 -2.7198  0.0636  2.9349
 7882TIP3   OH223590   3.471   0.455   6.618  0.5114  0.2655  0.0280
 7882TIP3    H123591   3.508   0.455   6.530 -1.5493 -0.7374 -0.9336
 7882TIP3    H223592   3.477   0.364   6.647  0.4302  0.4292  0.5777
 7883TIP3   OH223593   1.326   1.753   6.088 -0.4978 -0.2343 -0.6106
 7883TIP3    H123594   1.249   1.796   6.050 -0.2542  1.4540  0.6608
 7883TIP3    H223595   1.396   1.816   6.075 -0.1221 -0.1961  1.3683
 7884TIP3   OH223596   2.770   3.537   4.994 -0.0104 -0.1084  0.1529
 7884TIP3    H123597   2.803   3.479   4.925  0.7813 -0.5516  0.8939
 7884TIP3    H223598   2.721   3.479   5.052 -1.5245  0.4185 -0.5328
 7885TIP3   OH223599   1.624   0.852   3.805  0.0028  0.1055 -0.4779
 7885TIP3    H123600   1.683   0.808   3.745  1.0057 -0.3745  0.8114
 7885TIP3    H223601   1.554   0.789   3.821 -0.1099  0.1230 -0.9114
 7886TIP3   OH223602   8.234   2.930   4.455 -0.3165 -0.0600 -0.1726
 7886TIP3    H123603   8.263   2.918   4.545  0.8644  0.9529 -0.3961
 7886TIP3    H223604   8.214   3.023   4.447 -0.2525 -0.1024 -0.9934
 7887TIP3   OH223605   6.688   6.167   5.161  0.0331  0.3808 -0.2056
 7887TIP3    H123606   6.652   6.218   5.088  0.9794  1.1688 -0.1474
 7887TIP3    H223607   6.623   6.175   5.231 -1.1585 -0.8721 -1.1400
 7888TIP3   OH223608   0.343   0.471   6.155 -0.0737 -0.2429 -0.0307
 7888TIP3    H123609   0.395   0.450   6.232 -0.7072 -0.0191  0.4656
 7888TIP3    H223610   0.327   0.387   6.112  1.7443 -0.2012 -0.8964
 7889TIP3   OH223611   5.070   5.023   3.292 -0.5261 -0.1501 -0.6446
 7889TIP3    H123612   4.994   4.971   3.319 -0.4351 -0.2621 -0.6051
 7889TIP3    H223613   5.087   5.081   3.367  2.2376 -3.1828  1.3544
 7890TIP3   OH223614   3.119   5.474   5.577  0.2725  0.7936  0.5698
 7890TIP3    H123615   3.157   5.410   5.637 -1.6054 -0.6631  0.2946
 7890TIP3    H223616   3.112   5.555   5.629 -1.2739 -0.4136  2.3434
 7891TIP3   OH223617   3.356   7.660   5.607 -0.2195 -0.1593  0.1731
 7891TIP3    H123618   3.420   7.646   5.677 -0.8987 -0.1274  0.8075
 7891TIP3    H223619   3.363   7.582   5.552  0.9267  0.1964 -0.2371
 7892TIP3   OH223620   1.753   7.120   1.677  0.0253  0.5436 -0.1052
 7892TIP3    H123621   1.762   7.135   1.583  0.8914  0.1647 -0.0916
 7892TIP3    H223622   1.809   7.187   1.718 -0.9091  1.1701  0.1750
 7893TIP3   OH223623   1.224   6.817   1.152 -0.2390 -0.2378  0.3282
 7893TIP3    H123624   1.226   6.749   1.219  2.8190  0.1295  0.7466
 7893TIP3    H223625   1.311   6.814   1.111 -1.4840  0.4962 -2.6948
 7894TIP3   OH223626   0.647   0.134   4.539 -0.3270 -0.2213  0.3736
 7894TIP3    H123627   0.702   0.133   4.618 -0.1859 -0.6737  0.2739
 7894TIP3    H223628   0.657   0.046   4.503  0.5230  0.3267 -0.7762
 7895TIP3   OH223629   4.246   1.016   6.341  0.0705  0.3845  0.1553
 7895TIP3    H123630   4.314   0.954   6.365 -2.9211 -2.0783  3.3374
 7895TIP3    H223631   4.260   1.091   6.400  0.9110  0.5982 -0.3128
 7896TIP3   OH223632   6.663   2.604   4.482 -0.3547  0.2569 -0.4834
 7896TIP3    H123633   6.667   2.569   4.571 -0.2956 -0.0674 -0.6127
 7896TIP3    H223634   6.703   2.691   4.488 -0.9190  0.4917 -0.0671
 7897TIP3   OH223635   7.552   5.497   6.400 -0.0146  0.2025 -0.4775
 7897TIP3    H123636   7.464   5.493   6.363  0.1445  1.3763 -1.0502
 7897TIP3    H223637   7.552   5.432   6.470 -2.0360  1.6329  0.9782
 7898TIP3   OH223638   5.080   3.953   5.489  0.0948  0.3063 -0.1105
 7898TIP3    H123639   5.126   3.972   5.407 -0.1387 -0.9994 -0.5708
 7898TIP3    H223640   5.044   3.865   5.476 -1.5637  0.8383  0.6670
 7899TIP3   OH223641   1.978   1.541   5.477 -0.2003 -0.0006 -0.3130
 7899TIP3    H123642   1.960   1.634   5.494 -0.1382 -0.2714  1.4118
 7899TIP3    H223643   1.905   1.495   5.518 -0.0035 -0.7553 -0.7887
 7900TIP3   OH223644   7.450   5.715   0.166  0.6565  0.4765 -0.1610
 7900TIP3    H123645   7.532   5.732   0.212 -0.2888  0.1061  1.7891
 7900TIP3    H223646   7.466   5.635   0.116  1.8066  1.0418 -0.7226
 7901TIP3   OH223647   0.619   2.066   2.453 -0.0791  0.2074 -0.2931
 7901TIP3    H123648   0.596   1.974   2.467  1.1771 -0.6859 -3.1610
 7901TIP3    H223649   0.600   2.109   2.536 -1.5612 -2.4537  0.8785
 7902TIP3   OH223650   2.901   0.188   2.733  0.6620 -0.0428  0.5756
 7902TIP3    H123651   2.837   0.244   2.777  1.7291  1.3975  0.3334
 7902TIP3    H223652   2.981   0.196   2.784  0.9966 -0.9379  0.2255
 7903TIP3   OH223653   2.972   3.855   5.337  0.4928 -0.5600  0.2025
 7903TIP3    H123654   2.996   3.826   5.249 -2.6195 -1.2952 -0.5201
 7903TIP3    H223655   3.040   3.818   5.393  1.9957 -0.9714 -1.7499
 7904TIP3   OH223656   5.637   6.832   3.811  0.0493  0.0513 -0.1847
 7904TIP3    H123657   5.566   6.896   3.820  1.0740  1.3955 -1.1242
 7904TIP3    H223658   5.717   6.883   3.826  0.8472 -1.4606  1.0482
 7905TIP3   OH223659   4.805   2.847   1.216 -0.0707  0.4258  0.0247
 7905TIP3    H123660   4.738   2.880   1.156  0.7783  0.5661 -0.8597
 7905TIP3    H223661   4.802   2.752   1.204  0.3565  0.4792 -0.5253
 7906TIP3   OH223662   3.979   2.304   0.011 -0.2669 -0.1363 -0.4815
 7906TIP3    H123663   3.913   2.370   0.034  0.5879  1.7903 -3.0755
 7906TIP3    H223664   3.930   2.239  -0.039 -0.3489  1.0192 -1.9609
 7907TIP3   OH223665   0.772   0.390   1.032  0.0801  0.2015 -0.3190
 7907TIP3    H123666   0.740   0.480   1.024  1.8287  0.9852  0.9649
 7907TIP3    H223667   0.867   0.398   1.041  0.3421 -1.8157 -0.7178
 7908TIP3   OH223668   4.745   0.135   2.100  0.8646 -0.2421 -0.1900
 7908TIP3    H123669   4.817   0.078   2.074  2.5633  1.2860  0.9496
 7908TIP3    H223670   4.787   0.212   2.137 -1.3737  0.5119  0.9731
 7909TIP3   OH223671   0.877   4.828   6.764  0.2514 -0.6309 -0.0420
 7909TIP3    H123672   0.807   4.877   6.808 -0.1114 -1.7503  0.6413
 7909TIP3    H223673   0.922   4.895   6.712 -1.4660  0.0882 -0.7095
 7910TIP3   OH223674   0.932   4.867   0.047 -0.2342  0.0072 -0.7244
 7910TIP3    H123675   0.877   4.829  -0.022 -1.9157  3.7253 -1.6920
 7910TIP3    H223676   0.890   4.840   0.129 -0.6798 -1.0457 -1.2759
 7911TIP3   OH223677   4.298   7.702   5.636 -0.0985  0.1561 -0.4049
 7911TIP3    H123678   4.286   7.651   5.556  0.3774 -0.5077 -0.0587
 7911TIP3    H223679   4.225   7.764   5.636 -1.7227 -1.6599  0.0140
 7912TIP3   OH223680   3.334   6.952   4.217 -0.1903  0.1401  0.0636
 7912TIP3    H123681   3.371   7.006   4.147  0.3513  0.3531  0.5067
 7912TIP3    H223682   3.246   6.985   4.229 -0.7199 -0.6745 -1.3250
 7913TIP3   OH223683   6.365   2.610   2.960 -0.0271 -0.0664  0.1705
 7913TIP3    H123684   6.423   2.547   3.002 -0.4005 -0.2419  0.4330
 7913TIP3    H223685   6.277   2.582   2.986 -0.1351  2.0219  2.3841
 7914TIP3   OH223686   6.750   0.683   2.112  0.2417 -0.4052  0.1293
 7914TIP3    H123687   6.832   0.642   2.085  0.9787 -0.4886  2.2671
 7914TIP3    H223688   6.778   0.766   2.152 -0.9180  0.5173 -0.9066
 7915TIP3   OH223689   3.223   4.957   0.198  0.5336  0.0629  0.1797
 7915TIP3    H123690   3.250   4.943   0.107 -0.5290 -1.3662  0.0635
 7915TIP3    H223691   3.298   4.929   0.250 -0.1383 -2.6095 -0.1761
 7916TIP3   OH223692   4.972   4.488   1.346 -0.6591 -0.0110  0.1868
 7916TIP3    H123693   4.907   4.550   1.313 -0.1669 -0.5773 -1.9854
 7916TIP3    H223694   5.041   4.544   1.383 -0.8563  0.7151 -0.5033
 7917TIP3   OH223695   3.851   4.299   1.953  0.5328  0.0813  0.0101
 7917TIP3    H123696   3.946   4.301   1.960  0.3863  1.7946  2.3919
 7917TIP3    H223697   3.822   4.247   2.028 -0.4498 -1.4618 -1.3415
 7918TIP3   OH223698   6.675   6.650   6.013  0.2343  0.2706  0.4843
 7918TIP3    H123699   6.668   6.740   6.044  1.7212  0.5955 -0.0967
 7918TIP3    H223700   6.760   6.620   6.044  1.1519  0.1222 -1.9758
 7919TIP3   OH223701   2.502   4.338   4.476 -0.2162  0.3084  0.3424
 7919TIP3    H123702   2.458   4.278   4.415 -1.2477  0.9650  0.4072
 7919TIP3    H223703   2.592   4.307   4.479  0.0309  0.6138 -1.9925
 7920TIP3   OH223704   2.469   0.989   2.628  0.3701  0.1541 -0.2633
 7920TIP3    H123705   2.375   0.990   2.644 -0.0972  0.4558 -2.6978
 7920TIP3    H223706   2.506   1.044   2.698 -1.2898  0.4166  0.4540
 7921TIP3   OH223707   4.081   6.354   4.753  0.0439 -0.3993 -0.2051
 7921TIP3    H123708   4.109   6.431   4.703 -1.1563  0.6241  0.6272
 7921TIP3    H223709   3.990   6.340   4.728 -1.4115  1.6051  3.2423
 7922TIP3   OH223710   4.479   0.395   1.568  0.2685 -0.1913 -0.0605
 7922TIP3    H123711   4.550   0.418   1.507 -1.0324  1.3901 -1.0608
 7922TIP3    H223712   4.399   0.421   1.522 -0.9026 -0.9058  1.4982
 7923TIP3   OH223713   4.304   7.772   2.209 -0.4063  0.3831 -0.0471
 7923TIP3    H123714   4.364   7.846   2.206  0.6965 -0.4957 -0.6271
 7923TIP3    H223715   4.221   7.807   2.178 -0.4954  1.8605  1.7106
 7924TIP3   OH223716   2.553   6.954   6.284  0.0641 -0.4081  0.1227
 7924TIP3    H123717   2.565   6.864   6.313  1.5732 -0.6780 -1.1575
 7924TIP3    H223718   2.474   6.952   6.230  0.1670 -0.9914 -0.0081
 7925TIP3   OH223719   0.401   1.198   1.834 -0.2959  0.1726 -0.1087
 7925TIP3    H123720   0.312   1.165   1.837 -0.1603 -0.4733 -1.7214
 7925TIP3    H223721   0.441   1.151   1.760  1.0740  1.1626 -0.0388
 7926TIP3   OH223722   7.225   5.146   5.523  0.5179 -0.1934 -0.4973
 7926TIP3    H123723   7.157   5.214   5.519  0.4257 -0.2280  0.3784
 7926TIP3    H223724   7.181   5.066   5.495 -0.0320 -0.3834  0.8524
 7927TIP3   OH223725   2.258   7.327   2.732  0.4043  0.4636 -0.2850
 7927TIP3    H123726   2.259   7.264   2.804 -0.5156 -0.2404 -0.8544
 7927TIP3    H223727   2.191   7.293   2.672 -0.8126  2.4971 -0.1652
 7928TIP3   OH223728   1.523   7.588   0.255  0.2556  0.3449 -0.4591
 7928TIP3    H123729   1.440   7.551   0.226 -0.5527  2.0079 -0.4097
 7928TIP3    H223730   1.549   7.535   0.331  0.6995 -1.9398 -2.1228
 7929TIP3   OH223731   1.604   7.405   3.113  0.0487  0.5478 -0.6552
 7929TIP3    H123732   1.567   7.468   3.052 -1.3853 -0.1327 -0.5324
 7929TIP3    H223733   1.664   7.353   3.061  2.2319  2.7234 -0.5152
 7930TIP3   OH223734   1.216   0.377   6.018  0.1863 -0.1681 -0.3311
 7930TIP3    H123735   1.258   0.463   6.019  0.5021 -0.2898  1.7661
 7930TIP3    H223736   1.281   0.318   6.056 -1.4392 -0.5067  2.2064
 7931TIP3   OH223737   7.855   5.915   3.455 -0.1308  0.0999 -0.4127
 7931TIP3    H123738   7.782   5.952   3.506 -0.1467 -0.4419 -0.0378
 7931TIP3    H223739   7.909   5.870   3.520  1.5671  2.0408 -0.3576
 7932TIP3   OH223740   2.744   1.817   0.151  0.3128  0.5684  0.4667
 7932TIP3    H123741   2.682   1.771   0.207  1.1863 -1.3699 -0.0641
 7932TIP3    H223742   2.689   1.870   0.093 -0.9093 -1.2633 -0.1466
 7933TIP3   OH223743   5.453   6.124   3.172 -0.3971  0.4282 -0.4460
 7933TIP3    H123744   5.369   6.091   3.202 -0.0948  0.4181  0.4042
 7933TIP3    H223745   5.431   6.192   3.108 -1.0687  1.2961  0.6793
 7934TIP3   OH223746   2.508   6.669   0.756 -0.7219  0.6726 -0.1161
 7934TIP3    H123747   2.456   6.632   0.828  0.2385  0.5009  0.5113
 7934TIP3    H223748   2.451   6.661   0.679 -1.4521  0.0863  0.4641
 7935TIP3   OH223749   2.025   4.169   3.807  0.1038 -0.0650  0.2303
 7935TIP3    H123750   2.029   4.153   3.901  0.2854 -0.6803  0.1248
 7935TIP3    H223751   1.982   4.091   3.771  0.9117 -0.2833 -0.2987
 7936TIP3   OH223752   7.365   6.427   6.104 -0.1330  0.2920  0.7751
 7936TIP3    H123753   7.330   6.429   6.015 -0.5670  1.9703  0.9538
 7936TIP3    H223754   7.431   6.497   6.105  0.8990 -0.6608  1.3781
 7937TIP3   OH223755   0.168   6.347   6.156  0.1349 -0.7940  0.1697
 7937TIP3    H123756   0.131   6.383   6.237 -0.8759 -0.2916 -0.4847
 7937TIP3    H223757   0.252   6.392   6.146 -0.3294  0.1213  0.2703
 7938TIP3   OH223758   7.847   7.622   6.452  0.4498 -0.7313  0.2341
 7938TIP3    H123759   7.905   7.697   6.466  0.7607 -0.7981 -0.6193
 7938TIP3    H223760   7.850   7.608   6.357 -1.9287  0.0694 -0.0269
 7939TIP3   OH223761   7.960   0.829   3.364 -0.0007  0.1888  0.0513
 7939TIP3    H123762   7.954   0.888   3.289  2.3153  2.5277  1.4871
 7939TIP3    H223763   8.024   0.763   3.337  1.0018  1.1518 -0.0199
 7940TIP3   OH223764   3.438   1.454   5.720 -0.1319  0.1214  0.3451
 7940TIP3    H123765   3.374   1.525   5.715 -0.5908 -0.3040 -5.2231
 7940TIP3    H223766   3.519   1.493   5.688  0.1668 -1.3137 -0.7020
 7941TIP3   OH223767   0.067   5.880   3.907 -0.4057 -0.2287  0.2321
 7941TIP3    H123768   0.117   5.816   3.959 -0.5575 -1.4594 -1.0812
 7941TIP3    H223769   0.112   5.963   3.923  0.6057 -0.8850  0.9564
 7942TIP3   OH223770   0.687   0.876   2.930  0.2055 -0.1130  0.2734
 7942TIP3    H123771   0.680   0.971   2.915 -2.2027 -0.2475  0.0875
 7942TIP3    H223772   0.724   0.842   2.848 -2.2266  0.3693 -1.1331
 7943TIP3   OH223773   7.344   4.669   5.294  0.6148 -0.2442  0.5513
 7943TIP3    H123774   7.265   4.657   5.241  0.5586  0.4903  0.4612
 7943TIP3    H223775   7.371   4.580   5.317  0.4340 -0.5591 -0.4085
 7944TIP3   OH223776   7.235   3.487   3.892  0.1393  0.8895  0.0528
 7944TIP3    H123777   7.175   3.558   3.913 -3.5051 -1.2440 -2.1397
 7944TIP3    H223778   7.193   3.408   3.926 -0.7964 -1.2764 -5.1802
 7945TIP3   OH223779   5.288   6.651   1.299 -0.1851 -0.2434  0.6026
 7945TIP3    H123780   5.233   6.674   1.225 -0.1072 -0.4077  0.4921
 7945TIP3    H223781   5.296   6.555   1.294  0.2119 -0.2107  0.5449
 7946TIP3   OH223782   6.812   2.849   4.560  0.3052 -0.2877  0.1656
 7946TIP3    H123783   6.857   2.823   4.640  0.3963  1.0280  0.5733
 7946TIP3    H223784   6.842   2.939   4.543  2.2075 -1.3131 -2.7221
 7947TIP3   OH223785   2.479   5.168   4.863 -0.2437  0.3225  0.0307
 7947TIP3    H123786   2.528   5.143   4.785  0.9179 -1.0157  1.1286
 7947TIP3    H223787   2.420   5.095   4.879 -2.0189  1.5183 -0.7467
 7948TIP3   OH223788   1.602   5.886   2.030 -0.5426  0.6176 -0.2099
 7948TIP3    H123789   1.559   5.808   1.994 -0.0608  0.2189  0.0683
 7948TIP3    H223790   1.556   5.904   2.111 -2.0599  1.9010 -1.3025
 7949TIP3   OH223791   1.358   5.936   4.110  0.2843 -0.0514 -0.1779
 7949TIP3    H123792   1.344   6.030   4.115 -2.9213 -0.3193 -1.5308
 7949TIP3    H223793   1.365   5.917   4.016 -0.3948 -1.2658 -0.0101
 7950TIP3   OH223794   1.266   5.742   4.452 -0.0309  0.2071 -0.1785
 7950TIP3    H123795   1.176   5.749   4.418  0.0256 -2.3350 -1.0540
 7950TIP3    H223796   1.314   5.812   4.406 -1.3573  1.0738 -0.3221
 7951TIP3   OH223797   0.881   2.933   5.762 -0.6288  0.1557  0.3006
 7951TIP3    H123798   0.916   2.943   5.674 -0.2022 -0.4344  0.3961
 7951TIP3    H223799   0.790   2.906   5.749 -0.5071 -0.1303  0.0379
 7952TIP3   OH223800   1.107   5.977   6.364 -0.2958  0.4301  0.3812
 7952TIP3    H123801   1.088   6.016   6.279  0.1085 -0.6499 -0.2324
 7952TIP3    H223802   1.091   6.047   6.427  0.2743  1.5291 -0.6489
 7953TIP3   OH223803   6.704   5.602   1.011  0.1025  0.2287 -0.6630
 7953TIP3    H123804   6.718   5.515   0.974 -2.2961 -0.2477 -0.6407
 7953TIP3    H223805   6.769   5.610   1.080  1.1551 -1.0377 -1.4544
 7954TIP3   OH223806   4.188   1.387   4.669  0.5610 -0.1394 -0.4744
 7954TIP3    H123807   4.193   1.371   4.574 -0.7485  0.9584 -0.7595
 7954TIP3    H223808   4.192   1.483   4.677 -0.2400 -0.1733  0.4965
 7955TIP3   OH223809   6.279   0.366   4.470 -0.3152  0.2561 -0.7417
 7955TIP3    H123810   6.261   0.275   4.494  0.3095  0.0200 -1.1648
 7955TIP3    H223811   6.294   0.410   4.554 -1.0836  0.0821 -0.5005
 7956TIP3   OH223812   2.816   3.937   3.199 -0.5132  0.5184  0.1359
 7956TIP3    H123813   2.741   3.925   3.258 -0.1186  2.1799  1.0219
 7956TIP3    H223814   2.805   4.024   3.163  0.1798  0.1763 -0.9596
 7957TIP3   OH223815   3.394   4.277   5.744  0.0420 -0.0100 -0.1327
 7957TIP3    H123816   3.357   4.346   5.798 -0.6838  0.0003 -0.6349
 7957TIP3    H223817   3.476   4.313   5.711 -0.2734  0.5640 -0.2923
 7958TIP3   OH223818   1.335   6.420   6.454  0.6606 -0.2372 -0.0044
 7958TIP3    H123819   1.407   6.391   6.398 -0.8847 -0.6553 -1.8986
 7958TIP3    H223820   1.286   6.339   6.472 -1.5686  0.4868 -2.1892
 7959TIP3   OH223821   7.587   2.443   4.070  0.1403  0.1898 -0.6366
 7959TIP3    H123822   7.495   2.466   4.060 -0.0288 -0.4643 -0.5898
 7959TIP3    H223823   7.625   2.517   4.117 -0.3809  0.4133 -0.5656
 7960TIP3   OH223824   2.728   6.730   4.086 -0.6714 -0.4597  0.4160
 7960TIP3    H123825   2.703   6.690   4.002 -2.8847  0.6908  0.4517
 7960TIP3    H223826   2.658   6.706   4.146  0.2119 -0.1679  1.6032
 7961TIP3   OH223827   1.798   4.457   5.334 -0.2430  0.1819 -0.0161
 7961TIP3    H123828   1.727   4.424   5.280 -2.3671  1.9439  1.4826
 7961TIP3    H223829   1.826   4.538   5.291  0.1767  0.0037 -0.0817
 7962TIP3   OH223830   7.956   4.716   0.518  0.4579 -0.1770  0.5492
 7962TIP3    H123831   7.928   4.805   0.541  1.6986  0.5440 -0.5480
 7962TIP3    H223832   7.876   4.673   0.487 -0.0161  0.8303  0.3319
 7963TIP3   OH223833   0.225   4.490   0.434  0.0529  0.0671  0.4490
 7963TIP3    H123834   0.210   4.522   0.523 -1.0815 -0.3343  0.4162
 7963TIP3    H223835   0.305   4.438   0.440 -0.1125 -0.1048  1.2700
 7964TIP3   OH223836   2.204   6.571   1.806  0.2584  0.2449  0.1134
 7964TIP3    H123837   2.239   6.488   1.838  1.7242  1.1954  1.0795
 7964TIP3    H223838   2.217   6.632   1.878 -1.1559  1.2386 -0.4423
 7965TIP3   OH223839   5.389   3.966   2.730  0.1148 -0.5382 -0.5353
 7965TIP3    H123840   5.442   3.916   2.668 -0.1191  0.3461 -1.4660
 7965TIP3    H223841   5.310   3.913   2.742 -0.0451 -0.4904 -1.3615
 7966TIP3   OH223842   4.906   0.668   6.576  0.1093  0.8471  0.7567
 7966TIP3    H123843   4.850   0.599   6.610  1.3464  0.3475  1.9014
 7966TIP3    H223844   4.891   0.668   6.482  1.9764 -2.8822  0.2607
 7967TIP3   OH223845   7.477   0.077   6.362  0.2348 -0.0779  0.6808
 7967TIP3    H123846   7.525   0.043   6.286  0.2723  0.9653  0.2160
 7967TIP3    H223847   7.386   0.054   6.345  0.3948 -0.9610  0.9527
 7968TIP3   OH223848   1.143   2.442   4.384 -0.6295 -0.0208  0.2118
 7968TIP3    H123849   1.178   2.438   4.473 -0.3026  2.3714  0.2551
 7968TIP3    H223850   1.048   2.449   4.396 -0.7106 -1.0850  0.2917
 7969TIP3   OH223851   5.780   7.137   6.497 -0.1604 -0.2403  0.1131
 7969TIP3    H123852   5.759   7.087   6.418 -0.3662  1.1860 -0.7582
 7969TIP3    H223853   5.735   7.090   6.567 -3.7563  0.8535 -1.2273
 7970TIP3   OH223854   4.281   1.940   3.791 -0.2923  0.1049 -0.2753
 7970TIP3    H123855   4.349   1.895   3.841 -0.7589 -0.4794 -0.1608
 7970TIP3    H223856   4.204   1.884   3.799 -1.1384  1.3437  0.5981
 7971TIP3   OH223857   4.380   0.497   0.259  0.6384 -0.1242  0.4616
 7971TIP3    H123858   4.387   0.413   0.213 -0.8915  0.1406 -0.3278
 7971TIP3    H223859   4.324   0.478   0.335 -1.4389  0.5463 -0.8232
 7972TIP3   OH223860   2.174   5.769   0.469 -0.1929 -0.5426 -0.5335
 7972TIP3    H123861   2.083   5.741   0.467 -0.1329 -1.0591  1.6244
 7972TIP3    H223862   2.220   5.707   0.411 -1.2187 -0.0733 -1.8952
 7973TIP3   OH223863   6.434   0.460   1.336 -0.2663 -0.5614  0.2236
 7973TIP3    H123864   6.425   0.492   1.426 -0.2258  1.5204 -0.4447
 7973TIP3    H223865   6.359   0.402   1.324 -1.2294  0.4430  1.0959
 7974TIP3   OH223866   1.205   7.316   5.714 -0.1746  0.2569 -0.2927
 7974TIP3    H123867   1.250   7.400   5.720 -0.5080  0.4563 -0.5353
 7974TIP3    H223868   1.130   7.324   5.773  0.5376 -0.3663  0.7441
 7975TIP3   OH223869   2.317   5.626   0.274  0.0304 -0.3560  0.2265
 7975TIP3    H123870   2.322   5.550   0.217 -0.4363  1.5840 -2.6247
 7975TIP3    H223871   2.408   5.653   0.287  0.1437 -0.8580  0.4931
 7976TIP3   OH223872   3.995   2.084   6.246 -0.1876  0.2060 -0.0963
 7976TIP3    H123873   4.070   2.109   6.192 -1.5644  1.2858 -1.5968
 7976TIP3    H223874   3.988   1.989   6.235  1.7232 -0.1397  1.1667
 7977TIP3   OH223875   6.702   5.324   3.086 -0.3045  0.1045 -0.6215
 7977TIP3    H123876   6.669   5.410   3.058  0.0712  0.3652 -0.2553
 7977TIP3    H223877   6.758   5.296   3.014  2.6253  1.8501  0.8241
 7978TIP3   OH223878   6.042   1.386   4.788 -0.3500  0.5464 -0.3372
 7978TIP3    H123879   6.016   1.457   4.730 -0.2042  0.0318 -1.0433
 7978TIP3    H223880   6.064   1.429   4.871  1.3570  1.5460 -1.2449
 7979TIP3   OH223881   6.440   2.119   3.005  0.2285  0.2926  0.7194
 7979TIP3    H123882   6.361   2.065   3.003  0.3265  0.1536 -1.0400
 7979TIP3    H223883   6.505   2.064   3.050  0.0081 -0.6152 -0.0335
 7980TIP3   OH223884   7.481   2.641   0.047  0.1896 -0.2022  0.0246
 7980TIP3    H123885   7.403   2.635  -0.009 -0.1989  0.6580  0.4631
 7980TIP3    H223886   7.538   2.702   0.001  0.3157 -0.3057  0.0449
 7981TIP3   OH223887   6.548   2.431   2.721  0.7098  0.2318  0.6259
 7981TIP3    H123888   6.628   2.433   2.775  2.1183  1.1444 -1.3544
 7981TIP3    H223889   6.557   2.507   2.663 -0.4840 -0.9526 -1.2045
 7982TIP3   OH223890   8.197   2.018   5.381  0.0255  0.3733  0.2252
 7982TIP3    H123891   8.231   1.971   5.458 -1.1342 -0.1231  0.4649
 7982TIP3    H223892   8.207   2.110   5.403 -1.3477  0.2597  1.5206
 7983TIP3   OH223893   7.698   5.576   5.076 -0.7375 -0.0971  0.3660
 7983TIP3    H123894   7.617   5.594   5.123 -0.6873 -0.4429  0.5839
 7983TIP3    H223895   7.739   5.662   5.064 -0.5761 -0.0456  1.2607
 7984TIP3   OH223896   6.373   6.727   4.716  0.3304 -0.3703 -0.3437
 7984TIP3    H123897   6.353   6.692   4.803  0.0776 -0.9875 -0.6454
 7984TIP3    H223898   6.300   6.698   4.661  0.6680 -0.2883 -0.8379
 7985TIP3   OH223899   2.776   0.470   3.727  0.7060 -0.2286  0.7184
 7985TIP3    H123900   2.714   0.517   3.783 -0.4883  0.7860 -1.3230
 7985TIP3    H223901   2.860   0.514   3.743  0.0602  1.1307  0.5276
 7986TIP3   OH223902   8.087   4.754   1.938  0.3233 -0.3052 -0.7017
 7986TIP3    H123903   8.016   4.751   1.874  2.6610  1.8843 -3.7699
 7986TIP3    H223904   8.117   4.663   1.946 -2.5686 -1.2485  0.5821
 7987TIP3   OH223905   6.250   1.707   0.072  0.6166  0.0972  0.1876
 7987TIP3    H123906   6.227   1.762   0.147  1.7422  0.1811  0.4911
 7987TIP3    H223907   6.319   1.650   0.105  1.8189  0.7915 -1.0342
 7988TIP3   OH223908   3.282   2.957   5.071  0.6993  0.0276 -0.0162
 7988TIP3    H123909   3.216   2.888   5.063 -1.4525  1.9099  0.4050
 7988TIP3    H223910   3.350   2.919   5.127  0.0375 -2.0049 -0.4970
 7989TIP3   OH223911   7.074   4.811   3.953 -0.2426  0.3972  0.0909
 7989TIP3    H123912   7.122   4.805   3.870  2.1372 -0.3809  1.4276
 7989TIP3    H223913   7.042   4.901   3.955  0.0439  0.5789 -1.4572
 7990TIP3   OH223914   2.603   2.611   0.821 -0.0749 -0.2234  0.6895
 7990TIP3    H123915   2.680   2.574   0.779  0.7565  1.0054  1.0768
 7990TIP3    H223916   2.540   2.620   0.750  0.5030 -0.2870  0.1574
 7991TIP3   OH223917   8.207   5.795   6.184  0.1332 -0.3638  0.1588
 7991TIP3    H123918   8.187   5.804   6.277  0.2433  0.3681  0.1187
 7991TIP3    H223919   8.284   5.852   6.170  0.0200 -0.3366 -0.4043
 7992TIP3   OH223920   2.398   3.486   5.476 -0.2369  0.0069  0.2525
 7992TIP3    H123921   2.317   3.490   5.527  0.5986 -1.2593  1.7682
 7992TIP3    H223922   2.441   3.405   5.506  2.1011  1.1982  0.3014
 7993TIP3   OH223923   1.852   4.732   2.831  0.1151  0.6383 -0.0567
 7993TIP3    H123924   1.883   4.652   2.788 -0.4826 -0.9930  2.3401
 7993TIP3    H223925   1.930   4.786   2.842  0.6463  0.1251 -1.1030
 7994TIP3   OH223926   0.484   7.362   0.714  0.0154  0.3465 -0.0066
 7994TIP3    H123927   0.432   7.379   0.635 -0.6939 -0.5121  0.2686
 7994TIP3    H223928   0.570   7.337   0.680 -0.0324  0.8090 -0.4867
 7995TIP3   OH223929   0.442   4.655   2.108 -0.1086  0.6935  0.2013
 7995TIP3    H123930   0.349   4.657   2.086 -0.2197  0.9546  0.7059
 7995TIP3    H223931   0.472   4.745   2.096  0.3764  0.3708 -1.2128
 7996TIP3   OH223932   3.721   2.373   3.248  0.4617  0.3803  0.5879
 7996TIP3    H123933   3.662   2.442   3.215  1.0227  0.2292 -0.8206
 7996TIP3    H223934   3.792   2.370   3.183  2.2357  0.8041  2.4263
 7997TIP3   OH223935   1.614   3.940   2.128  0.4949  0.6201 -0.1031
 7997TIP3    H123936   1.552   3.954   2.057  0.3329  2.2004  0.3066
 7997TIP3    H223937   1.575   3.870   2.181  0.0441  0.2484 -0.9125
 7998TIP3   OH223938   2.171   1.358   5.660 -0.6276 -0.3585 -0.5635
 7998TIP3    H123939   2.131   1.300   5.595 -1.5225 -0.5619  0.1378
 7998TIP3    H223940   2.098   1.414   5.689  0.0466  0.5992 -0.6637
 7999TIP3   OH223941   5.108   3.887   2.816  0.3516 -0.3267 -0.2911
 7999TIP3    H123942   5.133   3.890   2.909  1.4591  0.0380 -0.5892
 7999TIP3    H223943   5.013   3.889   2.817  0.3621  0.5863  0.8122
 8000TIP3   OH223944   2.234   6.698   4.281  0.6084  0.4369 -0.1424
 8000TIP3    H123945   2.206   6.757   4.211 -1.8351  0.1680  0.5139
 8000TIP3    H223946   2.230   6.751   4.360  0.1292 -0.0982  0.2074
 8001TIP3   OH223947   1.744   2.174   3.199  0.2034 -0.2921  0.1630
 8001TIP3    H123948   1.788   2.207   3.120 -0.0039  0.3011  0.2867
 8001TIP3    H223949   1.682   2.243   3.222 -0.7914 -1.1210  0.0009
 8002TIP3   OH223950   4.767   4.657   1.273  0.1865 -0.0670 -0.1541
 8002TIP3    H123951   4.788   4.741   1.231  0.5568  0.8862  1.8325
 8002TIP3    H223952   4.683   4.671   1.315 -0.4008 -1.1545 -0.9334
 8003TIP3   OH223953   2.160   0.606   0.026 -0.2452  0.3888 -0.4311
 8003TIP3    H123954   2.239   0.649   0.058 -0.0221 -0.4281  0.1592
 8003TIP3    H223955   2.091   0.672   0.033  0.4651  1.2518 -1.3844
 8004TIP3   OH223956   0.146   3.438   0.258 -0.3746  0.2291  0.2207
 8004TIP3    H123957   0.066   3.419   0.307 -0.8512  1.9185  0.1573
 8004TIP3    H223958   0.118   3.497   0.188  1.0992  1.9880  1.0297
 8005TIP3   OH223959   3.978   2.097   2.967 -0.1564  0.4591  0.0868
 8005TIP3    H123960   4.019   2.110   3.053 -0.9782  0.8248  0.4328
 8005TIP3    H223961   4.030   2.029   2.926 -0.1354 -0.1750  1.1335
 8006TIP3   OH223962   0.723   7.023   3.535 -0.0065 -0.0352 -0.0794
 8006TIP3    H123963   0.742   6.930   3.549 -0.7094 -0.1191  0.4124
 8006TIP3    H223964   0.808   7.062   3.516  0.3282 -0.7453 -0.0962
 8007TIP3   OH223965   7.681   7.357   3.891 -0.6529 -0.2246 -0.2381
 8007TIP3    H123966   7.612   7.323   3.835 -2.0369 -0.1731  1.3673
 8007TIP3    H223967   7.682   7.299   3.967 -0.7835  1.3148  0.9973
 8008TIP3   OH223968   5.834   2.637   0.950 -0.1535 -0.7468  0.0074
 8008TIP3    H123969   5.790   2.656   0.867 -1.1768 -0.1986  0.6540
 8008TIP3    H223970   5.855   2.544   0.945 -1.9993 -1.1988 -0.0734
 8009TIP3   OH223971   6.230   0.293   1.665  0.0119 -0.1469  0.4283
 8009TIP3    H123972   6.193   0.238   1.596  0.2947  0.0900  0.0783
 8009TIP3    H223973   6.291   0.235   1.711 -0.8846 -0.5715  1.0923
 8010TIP3   OH223974   4.349   6.670   2.530 -0.5129  0.0875  0.1658
 8010TIP3    H123975   4.420   6.617   2.493 -0.6742  0.1358 -0.2139
 8010TIP3    H223976   4.276   6.658   2.470 -0.1550  1.7603 -0.6420
 8011TIP3   OH223977   6.391   5.072   5.648 -0.0420 -0.6612  0.2549
 8011TIP3    H123978   6.410   5.143   5.587 -2.4471  0.1657  0.3842
 8011TIP3    H223979   6.471   5.020   5.649  1.0223  0.8166 -1.5070
 8012TIP3   OH223980   1.184   7.426   1.196 -0.3029  0.1607  0.0616
 8012TIP3    H123981   1.201   7.391   1.284 -1.2034  1.9666  0.9945
 8012TIP3    H223982   1.213   7.517   1.200 -1.3554  0.5721 -1.1823
 8013TIP3   OH223983   7.887   6.810   1.541  0.4162 -0.3375 -0.2629
 8013TIP3    H123984   7.881   6.842   1.451 -2.2606  0.2478  0.0299
 8013TIP3    H223985   7.933   6.727   1.534  2.4171  0.8125 -1.8054
 8014TIP3   OH223986   6.304   5.671   3.584  0.1268 -0.2585 -0.2691
 8014TIP3    H123987   6.345   5.633   3.661 -1.6927 -1.4213  0.1785
 8014TIP3    H223988   6.247   5.602   3.550 -2.2639  1.5482 -0.2415
 8015TIP3   OH223989   0.584   2.847   1.712 -0.4410 -0.1250 -0.2714
 8015TIP3    H123990   0.596   2.861   1.618 -1.2521  1.0145 -0.2186
 8015TIP3    H223991   0.579   2.752   1.722  1.2583 -0.3442 -1.1645
 8016TIP3   OH223992   3.618   3.453   0.271  0.2232 -0.3410 -0.1071
 8016TIP3    H123993   3.641   3.534   0.226  1.3044 -0.1748  0.6974
 8016TIP3    H223994   3.627   3.385   0.205  0.1384  0.0928 -0.5685
 8017TIP3   OH223995   5.799   6.743   1.703 -0.4478 -0.0261 -0.2230
 8017TIP3    H123996   5.847   6.726   1.783 -0.0272  0.4972 -0.3601
 8017TIP3    H223997   5.784   6.838   1.704  0.2081  0.0968 -1.1181
 8018TIP3   OH223998   6.811   4.945   0.869 -0.1520  0.0807 -0.1870
 8018TIP3    H123999   6.828   4.971   0.779  0.8440  1.0680  0.2636
 8018TIP3    H224000   6.716   4.942   0.877 -0.2433  0.0537 -1.2401
 8019TIP3   OH224001   0.815   5.984   4.908 -0.1373 -0.1326 -0.2353
 8019TIP3    H124002   0.826   6.037   4.987 -2.0442 -1.5998  1.1006
 8019TIP3    H224003   0.871   5.908   4.923  0.5866  0.2325 -0.9801
 8020TIP3   OH224004   4.246   4.630   6.402  0.6551 -0.5324 -0.3139
 8020TIP3    H124005   4.325   4.668   6.364  2.0304 -2.5972  0.2824
 8020TIP3    H224006   4.268   4.613   6.493 -0.8495 -0.2655  0.1349
 8021TIP3   OH224007   1.826   1.968   4.448  0.6157  0.7649 -0.1927
 8021TIP3    H124008   1.741   1.947   4.487  0.3741  2.1176  0.0814
 8021TIP3    H224009   1.871   1.884   4.441 -0.3229  0.1623  0.6700
 8022TIP3   OH224010   3.544   1.255   4.922 -0.5427 -0.0940 -0.1050
 8022TIP3    H124011   3.459   1.240   4.963 -0.7025  0.0494 -0.3840
 8022TIP3    H224012   3.535   1.223   4.833  0.7903 -3.4906  0.8111
 8023TIP3   OH224013   5.929   5.048   2.019  0.0235  0.0850 -0.0906
 8023TIP3    H124014   6.019   5.049   2.050  0.0528 -1.0412 -0.0994
 8023TIP3    H224015   5.878   5.083   2.092  0.7585  4.3279 -1.3227
 8024TIP3   OH224016   8.251   2.551   6.404  0.5187  0.2866  0.0882
 8024TIP3    H124017   8.265   2.478   6.465 -0.7206  0.1258  0.1956
 8024TIP3    H224018   8.289   2.521   6.321 -1.7871 -1.3752 -0.4592
 8025TIP3   OH224019   0.722   0.593   6.080 -0.3565  0.4166 -0.5130
 8025TIP3    H124020   0.648   0.608   6.022 -0.0602  1.9801 -0.5348
 8025TIP3    H224021   0.693   0.626   6.165 -0.1592 -0.2198 -0.1951
 8026TIP3   OH224022   3.425   3.563   2.718 -0.0590 -0.1888 -0.4430
 8026TIP3    H124023   3.454   3.517   2.797 -0.1842  1.3625  0.5746
 8026TIP3    H224024   3.400   3.650   2.750 -0.4299  0.3735 -2.1604
 8027TIP3   OH224025   7.032   4.352   3.853  0.3563 -0.1307  0.2350
 8027TIP3    H124026   7.023   4.412   3.927  0.5804  0.8555 -0.5281
 8027TIP3    H224027   6.942   4.325   3.834 -0.0566  1.8366 -0.9123
 8028TIP3   OH224028   1.511   7.094   4.486 -0.2552  0.1862 -0.4065
 8028TIP3    H124029   1.564   7.088   4.565  2.0137 -0.3505 -1.8862
 8028TIP3    H224030   1.534   7.017   4.435  1.5605  2.5152 -3.4173
 8029TIP3   OH224031   6.101   6.025   0.295 -0.4459  0.2564  0.0707
 8029TIP3    H124032   6.064   6.114   0.296  0.0363  0.4794 -0.8923
 8029TIP3    H224033   6.029   5.970   0.264  0.0937  0.7583 -2.2958
 8030TIP3   OH224034   7.114   1.612   5.763  0.1815  0.2352 -0.5851
 8030TIP3    H124035   7.151   1.571   5.842  1.7403  0.2429 -1.2861
 8030TIP3    H224036   7.043   1.667   5.796  0.1035 -0.5867  0.6996
 8031TIP3   OH224037   2.461   2.569   6.531  0.3470 -0.1064 -0.2301
 8031TIP3    H124038   2.520   2.528   6.467  0.0311 -0.8516 -0.0581
 8031TIP3    H224039   2.386   2.598   6.480  1.5996  2.4993 -0.7619
 8032TIP3   OH224040   1.972   5.575   0.487  0.7770 -0.2623  0.0446
 8032TIP3    H124041   1.946   5.552   0.576  2.8182  2.4668  1.5007
 8032TIP3    H224042   1.896   5.620   0.450  0.0268 -1.1388  0.5036
 8033TIP3   OH224043   7.328   7.437   2.860  0.1786 -0.5515  0.0705
 8033TIP3    H124044   7.238   7.424   2.832  0.1390 -0.5136  0.1814
 8033TIP3    H224045   7.376   7.454   2.778 -0.0226  0.0329  0.0638
 8034TIP3   OH224046   1.899   6.001   5.086  0.2149  0.4194 -0.2290
 8034TIP3    H124047   1.980   6.033   5.048 -0.4254 -0.4136 -2.4680
 8034TIP3    H224048   1.913   5.907   5.097  0.3555  0.6177  1.6547
 8035TIP3   OH224049   4.893   1.274   6.231 -0.8186 -0.2024 -0.3202
 8035TIP3    H124050   4.815   1.230   6.265 -1.2650  0.7474 -0.1063
 8035TIP3    H224051   4.954   1.275   6.305 -0.3303 -1.5043 -0.6610
 8036TIP3   OH224052   4.067   3.859   5.516 -0.3032 -0.5185 -0.5110
 8036TIP3    H124053   4.064   3.844   5.610 -0.9120  0.0267 -0.4381
 8036TIP3    H224054   4.074   3.771   5.478 -0.2841 -0.7531  0.0305
 8037TIP3   OH224055   4.104   0.632   5.291  0.5486 -0.3872  0.0747
 8037TIP3    H124056   4.087   0.709   5.345 -0.5875  0.4176 -1.3702
 8037TIP3    H224057   4.128   0.563   5.354 -2.5308 -0.0318  1.8351
 8038TIP3   OH224058   2.669   2.574   2.650 -0.3701 -0.0958 -0.4585
 8038TIP3    H124059   2.661   2.526   2.568 -1.7132 -1.8351  0.6226
 8038TIP3    H224060   2.594   2.634   2.650  0.8307  1.4656 -1.4236
 8039TIP3   OH224061   6.262   1.376   2.984  0.6622 -0.3395  0.3378
 8039TIP3    H124062   6.302   1.401   3.067  0.8153 -3.1601  1.2054
 8039TIP3    H224063   6.169   1.366   3.005  0.2040  1.6314 -0.5548
 8040TIP3   OH224064   5.484   0.908   2.298 -0.6812  0.2956  0.1830
 8040TIP3    H124065   5.542   0.970   2.255 -2.3570  0.9219 -1.3054
 8040TIP3    H224066   5.436   0.866   2.227 -3.1106  0.8976  1.3382
 8041TIP3   OH224067   0.262   3.116   4.499 -0.2141 -0.4321 -0.5986
 8041TIP3    H124068   0.276   3.023   4.519  1.6458 -0.0755 -0.0657
 8041TIP3    H224069   0.350   3.154   4.500 -1.0485  1.5821  0.3800
 8042TIP3   OH224070   1.007   0.506   2.887 -0.5293 -0.3421 -0.1817
 8042TIP3    H124071   0.964   0.421   2.893  0.2729 -0.8508 -1.2110
 8042TIP3    H224072   1.075   0.503   2.954 -1.1489 -0.0954  0.4734
 8043TIP3   OH224073   0.372   0.202   4.323  0.3278 -0.0580  0.5917
 8043TIP3    H124074   0.361   0.164   4.410  3.1991 -2.0106  0.2248
 8043TIP3    H224075   0.434   0.274   4.337  1.3484 -0.8274  0.0877
 8044TIP3   OH224076   3.714   3.042   0.142  0.2439 -0.1351  0.2055
 8044TIP3    H124077   3.701   2.971   0.205  1.8754 -0.8909 -0.2446
 8044TIP3    H224078   3.796   3.083   0.169 -0.1585  0.9457 -0.1556
 8045TIP3   OH224079   7.310   3.419   2.199 -0.2388  0.2590  0.2130
 8045TIP3    H124080   7.326   3.497   2.253  0.7173 -0.4065  0.9306
 8045TIP3    H224081   7.341   3.347   2.253 -0.0866 -0.5211 -0.8985
 8046TIP3   OH224082   0.769   4.760   5.442  0.3344  0.6203  0.7327
 8046TIP3    H124083   0.859   4.790   5.429  1.0340 -0.9401  1.7441
 8046TIP3    H224084   0.777   4.667   5.460 -1.6950 -0.0978 -1.5448
 8047TIP3   OH224085   6.109   2.556   4.892  0.1792 -0.1449 -0.1515
 8047TIP3    H124086   6.026   2.581   4.934  1.0090  1.0572  0.8673
 8047TIP3    H224087   6.152   2.500   4.957  0.1683 -0.7900 -0.6917
 8048TIP3   OH224088   7.450   2.370   1.682 -0.5222  0.6114  0.8297
 8048TIP3    H124089   7.403   2.447   1.648 -0.9905  0.2222  0.5782
 8048TIP3    H224090   7.542   2.393   1.674 -0.6087  0.5825 -0.6721
 8049TIP3   OH224091   2.442   7.328   2.248  0.4134  0.0577 -0.6738
 8049TIP3    H124092   2.401   7.376   2.176 -0.3240 -0.6041 -0.7041
 8049TIP3    H224093   2.519   7.287   2.207 -0.4791 -1.0225 -1.3088
 8050TIP3   OH224094   0.505   4.098   5.786  0.4039  0.3810 -0.1127
 8050TIP3    H124095   0.474   4.058   5.867 -0.0317 -0.3878 -0.6435
 8050TIP3    H224096   0.439   4.164   5.764 -0.4042 -0.6279 -0.7631
 8051TIP3   OH224097   4.115   1.758   1.888 -0.1799  0.2729  0.5741
 8051TIP3    H124098   4.028   1.777   1.922 -1.2278 -1.4959 -0.8853
 8051TIP3    H224099   4.135   1.670   1.921 -0.4622 -0.7402 -1.7190
 8052TIP3   OH224100   3.000   3.087   0.713  0.1873 -0.4591  0.1039
 8052TIP3    H124101   2.957   3.028   0.775 -1.6368 -0.1047 -0.7527
 8052TIP3    H224102   3.037   3.156   0.768 -0.7540 -0.5343  0.8650
 8053TIP3   OH224103   3.191   5.809   5.610 -0.3325  0.0069  0.6808
 8053TIP3    H124104   3.137   5.783   5.535 -0.9760  1.2172  0.7002
 8053TIP3    H224105   3.279   5.781   5.587 -0.7342 -0.7281  0.0110
 8054TIP3   OH224106   4.773   6.146   2.507  0.5862  0.5323 -0.4823
 8054TIP3    H124107   4.859   6.180   2.482  0.5012  1.8206  0.8354
 8054TIP3    H224108   4.752   6.191   2.589 -0.9913 -0.3609 -0.3512
 8055TIP3   OH224109   0.907   6.637   2.961 -0.4765  0.3510  0.2484
 8055TIP3    H124110   0.846   6.704   2.928  0.6975  0.9825 -0.7590
 8055TIP3    H224111   0.991   6.660   2.920  0.0912 -1.4081  0.3491
 8056TIP3   OH224112   4.564   0.273   5.727  0.1145  0.3269  0.1234
 8056TIP3    H124113   4.572   0.234   5.814 -0.7435 -1.0338 -0.3738
 8056TIP3    H224114   4.654   0.277   5.694  0.2990 -0.5485  0.4898
 8057TIP3   OH224115   5.157   3.260   3.186  0.4180 -0.8071  0.4799
 8057TIP3    H124116   5.090   3.264   3.118 -0.1586 -0.2710  1.0627
 8057TIP3    H224117   5.214   3.187   3.160 -0.5311 -1.4256  0.1094
 8058TIP3   OH224118   5.393   5.033   6.494 -0.8651  0.4556 -0.9383
 8058TIP3    H124119   5.380   5.113   6.544 -1.3227 -1.6126  2.6027
 8058TIP3    H224120   5.487   5.031   6.475 -0.3747  0.6582  1.2458
 8059TIP3   OH224121   8.117   6.065   4.777  0.1796  0.4403 -0.3775
 8059TIP3    H124122   8.073   6.145   4.804  0.4116  1.0504 -1.7145
 8059TIP3    H224123   8.047   6.006   4.751  0.0556  0.6011 -0.4040
 8060TIP3   OH224124   4.689   4.331   5.656 -0.0777  0.0075  0.1871
 8060TIP3    H124125   4.727   4.374   5.733  2.2767  1.0906 -1.4834
 8060TIP3    H224126   4.679   4.240   5.682  2.9457 -0.1702  1.0654
 8061TIP3   OH224127   4.097   5.866   2.394  0.0380 -0.1533  0.2474
 8061TIP3    H124128   4.081   5.852   2.301 -1.4487 -0.1261  0.4727
 8061TIP3    H224129   4.191   5.851   2.405  0.2985  0.2045 -1.3103
 8062TIP3   OH224130   4.448   3.689   0.758 -0.7972  0.1296  0.6291
 8062TIP3    H124131   4.464   3.595   0.749  1.3225  0.3723  1.2871
 8062TIP3    H224132   4.396   3.697   0.838 -1.9191 -0.5293 -0.0093
 8063TIP3   OH224133   5.414   2.140   6.052  0.1033  0.0092  0.3616
 8063TIP3    H124134   5.374   2.220   6.088 -0.9066 -0.6278  0.6788
 8063TIP3    H224135   5.356   2.115   5.980  0.8965  0.0367 -0.2988
 8064TIP3   OH224136   6.145   0.409   2.635 -0.2170  0.3066 -0.0046
 8064TIP3    H124137   6.056   0.374   2.625 -0.4780  0.4359  1.5623
 8064TIP3    H224138   6.197   0.332   2.659  0.3905 -0.0130 -2.1741
 8065TIP3   OH224139   6.814   2.429   0.171  0.1732  0.0668 -0.5866
 8065TIP3    H124140   6.824   2.515   0.211  2.8506 -0.6287  0.4465
 8065TIP3    H224141   6.848   2.440   0.082 -1.0615  0.4258 -1.0356
 8066TIP3   OH224142   6.378   6.972   1.115 -0.0036 -0.1446  0.5704
 8066TIP3    H124143   6.452   7.022   1.082 -0.1106  0.2831  0.9741
 8066TIP3    H224144   6.351   7.019   1.193 -0.7620 -0.2488  0.3724
 8067TIP3   OH224145   2.063   4.005   4.027 -0.2911  0.9644 -0.4178
 8067TIP3    H124146   2.121   3.955   4.085  0.4100  0.3895 -1.5857
 8067TIP3    H224147   1.995   3.942   4.002 -1.1815  1.5030  0.5705
 8068TIP3   OH224148   8.075   1.877   6.090 -0.1209 -0.4371 -0.3930
 8068TIP3    H124149   8.027   1.799   6.063 -1.3652 -0.2860  1.2008
 8068TIP3    H224150   8.046   1.946   6.031 -0.4289 -0.7717 -0.6342
 8069TIP3   OH224151   3.278   7.719   3.106 -1.0710 -0.1033 -0.2842
 8069TIP3    H124152   3.230   7.756   3.180 -1.1633  0.5882 -0.6753
 8069TIP3    H224153   3.298   7.795   3.051 -0.3176 -0.5047 -0.5758
 8070TIP3   OH224154   3.565   2.090   4.292 -0.0155 -0.0752 -0.8416
 8070TIP3    H124155   3.610   2.030   4.351 -1.9598 -1.6552 -0.8893
 8070TIP3    H224156   3.587   2.058   4.204  0.0493  0.1286 -0.9011
 8071TIP3   OH224157   1.217   5.834   3.297  0.1700  0.6632  0.0349
 8071TIP3    H124158   1.294   5.829   3.353  0.0421 -0.7804  0.1146
 8071TIP3    H224159   1.202   5.928   3.286  1.8300  0.9844  0.1596
 8072TIP3   OH224160   2.400   4.612   3.502  0.0682 -0.1764  0.3136
 8072TIP3    H124161   2.347   4.536   3.527 -1.4143  0.2900 -1.2119
 8072TIP3    H224162   2.416   4.657   3.585 -0.3134 -1.3379  1.0576
 8073TIP3   OH224163   0.987   7.072   3.475  0.2326 -0.5684  0.2358
 8073TIP3    H124164   1.065   7.127   3.486  0.4346 -0.7646 -0.1872
 8073TIP3    H224165   1.005   7.022   3.395  0.1480 -1.4175  0.7421
 8074TIP3   OH224166   7.732   2.067   3.894 -0.6882  0.0729 -0.0364
 8074TIP3    H124167   7.720   2.155   3.857  0.4615 -0.5748 -2.1043
 8074TIP3    H224168   7.815   2.072   3.941 -0.4844  0.0287 -0.3882
 8075TIP3   OH224169   5.012   0.948   6.409  0.2605  0.5991  0.0068
 8075TIP3    H124170   5.050   0.985   6.488  0.4453  1.1488 -0.3303
 8075TIP3    H224171   4.920   0.934   6.430  0.4492  0.1249  0.5296
 8076TIP3   OH224172   4.206   1.323   3.486 -0.4138 -0.1767  0.3258
 8076TIP3    H124173   4.207   1.299   3.394 -1.0627 -1.2779  0.5801
 8076TIP3    H224174   4.291   1.294   3.519 -0.5738 -0.7052  0.2812
 8077TIP3   OH224175   5.374   5.328   5.287  0.2418  0.3547  0.4595
 8077TIP3    H124176   5.316   5.302   5.358  0.4334  0.0769  0.5156
 8077TIP3    H224177   5.399   5.245   5.245 -0.7978  0.5809 -0.6690
 8078TIP3   OH224178   6.700   5.601   3.745  0.3388  0.1494  0.0345
 8078TIP3    H124179   6.788   5.616   3.777  0.4866  0.2543 -0.4130
 8078TIP3    H224180   6.710   5.587   3.651 -0.1126  0.1183 -0.0146
 8079TIP3   OH224181   5.156   2.864   3.867 -0.3290 -0.6430 -0.0601
 8079TIP3    H124182   5.218   2.851   3.796 -1.7645  1.4611 -1.8382
 8079TIP3    H224183   5.205   2.911   3.934  0.1689  0.5102 -1.1997
 8080TIP3   OH224184   1.808   5.724   0.353 -0.4648  0.2315  0.4393
 8080TIP3    H124185   1.795   5.672   0.274 -2.8782 -0.7163  1.3795
 8080TIP3    H224186   1.776   5.811   0.331  0.8424  0.5750 -0.2222
 8081TIP3   OH224187   2.335   4.767   6.195 -0.2830 -0.2328 -0.0273
 8081TIP3    H124188   2.390   4.700   6.155 -1.9106 -0.3282 -2.2672
 8081TIP3    H224189   2.334   4.838   6.131 -0.7824  0.8023  1.0856
 8082TIP3   OH224190   0.942   3.878   0.826  0.5457 -0.0722 -0.2163
 8082TIP3    H124191   0.850   3.893   0.807  0.9728  2.3393 -0.6565
 8082TIP3    H224192   0.942   3.809   0.893 -1.4742 -1.0246 -1.1272
 8083TIP3   OH224193   7.409   6.130   6.683  0.1211 -0.0414 -0.9753
 8083TIP3    H124194   7.380   6.054   6.632 -0.6598  0.4270 -1.2380
 8083TIP3    H224195   7.395   6.205   6.625  0.7547  0.3323 -0.6648
 8084TIP3   OH224196   1.832   4.655   6.700  0.6428 -0.4601 -0.1890
 8084TIP3    H124197   1.912   4.707   6.692  1.4567 -1.8187 -1.4869
 8084TIP3    H224198   1.857   4.568   6.669 -1.1265 -1.1614  0.2136
 8085TIP3   OH224199   0.791   0.774   5.135 -0.0968 -0.2142  0.2481
 8085TIP3    H124200   0.730   0.810   5.070 -0.0567  1.5443  1.1274
 8085TIP3    H224201   0.761   0.811   5.218  0.1875 -1.9791  1.1803
 8086TIP3   OH224202   2.052   2.825   1.897 -0.3293 -0.4107  0.0472
 8086TIP3    H124203   2.041   2.732   1.918 -0.9964  0.0147  1.7216
 8086TIP3    H224204   1.965   2.862   1.904  0.0479  0.4830  0.1616
 8087TIP3   OH224205   3.408   2.674   2.651 -0.2256  0.5459 -0.0260
 8087TIP3    H124206   3.385   2.736   2.720 -1.5013 -0.3998  0.4407
 8087TIP3    H224207   3.440   2.597   2.697 -0.8419  0.0012 -0.4895
 8088TIP3   OH224208   6.943   2.654   3.302  0.0495 -0.4069  0.0529
 8088TIP3    H124209   6.916   2.713   3.372  2.7072 -1.1212  1.8201
 8088TIP3    H224210   6.861   2.620   3.266 -1.6469  4.0340 -0.9509
 8089TIP3   OH224211   3.609   0.642   1.570  0.5631 -0.2720 -0.0065
 8089TIP3    H124212   3.704   0.645   1.576  0.6543 -1.9434 -0.3468
 8089TIP3    H224213   3.581   0.729   1.600  2.2090  0.5258 -0.6488
 8090TIP3   OH224214   0.688   0.175   1.858  0.9727  0.2890  0.3538
 8090TIP3    H124215   0.748   0.247   1.876  1.0724  0.0802  0.8665
 8090TIP3    H224216   0.736   0.118   1.798  0.6675  0.9433 -0.5553
 8091TIP3   OH224217   7.939   7.590   6.735 -0.0497 -0.0906  0.4815
 8091TIP3    H124218   7.895   7.518   6.782 -0.9362 -0.1639 -0.4294
 8091TIP3    H224219   7.920   7.574   6.643  4.1792 -1.6863 -0.3542
 8092TIP3   OH224220   6.427   6.231   0.556  0.4928  0.6383 -0.0626
 8092TIP3    H124221   6.450   6.299   0.619  0.0403  0.1051  0.7010
 8092TIP3    H224222   6.443   6.149   0.603  0.7986  0.2161 -0.8832
 8093TIP3   OH224223   2.861   5.595   4.679  0.1003  0.1140 -0.4338
 8093TIP3    H124224   2.851   5.571   4.771  2.4438  1.2302  0.2000
 8093TIP3    H224225   2.813   5.677   4.670  1.4769  1.0561  0.3711
 8094TIP3   OH224226   1.621   5.791   5.152 -0.1516 -1.0318  0.1718
 8094TIP3    H124227   1.555   5.833   5.098 -0.8291 -2.7203 -0.3920
 8094TIP3    H224228   1.691   5.769   5.091  0.3018 -0.5343  0.5030
 8095TIP3   OH224229   3.845   2.770   0.940  0.4551  0.1006  0.2668
 8095TIP3    H124230   3.841   2.825   0.862  1.7437  1.5287  1.1562
 8095TIP3    H224231   3.823   2.828   1.012 -0.0196 -1.0230  1.0641
 8096TIP3   OH224232   2.441   1.739   0.197 -0.4682 -0.4612  0.5651
 8096TIP3    H124233   2.356   1.782   0.210 -1.1660 -1.8602  0.7997
 8096TIP3    H224234   2.426   1.675   0.128  0.7786  0.2117 -0.3868
 8097TIP3   OH224235   4.715   1.274   1.641  0.4113 -0.5126  0.2558
 8097TIP3    H124236   4.683   1.183   1.644  0.3699 -0.5466 -0.7941
 8097TIP3    H224237   4.661   1.315   1.574  1.1432  0.0058 -0.0209
 8098TIP3   OH224238   3.696   2.307   3.707 -0.0685  0.2126  0.6538
 8098TIP3    H124239   3.644   2.323   3.786  0.9380 -0.2253  1.4288
 8098TIP3    H224240   3.638   2.330   3.635 -0.9484  0.8064  1.5273
 8099TIP3   OH224241   4.704   2.044   1.746  0.2313 -0.2437  0.2070
 8099TIP3    H124242   4.746   2.037   1.832 -1.9189 -0.2251  1.3459
 8099TIP3    H224243   4.664   2.131   1.747  0.1788 -0.2494 -0.8265
 8100TIP3   OH224244   3.203   6.458   1.524  0.0087  0.3039 -0.2657
 8100TIP3    H124245   3.226   6.550   1.535  2.0414 -0.3611  2.0020
 8100TIP3    H224246   3.109   6.454   1.541  0.1944  1.7734  1.3914
 8101TIP3   OH224247   6.082   0.830   1.087  0.1656  0.1835  0.1850
 8101TIP3    H124248   6.070   0.925   1.082  0.9024  0.2315 -0.9097
 8101TIP3    H224249   6.005   0.794   1.044  0.2314  0.3000 -0.0304
 8102TIP3   OH224250   2.331   1.852   4.978 -0.2476  0.6836  0.2853
 8102TIP3    H124251   2.326   1.762   5.011 -0.4086  0.5841 -0.0054
 8102TIP3    H224252   2.254   1.895   5.015 -0.5756  0.4986 -0.1744
 8103TIP3   OH224253   6.192   7.148   6.103  0.6900  0.3122  0.5105
 8103TIP3    H124254   6.184   7.056   6.128  2.1886 -0.1569 -0.6011
 8103TIP3    H224255   6.103   7.173   6.076  0.5671 -1.2507 -0.6384
 8104TIP3   OH224256   4.547   4.588   3.235  0.2177 -0.6411  0.2239
 8104TIP3    H124257   4.609   4.610   3.305 -0.6834 -0.3242  0.9399
 8104TIP3    H224258   4.483   4.531   3.277  0.5479 -1.7731 -0.7523
 8105TIP3   OH224259   4.409   5.991   0.843  0.0564  0.1985  0.3862
 8105TIP3    H124260   4.463   5.915   0.864 -0.8852 -0.4337  0.6132
 8105TIP3    H224261   4.378   6.023   0.928 -0.8872 -0.1930  0.2039
 8106TIP3   OH224262   3.089   6.715   5.247  0.1957 -0.3638  0.3081
 8106TIP3    H124263   3.097   6.733   5.153  1.9536 -0.6191  0.3699
 8106TIP3    H224264   3.070   6.622   5.251 -1.1574 -0.1126  0.1956
 8107TIP3   OH224265   7.650   7.271   5.005 -0.2667 -0.2731 -0.2920
 8107TIP3    H124266   7.610   7.212   4.941 -0.4831 -0.4583  0.0058
 8107TIP3    H224267   7.663   7.216   5.082  0.4426 -0.1787 -0.3372
 8108TIP3   OH224268   8.043   7.490   3.136 -0.2908 -0.2955  1.2031
 8108TIP3    H124269   7.983   7.497   3.210 -0.2368 -0.9800  1.3119
 8108TIP3    H224270   8.042   7.397   3.113 -0.1137 -0.1273  0.5069
 8109TIP3   OH224271   8.072   1.203   2.448  0.1832  0.1810 -0.2130
 8109TIP3    H124272   8.092   1.236   2.360  0.6224  0.4448 -0.0228
 8109TIP3    H224273   8.065   1.108   2.438  0.0287  0.2305 -0.5707
 8110TIP3   OH224274  -0.003   5.104   0.237  0.1138  0.0323 -0.4026
 8110TIP3    H124275  -0.035   5.191   0.211 -1.2405 -0.2191  0.3294
 8110TIP3    H224276   0.065   5.122   0.302  1.1474  0.5738 -1.5927
 8111TIP3   OH224277   4.657   7.603   5.599  0.2638  0.2420 -0.2093
 8111TIP3    H124278   4.630   7.689   5.566 -0.2510  1.3543  2.7786
 8111TIP3    H224279   4.578   7.565   5.637  1.0913 -0.1398  1.2339
 8112TIP3   OH224280   8.045   1.319   5.762  0.4721  0.1287 -1.0534
 8112TIP3    H124281   7.972   1.299   5.821 -0.6930  0.5491 -2.2989
 8112TIP3    H224282   8.036   1.413   5.744  0.5604 -0.0775 -2.2193
 8113TIP3   OH224283   3.208   6.510   3.035  0.0907  0.6151 -0.1158
 8113TIP3    H124284   3.154   6.439   3.068  2.0434 -0.5571  0.7783
 8113TIP3    H224285   3.231   6.561   3.113 -0.9074  1.9891 -0.6812
 8114TIP3   OH224286   2.082   0.175   4.211 -0.0505 -0.3259  0.4537
 8114TIP3    H124287   2.108   0.104   4.153 -2.4118  0.5629 -1.8986
 8114TIP3    H224288   2.120   0.253   4.171 -1.6292  0.2965  0.1112
 8115TIP3   OH224289   3.031   4.548   5.540 -0.3222 -0.4679 -0.6059
 8115TIP3    H124290   3.033   4.454   5.522 -0.0250 -0.6620  0.3842
 8115TIP3    H224291   3.096   4.586   5.481 -0.9695 -0.7793 -1.5370
 8116TIP3   OH224292   1.009   0.933   3.843  0.0098 -0.2051  0.1648
 8116TIP3    H124293   0.937   0.878   3.811  0.0752  1.0265 -2.3427
 8116TIP3    H224294   0.993   1.018   3.801  2.5419  0.2887  0.0881
 8117TIP3   OH224295   6.215   0.058   2.551  0.3330 -0.1670 -0.1795
 8117TIP3    H124296   6.166   0.001   2.492 -1.6361  0.7895  0.4372
 8117TIP3    H224297   6.224   0.007   2.632  0.6313 -0.4427 -0.3804
 8118TIP3   OH224298   6.099   1.954   5.895 -0.1702 -0.1422 -0.8714
 8118TIP3    H124299   6.157   1.892   5.850 -1.6295 -1.4150 -1.0416
 8118TIP3    H224300   6.128   2.040   5.863  0.3102 -0.8726 -2.5140
 8119TIP3   OH224301   0.473   3.916   3.135 -0.6143  0.3422 -0.4264
 8119TIP3    H124302   0.511   3.959   3.212 -1.8106  1.9957 -0.7019
 8119TIP3    H224303   0.541   3.923   3.068  0.0336 -0.1739  0.1537
 8120TIP3   OH224304   3.286   5.255   0.874  0.8467 -0.4103 -0.4451
 8120TIP3    H124305   3.287   5.184   0.809 -0.1803 -2.9913  2.1693
 8120TIP3    H224306   3.200   5.247   0.916  0.3826  2.9417 -0.4835
 8121TIP3   OH224307   2.555   2.511   0.148 -0.7512  0.2979 -0.0537
 8121TIP3    H124308   2.539   2.432   0.200 -0.0831 -0.3062 -0.7367
 8121TIP3    H224309   2.520   2.583   0.201 -0.8760 -0.3969  0.8223
 8122TIP3   OH224310   6.934   5.758   1.845  0.2776 -0.5572 -0.3319
 8122TIP3    H124311   6.930   5.840   1.798  0.2984 -0.1027  0.4359
 8122TIP3    H224312   6.846   5.746   1.881  0.7653  0.1702  1.2311
 8123TIP3   OH224313   1.362   5.103   5.024 -0.0371 -0.1935 -0.6965
 8123TIP3    H124314   1.321   5.017   5.025  1.2596 -0.8731  1.7431
 8123TIP3    H224315   1.455   5.085   5.018  0.2051  1.0925 -1.0453
 8124TIP3   OH224316   6.319   3.308   6.268 -0.9076 -0.3657 -0.3068
 8124TIP3    H124317   6.249   3.300   6.203 -0.8142 -0.2122 -0.4268
 8124TIP3    H224318   6.395   3.337   6.217 -0.6834 -0.7991 -0.2240
 8125TIP3   OH224319   1.240   6.058   1.184  0.3339  0.0600 -0.1385
 8125TIP3    H124320   1.235   6.008   1.103 -0.1999  0.5762 -0.4301
 8125TIP3    H224321   1.150   6.088   1.200 -0.2050 -2.3910  2.1655
 8126TIP3   OH224322   4.154   0.114   4.337 -0.3287 -0.0067  0.4070
 8126TIP3    H124323   4.095   0.127   4.262  0.0904 -1.3025 -0.1775
 8126TIP3    H224324   4.101   0.067   4.401  0.5219 -3.0659 -0.9234
 8127TIP3   OH224325   4.411   3.159   0.370 -0.1184 -0.3883  0.1328
 8127TIP3    H124326   4.386   3.069   0.347  0.7544 -0.8622  0.9778
 8127TIP3    H224327   4.419   3.158   0.465 -0.1691  0.6115  0.1513
 8128TIP3   OH224328   0.466   0.118   2.186  0.0587  0.2942  0.5535
 8128TIP3    H124329   0.421   0.037   2.210  0.0286  0.3187  0.5809
 8128TIP3    H224330   0.426   0.144   2.103 -0.6469  0.8188  1.0481
 8129TIP3   OH224331   2.350   1.883   4.074  0.6501 -0.4514 -0.7233
 8129TIP3    H124332   2.303   1.843   4.001 -1.4370  1.9031 -0.7908
 8129TIP3    H224333   2.385   1.964   4.039  0.4870  0.2292  0.6130
 8130TIP3   OH224334   5.068   4.941   3.013  0.7264  0.3606 -0.1794
 8130TIP3    H124335   4.987   4.986   2.993 -0.4297 -1.3582  0.4167
 8130TIP3    H224336   5.105   4.988   3.088 -0.2597  0.5224  0.2103
 8131TIP3   OH224337   3.367   6.830   4.451  0.0842  0.5607 -0.0388
 8131TIP3    H124338   3.339   6.741   4.472  0.8466  0.3666  0.1789
 8131TIP3    H224339   3.348   6.840   4.357  0.8756 -0.1826 -0.2922
 8132TIP3   OH224340   5.364   1.204   0.944  0.4149  0.3627  0.1338
 8132TIP3    H124341   5.367   1.114   0.977  0.8608  0.2759 -0.1381
 8132TIP3    H224342   5.284   1.241   0.983  0.4372 -0.0258  0.5553
 8133TIP3   OH224343   6.948   6.986   2.755  0.2708  0.1179 -0.3297
 8133TIP3    H124344   7.034   6.960   2.722  0.5054  2.2124 -1.5678
 8133TIP3    H224345   6.894   6.907   2.748  2.1996 -1.3938  1.0107
 8134TIP3   OH224346   2.255   7.400   5.288  0.6256  0.3612  0.0738
 8134TIP3    H124347   2.178   7.454   5.306 -1.1079 -1.3878 -1.6820
 8134TIP3    H224348   2.299   7.443   5.215  0.1989  0.2974 -0.2198
 8135TIP3   OH224349   7.837   7.836   2.862  0.3329 -0.0029  0.2789
 8135TIP3    H124350   7.924   7.810   2.892  0.0825  0.1260  1.1429
 8135TIP3    H224351   7.777   7.790   2.920 -0.2249 -1.0837 -1.0943
 8136TIP3   OH224352   4.436   3.813   1.531  0.1682 -0.8861  0.4468
 8136TIP3    H124353   4.520   3.835   1.491 -0.1125  2.2542  1.3077
 8136TIP3    H224354   4.432   3.717   1.529  2.7740 -1.0439 -1.5386
 8137TIP3   OH224355   2.249   2.352   4.459  0.1765  0.5989  0.0433
 8137TIP3    H124356   2.329   2.402   4.447 -0.8514  2.3239 -0.0302
 8137TIP3    H224357   2.244   2.295   4.382  1.6778 -0.1022  0.4277
 8138TIP3   OH224358   7.104   1.373   2.066  0.5700 -0.6619 -0.1302
 8138TIP3    H124359   7.077   1.412   2.149 -1.5778 -1.0302 -0.5838
 8138TIP3    H224360   7.166   1.435   2.029 -1.2062  1.3793  0.0943
 8139TIP3   OH224361   7.252   0.226   3.473  0.3679  0.0655  0.0447
 8139TIP3    H124362   7.208   0.191   3.550  0.6558  0.8779  0.5893
 8139TIP3    H224363   7.187   0.220   3.403 -0.3069  0.4424  0.6314
 8140TIP3   OH224364   8.021   3.549   0.010  0.0573 -0.2266  0.3592
 8140TIP3    H124365   7.948   3.611   0.005 -0.1343 -0.5237 -0.7877
 8140TIP3    H224366   8.024   3.524   0.102 -2.6764 -1.8097  0.1444
 8141TIP3   OH224367   1.728   3.342   4.259 -0.4957 -0.1693  0.6372
 8141TIP3    H124368   1.802   3.284   4.244 -0.5217 -0.3382  1.1125
 8141TIP3    H224369   1.653   3.283   4.268 -1.0385  0.0900 -1.7160
 8142TIP3   OH224370   0.290   0.152   3.321  0.1257 -0.0281 -0.0853
 8142TIP3    H124371   0.202   0.143   3.283  0.4358 -2.3357 -0.3910
 8142TIP3    H224372   0.276   0.200   3.402 -1.4336 -0.3633 -0.1160
 8143TIP3   OH224373   5.676   6.644   0.479  0.3435 -0.4627 -0.1366
 8143TIP3    H124374   5.736   6.647   0.553 -0.5131 -0.8176  0.6048
 8143TIP3    H224375   5.706   6.713   0.420 -0.1743  1.2621  1.5182
 8144TIP3   OH224376   6.516   5.701   6.465  0.1485  0.2519 -0.4142
 8144TIP3    H124377   6.494   5.670   6.377 -0.0792 -0.3550 -0.1489
 8144TIP3    H224378   6.465   5.781   6.475  0.9141  0.8520 -1.1933
 8145TIP3   OH224379   1.084   4.077   0.999  0.0001  0.5111  0.1041
 8145TIP3    H124380   1.155   4.016   1.020  1.0725  1.2815 -1.1828
 8145TIP3    H224381   1.022   4.026   0.947 -0.4779 -0.1893  1.3102
 8146TIP3   OH224382   6.603   1.009   4.077 -0.1257  0.1970 -0.8148
 8146TIP3    H124383   6.588   0.954   4.000 -0.1751 -0.0742 -0.6155
 8146TIP3    H224384   6.552   1.088   4.060  0.5486  0.5024 -1.4416
 8147TIP3   OH224385   2.880   6.387   5.807 -0.2969  0.0255  0.4582
 8147TIP3    H124386   2.853   6.313   5.752 -0.2373  0.7534 -0.5734
 8147TIP3    H224387   2.917   6.347   5.885 -2.1916 -1.0409  0.8758
 8148TIP3   OH224388   7.009   4.659   3.230 -0.2833  0.0567  0.1712
 8148TIP3    H124389   7.078   4.623   3.285  2.1148  1.2439 -1.8875
 8148TIP3    H224390   6.950   4.704   3.291  1.4494  0.0998  1.8843
 8149TIP3   OH224391  -0.015   6.503   5.719  0.8649  0.7835 -0.3215
 8149TIP3    H124392   0.076   6.527   5.735  0.9142  2.1387 -2.2092
 8149TIP3    H224393  -0.026   6.513   5.625 -1.1395  0.2600 -0.1908
 8150TIP3   OH224394   6.755   3.563   5.717 -0.3470 -0.0841  0.3950
 8150TIP3    H124395   6.690   3.600   5.776  0.1709  3.3155 -0.9073
 8150TIP3    H224396   6.711   3.560   5.632  0.6482  0.6349 -0.1634
 8151TIP3   OH224397   3.791   5.792   6.792 -0.1965  0.4930  0.4117
 8151TIP3    H124398   3.710   5.815   6.746 -1.0279  0.4079  1.7733
 8151TIP3    H224399   3.860   5.837   6.744 -1.1085  0.9836 -0.4733
 8152TIP3   OH224400   2.272   7.010   4.163  0.1837 -0.1918  0.2864
 8152TIP3    H124401   2.350   6.958   4.183  0.1741 -0.0865  0.6080
 8152TIP3    H224402   2.259   7.065   4.241  0.8987  1.1764 -0.5206
 8153TIP3   OH224403   2.032   1.097   2.217 -0.1655 -0.1754 -0.1712
 8153TIP3    H124404   1.956   1.074   2.270 -0.2653  0.9249  0.1906
 8153TIP3    H224405   2.099   1.034   2.242 -1.2205 -1.7748 -1.1877
 8154TIP3   OH224406   7.459   4.728   5.555 -0.0419 -0.3354 -0.0756
 8154TIP3    H124407   7.463   4.701   5.463  0.4062  0.4686 -0.3022
 8154TIP3    H224408   7.369   4.708   5.582 -0.2101 -0.4791 -0.7225
 8155TIP3   OH224409   5.720   7.157   5.409  0.4760  0.6578 -0.0385
 8155TIP3    H124410   5.695   7.184   5.497 -1.1917  1.9905 -0.8503
 8155TIP3    H224411   5.813   7.138   5.415  0.1373 -0.5912  2.2931
 8156TIP3   OH224412   6.927   1.562   3.053  0.2766 -0.1028 -0.2849
 8156TIP3    H124413   6.888   1.481   3.084 -1.4473  0.8723  0.2394
 8156TIP3    H224414   7.021   1.543   3.046  0.0768 -1.7586  1.0028
 8157TIP3   OH224415   5.134   5.605   6.701  0.0160 -0.1705 -0.3967
 8157TIP3    H124416   5.124   5.664   6.626  3.0607 -1.1215 -1.7020
 8157TIP3    H224417   5.111   5.519   6.666  1.0387 -0.5569 -0.1436
 8158TIP3   OH224418   5.512   4.372   2.688 -0.5072 -0.5389  0.0755
 8158TIP3    H124419   5.521   4.397   2.780 -0.6284  2.4779 -0.6102
 8158TIP3    H224420   5.480   4.282   2.690 -1.9469 -0.0749  2.9974
 8159TIP3   OH224421   4.499   1.327   3.521  0.0028 -0.1188  0.2793
 8159TIP3    H124422   4.591   1.353   3.528  0.2607 -0.9677  0.1214
 8159TIP3    H224423   4.458   1.363   3.599  0.8881 -1.4649  1.4039
 8160TIP3   OH224424   6.479   7.655   6.482 -0.1227 -0.2549 -0.4923
 8160TIP3    H124425   6.516   7.681   6.398  0.8783 -1.1043 -0.3364
 8160TIP3    H224426   6.518   7.715   6.545  0.9216 -1.0440 -0.3515
 8161TIP3   OH224427   1.913   3.174   2.440 -0.1767 -0.5233 -0.2377
 8161TIP3    H124428   1.940   3.130   2.360 -1.7625 -1.5452 -0.2639
 8161TIP3    H224429   1.865   3.251   2.409 -0.2965 -0.6064 -0.2591
 8162TIP3   OH224430   5.166   6.412   4.522  0.4187  0.2009 -0.9442
 8162TIP3    H124431   5.145   6.332   4.473  0.6583  0.8347 -2.1046
 8162TIP3    H224432   5.260   6.422   4.513  0.3811  0.6568 -0.8660
 8163TIP3   OH224433   0.739   3.157   3.653 -0.2837 -0.2866 -0.0813
 8163TIP3    H124434   0.781   3.073   3.635 -0.0507 -0.2139  0.1071
 8163TIP3    H224435   0.682   3.173   3.578 -0.7964 -0.9091  0.1778
 8164TIP3   OH224436   5.967   1.163   5.001 -0.4107  0.1333  0.4155
 8164TIP3    H124437   5.886   1.131   5.041 -3.3789 -1.2515 -5.5425
 8164TIP3    H224438   5.951   1.256   4.986 -0.1628  0.2153  0.6505
 8165TIP3   OH224439   5.839   4.999   4.523  0.0974  0.3075  0.2458
 8165TIP3    H124440   5.828   4.912   4.562 -1.1174 -0.0935 -0.9170
 8165TIP3    H224441   5.924   5.029   4.556 -0.4240 -0.3886  2.3959
 8166TIP3   OH224442   8.128   5.389   4.114 -0.5503  0.0042  0.3949
 8166TIP3    H124443   8.206   5.370   4.165  0.9022 -0.7417 -1.9324
 8166TIP3    H224444   8.085   5.304   4.102 -1.5052  0.3419  1.2865
 8167TIP3   OH224445  -0.022   2.164   1.080 -0.0246 -0.2168 -0.0048
 8167TIP3    H124446   0.064   2.188   1.043 -0.2726  1.8711  0.6396
 8167TIP3    H224447  -0.025   2.069   1.074  1.4813 -0.2031 -1.9380
 8168TIP3   OH224448   7.814   6.760   2.069 -0.6545  0.2721 -0.4122
 8168TIP3    H124449   7.806   6.670   2.100  0.2771  0.6352  0.9809
 8168TIP3    H224450   7.783   6.757   1.979  0.4983 -1.6903 -0.8009
 8169TIP3   OH224451   4.869   0.349   2.908 -0.5311 -0.3494 -0.6757
 8169TIP3    H124452   4.881   0.442   2.889  1.9063 -0.4606 -0.0535
 8169TIP3    H224453   4.884   0.306   2.824 -0.9167 -0.2285 -0.8086
 8170TIP3   OH224454   1.694   1.858   0.542 -0.0424  0.0594  0.2442
 8170TIP3    H124455   1.601   1.865   0.565  0.1848 -2.5594  2.3931
 8170TIP3    H224456   1.740   1.868   0.625  1.5115 -0.3150 -0.5373
 8171TIP3   OH224457   3.832   1.002   2.155 -0.6202  0.8479 -0.2899
 8171TIP3    H124458   3.909   0.946   2.142 -1.9512 -0.6042 -2.5472
 8171TIP3    H224459   3.862   1.089   2.131  0.4808  0.4369 -0.4729
 8172TIP3   OH224460   4.868   0.167   1.195 -0.1251 -0.7807  0.5623
 8172TIP3    H124461   4.869   0.081   1.238  0.9228 -0.3416  1.4733
 8172TIP3    H224462   4.905   0.151   1.108 -0.1331 -1.2901  0.6488
 8173TIP3   OH224463   1.926   4.776   1.171  0.0448  0.6151 -0.5339
 8173TIP3    H124464   1.988   4.839   1.208  1.3968  0.3685 -2.2346
 8173TIP3    H224465   1.850   4.828   1.148 -0.1229  1.0564  0.9408
 8174TIP3   OH224466   1.773   3.855   5.609  0.7981  0.1732 -0.1431
 8174TIP3    H124467   1.867   3.836   5.611  0.3915 -2.0598  1.6652
 8174TIP3    H224468   1.761   3.926   5.671  1.0852 -0.8967  1.1685
 8175TIP3   OH224469   3.951   3.074   5.628 -0.0320  0.7617 -0.2489
 8175TIP3    H124470   3.902   3.004   5.584  0.2663  0.7475 -0.5634
 8175TIP3    H224471   4.025   3.030   5.669  0.5546  0.9784 -1.0481
 8176TIP3   OH224472   5.162   4.966   5.225  0.2130  0.1592  0.0787
 8176TIP3    H124473   5.144   5.022   5.300  1.8695  1.3957 -0.3850
 8176TIP3    H224474   5.106   4.999   5.156 -0.7704 -0.5071  0.5348
 8177TIP3   OH224475   0.066   7.563   5.455 -0.2067  0.0134 -0.8295
 8177TIP3    H124476   0.004   7.491   5.450  0.3402 -0.4989 -0.3784
 8177TIP3    H224477   0.117   7.556   5.374 -0.1456 -0.1145 -0.7802
 8178TIP3   OH224478   2.898   7.650   5.290 -0.1401  0.2600  0.1219
 8178TIP3    H124479   2.908   7.675   5.198 -2.1450 -0.8240 -0.4547
 8178TIP3    H224480   2.971   7.692   5.334 -0.0419  2.1587 -1.6953
 8179TIP3   OH224481   5.386   7.333   6.286  0.1402 -0.1344  0.6144
 8179TIP3    H124482   5.446   7.402   6.256 -1.3137  0.5278 -0.8859
 8179TIP3    H224483   5.444   7.258   6.304  1.5914  0.9973  0.8988
 8180TIP3   OH224484   7.503   7.590   2.475  0.1789 -0.0308  0.3013
 8180TIP3    H124485   7.547   7.674   2.488 -0.8091  0.4574  0.5561
 8180TIP3    H224486   7.458   7.599   2.391  0.4282 -0.4787  0.1099
 8181TIP3   OH224487   1.979   4.448   2.411 -0.6165 -0.5355  0.3253
 8181TIP3    H124488   2.039   4.375   2.399 -1.2916 -1.2317  1.0271
 8181TIP3    H224489   1.938   4.460   2.326  1.4467  0.8353 -0.5444
 8182TIP3   OH224490   2.965   6.976   3.850  0.0408  0.2954  0.4953
 8182TIP3    H124491   2.999   6.952   3.936 -0.0357  1.6226  0.9152
 8182TIP3    H224492   2.884   7.024   3.869 -0.5839 -0.3793 -0.3785
 8183TIP3   OH224493   1.654   0.245   6.287  0.2954  0.1144  0.3923
 8183TIP3    H124494   1.742   0.226   6.255  0.5291  1.9965 -0.2149
 8183TIP3    H224495   1.661   0.245   6.382  0.6105 -1.1638  0.3768
 8184TIP3   OH224496   4.184   4.103   5.740 -0.1466 -0.2966 -0.2156
 8184TIP3    H124497   4.149   4.021   5.776 -0.7001 -0.6360 -1.4739
 8184TIP3    H224498   4.279   4.096   5.752 -0.3062 -0.4044  1.1224
 8185TIP3   OH224499   4.908   0.048   0.645 -0.0849 -0.4106  0.0409
 8185TIP3    H124500   4.815   0.071   0.635  0.1547  0.5138 -0.1448
 8185TIP3    H224501   4.955   0.129   0.624  0.7091 -0.4514  1.4958
 8186TIP3   OH224502   6.719   0.235   0.228  0.8215 -0.0660 -0.1417
 8186TIP3    H124503   6.682   0.317   0.196 -1.0523 -0.8775 -0.1910
 8186TIP3    H224504   6.813   0.243   0.213  0.7535  2.2903  0.3910
 8187TIP3   OH224505   4.251   0.195   3.486 -0.2991  0.0990 -0.0809
 8187TIP3    H124506   4.188   0.228   3.423 -2.0472 -0.8761  1.0809
 8187TIP3    H224507   4.262   0.266   3.549  1.1639  0.9307 -1.2049
 8188TIP3   OH224508   4.012   0.734   0.675 -0.3603  0.3099 -0.2822
 8188TIP3    H124509   3.943   0.792   0.706  0.0143  0.0149  1.1695
 8188TIP3    H224510   3.978   0.646   0.693 -0.8337  0.0385 -2.2633
 8189TIP3   OH224511   5.225   1.660   6.197  0.1080 -0.7279  0.2650
 8189TIP3    H124512   5.283   1.663   6.121  1.1947  0.8744  1.0839
 8189TIP3    H224513   5.138   1.680   6.163  0.5681 -0.1044 -0.5881
 8190TIP3   OH224514   6.577   2.050   0.936 -0.3922  0.5329 -0.0569
 8190TIP3    H124515   6.504   2.000   0.971  1.0316 -0.7061  1.3464
 8190TIP3    H224516   6.600   2.111   1.006  0.2533  0.4985 -0.2284
 8191TIP3   OH224517   3.878   4.283   4.240  0.9664 -0.6176  0.3095
 8191TIP3    H124518   3.836   4.200   4.215  0.3187 -0.3012  0.3143
 8191TIP3    H224519   3.967   4.275   4.208  0.5954 -0.8562 -0.7203
 8192TIP3   OH224520   7.752   2.878   5.667  1.0505 -0.2402 -0.3747
 8192TIP3    H124521   7.775   2.793   5.704 -0.0266 -0.8428 -1.0430
 8192TIP3    H224522   7.827   2.902   5.613  2.2183  0.1856  1.3378
 8193TIP3   OH224523   4.442   3.535   2.555  0.3801 -0.1245 -0.4537
 8193TIP3    H124524   4.392   3.546   2.473  2.5494  0.1960 -1.8080
 8193TIP3    H224525   4.522   3.585   2.541  0.6353  0.3295  2.1046
 8194TIP3   OH224526   5.252   7.637   6.195 -0.1785 -0.2265 -0.1485
 8194TIP3    H124527   5.275   7.555   6.150  0.0870 -1.2535  1.7355
 8194TIP3    H224528   5.233   7.610   6.285 -1.9642  1.5594  0.0677
 8195TIP3   OH224529   1.090   1.823   0.889  0.0128 -0.1924 -0.2038
 8195TIP3    H124530   1.133   1.755   0.838  0.6428 -0.7222  0.9835
 8195TIP3    H224531   1.026   1.861   0.829  0.3455 -1.1441 -1.2025
 8196TIP3   OH224532   0.245   7.704   1.391 -0.6748  0.0808  0.4070
 8196TIP3    H124533   0.226   7.743   1.476 -1.9995  2.6682 -0.9573
 8196TIP3    H224534   0.258   7.779   1.332 -4.8899 -1.2630 -2.7491
 8197TIP3   OH224535   0.646   7.078   6.493 -0.3528  0.0432 -0.0730
 8197TIP3    H124536   0.668   7.168   6.516  0.9038 -0.7409  2.0327
 8197TIP3    H224537   0.550   7.076   6.497 -0.3614  1.0777  0.6142
 8198TIP3   OH224538   1.335   2.137   1.743 -0.2015  0.3249 -0.2354
 8198TIP3    H124539   1.271   2.072   1.714 -0.8813  1.5253 -1.5341
 8198TIP3    H224540   1.310   2.158   1.833  0.5712 -1.8143  0.5393
 8199TIP3   OH224541   2.248   3.708   0.204  0.6654 -0.4021  0.3448
 8199TIP3    H124542   2.265   3.794   0.166 -0.1024  0.2929  1.5200
 8199TIP3    H224543   2.189   3.666   0.141  2.0469 -0.6124 -0.8782
 8200TIP3   OH224544   7.908   2.383   6.547  0.5262 -0.4701 -0.2632
 8200TIP3    H124545   7.839   2.341   6.497  0.7581 -1.2338  0.0423
 8200TIP3    H224546   7.941   2.314   6.605 -0.7336  0.7485  2.0155
 8201TIP3   OH224547   4.733   5.592   1.150  0.1730 -0.5222  0.6253
 8201TIP3    H124548   4.805   5.655   1.150  0.1988 -0.5148 -0.8622
 8201TIP3    H224549   4.731   5.558   1.239  2.2548 -0.7974  0.6077
 8202TIP3   OH224550   2.215   2.161   5.626 -0.0006 -0.0523 -0.1005
 8202TIP3    H124551   2.307   2.155   5.652  0.2450 -1.8169 -1.2209
 8202TIP3    H224552   2.213   2.233   5.563  0.8386 -0.6683 -0.8619
 8203TIP3   OH224553   6.568   1.116   1.121 -0.3694 -0.3666  0.2986
 8203TIP3    H124554   6.609   1.128   1.035 -2.8222  0.9081 -0.8038
 8203TIP3    H224555   6.475   1.103   1.101 -0.9675 -0.2459  2.7656
 8204TIP3   OH224556   3.732   4.345   0.623 -0.1834 -0.0463 -0.5498
 8204TIP3    H124557   3.702   4.412   0.685  1.9055  0.0668  0.4542
 8204TIP3    H224558   3.707   4.378   0.537 -2.7389  0.0332  0.1596
 8205TIP3   OH224559   1.352   6.741   0.609  0.4506 -0.1549  0.0757
 8205TIP3    H124560   1.340   6.672   0.674 -0.7411  0.3185  0.3838
 8205TIP3    H224561   1.270   6.790   0.610  1.2242  1.2127 -0.2100
 8206TIP3   OH224562   0.511   5.562   4.166  0.3278 -0.3793  0.1611
 8206TIP3    H124563   0.557   5.577   4.084 -0.2775 -1.2400 -0.3566
 8206TIP3    H224564   0.570   5.506   4.217  0.4808 -0.2795  0.0939
 8207TIP3   OH224565   1.329   6.809   3.527  0.1312 -0.3000  0.0158
 8207TIP3    H124566   1.416   6.842   3.504  0.0211  0.3040  0.4379
 8207TIP3    H224567   1.330   6.718   3.498 -0.3192  0.5996 -3.2369
 8208TIP3   OH224568   1.313   4.633   0.444  0.4753 -0.2960 -0.0292
 8208TIP3    H124569   1.246   4.564   0.439  2.1052 -1.8692 -1.7661
 8208TIP3    H224570   1.387   4.590   0.487  0.7405  1.1178  0.9775
 8209TIP3   OH224571   0.966   2.224   5.396  0.2583  0.2029  0.2585
 8209TIP3    H124572   0.928   2.237   5.483  2.5379 -1.6474  1.6208
 8209TIP3    H224573   0.904   2.166   5.351 -0.5594  0.5529  0.9079
 8210TIP3   OH224574   3.951   6.892   2.331  0.5926  0.2050  0.2804
 8210TIP3    H124575   4.010   6.934   2.269  0.2979  2.1384  1.2399
 8210TIP3    H224576   3.869   6.882   2.282  0.6597  0.7840  0.0425
 8211TIP3   OH224577   5.128   4.698   1.468  0.3031 -0.5728  0.2290
 8211TIP3    H124578   5.159   4.780   1.429 -0.1258 -0.0754  0.9083
 8211TIP3    H224579   5.206   4.659   1.507  0.6986 -0.9696 -0.9009
 8212TIP3   OH224580   2.888   7.764   3.965  0.2008  0.3255  0.1578
 8212TIP3    H124581   2.806   7.716   3.975  0.6630 -0.3564  0.7185
 8212TIP3    H224582   2.885   7.798   3.875 -1.5255  1.9035  0.7373
 8213TIP3   OH224583   5.388   5.983   6.195 -0.0512 -0.5005  0.0456
 8213TIP3    H124584   5.352   5.930   6.266  2.4644 -1.4781  0.7228
 8213TIP3    H224585   5.477   5.950   6.184  0.3344  1.0584 -2.1620
 8214TIP3   OH224586   1.081   6.186   0.106  0.0675  0.1077  0.2407
 8214TIP3    H124587   1.079   6.135   0.025  1.5633  0.0159  0.2245
 8214TIP3    H224588   1.171   6.177   0.138 -0.3627  0.5239  1.6749
 8215TIP3   OH224589   6.020   7.290   3.377  0.0118 -0.0635 -0.8765
 8215TIP3    H124590   6.091   7.314   3.317  0.6425 -2.2391 -1.0903
 8215TIP3    H224591   5.945   7.343   3.349  0.6838 -0.0310 -2.7017
 8216TIP3   OH224592   2.533   2.290   0.309 -0.1208 -0.0535  0.2599
 8216TIP3    H124593   2.567   2.226   0.247  0.3709 -0.0197  0.4873
 8216TIP3    H224594   2.505   2.237   0.384 -0.5078 -0.0739  0.1058
 8217TIP3   OH224595   3.159   3.773   5.521 -0.0394  0.0940 -0.7284
 8217TIP3    H124596   3.242   3.800   5.559 -1.1546  2.7232  0.0758
 8217TIP3    H224597   3.123   3.710   5.583  1.8477 -2.1088 -1.7374
 8218TIP3   OH224598   1.584   5.801   0.716 -0.2591  0.0066 -0.6975
 8218TIP3    H124599   1.618   5.747   0.787 -1.8201  0.5780  0.5569
 8218TIP3    H224600   1.547   5.878   0.760 -1.3469  0.3333 -2.1089
 8219TIP3   OH224601   7.278   4.443   6.196  0.4552  0.2100 -0.3328
 8219TIP3    H124602   7.224   4.521   6.202  0.5181  0.6155 -3.5227
 8219TIP3    H224603   7.348   4.465   6.134  0.1511 -2.4527 -1.8200
 8220TIP3   OH224604   7.335   3.931   2.387  0.4827 -0.5103 -0.2457
 8220TIP3    H124605   7.324   4.003   2.325  0.3105 -1.5061 -1.4249
 8220TIP3    H224606   7.412   3.954   2.438  1.3742 -0.2220 -1.6810
 8221TIP3   OH224607   6.878   1.336   0.263 -0.1731 -0.3246  0.9296
 8221TIP3    H124608   6.872   1.424   0.228 -1.2455 -0.7833 -0.1036
 8221TIP3    H224609   6.916   1.347   0.350  0.7806  1.0263  0.3629
 8222TIP3   OH224610   7.626   6.025   5.233 -0.1729  0.4067  0.5504
 8222TIP3    H124611   7.668   5.942   5.256 -1.1288 -0.3719 -0.4315
 8222TIP3    H224612   7.696   6.075   5.189  0.1248 -0.2931  0.2158
 8223TIP3   OH224613   5.458   6.606   3.770  0.2268 -0.6972  0.7834
 8223TIP3    H124614   5.534   6.581   3.718 -0.1337  0.1309 -0.1565
 8223TIP3    H224615   5.482   6.690   3.809 -0.9360  0.6148 -1.1651
 8224TIP3   OH224616   2.129   4.678   4.664 -0.4169  0.4099 -0.0813
 8224TIP3    H124617   2.182   4.718   4.594 -1.3086 -0.3380 -1.2222
 8224TIP3    H224618   2.167   4.590   4.675 -0.7970  0.2245 -0.2223
 8225TIP3   OH224619   6.111   2.472   6.034  0.0477  0.4522  0.0364
 8225TIP3    H124620   6.134   2.453   5.943  4.0069 -1.6623  1.2188
 8225TIP3    H224621   6.174   2.539   6.061 -0.8228  0.7960  1.3290
 8226TIP3   OH224622   6.374   6.158   2.962  0.2264  0.4206 -0.2608
 8226TIP3    H124623   6.389   6.110   2.881 -0.1021  0.3772 -0.2946
 8226TIP3    H224624   6.438   6.122   3.024 -0.5928 -0.6554 -0.0338
 8227TIP3   OH224625   6.333   6.526   5.196  0.0003  0.5279 -0.2765
 8227TIP3    H124626   6.255   6.543   5.250  0.0028  1.3403 -0.5156
 8227TIP3    H224627   6.393   6.480   5.255 -0.3120  0.6856  0.1724
 8228TIP3   OH224628   3.981   1.787   2.329  0.1983 -0.0655  0.5247
 8228TIP3    H124629   3.978   1.703   2.282 -1.6032  0.2887 -0.0921
 8228TIP3    H224630   4.042   1.840   2.279 -0.2350 -0.3362 -0.3171
 8229TIP3   OH224631   0.360   3.891   3.524  0.3351  0.5366 -0.0613
 8229TIP3    H124632   0.449   3.856   3.529  0.8259  1.8783  1.2096
 8229TIP3    H224633   0.372   3.984   3.504 -0.8311  0.5731 -0.6638
 8230TIP3   OH224634   6.477   1.976   5.658 -0.7374 -0.1048  0.2472
 8230TIP3    H124635   6.570   1.998   5.648 -0.4671 -0.9807  0.7941
 8230TIP3    H224636   6.454   1.931   5.577 -0.8965  0.7691 -0.2135
 8231TIP3   OH224637   2.580   1.072   1.227  0.0020  0.1299  0.1376
 8231TIP3    H124638   2.645   1.008   1.257  1.8340  1.3906 -0.9854
 8231TIP3    H224639   2.496   1.032   1.249  1.1115 -0.7811  3.2839
 8232TIP3   OH224640   3.485   6.312   4.151 -0.3984 -0.4697  0.2759
 8232TIP3    H124641   3.485   6.218   4.172  0.8220 -0.0551  2.4350
 8232TIP3    H224642   3.573   6.329   4.118 -0.3216  0.0807  0.7583
 8233TIP3   OH224643   0.600   5.781   4.839  0.4792 -0.2409  0.2918
 8233TIP3    H124644   0.637   5.707   4.792  0.4312 -0.3657  0.4507
 8233TIP3    H224645   0.661   5.853   4.823  0.0836 -0.0834 -0.5746
 8234TIP3   OH224646   0.914   0.940   2.223 -0.2022  0.2824 -0.2919
 8234TIP3    H124647   0.857   0.865   2.241 -0.1856 -0.0191 -1.4677
 8234TIP3    H224648   0.994   0.922   2.273 -0.4355 -0.1786 -0.0814
 8235TIP3   OH224649   7.116   6.164   2.381 -0.1581  0.0474 -0.1614
 8235TIP3    H124650   7.198   6.129   2.345 -0.2284 -0.0400 -0.2358
 8235TIP3    H224651   7.144   6.218   2.455 -0.1095 -0.8026  0.4460
 8236TIP3   OH224652   3.111   4.887   6.607 -0.1371  0.0431 -0.4308
 8236TIP3    H124653   3.189   4.916   6.654 -1.0526 -0.1796  1.3395
 8236TIP3    H224654   3.063   4.968   6.587  0.3063  0.1470 -1.0879
 8237TIP3   OH224655   8.028   6.571   1.479 -0.0148  0.2086 -0.1857
 8237TIP3    H124656   8.088   6.588   1.407  0.0777 -0.2930 -0.2278
 8237TIP3    H224657   7.954   6.526   1.439 -0.5491  1.0653 -0.1805
 8238TIP3   OH224658   1.163   7.551   0.865  0.5295 -0.2139 -0.2360
 8238TIP3    H124659   1.257   7.532   0.865  0.3579 -1.3441 -1.8416
 8238TIP3    H224660   1.155   7.635   0.819  0.7600 -0.1890 -0.2284
 8239TIP3   OH224661   6.974   0.188   6.456 -0.7186 -0.1090  0.3904
 8239TIP3    H124662   6.995   0.245   6.530  0.6734 -0.9252  0.6654
 8239TIP3    H224663   6.953   0.103   6.495 -0.6001 -0.3737 -0.1042
 8240TIP3   OH224664   7.608   1.396   4.611 -0.3189 -0.4070 -0.0099
 8240TIP3    H124665   7.683   1.455   4.613  0.2331 -0.8870 -2.4824
 8240TIP3    H224666   7.646   1.308   4.610 -1.0292 -0.7454  1.2051
 8241TIP3   OH224667   8.105   0.408   0.413 -0.0797 -0.5241  0.2806
 8241TIP3    H124668   8.083   0.499   0.394 -0.1466 -0.0844  2.1921
 8241TIP3    H224669   8.187   0.392   0.366  0.5151  0.8834  0.7863
 8242TIP3   OH224670   6.206   3.012   6.038  0.5085 -0.1501  0.0084
 8242TIP3    H124671   6.283   3.069   6.041  0.6604 -0.2445 -1.4781
 8242TIP3    H224672   6.232   2.939   5.981 -0.9986  0.3133 -1.3424
 8243TIP3   OH224673   6.703   0.168   4.247  0.1242 -0.1887 -0.0258
 8243TIP3    H124674   6.796   0.189   4.247 -0.1254  1.0483 -0.7744
 8243TIP3    H224675   6.659   0.252   4.263 -0.8805 -0.4324 -1.2751
 8244TIP3   OH224676   6.522   1.161   3.303  0.1575  0.4172 -0.0606
 8244TIP3    H124677   6.552   1.200   3.385  0.7472  0.7566 -0.4275
 8244TIP3    H224678   6.600   1.119   3.266 -0.1708  0.0154 -0.3032
 8245TIP3   OH224679   1.477   4.207   1.889  0.2757  0.4078 -0.2622
 8245TIP3    H124680   1.394   4.238   1.852  0.7766  0.4045 -1.4209
 8245TIP3    H224681   1.486   4.118   1.856  0.4098  0.1589  0.4332
 8246TIP3   OH224682   5.415   6.919   1.599 -0.6833  0.4390 -0.2106
 8246TIP3    H124683   5.392   6.882   1.685 -0.7990  0.2320 -0.3293
 8246TIP3    H224684   5.476   6.856   1.561  1.7366  1.9493  0.9367
 8247TIP3   OH224685   7.855   7.709   2.345 -0.0649 -0.2252  0.2704
 8247TIP3    H124686   7.859   7.797   2.308  1.4673 -0.3912 -0.0376
 8247TIP3    H224687   7.837   7.723   2.438  0.6737  0.4589  0.3284
 8248TIP3   OH224688   8.003   5.164   2.947  0.0990 -0.1803  0.2504
 8248TIP3    H124689   7.996   5.162   3.043  0.2504  0.0315  0.2666
 8248TIP3    H224690   7.990   5.073   2.920  0.3353 -0.2861  0.4927
 8249TIP3   OH224691   5.717   0.255   2.879  1.1530  0.1836  0.1582
 8249TIP3    H124692   5.624   0.279   2.879  1.1820  0.4254 -1.6134
 8249TIP3    H224693   5.748   0.280   2.967 -0.3843  0.3088  0.7054
 8250TIP3   OH224694   1.788   1.015   1.729 -0.4071  0.6530 -0.0183
 8250TIP3    H124695   1.802   1.016   1.824  0.5982 -0.9588 -0.1039
 8250TIP3    H224696   1.874   1.037   1.692 -0.2910 -0.5228 -0.5272
 8251TIP3   OH224697   0.397   4.990   0.207  0.3566 -0.1435  0.0978
 8251TIP3    H124698   0.371   4.900   0.225  2.1993 -0.7128  0.1171
 8251TIP3    H224699   0.458   4.984   0.134 -0.4449  1.2518 -0.7487
 8252TIP3   OH224700   7.937   7.790   1.650  0.0336 -0.3586 -1.1163
 8252TIP3    H124701   8.010   7.820   1.595  1.8193 -1.3911  0.5783
 8252TIP3    H224702   7.932   7.696   1.634 -0.6700 -0.3640 -0.8852
 8253TIP3   OH224703   8.055   6.033   1.466 -0.1154  0.7430 -0.3517
 8253TIP3    H124704   7.999   5.970   1.513 -0.4918 -0.1509 -1.9440
 8253TIP3    H224705   8.113   5.979   1.413  0.6233  1.7272 -0.5698
 8254TIP3   OH224706   4.054   2.597   3.546  0.1498 -0.1692  0.5020
 8254TIP3    H124707   4.005   2.529   3.499  2.2400 -1.3471 -0.0984
 8254TIP3    H224708   4.031   2.585   3.638  0.0128 -1.3136  0.3298
 8255TIP3   OH224709   5.590   5.533   5.867 -0.0627  0.1962  0.7362
 8255TIP3    H124710   5.609   5.582   5.947 -1.7157  1.1956  0.5586
 8255TIP3    H224711   5.557   5.449   5.898 -0.6700  0.5663  1.1246
 8256TIP3   OH224712   3.192   0.269   6.569 -0.1041 -0.1923 -0.2734
 8256TIP3    H124713   3.279   0.240   6.543  0.0126  0.3770 -0.5351
 8256TIP3    H224714   3.181   0.354   6.526 -1.0019 -0.5006 -0.6808
 8257TIP3   OH224715   3.518   0.636   5.710 -0.6171  0.3956  0.4492
 8257TIP3    H124716   3.441   0.678   5.670 -0.3248 -0.6423 -1.3577
 8257TIP3    H224717   3.578   0.622   5.636 -0.1107 -1.8283  1.2157
 8258TIP3   OH224718   7.959   2.529   3.750 -0.0431  0.2456  0.4426
 8258TIP3    H124719   8.034   2.470   3.734  0.0684  0.3931  0.4204
 8258TIP3    H224720   7.999   2.613   3.771 -0.2072  0.4956 -0.2144
 8259TIP3   OH224721   2.878   5.524   1.626  0.1694  0.2012  0.4299
 8259TIP3    H124722   2.927   5.555   1.550  0.4099 -0.9792  0.0893
 8259TIP3    H224723   2.894   5.590   1.694  0.1081  1.1664 -0.4750
 8260TIP3   OH224724   7.894   1.549   6.146  1.0733 -0.2010 -0.6626
 8260TIP3    H124725   7.982   1.529   6.178  0.6433  0.1977  0.8482
 8260TIP3    H224726   7.844   1.469   6.163  0.8097  0.0562 -0.2345
 8261TIP3   OH224727   2.757   4.057   3.722 -0.1358 -0.1200 -0.0941
 8261TIP3    H124728   2.742   4.152   3.716  1.1372  0.0556 -0.8259
 8261TIP3    H224729   2.769   4.029   3.631 -1.6424 -1.2056  0.0028
 8262TIP3   OH224730   3.312   1.793   3.624  0.0690  0.5244  0.4723
 8262TIP3    H124731   3.303   1.757   3.712 -0.3801 -0.5509  0.0045
 8262TIP3    H224732   3.290   1.720   3.566  3.3711  0.2579 -0.6181
 8263TIP3   OH224733   0.973   3.150   3.830  0.2513  0.1165  0.9758
 8263TIP3    H124734   1.039   3.195   3.777  1.7331 -1.3568  1.4668
 8263TIP3    H224735   0.892   3.157   3.779  1.4074 -0.3990 -1.0307
 8264TIP3   OH224736   3.727   1.481   3.314  0.0549  0.0493  0.5822
 8264TIP3    H124737   3.774   1.535   3.251 -3.1683  1.0947 -1.1142
 8264TIP3    H224738   3.711   1.399   3.268  0.6339 -0.4998  1.3362
 8265TIP3   OH224739   5.207   7.692   6.481 -0.2446  0.3163  0.0960
 8265TIP3    H124740   5.184   7.636   6.555 -2.4653  1.2407  0.1550
 8265TIP3    H224741   5.159   7.773   6.495  2.1934  1.9820 -0.4614
 8266TIP3   OH224742   3.429   4.053   5.941  0.2400  0.1245 -0.1593
 8266TIP3    H124743   3.421   4.047   6.036  1.4189 -1.0307 -0.0896
 8266TIP3    H224744   3.442   4.146   5.923 -0.8517  0.4675  0.7106
 8267TIP3   OH224745   5.243   4.066   0.981  0.2962 -0.4706 -0.0699
 8267TIP3    H124746   5.170   4.016   0.946  0.1204 -1.1337  1.2145
 8267TIP3    H224747   5.316   4.004   0.982  0.7267  0.0078 -0.7481
 8268TIP3   OH224748   0.725   5.420   2.574  0.2980  0.0902 -0.2908
 8268TIP3    H124749   0.782   5.416   2.651 -1.1761  0.4972  0.8807
 8268TIP3    H224750   0.636   5.421   2.610 -0.4423  0.4139 -2.0054
 8269TIP3   OH224751   1.454   6.780   4.703  0.0199 -0.3480  1.1396
 8269TIP3    H124752   1.474   6.869   4.673 -2.7870 -0.0240 -0.0206
 8269TIP3    H224753   1.451   6.787   4.798 -0.4982  0.9024  1.0551
 8270TIP3   OH224754   7.797   4.315   2.251 -0.7533 -0.5059  0.2790
 8270TIP3    H124755   7.735   4.344   2.184  2.1230  3.6769 -0.9322
 8270TIP3    H224756   7.774   4.366   2.329  0.7019  0.6806 -0.0241
 8271TIP3   OH224757   5.077   0.666   2.360  0.2514 -0.5305  0.8129
 8271TIP3    H124758   5.094   0.655   2.454 -1.0699 -0.1908  1.1254
 8271TIP3    H224759   5.049   0.757   2.351  0.0720 -0.6440  0.1413
 8272TIP3   OH224760   1.127   4.938   2.713 -0.3959 -0.0954 -0.3822
 8272TIP3    H124761   1.080   4.855   2.701  0.2498 -0.6134  0.5852
 8272TIP3    H224762   1.185   4.922   2.787  0.2373  1.0111 -0.6242
 8273TIP3   OH224763   2.058   2.711   3.783 -0.2145  0.3991  0.2809
 8273TIP3    H124764   2.046   2.687   3.875  1.9873  2.3518  1.1809
 8273TIP3    H224765   2.039   2.631   3.735 -1.9489 -0.5488  2.3731
 8274TIP3   OH224766   5.491   3.762   4.364 -0.2322 -0.5942 -0.1303
 8274TIP3    H124767   5.583   3.759   4.338 -0.0914 -1.1165  0.4112
 8274TIP3    H224768   5.459   3.845   4.328  0.0099 -1.1681 -1.7329
 8275TIP3   OH224769   3.643   4.002   5.782 -0.0852 -0.2899  0.4490
 8275TIP3    H124770   3.558   4.012   5.824 -0.2838 -0.0216 -0.0104
 8275TIP3    H224771   3.649   4.075   5.721  0.7161  0.0128  0.8723
 8276TIP3   OH224772   4.406   1.980   6.579 -0.1390  0.3174  0.3076
 8276TIP3    H124773   4.368   2.060   6.543 -0.1340  0.2483  0.1460
 8276TIP3    H224774   4.499   1.988   6.561  0.2496  1.4460  2.5404
 8277TIP3   OH224775   4.713   4.637   0.342 -0.6195 -0.0180  0.6051
 8277TIP3    H124776   4.770   4.701   0.300 -1.9490 -0.3838 -1.9462
 8277TIP3    H224777   4.769   4.562   0.360 -0.0973 -0.0778 -1.1464
 8278TIP3   OH224778   0.096   3.092   5.806 -0.3142  0.2123  0.3298
 8278TIP3    H124779   0.080   3.029   5.876 -1.9235 -1.5258 -1.4974
 8278TIP3    H224780   0.139   3.166   5.850 -0.0246 -1.3517  2.8734
 8279TIP3   OH224781   1.183   6.644  -0.002  0.1379  0.2807  0.5978
 8279TIP3    H124782   1.111   6.594   0.036  1.6484 -1.2010  1.6900
 8279TIP3    H224783   1.183   6.727   0.047 -1.4684  0.7932 -0.1970
 8280TIP3   OH224784   7.027   4.210   4.812 -0.5282 -0.2279 -0.1804
 8280TIP3    H124785   7.101   4.158   4.780 -0.3460  1.0410 -1.9565
 8280TIP3    H224786   6.954   4.148   4.816  0.1107 -1.0150 -0.5163
 8281TIP3   OH224787   7.003   1.993   2.531 -0.0503  0.4428 -0.3588
 8281TIP3    H124788   7.003   2.083   2.563  0.1346  0.9155 -1.6351
 8281TIP3    H224789   7.090   1.960   2.550 -0.8273 -0.3387  2.3416
 8282TIP3   OH224790   1.807   0.062   2.201 -0.0628  0.2515  0.2684
 8282TIP3    H124791   1.859   0.076   2.121  0.4348 -0.4657  0.4575
 8282TIP3    H224792   1.824  -0.029   2.225  2.0293  1.1583  2.7191
 8283TIP3   OH224793   7.246   6.980   6.080 -0.3865  0.1635  0.1776
 8283TIP3    H124794   7.167   7.002   6.130 -1.2363 -0.6195 -0.7742
 8283TIP3    H224795   7.213   6.956   5.993  1.0154  1.0800 -0.6450
 8284TIP3   OH224796   5.471   7.296   0.413 -0.4590  0.0149 -0.1965
 8284TIP3    H124797   5.385   7.316   0.452 -1.7838 -2.4204 -1.6543
 8284TIP3    H224798   5.501   7.218   0.460 -0.9464 -1.4912 -2.2605
 8285TIP3   OH224799   7.307   5.135   0.979 -0.3013  0.3610  0.8581
 8285TIP3    H124800   7.260   5.104   1.057 -0.0998 -0.5102  0.6431
 8285TIP3    H224801   7.240   5.146   0.912 -0.5551  1.6311  1.2911
 8286TIP3   OH224802   0.216   0.738   4.551  0.4348  0.2955 -0.3988
 8286TIP3    H124803   0.187   0.770   4.465 -0.3480  0.6154 -0.0200
 8286TIP3    H224804   0.136   0.713   4.596  1.0166 -2.5253 -0.7641
 8287TIP3   OH224805   5.251   0.594   4.488 -0.1073 -0.6355 -0.1958
 8287TIP3    H124806   5.297   0.525   4.440  1.2918 -0.5721  0.9839
 8287TIP3    H224807   5.158   0.572   4.480  0.1477 -1.1399 -2.0884
 8288TIP3   OH224808   1.200   4.648   5.156  0.2050  0.9842  0.0217
 8288TIP3    H124809   1.207   4.552   5.156  1.8800  1.0854 -0.0746
 8288TIP3    H224810   1.111   4.665   5.126  0.3025 -0.5256 -1.2292
 8289TIP3   OH224811   3.605   2.873   4.727  0.3627 -0.3761  0.3715
 8289TIP3    H124812   3.558   2.952   4.754 -0.1995 -1.4563  2.8605
 8289TIP3    H224813   3.695   2.887   4.758  1.0394  0.4080 -1.7238
 8290TIP3   OH224814   0.851   4.415   1.480 -0.4944  0.3284  0.3404
 8290TIP3    H124815   0.865   4.332   1.525 -2.2782 -1.0615 -1.5086
 8290TIP3    H224816   0.930   4.466   1.499  0.6078 -1.7269  1.6146
 8291TIP3   OH224817   7.491   5.003   0.202 -0.0702  0.7404  0.3986
 8291TIP3    H124818   7.401   4.982   0.228 -1.7539  1.7804 -3.7764
 8291TIP3    H224819   7.516   4.931   0.145  1.1177  1.3138  0.1714
 8292TIP3   OH224820   6.170   1.144   3.321  0.4645  0.3167  0.2479
 8292TIP3    H124821   6.206   1.182   3.401 -0.7414  2.1833 -0.0554
 8292TIP3    H224822   6.096   1.090   3.351  0.9005 -0.1542  0.4931
 8293TIP3   OH224823   0.292   2.113   6.321 -0.3332  0.4932  0.3126
 8293TIP3    H124824   0.349   2.190   6.328  0.6014 -0.2741  1.6487
 8293TIP3    H224825   0.303   2.068   6.405 -2.1267 -0.2377  0.1859
 8294TIP3   OH224826   1.634   6.926   6.449 -0.4370  0.4561 -0.0364
 8294TIP3    H124827   1.582   6.955   6.524 -0.3522 -2.0451  1.0699
 8294TIP3    H224828   1.569   6.902   6.383 -0.5273  1.6732 -0.4266
 8295TIP3   OH224829   6.536   1.752   2.323 -0.5504  0.0521  0.1091
 8295TIP3    H124830   6.619   1.712   2.349  0.0213  0.6082 -0.8075
 8295TIP3    H224831   6.509   1.701   2.246 -0.3073  0.7821 -0.4768
 8296TIP3   OH224832   4.675   5.521   1.421 -0.0733 -0.3080 -0.0187
 8296TIP3    H124833   4.584   5.510   1.394 -0.7142  1.8822  0.9755
 8296TIP3    H224834   4.675   5.498   1.514  0.2028  0.4145  0.1682
 8297TIP3   OH224835   4.436   4.268   5.891 -0.4030 -0.6092 -0.1885
 8297TIP3    H124836   4.444   4.202   5.822  0.4438 -1.3814  0.6093
 8297TIP3    H224837   4.344   4.295   5.888 -1.0462 -2.5737  0.0883
 8298TIP3   OH224838   1.987   4.243   5.316 -0.2035  0.0792 -0.4540
 8298TIP3    H124839   1.936   4.162   5.312 -0.9043  0.3846  1.3642
 8298TIP3    H224840   1.922   4.312   5.332  0.6794  0.5595  1.2748
 8299TIP3   OH224841   1.071   5.236   4.950 -0.0605  0.7247 -0.1128
 8299TIP3    H124842   1.030   5.149   4.950 -0.3907  0.8768  0.5228
 8299TIP3    H224843   1.121   5.238   4.869 -0.7554  0.2702 -0.5648
 8300TIP3   OH224844   7.207   6.340   0.177 -0.2258 -0.0015  0.1011
 8300TIP3    H124845   7.283   6.372   0.226  0.6181 -0.9060 -0.5640
 8300TIP3    H224846   7.151   6.417   0.166 -2.0183 -0.2156  5.0165
 8301TIP3   OH224847   1.987   7.774   5.669 -0.0232 -0.3080  0.2145
 8301TIP3    H124848   1.899   7.797   5.640  0.5743  2.8159  0.6063
 8301TIP3    H224849   2.024   7.855   5.704  3.1808 -1.3961 -0.2703
 8302TIP3   OH224850   5.170   2.028   6.674  0.7114  0.6426 -0.0710
 8302TIP3    H124851   5.201   2.119   6.671  1.4954  0.3634 -0.8941
 8302TIP3    H224852   5.245   1.976   6.647 -0.1681 -0.1292 -1.1240
 8303TIP3   OH224853   6.876   6.638   6.270 -0.7815 -0.2491 -0.0474
 8303TIP3    H124854   6.830   6.589   6.338 -0.0724 -1.9460 -0.7416
 8303TIP3    H224855   6.957   6.667   6.313 -0.5785 -0.8557 -0.0166
 8304TIP3   OH224856   7.002   2.558   0.479 -0.3083  0.8859  0.5350
 8304TIP3    H124857   6.919   2.539   0.435  0.3638 -1.3888  0.0834
 8304TIP3    H224858   6.981   2.553   0.572 -0.5037 -0.8647  0.4317
 8305TIP3   OH224859   2.392   6.138   6.544 -0.2445  0.1861  0.0137
 8305TIP3    H124860   2.435   6.125   6.629 -0.6606  0.7592  0.3153
 8305TIP3    H224861   2.444   6.207   6.502  0.6805 -0.9283 -0.6993
 8306TIP3   OH224862   4.704   4.555   5.180 -0.4433  0.0504  0.0105
 8306TIP3    H124863   4.754   4.543   5.261 -0.8341  0.2070  0.2765
 8306TIP3    H224864   4.614   4.532   5.203 -0.4082 -0.7295 -0.6012
 8307TIP3   OH224865   5.782   0.598   4.277  0.4472  0.0361 -0.9107
 8307TIP3    H124866   5.790   0.686   4.240 -1.4002 -0.3965 -2.4631
 8307TIP3    H224867   5.791   0.611   4.372 -0.0859  1.9323 -1.0932
 8308TIP3   OH224868   7.076   4.440   0.727 -0.2351  0.4510  0.1475
 8308TIP3    H124869   7.140   4.385   0.681  0.2303  0.6803  0.5123
 8308TIP3    H224870   7.123   4.520   0.748 -0.7695  0.7975  0.0517
 8309TIP3   OH224871   0.314   1.005   6.581  0.5209  0.4700  0.2688
 8309TIP3    H124872   0.329   0.957   6.500 -0.9502  0.4415 -0.0028
 8309TIP3    H224873   0.383   1.072   6.582  1.1869 -0.1842 -0.4755
 8310TIP3   OH224874   3.996   7.292   3.281 -0.2589  0.1697 -0.5274
 8310TIP3    H124875   3.972   7.261   3.194 -0.3032 -1.5096  0.0295
 8310TIP3    H224876   3.942   7.239   3.340  0.8645  0.1944  0.5545
 8311TIP3   OH224877   7.170   5.096   3.653 -0.7401 -0.1810  0.0346
 8311TIP3    H124878   7.220   5.017   3.675  0.7896  0.8164  0.2305
 8311TIP3    H224879   7.174   5.101   3.557  0.9769  0.7753  0.1270
 8312TIP3   OH224880   6.668   5.654   2.819  0.4052  0.3118  0.6124
 8312TIP3    H124881   6.727   5.697   2.881 -1.1396  1.6772  1.2265
 8312TIP3    H224882   6.581   5.687   2.842 -0.5784 -1.3168 -0.4954
 8313TIP3   OH224883   3.261   4.620   1.026 -0.6052  0.3145 -0.0230
 8313TIP3    H124884   3.225   4.627   1.114  1.1701 -0.6224  0.8344
 8313TIP3    H224885   3.313   4.699   1.014  0.8326 -0.4925  0.6290
 8314TIP3   OH224886   7.137   1.924   3.756 -0.6065 -0.1598 -0.2430
 8314TIP3    H124887   7.232   1.923   3.749 -0.5351 -0.4844  0.5541
 8314TIP3    H224888   7.106   1.940   3.667  0.1576 -2.1270 -0.9250
 8315TIP3   OH224889   1.422   3.014   5.281 -0.2048 -0.6557 -0.5371
 8315TIP3    H124890   1.472   2.939   5.313  1.9709  0.1202 -1.8544
 8315TIP3    H224891   1.415   3.000   5.187 -1.5595 -0.1852 -0.5227
 8316TIP3   OH224892   6.183   7.673   1.078  0.1864  0.6533  0.1653
 8316TIP3    H124893   6.170   7.691   0.985 -2.0508 -0.4635  0.1907
 8316TIP3    H224894   6.150   7.752   1.122 -1.6996 -0.0038  0.0389
 8317TIP3   OH224895   5.898   4.841   6.375 -0.0351  0.0835  0.0545
 8317TIP3    H124896   5.981   4.810   6.411  0.3916 -0.6448 -1.4550
 8317TIP3    H224897   5.923   4.882   6.292 -0.9064  2.1371  0.7299
 8318TIP3   OH224898   1.475   1.567   5.431 -0.2477  0.2855  0.1563
 8318TIP3    H124899   1.482   1.646   5.485 -2.0826  1.6604 -1.4700
 8318TIP3    H224900   1.561   1.558   5.391  0.4788  0.4852  1.5819
 8319TIP3   OH224901   6.102   5.568   2.835  0.2689 -0.0917 -0.8633
 8319TIP3    H124902   6.165   5.616   2.889 -0.3626  0.4314 -0.5653
 8319TIP3    H224903   6.022   5.622   2.838 -0.2899 -0.8881 -0.9754
 8320TIP3   OH224904   4.905   4.919   5.983 -0.2319  0.3978  0.1378
 8320TIP3    H124905   4.954   4.848   5.941 -1.1423 -0.1258 -0.0546
 8320TIP3    H224906   4.933   4.998   5.937 -1.5436 -0.1998 -1.7954
 8321TIP3   OH224907   8.236   0.492   2.506  0.1408  0.1379 -0.2247
 8321TIP3    H124908   8.177   0.479   2.580  0.4278 -0.5054 -0.0993
 8321TIP3    H224909   8.324   0.487   2.544  0.3220 -1.4855 -0.7715
 8322TIP3   OH224910   1.561   3.991   4.754  0.3918  0.5320 -0.0380
 8322TIP3    H124911   1.565   4.087   4.762  1.8511  0.4895 -0.0347
 8322TIP3    H224912   1.638   3.968   4.702 -0.0717 -0.6294 -0.2413
 8323TIP3   OH224913   2.230   2.235   6.298 -0.3177  0.0982 -0.2540
 8323TIP3    H124914   2.156   2.248   6.357  0.9152  1.5400  1.0466
 8323TIP3    H224915   2.252   2.142   6.307 -0.9434  0.0274  0.5815
 8324TIP3   OH224916   8.131   2.877   5.775  0.0587  0.1537  0.1633
 8324TIP3    H124917   8.058   2.909   5.828  1.2439  0.3389  1.7585
 8324TIP3    H224918   8.178   2.956   5.749 -0.1269  0.0149 -0.6211
 8325TIP3   OH224919   8.128   7.413   5.214 -0.0339 -0.3588  0.6793
 8325TIP3    H124920   8.186   7.392   5.141 -0.2447 -1.9638  0.9517
 8325TIP3    H224921   8.136   7.508   5.224 -1.6561  0.3235 -2.8356
 8326TIP3   OH224922   0.614   1.786   2.519  0.1031 -0.0552  0.0699
 8326TIP3    H124923   0.525   1.752   2.510 -1.1586  3.3292 -2.6784
 8326TIP3    H224924   0.653   1.772   2.433 -0.0048  3.6966 -0.7421
 8327TIP3   OH224925   5.873   2.606   6.603 -0.4817 -0.1409  0.1770
 8327TIP3    H124926   5.888   2.567   6.689 -0.4067 -1.7500 -0.5412
 8327TIP3    H224927   5.935   2.562   6.545  0.7944  2.2377 -0.3882
 8328TIP3   OH224928   2.986   7.098   2.265 -0.3274 -0.6099 -0.4229
 8328TIP3    H124929   3.023   7.096   2.353  1.0296 -1.2056 -0.9659
 8328TIP3    H224930   2.968   7.007   2.244 -0.3065 -0.5112 -0.8854
 8329TIP3   OH224931   7.302   1.602   0.848 -0.3841 -0.0942 -0.0838
 8329TIP3    H124932   7.320   1.685   0.804  0.7473  1.0770  2.4071
 8329TIP3    H224933   7.207   1.592   0.843 -0.3038 -0.2159 -2.9538
 8330TIP3   OH224934   2.521   6.666   4.236 -0.1037  0.4845 -0.1592
 8330TIP3    H124935   2.533   6.668   4.331  0.5139 -1.6835 -0.1340
 8330TIP3    H224936   2.426   6.655   4.224 -0.1791  0.7330  0.2025
 8331TIP3   OH224937   1.643   1.967   2.321  0.1745  0.2474 -0.2739
 8331TIP3    H124938   1.575   1.940   2.383  0.0889  0.9233 -0.0737
 8331TIP3    H224939   1.725   1.947   2.365  0.1379 -1.3921 -0.8612
 8332TIP3   OH224940   2.345   2.065   1.044 -0.2717  0.2979  0.3513
 8332TIP3    H124941   2.397   2.010   1.103  0.9676  1.8546  0.7717
 8332TIP3    H224942   2.367   2.033   0.957  1.7124  1.1202  0.4958
 8333TIP3   OH224943   3.871   4.256   3.261  0.2476 -0.3105  0.0828
 8333TIP3    H124944   3.866   4.340   3.216  0.2876 -0.9023 -1.0533
 8333TIP3    H224945   3.794   4.207   3.232  0.5239 -0.8865  0.2884
 8334TIP3   OH224946   0.236   0.998   2.982  0.0455 -0.0095  0.4035
 8334TIP3    H124947   0.234   0.904   3.002 -0.0628  0.0571  0.7114
 8334TIP3    H224948   0.318   1.028   3.021 -0.3036  0.1764  1.0209
 8335TIP3   OH224949   6.929   6.779   5.137  0.1946 -0.2626  0.3632
 8335TIP3    H124950   6.988   6.777   5.062 -0.1725 -0.5710  0.0851
 8335TIP3    H224951   6.987   6.772   5.213  0.6906  1.3457  0.1844
 8336TIP3   OH224952   4.089   0.380   6.393 -0.8295 -0.3196 -0.9806
 8336TIP3    H124953   4.146   0.447   6.356 -0.3684 -0.2063 -0.0927
 8336TIP3    H224954   4.055   0.333   6.317  0.3284 -0.3020 -1.5322
 8337TIP3   OH224955   3.510   4.121   5.080 -0.0990 -0.0284  1.0209
 8337TIP3    H124956   3.527   4.039   5.033 -0.7189 -0.8920  2.2402
 8337TIP3    H224957   3.510   4.096   5.173  1.3246  1.6478  1.5412
 8338TIP3   OH224958   3.388   3.069   2.524 -0.0806 -0.5570  0.2806
 8338TIP3    H124959   3.371   3.091   2.432  1.7243  0.2012  0.0819
 8338TIP3    H224960   3.343   3.138   2.573  0.6409  0.2359 -0.1343
 8339TIP3   OH224961   0.112   3.094   6.592  0.1434 -0.0081 -0.4825
 8339TIP3    H124962   0.073   3.107   6.679 -1.2807 -0.1490 -1.0801
 8339TIP3    H224963   0.168   3.170   6.580 -1.6138  1.3557 -0.4656
 8340TIP3   OH224964   4.579   3.795   5.001 -0.1163 -0.0870  0.3237
 8340TIP3    H124965   4.588   3.717   4.946 -0.1321  0.0531  0.1210
 8340TIP3    H224966   4.510   3.771   5.064 -0.9877  0.1865 -0.4945
 8341TIP3   OH224967   7.134   2.388   4.653  0.1726 -0.0892  0.4681
 8341TIP3    H124968   7.218   2.365   4.613  0.2611  0.9899 -0.0125
 8341TIP3    H224969   7.143   2.481   4.677 -1.1738  0.3003 -0.3971
 8342TIP3   OH224970   3.903   3.333   3.444 -0.3496 -0.2787 -0.3552
 8342TIP3    H124971   3.925   3.315   3.536  1.8392  1.6790 -0.4017
 8342TIP3    H224972   3.816   3.373   3.447 -1.1158 -1.8757  0.6047
 8343TIP3   OH224973   3.640   5.945   5.427 -0.1639  0.5071 -0.4372
 8343TIP3    H124974   3.642   5.984   5.514 -3.0135  2.0507 -0.9563
 8343TIP3    H224975   3.615   5.853   5.443 -2.2834  1.1635  0.3445
 8344TIP3   OH224976   7.171   1.149   4.886  0.1951 -0.4911 -0.1748
 8344TIP3    H124977   7.250   1.184   4.845  0.3356 -0.0677  0.4550
 8344TIP3    H224978   7.152   1.208   4.959 -0.8755 -0.4186 -0.4859
 8345TIP3   OH224979   1.052   5.652   1.113 -0.0498 -0.2598 -0.3004
 8345TIP3    H124980   1.104   5.685   1.040 -0.2087 -1.3427 -0.9287
 8345TIP3    H224981   0.996   5.726   1.138  1.1097  0.6225 -0.2244
 8346TIP3   OH224982   4.921   6.485   4.384  0.1534  0.0104 -0.7547
 8346TIP3    H124983   4.994   6.492   4.445  0.1728  1.5129 -0.9114
 8346TIP3    H224984   4.866   6.414   4.419  0.3697  0.5700  0.7704
 8347TIP3   OH224985   1.772   0.762   0.100 -0.4563 -0.1242  0.1930
 8347TIP3    H124986   1.758   0.835   0.040 -0.9494 -1.1994 -1.0729
 8347TIP3    H224987   1.687   0.750   0.143 -0.6913 -0.5909 -0.3803
 8348TIP3   OH224988   5.562   2.512   3.277  0.0145  0.1164  0.0406
 8348TIP3    H124989   5.476   2.471   3.271  0.3068 -0.6816  0.8744
 8348TIP3    H224990   5.556   2.570   3.353 -0.1535  1.0102 -0.6500
 8349TIP3   OH224991   6.160   6.070  -0.023  0.3919  0.4588 -0.1147
 8349TIP3    H124992   6.143   6.074   0.071  1.8979  1.1765  0.1433
 8349TIP3    H224993   6.254   6.056  -0.031  0.3847  0.9711 -1.5221
 8350TIP3   OH224994   6.878   7.148   1.280 -0.1950  0.1948 -0.0194
 8350TIP3    H124995   6.923   7.069   1.309  2.3025  1.1439 -1.1130
 8350TIP3    H224996   6.785   7.126   1.290  0.4123 -2.0637  1.7574
 8351TIP3   OH224997   5.610   5.570   1.626  0.8542  0.0431 -0.0019
 8351TIP3    H124998   5.597   5.629   1.700 -0.9354  0.4316 -0.5810
 8351TIP3    H224999   5.705   5.555   1.624  1.2274  1.9798  0.8551
 8352TIP3   OH225000   5.902   6.432   4.130 -0.0870  0.2033  0.1642
 8352TIP3    H125001   5.819   6.425   4.083 -0.1302  0.9011  0.1276
 8352TIP3    H225002   5.923   6.525   4.128 -0.2471  0.2937  1.8036
 8353TIP3   OH225003   2.511   6.705   6.067  0.3132  0.4096 -0.5641
 8353TIP3    H125004   2.470   6.661   6.142  1.7741  0.3708  0.2417
 8353TIP3    H225005   2.553   6.635   6.018  2.1943  0.7595  0.4362
 8354TIP3   OH225006   7.546   5.713   1.105  0.3562 -0.4803 -0.0298
 8354TIP3    H125007   7.535   5.765   1.025  0.9223 -1.6135 -0.8934
 8354TIP3    H225008   7.494   5.758   1.171  1.4149  1.5990 -0.5223
 8355TIP3   OH225009   1.154   3.744   0.003 -0.0672  0.6994 -0.4692
 8355TIP3    H125010   1.194   3.675  -0.050  2.5674  1.8347 -0.0900
 8355TIP3    H225011   1.156   3.708   0.092  2.4146  1.6156 -0.0800
 8356TIP3   OH225012   1.484   5.091   2.647  0.1151 -0.3627 -0.1505
 8356TIP3    H125013   1.467   5.160   2.712  1.9108 -0.3831  0.3950
 8356TIP3    H225014   1.463   5.132   2.563  1.2162  0.9236  0.1556
 8357TIP3   OH225015   5.262   5.924   0.627  0.0672  0.5041 -0.0778
 8357TIP3    H125016   5.199   5.867   0.671 -0.5026  0.9369 -0.3242
 8357TIP3    H225017   5.208   5.988   0.580  0.6968  1.5820  0.6250
 8358TIP3   OH225018   5.833   7.615   2.147  0.0246 -0.3664  0.7173
 8358TIP3    H125019   5.811   7.660   2.066 -0.1141 -1.1693  0.2913
 8358TIP3    H225020   5.759   7.555   2.161  0.9463 -1.6414  0.3605
 8359TIP3   OH225021   0.810   6.646   4.683 -0.4658  0.3717 -0.5052
 8359TIP3    H125022   0.754   6.573   4.709 -0.5078  0.8600  0.8498
 8359TIP3    H225023   0.755   6.724   4.694  0.3062  0.8193  0.4420
 8360TIP3   OH225024   7.473   3.731   0.192 -0.5163 -0.7089  0.4881
 8360TIP3    H125025   7.453   3.686   0.274 -1.6403 -1.0268  0.0574
 8360TIP3    H225026   7.401   3.707   0.134 -0.3459  0.4625 -0.2223
 8361TIP3   OH225027   7.504   5.493   5.444 -0.1831 -0.5873  0.3928
 8361TIP3    H125028   7.571   5.526   5.503  0.3263 -0.1697 -0.3972
 8361TIP3    H225029   7.499   5.400   5.463 -0.4911 -0.3573  1.5328
 8362TIP3   OH225030   2.086   1.227   5.974 -0.4801  0.0248 -0.0841
 8362TIP3    H125031   2.053   1.231   6.064  0.0800  0.4393  0.1126
 8362TIP3    H225032   2.054   1.307   5.933  1.6138  1.2930  0.6026
 8363TIP3   OH225033   5.913   4.593   3.524  0.2235  0.0333 -0.0042
 8363TIP3    H125034   5.903   4.631   3.437  1.2304 -0.5699 -0.3996
 8363TIP3    H225035   5.833   4.542   3.538  0.5804 -0.8677 -1.0965
 8364TIP3   OH225036   6.546   3.347   2.088  0.5778  0.2675  0.3783
 8364TIP3    H125037   6.599   3.361   2.167 -1.8788  0.5461  2.1138
 8364TIP3    H225038   6.572   3.261   2.056  2.8513  0.8650  0.4123
 8365TIP3   OH225039   4.413   4.275   0.864 -0.3729 -0.0401 -0.4778
 8365TIP3    H125040   4.368   4.197   0.895 -0.3177 -0.6205 -1.7897
 8365TIP3    H225041   4.501   4.244   0.839 -0.3400  0.4295 -0.9856
 8366TIP3   OH225042   3.400   1.670   1.136  0.1431  0.0780 -0.0693
 8366TIP3    H125043   3.387   1.604   1.067  1.0485 -1.3358  1.0476
 8366TIP3    H225044   3.389   1.621   1.218 -1.1958  1.7755  0.8199
 8367TIP3   OH225045   7.632   7.207   1.278  0.2731 -0.2662  0.6374
 8367TIP3    H125046   7.671   7.150   1.344 -0.6544 -0.4631  1.0328
 8367TIP3    H225047   7.689   7.283   1.276  0.2758 -0.2194  1.7297
 8368TIP3   OH225048   6.994   1.470   5.036  0.4891  0.2980  0.0338
 8368TIP3    H125049   7.072   1.415   5.041  0.1278 -0.4390 -1.6255
 8368TIP3    H225050   7.025   1.551   4.995  0.3047 -0.2245 -1.1816
 8369TIP3   OH225051   7.113   7.397   2.018 -0.2955  0.2850 -0.1101
 8369TIP3    H125052   7.180   7.383   1.951 -1.1923  0.0709 -0.9869
 8369TIP3    H225053   7.038   7.347   1.988 -1.3094  1.5875  0.1618
 8370TIP3   OH225054   3.250   2.661   3.530 -0.0055 -0.0414  0.3512
 8370TIP3    H125055   3.253   2.565   3.535 -1.2574 -0.1077  0.2385
 8370TIP3    H225056   3.157   2.682   3.534  0.1222  1.0809 -1.4085
 8371TIP3   OH225057   3.882   4.531   4.507 -0.1414  0.1894 -0.0893
 8371TIP3    H125058   3.890   4.558   4.416  1.6554  0.2110  0.0373
 8371TIP3    H225059   3.941   4.456   4.515  1.3889  1.4776  1.5147
 8372TIP3   OH225060   3.871   4.411   5.769  0.6527 -0.0857  0.0819
 8372TIP3    H125061   3.886   4.348   5.840  0.4512  0.6028  0.7464
 8372TIP3    H225062   3.876   4.359   5.689 -0.4518 -1.1337  0.6574
 8373TIP3   OH225063   4.045   1.157   0.766 -0.2715  0.4667  0.1556
 8373TIP3    H125064   3.990   1.097   0.816 -1.0802 -0.6798 -1.9944
 8373TIP3    H225065   3.987   1.230   0.744 -0.2636  0.3901 -0.1207
 8374TIP3   OH225066   1.456   1.757   6.628 -0.1535 -0.1152 -0.0269
 8374TIP3    H125067   1.438   1.696   6.557  0.4301  0.8490 -1.0271
 8374TIP3    H225068   1.546   1.786   6.613  0.1241 -0.1798  1.3283
 8375TIP3   OH225069   7.912   6.300   4.859  0.2925  0.3889 -0.6273
 8375TIP3    H125070   7.965   6.379   4.854 -0.1220  0.7096 -0.0383
 8375TIP3    H225071   7.851   6.307   4.785  0.9414  0.1115 -1.1901
 8376TIP3   OH225072   0.808   3.014   1.238  0.3699 -0.9912 -0.1606
 8376TIP3    H125073   0.791   3.101   1.201  0.1540 -0.4829  1.0650
 8376TIP3    H225074   0.791   2.953   1.166 -2.2661 -0.2151 -0.3031
 8377TIP3   OH225075   2.673   1.058   5.538 -0.1754  0.1663 -0.2878
 8377TIP3    H125076   2.592   1.104   5.515 -0.7184 -1.2160 -1.2509
 8377TIP3    H225077   2.715   1.040   5.454 -0.1347 -1.3552  0.0318
 8378TIP3   OH225078   2.812   0.878   2.719 -0.1909 -0.4377  1.2243
 8378TIP3    H125079   2.817   0.833   2.635  1.0060  2.1743 -0.2022
 8378TIP3    H225080   2.718   0.888   2.735 -0.5637  2.0102 -1.6218
 8379TIP3   OH225081   5.095   3.984   3.800  0.1639  0.3786 -0.5207
 8379TIP3    H125082   5.188   4.004   3.811  0.2598 -0.4516  0.3550
 8379TIP3    H225083   5.055   4.067   3.776  1.3548  0.4541 -2.4694
 8380TIP3   OH225084   0.265   4.288   0.083 -0.3073 -0.1896 -0.0924
 8380TIP3    H125085   0.304   4.348   0.019 -0.0812 -1.3173 -1.0258
 8380TIP3    H225086   0.331   4.220   0.096 -1.8717 -2.1086 -1.6461
 8381TIP3   OH225087   4.906   1.818   3.508 -0.3853  0.3432 -0.1993
 8381TIP3    H125088   4.897   1.784   3.419 -1.4341  1.5993 -0.6121
 8381TIP3    H225089   4.962   1.755   3.553 -1.8954 -1.6754 -0.9966
 8382TIP3   OH225090   5.521   5.809   1.407  0.0520 -0.5745  0.0971
 8382TIP3    H125091   5.596   5.818   1.466 -0.1317  0.9295  0.1426
 8382TIP3    H225092   5.504   5.898   1.377 -3.0861 -0.4622  1.7927
 8383TIP3   OH225093   6.055   2.161   1.919  0.2733 -0.0260  0.1095
 8383TIP3    H125094   6.000   2.095   1.961 -1.8826  0.6891 -1.4237
 8383TIP3    H225095   6.070   2.128   1.831 -0.8527  1.4562 -0.6921
 8384TIP3   OH225096   0.794   5.023   2.320 -0.3199 -0.3186  0.0358
 8384TIP3    H125097   0.849   4.993   2.247  0.1775 -0.1402  0.3372
 8384TIP3    H225098   0.786   4.946   2.377 -1.0043 -0.5666 -0.3722
 8385TIP3   OH225099   1.787   2.249   5.010 -0.2212  0.3761  0.4440
 8385TIP3    H125100   1.849   2.178   4.990 -1.5535 -0.5670 -0.5116
 8385TIP3    H225101   1.815   2.321   4.954 -1.3313 -0.8245 -1.7995
 8386TIP3   OH225102   1.370   4.719   4.368  0.4813  0.2921  0.5709
 8386TIP3    H125103   1.340   4.683   4.284 -0.3748  0.6071  0.7281
 8386TIP3    H225104   1.465   4.718   4.362  0.4794 -1.4701  0.3520
 8387TIP3   OH225105   1.597   1.447   0.272 -0.0218 -0.0546  0.1079
 8387TIP3    H125106   1.556   1.533   0.266  0.5254  0.1614 -0.7619
 8387TIP3    H225107   1.688   1.465   0.293  0.4630 -0.3099 -1.6083
 8388TIP3   OH225108   0.555   2.550   0.274 -0.2161 -0.1504 -0.3333
 8388TIP3    H125109   0.609   2.625   0.248 -1.5310  0.6123 -0.9720
 8388TIP3    H225110   0.610   2.474   0.257  1.0899  0.6461  0.1546
 8389TIP3   OH225111   6.519   2.227   2.523  0.2070  0.2320  0.0658
 8389TIP3    H125112   6.546   2.293   2.587  0.7945  0.1002 -0.0452
 8389TIP3    H225113   6.520   2.144   2.572 -0.8430  0.3274  0.2946
 8390TIP3   OH225114   0.723   6.521   6.115 -0.0131  0.2345  0.4599
 8390TIP3    H125115   0.807   6.560   6.137 -0.5241  1.3610  0.4616
 8390TIP3    H225116   0.663   6.554   6.182 -1.1827  2.2015 -1.4640
 8391TIP3   OH225117   4.330   5.582   0.093 -0.0970  0.4984  0.6695
 8391TIP3    H125118   4.291   5.611   0.010  0.1926  0.8809  0.6606
 8391TIP3    H225119   4.358   5.664   0.135  2.0392  0.1778  0.0048
 8392TIP3   OH225120   4.811   7.333   0.422 -0.2676  0.0701 -0.9114
 8392TIP3    H125121   4.738   7.333   0.359 -0.7815  2.2515 -0.4259
 8392TIP3    H225122   4.770   7.321   0.507  0.3088 -1.7378 -0.8555
 8393TIP3   OH225123   3.175   1.691   1.926  0.3106  0.1523  0.0609
 8393TIP3    H125124   3.163   1.596   1.936  1.2178 -0.0379 -0.5058
 8393TIP3    H225125   3.212   1.719   2.010  0.1239 -0.0100  0.1983
 8394TIP3   OH225126   2.431   7.065   5.024 -0.2727 -0.1341  0.4647
 8394TIP3    H125127   2.441   7.098   5.114 -2.4486 -0.7984  1.0041
 8394TIP3    H225128   2.519   7.035   5.000  0.5247  0.7812  2.0722
 8395TIP3   OH225129   4.294   5.261   4.313 -0.2571  0.3555  0.0751
 8395TIP3    H125130   4.321   5.230   4.400 -0.6618  2.0504  0.8332
 8395TIP3    H225131   4.276   5.180   4.264  0.0853 -0.6388  1.5175
 8396TIP3   OH225132   4.753   7.794   4.073  0.0318  0.2723  0.2053
 8396TIP3    H125133   4.714   7.776   3.987 -0.0614 -0.4294  0.3910
 8396TIP3    H225134   4.692   7.755   4.136  1.6561 -2.1024  0.4525
 8397TIP3   OH225135   5.229   0.212   1.722 -0.4990 -0.1567 -0.4145
 8397TIP3    H125136   5.154   0.209   1.662  0.3615 -1.1275 -1.4961
 8397TIP3    H225137   5.190   0.224   1.808 -1.7862  1.2502 -1.1471
 8398TIP3   OH225138   4.250   0.439   1.412 -0.0824 -0.4881 -0.3413
 8398TIP3    H125139   4.225   0.376   1.345  0.4500  0.3594 -1.3737
 8398TIP3    H225140   4.288   0.512   1.363  0.9230 -0.1243  0.9265
 8399TIP3   OH225141   2.828   3.848   2.450 -0.8907  0.5543  0.3889
 8399TIP3    H125142   2.832   3.755   2.474  0.6246  0.8397  1.3529
 8399TIP3    H225143   2.778   3.849   2.368 -0.5534 -1.1506  0.1190
 8400TIP3   OH225144   4.506   5.750   3.510  0.4220  0.0170  0.5694
 8400TIP3    H125145   4.509   5.687   3.582  1.1655 -0.3111  0.2578
 8400TIP3    H225146   4.499   5.836   3.553  1.6967 -0.1080  1.0782
 8401TIP3   OH225147   3.917   4.057   6.125 -0.4278  0.7566  0.2407
 8401TIP3    H125148   3.836   4.005   6.122  0.1132 -0.0811 -0.7078
 8401TIP3    H225149   3.987   3.991   6.125  0.2567  1.4692  1.1771
 8402TIP3   OH225150   7.896   2.820   0.421 -0.4570 -0.4471  0.0765
 8402TIP3    H125151   7.878   2.879   0.495 -1.8070 -1.2173  0.4023
 8402TIP3    H225152   7.880   2.733   0.456  0.2009 -0.9267 -0.7770
 8403TIP3   OH225153   3.189   3.499   5.044  0.2727  0.4267 -0.0361
 8403TIP3    H125154   3.207   3.423   4.989  0.1634  1.4936 -1.6201
 8403TIP3    H225155   3.261   3.501   5.107  0.9185 -0.3154 -0.7295
 8404TIP3   OH225156   2.449   0.884   3.554 -0.1465 -0.2172  0.3233
 8404TIP3    H125157   2.453   0.814   3.619  1.1833  0.1870  0.7129
 8404TIP3    H225158   2.540   0.897   3.528 -0.2594  1.7991  0.7485
 8405TIP3   OH225159   1.863   3.429   4.483 -0.0880  0.3788 -0.6457
 8405TIP3    H125160   1.950   3.446   4.447 -0.0975  0.4130 -0.6522
 8405TIP3    H225161   1.817   3.383   4.413  0.6940 -1.8107  0.1878
 8406TIP3   OH225162   0.246   2.662   4.030 -0.1212 -0.1694 -0.7147
 8406TIP3    H125163   0.218   2.719   4.102 -0.4212 -0.4910 -0.5779
 8406TIP3    H225164   0.336   2.638   4.052  0.7920  1.9427 -1.8185
 8407TIP3   OH225165   5.324   5.352   2.602 -0.0772 -0.4502 -0.7497
 8407TIP3    H125166   5.337   5.393   2.516  0.2705 -0.8514 -0.8918
 8407TIP3    H225167   5.410   5.358   2.644 -0.4998  0.7381  0.0218
 8408TIP3   OH225168   1.698   5.369   6.712 -0.5604  0.2142 -0.1445
 8408TIP3    H125169   1.630   5.392   6.649 -2.3963 -1.1673  1.2090
 8408TIP3    H225170   1.732   5.285   6.681 -1.5568 -0.5333  0.6830
 8409TIP3   OH225171   1.467   0.103   0.662 -0.2866 -0.2028 -0.1098
 8409TIP3    H125172   1.508   0.030   0.707 -0.3953  0.4105  1.0118
 8409TIP3    H225173   1.527   0.176   0.674  0.2512 -0.2976 -1.9764
 8410TIP3   OH225174   5.248   3.794   1.653  0.6619  0.3223 -0.1168
 8410TIP3    H125175   5.202   3.877   1.637  2.7761  1.8585  1.2131
 8410TIP3    H225176   5.330   3.802   1.604  0.0870 -1.9240 -1.6230
 8411TIP3   OH225177   7.105   5.062   0.818 -0.1670  0.2936  1.0006
 8411TIP3    H125178   7.041   5.055   0.748  1.3618  2.5114 -0.8068
 8411TIP3    H225179   7.171   4.995   0.798 -0.3283  0.1288  1.0223
 8412TIP3   OH225180   6.588   5.675   4.053 -0.0246  0.0600 -0.8512
 8412TIP3    H125181   6.585   5.754   3.999 -1.1907 -0.5831 -1.7787
 8412TIP3    H225182   6.680   5.651   4.055  0.5628  2.1622  0.5715
 8413TIP3   OH225183   8.213   7.108   0.974  0.0142  0.0762 -0.0120
 8413TIP3    H125184   8.130   7.114   1.020 -0.6287 -0.5268 -1.0485
 8413TIP3    H225185   8.205   7.171   0.902  0.6350  0.3442  0.1476
 8414TIP3   OH225186   5.043   4.715   5.298  0.2270  0.0088 -0.1770
 8414TIP3    H125187   5.105   4.788   5.293  0.5452 -0.2267  0.3510
 8414TIP3    H225188   4.957   4.757   5.302  0.4811  0.4137  1.7606
 8415TIP3   OH225189   4.735   4.065   3.919 -0.0078  0.3243 -0.3099
 8415TIP3    H125190   4.740   3.970   3.915 -0.0358  0.3235 -0.3212
 8415TIP3    H225191   4.728   4.093   3.827  2.7766  0.4727 -0.5858
 8416TIP3   OH225192   7.485   6.151   5.406 -0.0262  0.5510  0.1548
 8416TIP3    H125193   7.474   6.224   5.345  1.2724  0.6606  0.0367
 8416TIP3    H225194   7.539   6.088   5.360 -0.7714 -0.3136  0.4282
 8417TIP3   OH225195   1.499   4.985   6.753  0.2225 -0.0808  0.7055
 8417TIP3    H125196   1.572   5.025   6.706  0.0354  1.6585  1.8237
 8417TIP3    H225197   1.507   5.016   6.843 -0.6487 -1.6241  1.3618
 8418TIP3   OH225198   2.323   6.851   2.309 -0.3108 -0.2905 -0.5067
 8418TIP3    H125199   2.265   6.779   2.284 -1.9540  0.5455  0.7439
 8418TIP3    H225200   2.273   6.930   2.292  0.7773  0.5026 -0.1570
 8419TIP3   OH225201   2.673   0.998   4.610  0.0091 -0.2738 -0.3910
 8419TIP3    H125202   2.636   1.063   4.550 -0.9838 -0.7677 -0.3437
 8419TIP3    H225203   2.738   0.951   4.558  0.7622  0.7681 -0.4166
 8420TIP3   OH225204   2.503   1.664   5.690 -0.5230  0.4490  0.0987
 8420TIP3    H125205   2.504   1.574   5.658 -0.8169  0.0390  1.1974
 8420TIP3    H225206   2.517   1.656   5.784  2.4196  1.7398 -0.1308
 8421TIP3   OH225207   5.583   4.662   3.780  0.6481 -0.3925 -0.8504
 8421TIP3    H125208   5.499   4.616   3.778 -0.3559  1.1784  0.9507
 8421TIP3    H225209   5.576   4.727   3.710 -0.2298  0.5555  0.0633
 8422TIP3   OH225210   5.109   6.398   3.411 -0.2021 -0.1265  0.0907
 8422TIP3    H125211   5.063   6.481   3.398  0.8994  0.2143 -2.0723
 8422TIP3    H225212   5.046   6.343   3.457 -0.5804  2.2109  2.6711
 8423TIP3   OH225213   0.376   2.302   5.892  0.1084  0.3356  0.5162
 8423TIP3    H125214   0.330   2.231   5.939 -2.1379 -0.6316 -2.7574
 8423TIP3    H225215   0.456   2.261   5.860 -0.9657 -0.7212 -0.9807
 8424TIP3   OH225216   5.437   3.903   1.455  0.0960  0.2732  0.8171
 8424TIP3    H125217   5.444   3.966   1.383 -0.0427  0.6472  1.1299
 8424TIP3    H225218   5.380   3.834   1.420  0.0711  0.4282  0.5489
 8425TIP3   OH225219   7.152   6.842   4.572  0.4449 -0.4598 -0.0803
 8425TIP3    H125220   7.210   6.913   4.545  1.4671 -0.1134  2.7569
 8425TIP3    H225221   7.071   6.885   4.599  0.2664 -0.5921 -0.3972
 8426TIP3   OH225222   1.516   5.441   0.487 -0.9728 -0.0816 -0.0064
 8426TIP3    H125223   1.547   5.351   0.476 -0.7238 -0.2249  1.5921
 8426TIP3    H225224   1.505   5.474   0.398 -0.3792 -1.4532 -0.6159
 8427TIP3   OH225225   1.446   3.639   3.323 -0.4352 -0.0548  0.3936
 8427TIP3    H125226   1.358   3.657   3.288 -0.1598 -0.0635 -0.3305
 8427TIP3    H225227   1.504   3.691   3.267  0.0759 -0.5508  0.4603
 8428TIP3   OH225228   0.165   4.603   2.262 -0.5478  0.7684 -0.0466
 8428TIP3    H125229   0.081   4.584   2.305  0.4531  1.1249  2.2374
 8428TIP3    H225230   0.193   4.519   2.227 -1.6251  0.5450 -0.4037
 8429TIP3   OH225231   5.849   1.368   0.454 -0.2871  0.0394  0.3634
 8429TIP3    H125232   5.845   1.462   0.437 -2.0016 -0.0150  0.3114
 8429TIP3    H225233   5.942   1.351   0.469  0.2407  1.4967 -0.9415
 8430TIP3   OH225234   2.570   0.350   1.942  0.6769  0.1802  0.5152
 8430TIP3    H125235   2.517   0.374   1.866  1.2013 -0.6845 -0.1361
 8430TIP3    H225236   2.513   0.294   1.994 -0.0991  1.6938  1.3936
 8431TIP3   OH225237   7.108   4.171   0.608 -0.3286 -0.2481 -0.3850
 8431TIP3    H125238   7.079   4.205   0.692  0.5254  0.0561 -0.2032
 8431TIP3    H225239   7.027   4.157   0.559 -0.8159 -0.1265  0.3660
 8432TIP3   OH225240   5.181   7.231   4.518 -0.6577 -0.3202  1.0638
 8432TIP3    H125241   5.222   7.296   4.575  0.1625 -1.1559  1.4536
 8432TIP3    H225242   5.248   7.164   4.505 -0.8195 -0.1843 -0.8663
 8433TIP3   OH225243   1.507   0.016   2.222  0.0863  0.4509 -0.5067
 8433TIP3    H125244   1.438   0.076   2.251  0.5185  0.4315  0.6082
 8433TIP3    H225245   1.586   0.071   2.217  0.0991  0.3696 -1.3060
 8434TIP3   OH225246   2.957   6.695   3.786  0.3207  0.2224 -0.1878
 8434TIP3    H125247   2.972   6.697   3.881 -1.1435 -0.4421  0.0886
 8434TIP3    H225248   2.986   6.780   3.755  0.8124  0.4520  0.8552
 8435TIP3   OH225249   4.623   1.860   2.971 -0.1502  0.0501 -0.7469
 8435TIP3    H125250   4.641   1.952   2.991  2.1893 -0.2401 -1.1761
 8435TIP3    H225251   4.709   1.818   2.976 -1.1250 -2.0579 -0.8935
 8436TIP3   OH225252   4.170   1.207   4.423 -0.0726 -0.3739 -0.3014
 8436TIP3    H125253   4.132   1.129   4.465  1.6768 -1.0841  0.0655
 8436TIP3    H225254   4.202   1.175   4.338  1.7906 -0.4053  0.3664
 8437TIP3   OH225255   2.578   6.839   0.070 -0.1145  0.2232  0.0623
 8437TIP3    H125256   2.505   6.839   0.008  1.9162  0.7039 -2.5027
 8437TIP3    H225257   2.626   6.759   0.051  0.9870  0.7660  0.4806
 8438TIP3   OH225258   7.376   2.403   2.003 -0.1370  0.8383  0.3214
 8438TIP3    H125259   7.415   2.478   1.958 -1.5732  0.9929 -0.7542
 8438TIP3    H225260   7.304   2.440   2.054 -1.6457  0.1323 -1.1682
 8439TIP3   OH225261   5.148   3.059   5.145 -0.1329  0.5779 -1.0080
 8439TIP3    H125262   5.129   3.037   5.054 -0.5572  0.0852 -0.8059
 8439TIP3    H225263   5.062   3.058   5.188 -0.0180  1.4666 -0.7384
 8440TIP3   OH225264   7.509   1.095   5.066 -0.2132 -0.3020  0.0305
 8440TIP3    H125265   7.489   1.187   5.051  0.0970 -0.2608 -0.1501
 8440TIP3    H225266   7.481   1.050   4.986  0.1501 -0.2809 -0.1149
 8441TIP3   OH225267   6.087   1.261   6.379 -0.2975 -0.5351  0.1702
 8441TIP3    H125268   6.123   1.209   6.450 -1.7009  3.2708  4.1527
 8441TIP3    H225269   5.992   1.256   6.391 -0.5152  1.7847 -0.0047
 8442TIP3   OH225270   2.936   1.005   5.796  0.2226  0.1418 -0.0938
 8442TIP3    H125271   2.947   0.962   5.711  1.3511 -1.5117  0.8462
 8442TIP3    H225272   2.966   1.095   5.781  0.1747 -0.0486 -1.4876
 8443TIP3   OH225273   7.217   0.395   0.636  0.0437 -0.1743  0.3392
 8443TIP3    H125274   7.264   0.432   0.562  2.0817 -1.1110  1.1085
 8443TIP3    H225275   7.248   0.445   0.712 -1.8758  0.6542  0.6367
 8444TIP3   OH225276   3.128   7.278   3.104  0.1127  0.1960  0.3378
 8444TIP3    H125277   3.148   7.371   3.091  0.7964  0.0857  0.5555
 8444TIP3    H225278   3.211   7.234   3.087 -0.5813 -0.5212 -1.3201
 8445TIP3   OH225279   5.905   3.079   3.153  0.2482  0.1588  0.1604
 8445TIP3    H125280   5.835   3.031   3.198 -0.8919  2.0888  0.5594
 8445TIP3    H225281   5.941   3.136   3.221  0.0751  1.4402 -0.7896
 8446TIP3   OH225282   1.875   1.417   0.346  0.1956 -0.1700  0.4950
 8446TIP3    H125283   1.847   1.478   0.414 -0.4382 -0.5423  0.5743
 8446TIP3    H225284   1.970   1.428   0.341  0.4860 -1.2940  2.5919
 8447TIP3   OH225285   2.827   2.211   2.457 -1.0250 -0.2618 -0.3254
 8447TIP3    H125286   2.772   2.263   2.515 -1.0686 -1.7379  1.0410
 8447TIP3    H225287   2.861   2.141   2.513  0.9468 -0.3308 -1.5106
 8448TIP3   OH225288   5.515   5.234   4.323 -0.0132  0.6981  0.4054
 8448TIP3    H125289   5.491   5.327   4.323  1.0885  0.9983 -0.4834
 8448TIP3    H225290   5.610   5.234   4.319 -0.0399 -0.4554 -0.9365
 8449TIP3   OH225291   0.452   0.444   2.669  0.5791  0.2327 -0.2611
 8449TIP3    H125292   0.443   0.399   2.585  0.9078 -0.2432 -0.0393
 8449TIP3    H225293   0.362   0.466   2.694  0.3952 -0.5653 -0.2213
 8450TIP3   OH225294   0.702   1.748   1.582  0.7017  0.7451  0.2925
 8450TIP3    H125295   0.675   1.838   1.566 -1.9363 -0.4212 -2.7459
 8450TIP3    H225296   0.626   1.707   1.624  0.6763 -0.7164 -1.0776
 8451TIP3   OH225297   6.945   5.904   4.013 -0.4944 -0.4164  0.2580
 8451TIP3    H125298   6.943   5.870   3.923 -1.5655 -2.4260  0.9640
 8451TIP3    H225299   7.019   5.964   4.015  0.9632 -2.0313 -1.4195
 8452TIP3   OH225300   2.510   1.903   1.586  0.1895  0.2511 -0.2007
 8452TIP3    H125301   2.459   1.973   1.626  0.7030  1.3860 -1.4446
 8452TIP3    H225302   2.542   1.851   1.659  0.3002  1.6786  0.8027
 8453TIP3   OH225303   7.267   4.247   3.339 -0.1490  0.1487 -0.2541
 8453TIP3    H125304   7.228   4.203   3.414  1.4072  0.4534  0.7712
 8453TIP3    H225305   7.320   4.180   3.296  0.8552  0.5694  0.3109
 8454TIP3   OH225306   4.286   2.609   2.803 -0.1418  0.0090  0.3294
 8454TIP3    H125307   4.315   2.642   2.717 -1.3272 -1.6490 -0.7718
 8454TIP3    H225308   4.338   2.529   2.816 -1.0482 -0.5709  0.4311
 8455TIP3   OH225309   4.188   6.184   6.487  0.1916  0.1082 -0.1451
 8455TIP3    H125310   4.194   6.254   6.552  0.8334  1.4057 -1.5151
 8455TIP3    H225311   4.278   6.152   6.478 -0.1345 -1.1010  0.6410
 8456TIP3   OH225312   3.049   6.060   0.132 -0.4471  0.1648 -0.0139
 8456TIP3    H125313   3.092   6.081   0.214 -1.0057  1.5727 -0.0417
 8456TIP3    H225314   3.103   5.992   0.092 -0.7124 -1.2596  1.9507
 8457TIP3   OH225315   8.131   7.245   3.813 -0.0750 -0.0855  0.1035
 8457TIP3    H125316   8.210   7.192   3.822  0.3167  0.4563 -0.0533
 8457TIP3    H225317   8.062   7.182   3.793  0.4148 -0.5109 -0.2774
 8458TIP3   OH225318   3.702   3.770   4.485 -0.4348  0.6273  0.0714
 8458TIP3    H125319   3.704   3.748   4.578 -1.4159 -0.8019 -0.2065
 8458TIP3    H225320   3.780   3.823   4.471 -0.0474  0.5127  1.6242
 8459TIP3   OH225321   4.112   6.553   4.557 -0.6608  0.2322  0.2488
 8459TIP3    H125322   4.060   6.629   4.531 -0.8494 -0.2557 -0.8404
 8459TIP3    H225323   4.087   6.484   4.496 -1.2082 -1.0168  1.8145
 8460TIP3   OH225324   8.317   2.631   5.618 -0.2982  0.0340  0.1051
 8460TIP3    H125325   8.279   2.697   5.676 -1.4463 -0.9669  0.5378
 8460TIP3    H225326   8.255   2.624   5.545  0.3349  0.1450 -0.4543
 8461TIP3   OH225327   0.079   3.693   3.822 -0.1543 -0.1116  0.4493
 8461TIP3    H125328   0.129   3.722   3.898 -0.1576  0.9887  0.0494
 8461TIP3    H225329   0.129   3.618   3.788  0.9928  0.6701  0.3355
 8462TIP3   OH225330   6.586   3.629   5.948 -0.9830  0.3132  0.6677
 8462TIP3    H125331   6.546   3.542   5.950  1.2757 -1.0610 -2.8610
 8462TIP3    H225332   6.649   3.628   6.020  1.0183 -2.2540 -0.9246
 8463TIP3   OH225333   3.594   2.591   1.623 -0.3545  0.2856 -1.0169
 8463TIP3    H125334   3.569   2.499   1.631  1.5583 -0.2068 -0.0307
 8463TIP3    H225335   3.514   2.640   1.640 -1.1645 -1.1968 -0.4281
 8464TIP3   OH225336   5.187   1.454   0.912 -0.3661 -0.0545  0.3827
 8464TIP3    H125337   5.186   1.467   1.007 -0.2584 -0.0361  0.3813
 8464TIP3    H225338   5.134   1.526   0.877 -0.8129 -0.3390  0.4632
 8465TIP3   OH225339   4.076   0.252   5.701 -0.3014 -0.0890 -0.0322
 8465TIP3    H125340   3.981   0.250   5.693 -0.3413 -0.1830  0.4377
 8465TIP3    H225341   4.096   0.183   5.764  0.2223 -1.2460 -1.4054
 8466TIP3   OH225342   3.985   1.955   4.727 -0.2957  0.4289 -0.2810
 8466TIP3    H125343   4.062   1.950   4.784  1.1526  0.6451 -2.1291
 8466TIP3    H225344   4.009   1.907   4.648 -2.1633  0.2900 -0.8275
 8467TIP3   OH225345   6.526   3.505   1.741  0.5198 -1.0922 -0.8276
 8467TIP3    H125346   6.621   3.500   1.732  0.5792  0.4477 -1.2960
 8467TIP3    H225347   6.508   3.596   1.764 -1.0246 -0.5200 -3.7435
 8468TIP3   OH225348   7.829   3.028   4.490  0.1234 -0.6334  0.1668
 8468TIP3    H125349   7.819   3.078   4.410  1.7282  0.1010  0.3918
 8468TIP3    H225350   7.779   3.076   4.556 -1.1040 -1.1788 -0.3358
 8469TIP3   OH225351   3.366   7.639   5.107 -0.0560 -0.5731 -0.0162
 8469TIP3    H125352   3.344   7.574   5.174 -1.1966 -1.6614 -1.3861
 8469TIP3    H225353   3.299   7.628   5.040 -0.6994  2.5127 -0.0334
 8470TIP3   OH225354   7.508   7.171   2.039 -0.5359 -0.2031  0.1847
 8470TIP3    H125355   7.501   7.150   1.946 -1.8665 -0.0817  0.2451
 8470TIP3    H225356   7.487   7.089   2.084  0.9023 -0.4908  0.4099
 8471TIP3   OH225357   4.584   4.480   3.663  0.0279  0.8097 -0.0841
 8471TIP3    H125358   4.608   4.432   3.742  2.0896  0.2668 -0.9845
 8471TIP3    H225359   4.515   4.540   3.691 -0.3913 -0.4606  1.7611
 8472TIP3   OH225360   5.736   1.000   5.902  0.1765  0.7773 -0.1338
 8472TIP3    H125361   5.723   1.064   5.972  0.7031 -0.4615  1.1261
 8472TIP3    H225362   5.830   1.000   5.887  0.7713 -2.4413  2.6330
 8473TIP3   OH225363   0.758   3.249   1.842  0.3628  0.6937 -0.2000
 8473TIP3    H125364   0.690   3.242   1.910 -0.4311  0.1234 -1.0232
 8473TIP3    H225365   0.789   3.159   1.831  0.2277  0.7214 -0.8360
 8474TIP3   OH225366   8.079   5.096   0.474 -0.4070  0.6392 -0.7015
 8474TIP3    H125367   8.159   5.047   0.493  0.2082  1.8623 -0.0235
 8474TIP3    H225368   8.087   5.176   0.526 -1.7789  1.0773 -1.1212
 8475TIP3   OH225369   4.729   4.039   3.125  0.1704 -0.4170  0.2889
 8475TIP3    H125370   4.650   4.091   3.136 -0.4367 -1.3284  0.3362
 8475TIP3    H225371   4.775   4.080   3.051  0.6193  1.2574  1.4330
 8476TIP3   OH225372   4.069   6.327   0.449  0.2224 -0.9105 -0.3531
 8476TIP3    H125373   4.043   6.350   0.538  0.7938 -0.8729 -0.1955
 8476TIP3    H225374   4.034   6.239   0.437 -0.2558 -0.7384 -0.2580
 8477TIP3   OH225375   3.018   6.035   1.197 -0.2862 -0.5946 -0.2923
 8477TIP3    H125376   3.090   5.978   1.169  0.4391  0.4369 -0.5848
 8477TIP3    H225377   3.057   6.092   1.263 -0.9818 -0.3582 -0.0738
 8478TIP3   OH225378   4.355   1.858   4.038 -0.2602  0.2980  0.5349
 8478TIP3    H125379   4.353   1.951   4.059  0.1004  0.3873  0.1844
 8478TIP3    H225380   4.371   1.814   4.122 -0.9167  0.5148  0.7803
 8479TIP3   OH225381   4.222   1.459   2.414 -0.2284 -0.4980 -0.2189
 8479TIP3    H125382   4.270   1.426   2.338  0.8669  0.7647 -0.1259
 8479TIP3    H225383   4.203   1.550   2.392  0.1638 -0.0880  1.0281
 8480TIP3   OH225384   2.013   7.456   4.675 -0.2366  0.7436  0.6024
 8480TIP3    H125385   2.079   7.439   4.607  0.5422  3.0664  0.6909
 8480TIP3    H225386   2.060   7.442   4.757 -0.7933 -0.6927  0.7085
 8481TIP3   OH225387   3.567   6.971   4.662 -0.3579  0.0563  0.6419
 8481TIP3    H125388   3.528   6.997   4.745 -0.9602  0.3171  0.2866
 8481TIP3    H225389   3.637   6.910   4.686 -0.0277  0.7028  1.3830
 8482TIP3   OH225390   5.682   5.892   3.832 -0.1578  0.2545 -0.0013
 8482TIP3    H125391   5.770   5.917   3.861 -0.2560  1.8657 -0.9784
 8482TIP3    H225392   5.693   5.867   3.740 -0.7068  0.4292 -0.1198
 8483TIP3   OH225393   6.872   1.031   4.941 -0.0757 -0.5158 -0.5949
 8483TIP3    H125394   6.929   0.989   5.006 -1.1472  0.2756  0.8976
 8483TIP3    H225395   6.833   0.957   4.893 -0.4113 -1.1887  0.6612
 8484TIP3   OH225396   4.557   1.620   2.754 -0.0995  0.6959 -0.7836
 8484TIP3    H125397   4.623   1.551   2.767 -2.2577 -1.3390  0.1856
 8484TIP3    H225398   4.593   1.696   2.800  1.7614 -0.1820 -0.6658
 8485TIP3   OH225399   2.879   5.699   3.124 -0.1596  0.0203  0.2314
 8485TIP3    H125400   2.790   5.690   3.156 -0.4256 -1.7264 -0.8261
 8485TIP3    H225401   2.920   5.614   3.142  0.0078 -0.6931 -2.8447
 8486TIP3   OH225402   3.175   2.943   4.816 -0.1458  0.1349  0.4398
 8486TIP3    H125403   3.257   2.947   4.866 -0.7319  1.9705  1.3338
 8486TIP3    H225404   3.190   2.874   4.751  2.1216  0.4590  0.5375
 8487TIP3   OH225405   0.270   6.717   0.105 -0.6050  0.9645 -0.6749
 8487TIP3    H125406   0.357   6.753   0.124 -1.0103  1.6554 -0.1035
 8487TIP3    H225407   0.237   6.772   0.034 -1.1883  1.6894  0.1373
 8488TIP3   OH225408   3.010   6.967   6.599  0.9237 -0.1797  0.8816
 8488TIP3    H125409   2.926   6.921   6.590  0.2052  0.3346  3.8050
 8488TIP3    H225410   3.053   6.955   6.515 -2.3281  0.0570 -0.9901
 8489TIP3   OH225411   0.360   1.883   5.866 -0.0012 -0.3439 -0.2309
 8489TIP3    H125412   0.378   1.864   5.774  0.9378 -0.4163 -0.0432
 8489TIP3    H225413   0.275   1.841   5.884  0.4667 -1.5174 -0.6958
 8490TIP3   OH225414   7.070   1.673   0.140 -0.4819  0.0887  0.3680
 8490TIP3    H125415   7.131   1.601   0.121  0.4621  0.5303  1.5565
 8490TIP3    H225416   7.035   1.698   0.054  0.3019 -0.8133 -0.2401
 8491TIP3   OH225417   6.706   5.614   3.151  0.0808  0.1356  0.4223
 8491TIP3    H125418   6.796   5.640   3.137  0.6754 -1.5016  0.8952
 8491TIP3    H225419   6.655   5.662   3.086  1.4733  0.0028 -0.7975
 8492TIP3   OH225420   6.894   3.082   5.941 -0.4573  0.3878  0.1540
 8492TIP3    H125421   6.919   3.174   5.938  2.2576 -0.2621 -2.4512
 8492TIP3    H225422   6.827   3.072   5.874  0.2497  0.2628 -0.5469
 8493TIP3   OH225423   1.697   5.787   2.850 -0.6718  0.3086  0.1369
 8493TIP3    H125424   1.619   5.801   2.904 -0.2527  1.0126  0.5763
 8493TIP3    H225425   1.664   5.784   2.760 -1.1360  1.2326  0.2665
 8494TIP3   OH225426   1.136   7.238   5.035 -0.4416  0.2148 -0.0538
 8494TIP3    H125427   1.221   7.249   4.992 -0.2109 -0.1445  0.3065
 8494TIP3    H225428   1.133   7.145   5.060 -0.7370  0.3301  0.3568
 8495TIP3   OH225429   1.992   7.484   2.502  0.0497  0.1272  0.5969
 8495TIP3    H125430   2.026   7.394   2.501  2.3214  0.8225 -2.3778
 8495TIP3    H225431   1.911   7.480   2.452  1.0404 -0.1043 -1.0837
 8496TIP3   OH225432   8.210   4.913   1.516 -0.2512  0.1907 -0.0387
 8496TIP3    H125433   8.147   4.879   1.453  1.1278 -0.1697 -1.2646
 8496TIP3    H225434   8.287   4.858   1.506  0.5594  1.1058  0.8774
 8497TIP3   OH225435   6.896   0.003   5.206  0.1263 -0.1690 -0.4702
 8497TIP3    H125436   6.950   0.076   5.173 -0.4783 -0.5224 -2.3896
 8497TIP3    H225437   6.824   0.046   5.253 -1.0773  0.6570 -2.8644
 8498TIP3   OH225438   3.274   5.592   1.276 -0.0669  0.9803 -0.6179
 8498TIP3    H125439   3.351   5.584   1.220  1.7227 -1.5779  1.9113
 8498TIP3    H225440   3.291   5.670   1.329  0.1400  1.1639 -0.9508
 8499TIP3   OH225441   2.800   5.975   6.347  0.5533 -0.6057 -0.3184
 8499TIP3    H125442   2.816   5.884   6.321 -0.2974 -0.6034 -0.8679
 8499TIP3    H225443   2.886   6.016   6.342  0.7559 -1.1063 -1.1729
 8500TIP3   OH225444   5.620   3.775   1.609 -0.0953  0.3686  0.6959
 8500TIP3    H125445   5.681   3.847   1.626  0.1934  0.4619 -0.6062
 8500TIP3    H225446   5.549   3.816   1.559 -0.7542  0.0641  1.3683
 8501TIP3   OH225447   3.870   4.502   3.107 -0.1456 -0.1472 -0.3264
 8501TIP3    H125448   3.940   4.557   3.143  0.2234 -0.6172 -0.3177
 8501TIP3    H225449   3.842   4.548   3.028  0.5870 -0.2534 -0.6596
 8502TIP3   OH225450   2.865   0.974   1.845  0.3395  0.3066  0.0413
 8502TIP3    H125451   2.868   0.883   1.874 -1.2445 -0.3035 -1.5409
 8502TIP3    H225452   2.932   0.980   1.777  1.4827  0.7623  1.1638
 8503TIP3   OH225453   4.208   1.458   6.642 -0.0093  0.3985 -0.2204
 8503TIP3    H125454   4.131   1.401   6.641  0.0163  0.3326  0.5845
 8503TIP3    H225455   4.187   1.529   6.581  0.5671 -1.2274 -2.4108
 8504TIP3   OH225456   0.814   3.864   5.417 -0.7615 -0.1022  0.0832
 8504TIP3    H125457   0.806   3.906   5.503 -0.8808  0.9342 -0.4283
 8504TIP3    H225458   0.746   3.797   5.417 -0.6492 -0.2343  0.8578
 8505TIP3   OH225459   7.060   7.440   1.654 -0.4077  0.1602 -0.2685
 8505TIP3    H125460   6.981   7.480   1.690  0.2282  1.0932  0.1515
 8505TIP3    H225461   7.070   7.479   1.567 -1.0563 -0.8714 -0.8232
 8506TIP3   OH225462   1.012   5.119   0.880 -0.6931  0.0999 -0.2026
 8506TIP3    H125463   0.933   5.172   0.870 -2.0172 -1.7942 -0.2155
 8506TIP3    H225464   0.983   5.041   0.927  1.0166 -1.0011 -0.8955
 8507TIP3   OH225465   7.977   0.048   2.531 -0.4287 -0.3245  0.4227
 8507TIP3    H125466   7.962  -0.047   2.529 -2.0118 -0.0964 -0.7886
 8507TIP3    H225467   7.977   0.071   2.624  0.3122 -1.5341  0.7501
 8508TIP3   OH225468   2.026   5.959   4.735  0.3464 -0.0934  0.2766
 8508TIP3    H125469   1.968   6.010   4.678  0.4193  0.9552  1.1067
 8508TIP3    H225470   2.028   5.872   4.695 -1.2075  0.0452 -0.1964
 8509TIP3   OH225471   2.265   5.828   3.393  0.0686  0.2436  0.0494
 8509TIP3    H125472   2.318   5.862   3.465  2.0734 -0.7110 -0.8824
 8509TIP3    H225473   2.248   5.736   3.416 -2.0803  0.7659  0.7781
 8510TIP3   OH225474   8.274   0.827   5.036 -0.2051  0.1670 -0.3143
 8510TIP3    H125475   8.297   0.861   5.122  2.2420 -0.8711 -0.4706
 8510TIP3    H225476   8.212   0.756   5.053  1.2931 -0.9454  0.7653
 8511TIP3   OH225477   1.018   5.011   4.445  0.3613 -0.3079 -0.1568
 8511TIP3    H125478   0.927   4.992   4.419  0.5991 -1.1068 -0.4332
 8511TIP3    H225479   1.036   5.097   4.406 -0.1177 -0.3590 -0.5039
 8512TIP3   OH225480   3.980   6.004   1.584  0.5796 -0.4980 -0.0384
 8512TIP3    H125481   3.904   5.987   1.528 -0.3133  1.0286  0.6354
 8512TIP3    H225482   3.950   5.981   1.672  0.4045  1.2924  0.4216
 8513TIP3   OH225483   6.544   1.793   6.529 -0.5076 -0.2695 -0.3278
 8513TIP3    H125484   6.483   1.864   6.513  1.1290  0.7880 -2.3577
 8513TIP3    H225485   6.528   1.731   6.458  0.5731 -0.0925 -0.7464
 8514TIP3   OH225486   2.415   1.890   1.280 -0.1182  0.0232  0.2886
 8514TIP3    H125487   2.431   1.887   1.375 -2.5260  1.3112  0.8203
 8514TIP3    H225488   2.325   1.860   1.270  0.1007 -0.1233 -1.6290
 8515TIP3   OH225489   8.188   3.677   1.954  0.2122 -0.0799 -0.4948
 8515TIP3    H125490   8.176   3.711   1.865 -0.7338  0.3315 -0.2231
 8515TIP3    H225491   8.194   3.755   2.009 -1.3806 -0.3114  0.0560
 8516TIP3   OH225492   3.314   7.419   1.454 -0.7325 -0.3888  0.7620
 8516TIP3    H125493   3.221   7.443   1.457 -0.3469  1.8933 -1.6549
 8516TIP3    H225494   3.359   7.496   1.489  0.2869 -1.3789  1.6919
 8517TIP3   OH225495   5.848   2.311   4.909 -0.0194 -0.1827  0.3988
 8517TIP3    H125496   5.776   2.280   4.964  0.9247  0.8705  2.3212
 8517TIP3    H225497   5.860   2.403   4.934  2.0658 -0.3600  0.2573
 8518TIP3   OH225498   7.991   7.643   1.421  0.3210  0.1242  0.0240
 8518TIP3    H125499   8.001   7.733   1.390  2.3694  0.2056  0.8188
 8518TIP3    H225500   8.053   7.593   1.368 -0.0582 -0.6569  0.3109
 8519TIP3   OH225501   1.803   5.223   1.187 -0.4270  0.3896  0.3793
 8519TIP3    H125502   1.754   5.142   1.202 -0.5849  0.4725  0.3128
 8519TIP3    H225503   1.862   5.230   1.262 -0.6087  0.3575  0.5258
 8520TIP3   OH225504   0.450   2.344   1.518 -0.0664 -0.5416 -0.2729
 8520TIP3    H125505   0.463   2.313   1.608 -0.6822 -0.4165 -0.1338
 8520TIP3    H225506   0.383   2.412   1.526  0.3829 -0.0393 -0.7355
 8521TIP3   OH225507   8.011   7.303   1.957 -0.7642  0.0444  0.1607
 8521TIP3    H125508   7.948   7.232   1.973 -0.0203 -0.8314 -0.7018
 8521TIP3    H225509   8.067   7.271   1.887  2.9834 -0.7644  3.1813
 8522TIP3   OH225510   7.041   1.595   0.400  0.1036 -0.0168 -0.6078
 8522TIP3    H125511   7.124   1.616   0.442 -0.8722  1.2444  0.7750
 8522TIP3    H225512   7.048   1.636   0.313  1.0430 -0.2075 -0.6351
 8523TIP3   OH225513   4.222   3.133   0.138 -0.5007 -0.1435 -0.1117
 8523TIP3    H125514   4.233   3.045   0.174 -2.3151 -0.2823  0.1804
 8523TIP3    H225515   4.246   3.191   0.211  1.3816 -0.3492 -0.5207
 8524TIP3   OH225516   1.302   7.095   0.420  0.2494 -0.9828 -0.0612
 8524TIP3    H125517   1.375   7.156   0.422 -0.0875 -0.5815  0.0717
 8524TIP3    H225518   1.225   7.150   0.412 -0.1355 -1.3160  1.1184
 8525TIP3   OH225519   4.278   2.241   1.755  0.1063  0.4980  0.2339
 8525TIP3    H125520   4.213   2.302   1.790  0.1568  0.4217  0.4551
 8525TIP3    H225521   4.246   2.155   1.779  1.3751  0.5270  2.2089
 8526TIP3   OH225522   4.563   2.214   1.402  0.3446  0.0528  0.1814
 8526TIP3    H125523   4.556   2.274   1.328  0.9356  0.2579  0.2902
 8526TIP3    H225524   4.497   2.147   1.384  0.7725 -0.1301 -0.7515
 8527TIP3   OH225525   0.376   1.652   4.921 -0.1261  0.4457 -0.1699
 8527TIP3    H125526   0.289   1.646   4.883 -0.6911 -2.0033  1.2628
 8527TIP3    H225527   0.435   1.630   4.849 -0.8328  0.2422 -0.6979
 8528TIP3   OH225528   0.076   4.664   3.439  0.0485  0.5164 -0.2956
 8528TIP3    H125529   0.067   4.755   3.470 -0.1917  1.4724 -2.8751
 8528TIP3    H225530   0.021   4.661   3.360  1.8629 -1.2040 -1.5823
 8529TIP3   OH225531   1.215   5.296   5.178 -0.0160 -0.2832  0.0787
 8529TIP3    H125532   1.273   5.234   5.134  0.3935 -0.1154  0.3733
 8529TIP3    H225533   1.129   5.280   5.140  0.1778 -0.7043 -0.1872
 8530TIP3   OH225534   2.762   1.723   2.711 -0.0294  0.1858  0.6953
 8530TIP3    H125535   2.824   1.773   2.658  0.4714  0.7520  1.8042
 8530TIP3    H225536   2.735   1.783   2.780 -3.0975  0.5445 -0.6550
 8531TIP3   OH225537   4.828   5.962   0.045 -0.3227  0.0921  0.0840
 8531TIP3    H125538   4.911   6.010   0.050  0.1991 -0.6843 -0.8479
 8531TIP3    H225539   4.843   5.883   0.097 -0.9189  0.5459  0.9695
 8532TIP3   OH225540   5.839   4.119   6.114  0.2628 -0.2956  0.1197
 8532TIP3    H125541   5.872   4.077   6.035  0.7997 -2.0450  1.2306
 8532TIP3    H225542   5.745   4.102   6.113  0.3904 -1.0517  0.2637
 8533TIP3   OH225543   7.611   6.986   0.737 -0.2529  0.3717  0.1740
 8533TIP3    H125544   7.579   7.058   0.682  0.9049 -0.2348 -1.3656
 8533TIP3    H225545   7.667   7.029   0.802 -1.3967  1.0694  0.7438
 8534TIP3   OH225546   4.240   5.611   2.086  0.2729  0.0918 -0.5249
 8534TIP3    H125547   4.177   5.547   2.119  0.9174 -0.2592  0.0672
 8534TIP3    H225548   4.306   5.616   2.156  0.1453  1.5264 -0.4903
 8535TIP3   OH225549   5.624   3.932   3.285 -0.1863 -0.2002 -0.1015
 8535TIP3    H125550   5.550   3.898   3.335 -0.0936  0.1103  0.2523
 8535TIP3    H225551   5.692   3.949   3.350 -1.2778  3.6792  0.3040
 8536TIP3   OH225552   0.653   3.588   0.685  0.3089 -0.0951 -0.3714
 8536TIP3    H125553   0.612   3.594   0.771 -0.9375  0.9072 -1.0026
 8536TIP3    H225554   0.746   3.578   0.704  0.1031  0.4630  1.0971
 8537TIP3   OH225555   6.382   1.023   5.245  0.0735  0.1374 -0.6928
 8537TIP3    H125556   6.317   1.082   5.283  0.8020  0.8504 -0.5312
 8537TIP3    H225557   6.341   0.991   5.165 -0.8113 -0.0784 -0.1682
 8538TIP3   OH225558   3.747   4.828   4.428 -0.0058 -0.2731  0.9972
 8538TIP3    H125559   3.762   4.918   4.455 -2.4739  1.2258 -1.9315
 8538TIP3    H225560   3.829   4.801   4.387  0.8193  0.5642  2.0773
 8539TIP3   OH225561   1.240   0.902   4.313 -0.0306  0.0606  0.5225
 8539TIP3    H125562   1.289   0.981   4.291 -0.2277  0.6253  1.9765
 8539TIP3    H225563   1.301   0.850   4.367 -0.7363  0.4225  1.7107
 8540TIP3   OH225564   0.367   6.622   4.572  0.3952 -0.1938  0.0409
 8540TIP3    H125565   0.446   6.593   4.526  0.4660 -0.8777  0.5947
 8540TIP3    H225566   0.355   6.713   4.543  1.2960 -0.1340 -0.1572
 8541TIP3   OH225567   8.120   0.719   2.446 -0.3771  0.0376  0.7785
 8541TIP3    H125568   8.160   0.634   2.431 -1.1569 -0.4660  1.4774
 8541TIP3    H225569   8.035   0.699   2.485 -1.4692  1.0373 -0.9252
 8542TIP3   OH225570   4.448   1.831   0.840  0.3482  0.0083 -0.1162
 8542TIP3    H125571   4.539   1.862   0.833  0.0889  0.6121 -1.1235
 8542TIP3    H225572   4.456   1.740   0.866  1.2648 -0.0233 -0.4458
 8543TIP3   OH225573   3.268   4.655   5.376 -0.1968 -0.0931 -0.0312
 8543TIP3    H125574   3.361   4.662   5.357  0.4013 -2.1361  1.6968
 8543TIP3    H225575   3.234   4.593   5.311  0.1694 -1.0485  0.6581
 8544TIP3   OH225576   8.066   7.398   5.838  0.0517 -0.2641  0.1351
 8544TIP3    H125577   8.152   7.441   5.836  0.2318 -0.5984  0.5729
 8544TIP3    H225578   8.081   7.314   5.795  0.2391 -0.8364  1.2801
 8545TIP3   OH225579   7.995   6.092   3.284  0.2114 -0.1320 -0.2097
 8545TIP3    H125580   7.919   6.142   3.256  0.5147 -1.3036 -3.5590
 8545TIP3    H225581   7.958   6.015   3.327 -0.3585  0.8488  1.1060
 8546TIP3   OH225582   5.349   0.362   4.115  0.2278 -0.0624  0.2058
 8546TIP3    H125583   5.418   0.425   4.093  0.6134 -0.0866  1.2575
 8546TIP3    H225584   5.276   0.416   4.144 -0.1910 -0.0383 -0.8675
 8547TIP3   OH225585   6.004   1.698   3.789  0.4126 -0.2679  0.1757
 8547TIP3    H125586   5.926   1.750   3.808  0.2590 -0.6809  0.6822
 8547TIP3    H225587   6.049   1.747   3.720 -0.5706 -0.3031 -0.5072
 8548TIP3   OH225588   7.149   0.496   4.399 -0.4045 -0.0681  0.0025
 8548TIP3    H125589   7.128   0.566   4.337 -0.3866 -0.5479 -0.5564
 8548TIP3    H225590   7.237   0.517   4.429 -0.7908  0.7013  0.6161
 8549TIP3   OH225591   4.271   5.020   3.205  0.7611  0.2944 -0.3991
 8549TIP3    H125592   4.283   5.053   3.116  2.7776  0.7920  0.0165
 8549TIP3    H225593   4.301   4.929   3.201 -1.4022 -0.4649 -0.7202
 8550TIP3   OH225594   3.608   7.504   5.347 -0.0399  0.3590  0.6003
 8550TIP3    H125595   3.569   7.527   5.431 -1.9525 -0.5120  0.0224
 8550TIP3    H225596   3.570   7.419   5.325  0.8995  0.2709 -0.8406
 8551TIP3   OH225597   0.163   7.446   0.751 -0.1042  0.0040  0.3003
 8551TIP3    H125598   0.215   7.518   0.786 -1.1991  0.7974  0.3504
 8551TIP3    H225599   0.227   7.384   0.716  0.8396  1.1282  0.0104
 8552TIP3   OH225600   6.148   7.559   2.284  0.1876  0.3289 -0.4120
 8552TIP3    H125601   6.088   7.585   2.354  1.9488  1.1780  0.8832
 8552TIP3    H225602   6.180   7.641   2.248  2.5234 -0.0038  0.7359
 8553TIP3   OH225603   5.598   0.592   0.893 -0.7822  0.4804 -0.8553
 8553TIP3    H125604   5.592   0.624   0.803 -0.9468 -0.2963 -1.1348
 8553TIP3    H225605   5.510   0.561   0.914 -0.5299 -0.2305 -0.7854
 8554TIP3   OH225606   5.069   2.399   3.851  0.3822  0.3097 -0.1827
 8554TIP3    H125607   5.042   2.321   3.802 -0.3755  0.0106  0.6777
 8554TIP3    H225608   5.081   2.467   3.784 -1.6304  0.2068 -0.7257
 8555TIP3   OH225609   7.988   7.168   1.105 -0.3100 -0.5919 -0.4347
 8555TIP3    H125610   7.975   7.263   1.106  2.3250 -0.1614 -0.5191
 8555TIP3    H225611   7.968   7.140   1.194  2.1551  0.6148  0.5632
 8556TIP3   OH225612   6.360   5.502   4.698  0.2535  0.7373 -0.5159
 8556TIP3    H125613   6.364   5.489   4.603  2.4679  2.1957 -0.6875
 8556TIP3    H225614   6.419   5.436   4.734  1.0234  1.4968 -0.3481
 8557TIP3   OH225615   7.503   0.091   1.079  0.1050 -0.2262  0.1422
 8557TIP3    H125616   7.586   0.119   1.116 -0.2005  0.3323  0.4215
 8557TIP3    H225617   7.456   0.172   1.060 -0.8320 -0.5354  1.0433
 8558TIP3   OH225618   2.793   2.036   5.881  0.1555 -0.6667 -0.1043
 8558TIP3    H125619   2.799   1.949   5.842 -1.4628 -0.7162 -0.3043
 8558TIP3    H225620   2.757   2.021   5.968  1.5800 -0.3365  0.5732
 8559TIP3   OH225621   6.449   5.489   0.430 -0.5025 -0.0143 -0.7483
 8559TIP3    H125622   6.357   5.514   0.418 -0.8428 -0.2134  1.1329
 8559TIP3    H225623   6.497   5.571   0.421 -0.8097  0.0416 -2.0534
 8560TIP3   OH225624   0.719   3.602   5.088 -0.1650 -0.5271  0.1533
 8560TIP3    H125625   0.667   3.677   5.118 -2.5911 -2.2532  0.5772
 8560TIP3    H225626   0.670   3.568   5.013  2.5469  0.0685 -2.0247
 8561TIP3   OH225627   7.552   6.748   1.637 -0.1659  0.3510  0.4375
 8561TIP3    H125628   7.600   6.754   1.554  0.3157  0.8864  0.7483
 8561TIP3    H225629   7.497   6.671   1.627  1.4763 -0.8656  0.4332
 8562TIP3   OH225630   4.800   2.606   2.821  0.4432  0.2796 -0.5406
 8562TIP3    H125631   4.804   2.696   2.854 -1.1711 -0.1638  1.0312
 8562TIP3    H225632   4.770   2.615   2.730 -1.4873  1.3143  0.1287
 8563TIP3   OH225633   2.342   3.594   3.429  0.4858 -0.1624  0.0987
 8563TIP3    H125634   2.435   3.588   3.408  0.0213 -1.2149 -1.9233
 8563TIP3    H225635   2.305   3.510   3.400 -1.4831  1.1303 -1.4843
 8564TIP3   OH225636   7.374   6.129   3.088 -0.1626 -0.1637  0.2509
 8564TIP3    H125637   7.281   6.111   3.077  0.0582 -1.7291  0.6197
 8564TIP3    H225638   7.418   6.059   3.039  0.8132  0.1766  0.6058
 8565TIP3   OH225639   0.704   0.435   0.414 -0.3503 -0.6702  0.1757
 8565TIP3    H125640   0.617   0.466   0.391 -0.7960 -1.2510  1.0137
 8565TIP3    H225641   0.747   0.419   0.330 -0.4166  1.2812 -0.2764
 8566TIP3   OH225642   6.861   6.875   3.637  0.2973  0.4012 -0.1803
 8566TIP3    H125643   6.932   6.910   3.691  2.4978  0.2395 -2.7928
 8566TIP3    H225644   6.799   6.948   3.629  0.3086  0.6802  1.7922
 8567TIP3   OH225645   5.804   3.468   5.588  0.2749 -0.0196 -0.2515
 8567TIP3    H125646   5.868   3.404   5.619 -0.1207 -0.1762  0.2593
 8567TIP3    H225647   5.827   3.549   5.634  1.1467  0.3842 -1.3465
 8568TIP3   OH225648   2.263   3.579   5.261 -0.3588 -0.0119  0.1298
 8568TIP3    H125649   2.233   3.511   5.201  0.4450 -0.2285 -0.0385
 8568TIP3    H225650   2.321   3.534   5.321 -1.5807  0.0945  1.4376
 8569TIP3   OH225651   4.803   4.353   2.710 -0.3242 -0.1533 -0.5948
 8569TIP3    H125652   4.852   4.420   2.662 -1.0348  0.0920 -0.9840
 8569TIP3    H225653   4.717   4.352   2.669 -0.5386 -0.8253 -0.1366
 8570TIP3   OH225654   7.401   6.340   1.447  0.0270  0.1481 -0.3036
 8570TIP3    H125655   7.336   6.302   1.388 -1.8149  0.8296  1.1907
 8570TIP3    H225656   7.373   6.431   1.460  1.0363  0.3533  0.7002
 8571TIP3   OH225657   3.599   3.699   0.432 -0.4198 -0.2869 -0.5150
 8571TIP3    H125658   3.604   3.604   0.425 -0.6029 -0.2066 -2.2177
 8571TIP3    H225659   3.635   3.731   0.349  0.2189  1.1502  0.2794
 8572TIP3   OH225660   0.951   6.412   1.374  0.2724 -0.0671 -0.4084
 8572TIP3    H125661   0.878   6.450   1.325  0.5992  0.7829 -0.2532
 8572TIP3    H225662   0.919   6.327   1.404 -1.0313  0.7385  0.5793
 8573TIP3   OH225663   6.899   2.506   2.695 -0.1233  0.1813  0.1839
 8573TIP3    H125664   6.848   2.572   2.648  1.6917  0.3918 -1.6229
 8573TIP3    H225665   6.903   2.431   2.635  0.1899 -0.5296  1.0556
 8574TIP3   OH225666   4.835   2.090   6.263 -0.1929  0.1938 -0.3494
 8574TIP3    H125667   4.912   2.091   6.319 -0.0273  0.2134 -0.5739
 8574TIP3    H225668   4.796   2.177   6.274  0.5381  0.6412 -1.2107
 8575TIP3   OH225669   7.327   4.413   1.339 -0.3548 -0.0278 -0.1267
 8575TIP3    H125670   7.244   4.457   1.357 -0.6734 -1.2330  1.6720
 8575TIP3    H225671   7.307   4.320   1.351  0.7995 -0.5052 -1.6882
 8576TIP3   OH225672   0.272   1.928   1.627  0.1685 -0.3572 -0.2811
 8576TIP3    H125673   0.179   1.933   1.603 -0.1618 -0.5418  0.8858
 8576TIP3    H225674   0.318   1.970   1.554 -0.7570 -1.0673 -1.2982
 8577TIP3   OH225675   1.214   2.218   5.109  0.0028 -0.3932  0.2862
 8577TIP3    H125676   1.307   2.219   5.129  0.0263  1.2997  0.2552
 8577TIP3    H225677   1.171   2.241   5.192 -0.2350  1.0073 -0.2046
 8578TIP3   OH225678   4.630   5.479   6.376  0.1325 -0.1580  0.2932
 8578TIP3    H125679   4.567   5.419   6.337  0.7615 -0.3657 -0.4429
 8578TIP3    H225680   4.617   5.471   6.470 -1.1502  0.0445  0.1416
 8579TIP3   OH225681   4.579   0.608   3.058  0.2339 -0.3335 -0.2701
 8579TIP3    H125682   4.540   0.606   2.970  2.2803 -1.1218 -1.2209
 8579TIP3    H225683   4.523   0.551   3.110 -0.0753 -1.2015 -1.5048
 8580TIP3   OH225684   6.088   2.043   1.675  0.4592 -0.9005  0.3150
 8580TIP3    H125685   6.043   2.050   1.591  3.7613  0.6244 -1.5502
 8580TIP3    H225686   6.131   1.957   1.672  0.6173 -0.8250  0.3745
 8581TIP3   OH225687   3.596   0.670   2.367 -0.2626  0.0254 -0.3754
 8581TIP3    H125688   3.519   0.614   2.355  0.0377 -0.1981 -1.3275
 8581TIP3    H225689   3.581   0.744   2.308 -0.6805  1.0030  0.9084
 8582TIP3   OH225690   7.704   5.651   2.320 -0.3013 -0.0716 -0.1849
 8582TIP3    H125691   7.657   5.568   2.315 -0.3321 -0.0506 -0.2387
 8582TIP3    H225692   7.743   5.651   2.408  0.2105 -0.4187 -0.4108
 8583TIP3   OH225693   5.685   7.314   0.675 -0.0907  0.5609 -0.2800
 8583TIP3    H125694   5.628   7.383   0.641 -0.8151  0.2078  0.2037
 8583TIP3    H225695   5.637   7.233   0.658  0.2586  0.2600  0.1587
 8584TIP3   OH225696   6.509   1.664   2.803 -0.3797  0.0194  0.8496
 8584TIP3    H125697   6.593   1.704   2.820 -0.7821  1.0758  0.4171
 8584TIP3    H225698   6.475   1.709   2.726 -0.5501 -1.6197 -0.0983
 8585TIP3   OH225699   4.878   4.126   2.861 -0.7027  0.0924 -0.3357
 8585TIP3    H125700   4.850   4.201   2.810  1.5010 -0.0387 -1.8920
 8585TIP3    H225701   4.844   4.050   2.813  0.2488  0.0104 -0.9018
 8586TIP3   OH225702   5.893   0.312   2.033 -0.4917 -0.1452  0.5113
 8586TIP3    H125703   5.984   0.342   2.037 -0.6428  0.2607  1.0352
 8586TIP3    H225704   5.871   0.291   2.124 -0.8654 -0.4216  0.3594
 8587TIP3   OH225705   3.984   5.478   3.218  0.0663  0.0830 -0.2037
 8587TIP3    H125706   4.048   5.433   3.163 -0.0637  0.2275 -0.4771
 8587TIP3    H225707   3.956   5.553   3.166 -0.4986 -0.1090 -0.1879
 8588TIP3   OH225708   1.260   0.995   6.547 -0.3489 -0.1931  1.1370
 8588TIP3    H125709   1.204   1.070   6.569 -0.2149  0.7508 -1.4638
 8588TIP3    H225710   1.349   1.027   6.556 -0.2894  0.1787 -0.4569
 8589TIP3   OH225711   4.261   4.413   4.685 -0.6755  0.1343 -0.0691
 8589TIP3    H125712   4.198   4.357   4.639 -1.7022 -0.3156  1.8214
 8589TIP3    H225713   4.304   4.355   4.747 -0.5137  1.0741  0.7180
 8590TIP3   OH225714   5.063   2.645   6.451  0.0187  0.0892  0.2359
 8590TIP3    H125715   5.157   2.662   6.439  0.4255 -1.0291  1.5150
 8590TIP3    H225716   5.058   2.605   6.538 -1.4988 -0.9879 -0.3137
 8591TIP3   OH225717   6.398   4.669   3.745  0.3570  0.2475 -0.2312
 8591TIP3    H125718   6.391   4.588   3.795  1.9582  2.1015  3.5006
 8591TIP3    H225719   6.460   4.650   3.675  0.7338 -1.7353  0.5867
 8592TIP3   OH225720   6.952   3.279   0.409  0.2023 -0.4403  0.3502
 8592TIP3    H125721   6.971   3.346   0.474 -0.2819 -1.0751  1.1611
 8592TIP3    H225722   6.902   3.212   0.456  0.4032 -1.2284 -0.5166
 8593TIP3   OH225723   1.421   4.507   1.559  0.3035  0.0694 -1.0733
 8593TIP3    H125724   1.391   4.567   1.627 -2.0360 -0.9628 -1.1146
 8593TIP3    H225725   1.467   4.438   1.606  0.5932  0.4707 -0.7641
 8594TIP3   OH225726   3.815   5.457   3.984  0.0910  0.5226  0.1255
 8594TIP3    H125727   3.748   5.520   4.011 -0.5533  1.5149 -3.3528
 8594TIP3    H225728   3.766   5.378   3.962  0.1045  0.9764 -1.6343
 8595TIP3   OH225729   2.238   1.129   5.181  0.0465  0.0090  0.1003
 8595TIP3    H125730   2.230   1.105   5.089  3.2050 -3.8332  0.5227
 8595TIP3    H225731   2.189   1.061   5.228  1.5312 -0.3274  1.2514
 8596TIP3   OH225732   2.075   0.559   1.518 -0.4249  0.0219  0.1416
 8596TIP3    H125733   2.136   0.546   1.590 -2.7776  0.1253  2.2774
 8596TIP3    H225734   2.074   0.654   1.504  0.5808 -0.0588 -0.5810
 8597TIP3   OH225735   6.998   6.832   5.636  0.2515 -0.2941  0.3899
 8597TIP3    H125736   6.929   6.773   5.666  0.1212 -0.5655 -0.4282
 8597TIP3    H225737   6.952   6.900   5.587  0.3548  0.7435  1.6618
 8598TIP3   OH225738   1.792   7.170   2.974 -0.0771  0.2142 -0.3701
 8598TIP3    H125739   1.816   7.106   2.908 -2.0708  0.2944 -1.2688
 8598TIP3    H225740   1.852   7.243   2.960  0.3163 -0.2720 -1.2935
 8599TIP3   OH225741   7.703   0.471   3.861 -0.4944  0.5207 -0.3288
 8599TIP3    H125742   7.785   0.422   3.860 -0.8923 -0.1908  0.3318
 8599TIP3    H225743   7.719   0.543   3.922 -0.2630  0.5446 -0.4201
 8600TIP3   OH225744   8.019   0.287   1.409  0.0408  0.2640  0.1426
 8600TIP3    H125745   8.100   0.267   1.363 -0.1529  1.1912 -0.6331
 8600TIP3    H225746   7.992   0.203   1.448 -0.1090 -0.7349 -1.9661
 8601TIP3   OH225747   0.628   2.923   1.438 -0.2416  0.2893  0.0362
 8601TIP3    H125748   0.634   3.011   1.477  0.1230  0.3799 -0.2261
 8601TIP3    H225749   0.698   2.920   1.373 -1.2459  0.3728 -1.0823
 8602TIP3   OH225750   5.004   2.638   1.681 -0.2233 -0.0697  0.2943
 8602TIP3    H125751   4.964   2.554   1.704  0.5151 -0.2157  1.1192
 8602TIP3    H225752   5.027   2.629   1.589 -0.6237 -0.5819  0.2408
 8603TIP3   OH225753   2.087   6.940   3.369 -0.1983 -0.3869 -0.0300
 8603TIP3    H125754   2.169   6.963   3.414 -0.4419  0.4979 -0.0122
 8603TIP3    H225755   2.102   6.851   3.337 -0.1781 -1.2441  2.1679
 8604TIP3   OH225756   4.951   5.435   0.004  0.6005  0.0703 -0.1115
 8604TIP3    H125757   4.969   5.362   0.063  0.6019  0.1377 -0.0287
 8604TIP3    H225758   5.016   5.501   0.027 -0.3198  0.6764  0.8091
 8605TIP3   OH225759   5.172   4.720   0.105 -0.4168  0.3106  0.7110
 8605TIP3    H125760   5.109   4.652   0.130 -0.1030  0.0335  0.7523
 8605TIP3    H225761   5.251   4.698   0.154  0.6838 -1.0462 -1.5189
 8606TIP3   OH225762   1.152   1.740   2.959  0.2259 -0.1705 -0.4298
 8606TIP3    H125763   1.164   1.688   2.880  1.7266 -0.2988 -0.1505
 8606TIP3    H225764   1.130   1.675   3.027  0.7322 -0.2802 -0.3686
 8607TIP3   OH225765   4.448   5.154  -0.021 -0.0612  0.2582  0.1703
 8607TIP3    H125766   4.533   5.171   0.020 -0.2599 -0.3338  0.8440
 8607TIP3    H225767   4.404   5.094   0.040 -1.0761  0.7922 -0.0212
 8608TIP3   OH225768   0.683   2.947   1.006 -0.2257 -0.7788  0.2670
 8608TIP3    H125769   0.616   3.014   1.008  0.1165 -0.4397  2.0086
 8608TIP3    H225770   0.645   2.876   0.955 -0.6438  0.6353 -1.5196
 8609TIP3   OH225771   5.276   6.755   5.465  0.1979 -0.4802 -0.1264
 8609TIP3    H125772   5.369   6.770   5.448  0.0691  0.7337  0.1805
 8609TIP3    H225773   5.239   6.736   5.379  0.7575 -1.2509 -0.2165
 8610TIP3   OH225774   1.920   1.494   1.671 -0.4543 -0.1626 -0.3763
 8610TIP3    H125775   1.880   1.472   1.587 -1.8982  1.2397 -0.1138
 8610TIP3    H225776   2.010   1.517   1.650 -0.1542 -1.8770 -1.2106
 8611TIP3   OH225777   2.232   3.508   0.630 -0.4200  0.0756  0.0337
 8611TIP3    H125778   2.327   3.508   0.618 -0.5688 -1.6751 -1.7967
 8611TIP3    H225779   2.207   3.416   0.620 -2.1729  0.2395  2.0838
 8612TIP3   OH225780   8.151   3.708   5.948 -0.5101  0.2030  0.7145
 8612TIP3    H125781   8.058   3.701   5.967 -0.7960 -1.6990 -1.0191
 8612TIP3    H225782   8.194   3.675   6.027 -1.4477 -1.7967  0.4513
 8613TIP3   OH225783   6.433   6.882   1.576 -0.6744  0.0826 -0.5043
 8613TIP3    H125784   6.469   6.891   1.664 -0.6891  0.2065 -0.5114
 8613TIP3    H225785   6.411   6.789   1.568 -0.9684  0.1292 -0.2631
 8614TIP3   OH225786   6.648   2.100   3.909 -0.0925  0.4431  0.5669
 8614TIP3    H125787   6.606   2.108   3.995  0.9560  0.0148  1.1340
 8614TIP3    H225788   6.741   2.110   3.927  0.0627  1.7583 -0.7147
 8615TIP3   OH225789   2.150   3.415   6.509 -0.0071  0.1189  0.1572
 8615TIP3    H125790   2.077   3.362   6.479 -1.7480  1.6176  1.5432
 8615TIP3    H225791   2.151   3.490   6.450 -0.6790  0.9176  1.1319
 8616TIP3   OH225792   2.951   3.994   4.258 -0.3029  0.3677  0.4940
 8616TIP3    H125793   2.943   4.072   4.204 -0.1616  2.6626  3.5142
 8616TIP3    H225794   2.861   3.965   4.273 -0.3650  0.0265 -0.4648
 8617TIP3   OH225795   2.745   3.858  -0.008 -0.0459  0.3697 -0.0898
 8617TIP3    H125796   2.743   3.937   0.047 -0.3223 -0.0975  0.5831
 8617TIP3    H225797   2.672   3.805   0.024 -0.6356  0.3818 -1.3571
 8618TIP3   OH225798   0.958   6.773   2.423 -0.1425  0.6050  0.0070
 8618TIP3    H125799   0.963   6.682   2.395  0.0707  0.9169 -1.0098
 8618TIP3    H225800   1.027   6.818   2.373 -2.0324  1.8397 -1.6356
 8619TIP3   OH225801   3.819   1.326   0.660 -0.1117 -0.0653 -0.0742
 8619TIP3    H125802   3.809   1.407   0.609 -1.2334  0.4976  0.9843
 8619TIP3    H225803   3.761   1.338   0.735  1.1861 -1.0326  1.1390
 8620TIP3   OH225804   5.364   7.434   2.429  0.3618  0.1272  0.7021
 8620TIP3    H125805   5.447   7.457   2.471  0.6642  1.8852 -0.7525
 8620TIP3    H225806   5.390   7.388   2.349 -0.0299  0.9643  0.0785
 8621TIP3   OH225807   5.512   7.732   4.972  0.5031  0.0056 -0.8539
 8621TIP3    H125808   5.548   7.812   5.009 -0.4691 -1.1984  3.1585
 8621TIP3    H225809   5.588   7.677   4.954  1.0625 -0.3664  2.1770
 8622TIP3   OH225810   3.194   1.131   3.268  0.2182 -0.3178 -0.1645
 8622TIP3    H125811   3.192   1.038   3.245 -0.3172 -0.2809 -0.2844
 8622TIP3    H225812   3.232   1.174   3.192  1.3188 -0.5346  0.2471
 8623TIP3   OH225813   7.602   5.766   5.455 -0.7218 -0.5441 -0.8432
 8623TIP3    H125814   7.696   5.771   5.436 -0.9411 -1.6284 -2.3700
 8623TIP3    H225815   7.569   5.700   5.395 -2.4077 -0.4876 -0.0265
 8624TIP3   OH225816   0.615   6.200   1.121  0.5322  0.0179 -0.1955
 8624TIP3    H125817   0.523   6.225   1.116  0.0634 -1.6261 -0.2990
 8624TIP3    H225818   0.626   6.162   1.208  0.4322 -2.1946 -1.0960
 8625TIP3   OH225819   4.834   1.944   5.675 -0.1305  0.5716 -0.4768
 8625TIP3    H125820   4.838   1.888   5.597 -1.5304  1.8822 -1.5336
 8625TIP3    H225821   4.874   2.026   5.647  1.2813  0.3819  0.8560
 8626TIP3   OH225822   2.913   3.664   3.720 -0.3027  0.2018 -0.2083
 8626TIP3    H125823   2.985   3.719   3.752  0.8058 -0.7995 -0.8637
 8626TIP3    H225824   2.940   3.574   3.743 -1.7109 -0.1342  0.1878
 8627TIP3   OH225825   4.887   2.996   5.213 -0.0349 -0.6871 -0.1279
 8627TIP3    H125826   4.798   2.977   5.184  0.1197  0.5432 -1.5039
 8627TIP3    H225827   4.897   2.946   5.294 -2.4251  0.1472  0.7684
 8628TIP3   OH225828   3.537   4.428   4.054  0.2768 -0.5734 -0.1563
 8628TIP3    H125829   3.605   4.442   3.988  1.8381 -2.4619  0.9253
 8628TIP3    H225830   3.513   4.336   4.045 -1.1950 -0.2689  0.3790
 8629TIP3   OH225831   7.244   7.695   3.309  1.0983 -0.4748 -0.0742
 8629TIP3    H125832   7.231   7.740   3.392  0.0552 -0.4617 -0.2313
 8629TIP3    H225833   7.156   7.677   3.277  1.4840 -1.6698 -0.5392
 8630TIP3   OH225834   0.074   6.480   4.562 -0.3031 -0.0876 -0.5593
 8630TIP3    H125835   0.040   6.566   4.539 -2.6496 -1.0651 -0.9630
 8630TIP3    H225836   0.158   6.498   4.604 -1.4144  2.4961  0.7586
 8631TIP3   OH225837   5.187   0.238   5.550 -0.3302  0.4536  0.3038
 8631TIP3    H125838   5.176   0.173   5.619  0.8233  0.1250  0.2022
 8631TIP3    H225839   5.257   0.203   5.494 -1.5539  0.4762 -1.3263
 8632TIP3   OH225840   5.595   4.121   3.025  0.1936 -0.0760 -0.5226
 8632TIP3    H125841   5.691   4.127   3.017  0.1727  0.1459 -0.6313
 8632TIP3    H225842   5.576   4.028   3.015  0.3821 -0.0957 -0.7128
 8633TIP3   OH225843   3.712   7.264   3.900  0.3796 -0.0525  0.2247
 8633TIP3    H125844   3.759   7.294   3.823  0.6974  0.7658  0.7171
 8633TIP3    H225845   3.777   7.270   3.971 -0.3106  0.6260  0.8206
 8634TIP3   OH225846   5.506   2.245   3.069  0.2016  0.3123  0.1449
 8634TIP3    H125847   5.517   2.295   2.987  0.7389  0.8975  0.5628
 8634TIP3    H225848   5.432   2.288   3.112  0.7315  0.8354  0.5545
 8635TIP3   OH225849   0.080   2.898   6.031  0.2581 -0.1455  0.4033
 8635TIP3    H125850   0.057   2.805   6.030  0.5070 -0.3334  3.4259
 8635TIP3    H225851   0.175   2.900   6.034  0.2488  0.1992  0.5439
 8636TIP3   OH225852   6.748   4.459   0.211  0.8794  0.3836  0.1609
 8636TIP3    H125853   6.706   4.448   0.297  0.9167 -2.0389 -0.0700
 8636TIP3    H225854   6.830   4.411   0.218  0.0252 -1.5384 -1.7760
 8637TIP3   OH225855   6.779   6.259   2.122  0.2125 -0.1576 -0.0599
 8637TIP3    H125856   6.833   6.200   2.175 -0.6077 -1.0148 -0.1503
 8637TIP3    H225857   6.715   6.202   2.081 -1.8459  1.0157  1.3370
 8638TIP3   OH225858   5.173   1.402   5.932  0.2389 -0.0185 -0.1078
 8638TIP3    H125859   5.222   1.369   6.008  1.5374 -0.7506 -1.2120
 8638TIP3    H225860   5.092   1.352   5.933  0.9145 -1.1654 -0.0599
 8639TIP3   OH225861   4.956   1.679   1.667  0.2359  0.1722 -0.0681
 8639TIP3    H125862   4.881   1.740   1.665  1.1293  1.3023 -1.3577
 8639TIP3    H225863   5.013   1.710   1.596  1.0678 -1.7713 -0.3001
 8640TIP3   OH225864   1.760   5.438   5.508  0.3676  0.1324  0.3971
 8640TIP3    H125865   1.781   5.403   5.594 -1.1145 -1.5033  0.1673
 8640TIP3    H225866   1.819   5.392   5.448 -0.7411 -1.1611  0.2360
 8641TIP3   OH225867   0.400   5.027   1.412 -0.2222  0.1217  0.2623
 8641TIP3    H125868   0.379   4.967   1.484 -0.8083  0.2644  0.2123
 8641TIP3    H225869   0.481   5.071   1.441 -0.4266  0.1448  0.8201
 8642TIP3   OH225870   5.178   7.038   0.346 -0.5476 -0.0910 -0.2933
 8642TIP3    H125871   5.155   7.125   0.379  1.3866  0.0677  0.8185
 8642TIP3    H225872   5.178   7.047   0.251 -1.0292  0.9427 -0.2072
 8643TIP3   OH225873   0.609   6.739   1.834  0.2965  0.1708 -0.1951
 8643TIP3    H125874   0.636   6.788   1.912 -1.6120  1.6465 -0.4048
 8643TIP3    H225875   0.561   6.802   1.781  0.0264 -1.2754 -1.7389
 8644TIP3   OH225876   6.333   7.217   0.338  0.1056  0.4127 -0.7065
 8644TIP3    H125877   6.319   7.123   0.351 -1.3038  0.6979  0.0839
 8644TIP3    H225878   6.352   7.251   0.425 -0.9362  1.0762 -0.7202
 8645TIP3   OH225879   2.758   5.683   2.053  0.1694  0.1446  0.5561
 8645TIP3    H125880   2.720   5.646   1.973  0.8033  1.1732 -0.2441
 8645TIP3    H225881   2.840   5.636   2.065  1.2906  1.6665 -0.8220
 8646TIP3   OH225882   6.609   5.922   5.814  0.5847  0.3624 -0.2074
 8646TIP3    H125883   6.694   5.965   5.831  1.0640 -0.9557  0.9856
 8646TIP3    H225884   6.565   5.924   5.899  1.2916 -2.8056  0.3622
 8647TIP3   OH225885   7.765   0.161   3.336  0.1373 -0.4021  0.1642
 8647TIP3    H125886   7.749   0.107   3.258  0.1847  1.6471 -1.3678
 8647TIP3    H225887   7.679   0.172   3.375  0.1104 -1.4572  0.4364
 8648TIP3   OH225888   6.669   4.942   3.558  0.4129 -0.1656  0.6593
 8648TIP3    H125889   6.607   4.959   3.487 -0.4734 -1.4096  1.0864
 8648TIP3    H225890   6.724   5.021   3.562  0.5914 -0.1291 -1.4744
 8649TIP3   OH225891   0.444   0.655   6.664 -0.3254 -0.3656  0.6400
 8649TIP3    H125892   0.397   0.687   6.742  1.3019 -0.4205  1.6931
 8649TIP3    H225893   0.519   0.713   6.656  0.4715 -1.4447  0.1497
 8650TIP3   OH225894   7.477   7.029   4.877 -0.1136 -0.4607  0.2431
 8650TIP3    H125895   7.537   6.992   4.812  0.0070  0.0179  0.0838
 8650TIP3    H225896   7.394   7.039   4.831 -0.0682 -0.2589  0.2065
 8651TIP3   OH225897   7.863   2.134   0.888 -0.1312  0.1825  0.6588
 8651TIP3    H125898   7.901   2.148   0.801  1.4483  0.2752  1.3175
 8651TIP3    H225899   7.805   2.209   0.902 -1.9682 -0.8299 -1.0630
 8652TIP3   OH225900   1.070   4.230   2.103  0.5557  0.9198  0.4182
 8652TIP3    H125901   1.105   4.170   2.037  1.5096  1.2759  0.5821
 8652TIP3    H225902   1.055   4.176   2.180 -1.6350  0.2758 -0.4160
 8653TIP3   OH225903   3.104   4.047   6.073 -0.2863 -0.5714  0.4624
 8653TIP3    H125904   3.180   4.079   6.122 -0.0687  2.0403 -1.4034
 8653TIP3    H225905   3.133   3.963   6.037  0.7790 -0.8248  1.8047
 8654TIP3   OH225906   1.156   0.395   2.415  0.0037 -0.0298  0.0721
 8654TIP3    H125907   1.086   0.330   2.422  0.7370 -0.8423  0.0905
 8654TIP3    H225908   1.180   0.414   2.506  0.7242 -0.7913  0.0546
 8655TIP3   OH225909   4.794   6.565   5.558 -0.1274  0.4817 -0.0857
 8655TIP3    H125910   4.861   6.497   5.551  0.9855  1.5539 -0.1112
 8655TIP3    H225911   4.769   6.584   5.467  0.6443  1.1424 -0.1672
 8656TIP3   OH225912   6.176   2.138   5.455 -0.2295 -0.4170  0.4817
 8656TIP3    H125913   6.141   2.058   5.496 -0.3163 -1.2290 -1.0931
 8656TIP3    H225914   6.233   2.106   5.385  0.4168  0.9206  0.3619
 8657TIP3   OH225915   1.061   6.417   1.054  0.2749 -0.3795  0.4878
 8657TIP3    H125916   1.042   6.333   1.096  1.4835 -0.9354 -0.0174
 8657TIP3    H225917   1.040   6.482   1.121 -1.3883 -1.0179  0.6296
 8658TIP3   OH225918   0.327   4.858   2.840  0.1901 -0.4545  0.0121
 8658TIP3    H125919   0.373   4.778   2.867  0.1561 -0.2704  0.6418
 8658TIP3    H225920   0.355   4.923   2.904 -0.0187 -0.0384 -0.3224
 8659TIP3   OH225921   5.869   5.377   3.063  0.3860 -0.6303  0.1672
 8659TIP3    H125922   5.945   5.333   3.026  0.2155 -0.8071  0.0191
 8659TIP3    H225923   5.804   5.307   3.073  0.9339 -0.8973  2.2317
 8660TIP3   OH225924   4.479   1.959   2.673  0.5558  0.1681 -0.1582
 8660TIP3    H125925   4.465   1.992   2.762  2.1763  1.7152 -0.4224
 8660TIP3    H225926   4.398   1.981   2.627  0.0141  0.0725  0.7257
 8661TIP3   OH225927   3.529   5.124   3.198 -0.3884  0.9406 -0.1267
 8661TIP3    H125928   3.516   5.044   3.250  1.1846  1.4516  1.1012
 8661TIP3    H225929   3.491   5.102   3.113  0.0982 -1.1783  0.1320
 8662TIP3   OH225930   2.930   5.392   3.158  0.3971 -0.3604 -0.4879
 8662TIP3    H125931   2.975   5.366   3.078  1.3853 -0.9402  0.2304
 8662TIP3    H225932   2.856   5.332   3.164  2.7410 -3.3734  1.2422
 8663TIP3   OH225933   6.458   1.410   1.797 -0.3392 -0.3212  0.0132
 8663TIP3    H125934   6.372   1.418   1.839 -0.1629 -1.0797  0.5251
 8663TIP3    H225935   6.514   1.369   1.862  0.3400 -0.1212 -0.4287
 8664TIP3   OH225936   5.997   2.807   6.329  0.4148 -0.2021 -0.0811
 8664TIP3    H125937   6.092   2.819   6.333  0.4694 -0.8415  0.8358
 8664TIP3    H225938   5.985   2.712   6.331 -0.2031 -0.1932 -1.6761
 8665TIP3   OH225939   0.447   5.365   0.403  0.1625 -0.7411  0.7094
 8665TIP3    H125940   0.356   5.338   0.412  0.0214 -0.7066 -0.4831
 8665TIP3    H225941   0.463   5.364   0.309  2.0879 -3.0410  0.9593
 8666TIP3   OH225942   4.632   7.249   2.599 -0.1080 -0.7972  0.1661
 8666TIP3    H125943   4.544   7.282   2.581  0.5078  0.2288 -1.1451
 8666TIP3    H225944   4.684   7.328   2.616  0.8475 -1.2648 -0.4503
 8667TIP3   OH225945   2.337   6.974   0.869 -0.1212  0.5899 -0.2033
 8667TIP3    H125946   2.336   6.924   0.951  0.3652  0.6695 -0.1419
 8667TIP3    H225947   2.254   6.954   0.827 -0.7577  1.2085  0.7133
 8668TIP3   OH225948   5.943   1.097   2.932  0.0366  0.2533  0.3265
 8668TIP3    H125949   5.871   1.158   2.917  0.9988  1.1284 -0.9569
 8668TIP3    H225950   6.003   1.112   2.859  1.1901 -0.9440  0.9828
 8669TIP3   OH225951   7.595   3.120   5.349 -0.0716  0.1575 -0.6030
 8669TIP3    H125952   7.585   3.030   5.318 -0.3013  0.6380 -1.9643
 8669TIP3    H225953   7.686   3.144   5.327  0.3037 -0.0553  0.6421
 8670TIP3   OH225954   8.072   6.394   6.150 -0.0001 -0.5654 -0.6313
 8670TIP3    H125955   8.090   6.326   6.214 -0.3970 -0.4308 -0.3745
 8670TIP3    H225956   8.109   6.473   6.189  3.4205 -1.1426 -2.3388
 8671TIP3   OH225957   2.029   6.790   3.759  0.2263  0.2800 -0.2528
 8671TIP3    H125958   2.099   6.855   3.764  2.5591 -2.1130 -0.1530
 8671TIP3    H225959   2.033   6.744   3.843 -0.6399 -0.7518 -0.7545
 8672TIP3   OH225960   2.949   0.824   3.536 -0.2864 -0.3399  0.5085
 8672TIP3    H125961   2.923   0.737   3.507 -1.2459 -0.0394  0.4124
 8672TIP3    H225962   2.905   0.883   3.474 -0.2722  0.2291  1.0330
 8673TIP3   OH225963   3.755   0.326   6.085 -0.2445 -0.0508 -0.0138
 8673TIP3    H125964   3.785   0.263   6.020 -2.7730 -2.9903  1.4467
 8673TIP3    H225965   3.681   0.371   6.044 -0.4009 -0.2621  0.0383
 8674TIP3   OH225966   1.506   5.742   3.047 -0.3797  0.6907  0.1205
 8674TIP3    H125967   1.415   5.728   3.074 -0.5757  2.1481  0.3363
 8674TIP3    H225968   1.550   5.773   3.126  0.2434  0.2665 -0.0553
 8675TIP3   OH225969   0.928   5.228   3.300 -0.0420 -0.0638  0.3209
 8675TIP3    H125970   0.916   5.314   3.259  1.1055  0.0946  0.2911
 8675TIP3    H225971   0.891   5.238   3.387 -1.4347 -0.0524 -0.2394
 8676TIP3   OH225972   3.944   0.052   4.507  0.2205  0.2922  0.7871
 8676TIP3    H125973   4.000  -0.024   4.526 -1.2320 -0.5088  2.0459
 8676TIP3    H225974   3.914   0.081   4.593 -3.1593 -0.7697  0.0849
 8677TIP3   OH225975   0.317   1.959   6.543 -0.7296  0.2804 -0.3787
 8677TIP3    H125976   0.406   1.945   6.576 -0.1846 -0.1170 -1.9170
 8677TIP3    H225977   0.274   1.874   6.554 -0.9623  0.4869  0.4147
 8678TIP3   OH225978   5.499   5.899   5.325  0.4839  0.0622 -0.3879
 8678TIP3    H125979   5.442   5.825   5.346 -0.3066  0.3273 -1.4855
 8678TIP3    H225980   5.492   5.957   5.401  0.6035 -0.6954  0.2015
 8679TIP3   OH225981   5.512   3.835   2.529  0.1764  0.0158 -0.0427
 8679TIP3    H125982   5.518   3.744   2.559 -0.5622 -0.2935 -0.8224
 8679TIP3    H225983   5.566   3.837   2.450  1.4360  0.6369  0.7871
 8680TIP3   OH225984   0.339   6.984   0.997  0.1832  0.6327 -0.2451
 8680TIP3    H125985   0.415   7.010   1.048 -0.6444  2.6529  0.0430
 8680TIP3    H225986   0.335   7.047   0.926 -2.1071  1.6271  0.6727
 8681TIP3   OH225987   5.940   1.947   3.001  0.0051  0.3177 -0.5613
 8681TIP3    H125988   5.903   1.987   3.080  0.3961  0.1500 -0.2958
 8681TIP3    H225989   5.863   1.924   2.948 -0.2593  2.7776 -1.4124
 8682TIP3   OH225990   2.981   2.821   6.646 -0.1352  0.2178 -0.3618
 8682TIP3    H125991   2.917   2.763   6.687 -0.6060  1.0011  0.0362
 8682TIP3    H225992   2.941   2.845   6.562 -0.2844  0.5605 -0.1943
 8683TIP3   OH225993   3.135   3.035   4.151 -0.0058  0.3876 -0.1374
 8683TIP3    H125994   3.048   3.052   4.116 -0.2209 -0.9617 -0.2782
 8683TIP3    H225995   3.181   2.988   4.081 -0.3048 -1.9635  1.1528
 8684TIP3   OH225996   1.214   1.128   5.650  0.5093  0.3029  0.0262
 8684TIP3    H125997   1.143   1.191   5.665 -0.4604 -0.9433  0.8456
 8684TIP3    H225998   1.260   1.162   5.574 -1.9580  0.3336 -1.5612
 8685TIP3   OH225999   0.652   6.461   4.835 -0.0267  0.4288  0.0565
 8685TIP3    H126000   0.651   6.467   4.930 -0.5319 -1.4298  0.2182
 8685TIP3    H226001   0.682   6.371   4.818  1.6187  1.2256 -1.5739
 8686TIP3   OH226002   4.825   1.147   1.964 -0.0777  0.3521  0.3452
 8686TIP3    H126003   4.859   1.141   1.875 -1.0056  0.2165 -0.0051
 8686TIP3    H226004   4.732   1.127   1.956 -0.2191  0.5783  1.3096
 8687TIP3   OH226005   0.465   1.258   1.114  0.6449 -0.4777  0.0319
 8687TIP3    H126006   0.378   1.280   1.148  1.0598  0.1925  0.6759
 8687TIP3    H226007   0.457   1.167   1.086  0.4220 -1.2511  2.3867
 8688TIP3   OH226008   0.282   0.349   4.688  0.5071 -0.0245 -0.0696
 8688TIP3    H126009   0.324   0.424   4.730  0.6254 -0.0398 -0.1625
 8688TIP3    H226010   0.353   0.289   4.667  0.4101 -0.1720  0.0210
 8689TIP3   OH226011   6.625   5.729   4.557  0.7425  0.4023 -0.0760
 8689TIP3    H126012   6.709   5.731   4.511  0.5217 -0.7247 -0.5661
 8689TIP3    H226013   6.631   5.651   4.613  0.1253  0.4551  0.0627
 8690TIP3   OH226014   1.480   2.968   2.032 -0.0875  0.0574 -0.3885
 8690TIP3    H126015   1.477   2.918   1.950  0.0816  0.3510 -0.5760
 8690TIP3    H226016   1.389   2.972   2.060 -0.3212  1.0047 -1.2077
 8691TIP3   OH226017   7.366   7.655   6.475 -0.3936  0.7880 -0.0899
 8691TIP3    H126018   7.432   7.706   6.523 -0.7386  0.4767  0.7317
 8691TIP3    H226019   7.392   7.663   6.383 -0.1756  2.0656  0.0586
 8692TIP3   OH226020   5.397   1.989   2.939  0.3368  0.0807 -0.4260
 8692TIP3    H126021   5.343   2.067   2.925  1.1798  0.6214 -0.7731
 8692TIP3    H226022   5.468   2.019   2.996  1.9516  0.2030 -2.3718
 8693TIP3   OH226023   4.917   3.774   3.151  0.4930 -0.2833  0.6290
 8693TIP3    H126024   4.848   3.837   3.132 -0.2757 -1.3140 -0.1509
 8693TIP3    H226025   4.871   3.692   3.169  1.3788 -0.2384  3.4998
 8694TIP3   OH226026   6.950   4.742   6.388 -0.6986 -0.3547 -0.8745
 8694TIP3    H126027   6.995   4.823   6.363  1.2802 -0.8147  0.9736
 8694TIP3    H226028   6.966   4.734   6.481 -2.1443 -2.1407 -0.7365
 8695TIP3   OH226029   7.015   7.214   3.436 -0.1682  0.5992 -0.3980
 8695TIP3    H126030   7.081   7.283   3.428  0.0558  0.2453 -1.9515
 8695TIP3    H226031   7.026   7.180   3.525  1.8596  0.4599 -0.6483
 8696TIP3   OH226032   4.854   5.215   5.864 -0.0969  0.5635  0.0061
 8696TIP3    H126033   4.860   5.303   5.900  0.6407  0.6222 -0.2445
 8696TIP3    H226034   4.854   5.227   5.770  0.7155  0.2684 -0.0439
 8697TIP3   OH226035   0.420   1.297   0.196 -0.1460  0.5495 -0.3324
 8697TIP3    H126036   0.446   1.370   0.140  1.5194  0.4664  0.2745
 8697TIP3    H226037   0.335   1.324   0.232 -0.8772  0.9383 -2.2290
 8698TIP3   OH226038   4.045   0.611   4.557 -0.5784 -0.2291 -0.1946
 8698TIP3    H126039   4.056   0.632   4.464  0.4814 -0.1326 -0.0570
 8698TIP3    H226040   4.098   0.533   4.571  0.8922  0.8874  0.7478
 8699TIP3   OH226041   1.718   0.659   1.035 -0.2141  0.3336  0.4777
 8699TIP3    H126042   1.684   0.738   1.077  0.5763  0.3156  1.1643
 8699TIP3    H226043   1.645   0.627   0.982 -0.7341  1.1894  0.6605
 8700TIP3   OH226044   2.483   2.230   3.666  0.2416 -0.1502  0.4787
 8700TIP3    H126045   2.578   2.232   3.675  0.2916  1.3088 -0.0360
 8700TIP3    H226046   2.469   2.210   3.573  0.0230 -1.1180  0.7144
 8701TIP3   OH226047   2.190   1.966   6.330 -0.3833 -0.5060 -1.0168
 8701TIP3    H126048   2.146   1.952   6.414  0.8823 -0.0521 -0.2479
 8701TIP3    H226049   2.181   1.882   6.284  1.6090 -1.8634  0.8904
 8702TIP3   OH226050   2.732   7.389   2.386  0.2249 -0.2277 -0.3101
 8702TIP3    H126051   2.689   7.305   2.371 -2.2662  0.0115  3.8742
 8702TIP3    H226052   2.798   7.370   2.453  0.9360  0.8903 -0.6585
 8703TIP3   OH226053   7.365   3.208   4.097  0.0440  0.9115 -1.1167
 8703TIP3    H126054   7.429   3.154   4.049 -0.8379  1.5455 -3.1139
 8703TIP3    H226055   7.419   3.270   4.147  1.0096 -0.1488 -0.7814
 8704TIP3   OH226056   4.997   3.282   5.738 -0.2381 -0.0558  0.5157
 8704TIP3    H126057   4.998   3.294   5.643  0.7057 -1.7460  0.2671
 8704TIP3    H226058   5.076   3.326   5.768  0.5343 -1.1839  0.2316
 8705TIP3   OH226059   5.995   2.129   2.789 -0.8518  0.4762 -0.3697
 8705TIP3    H126060   6.005   2.079   2.870  0.0558  0.7035 -0.3298
 8705TIP3    H226061   5.926   2.193   2.809 -0.7593  0.4181  0.1698
 8706TIP3   OH226062   5.195   6.204   0.632 -0.0782 -0.1883 -0.0209
 8706TIP3    H126063   5.274   6.243   0.594  1.3908 -0.2582  2.7422
 8706TIP3    H226064   5.164   6.269   0.694 -0.7835 -1.1522  0.6593
 8707TIP3   OH226065   8.268   3.746   4.486 -0.0692 -0.4474  0.6394
 8707TIP3    H126066   8.333   3.793   4.538  0.4849 -1.7079  1.1204
 8707TIP3    H226067   8.234   3.811   4.425  0.9323  0.4800  1.0512
 8708TIP3   OH226068   2.137   1.572   6.520  0.4465 -0.3968 -0.4539
 8708TIP3    H126069   2.044   1.554   6.508  0.6233 -1.6472 -0.0770
 8708TIP3    H226070   2.159   1.530   6.603  0.6755  2.5352  1.1102
 8709TIP3   OH226071   1.176   1.298   2.393 -0.0997  0.2241  0.1376
 8709TIP3    H126072   1.141   1.302   2.304  0.2727  2.1543  0.0464
 8709TIP3    H226073   1.161   1.207   2.420 -0.8792 -0.2115 -1.6121
 8710TIP3   OH226074   6.479   1.892   3.538  0.1395  0.0171  0.6709
 8710TIP3    H126075   6.486   1.887   3.443  0.1760  0.4683  0.6464
 8710TIP3    H226076   6.560   1.936   3.565 -0.3001  0.7513  0.8263
 8711TIP3   OH226077   7.212   3.899   0.387  0.3841  0.5491 -0.2344
 8711TIP3    H126078   7.172   3.983   0.363 -0.1985  0.5113  0.5649
 8711TIP3    H226079   7.306   3.912   0.372  0.2638  1.2303 -0.4280
 8712TIP3   OH226080   2.659   0.188   5.881 -0.3744 -0.7311  0.5464
 8712TIP3    H126081   2.695   0.245   5.949  1.7069 -1.4568  0.1249
 8712TIP3    H226082   2.595   0.242   5.836 -0.0148  0.5614  1.5202
 8713TIP3   OH226083   4.926   6.248   4.138 -0.2634  0.2092 -0.4768
 8713TIP3    H126084   4.925   6.306   4.062  0.5157 -0.4160 -0.9809
 8713TIP3    H226085   4.842   6.263   4.181 -0.7093  0.5830 -1.4490
 8714TIP3   OH226086   7.332   1.097   3.279 -0.1504 -0.2776  0.4541
 8714TIP3    H126087   7.264   1.040   3.316  0.4035 -1.0897  0.2596
 8714TIP3    H226088   7.385   1.123   3.355 -1.3683  1.3681  0.7941
 8715TIP3   OH226089   6.329   5.540   0.088 -0.0241 -0.3245  0.4912
 8715TIP3    H126090   6.389   5.466   0.102 -0.7634 -1.8072 -3.1222
 8715TIP3    H226091   6.258   5.504   0.035 -1.2674  2.6415 -0.0715
 8716TIP3   OH226092   4.509   3.443   1.972  0.5345  0.0819  0.7277
 8716TIP3    H126093   4.463   3.359   1.973  1.4505 -0.4355  1.7307
 8716TIP3    H226094   4.439   3.508   1.968 -0.2883 -0.6859  1.9540
 8717TIP3   OH226095   5.678   3.885   1.252 -0.4151  0.1036 -0.2088
 8717TIP3    H126096   5.753   3.844   1.294 -0.7761 -1.2192 -0.7975
 8717TIP3    H226097   5.671   3.971   1.294  1.1910  0.1177  0.1071
 8718TIP3   OH226098   5.518   7.658   0.802 -0.0436  0.2921  0.0489
 8718TIP3    H126099   5.538   7.716   0.729  0.6749  1.1414  0.8886
 8718TIP3    H226100   5.603   7.628   0.832 -0.3734 -0.6327  0.0883
 8719TIP3   OH226101   5.434   6.348   1.540  0.3606 -0.1697  0.2229
 8719TIP3    H126102   5.355   6.349   1.593 -0.6100 -1.0053 -1.1369
 8719TIP3    H226103   5.403   6.335   1.451  2.0838 -1.6483 -0.2217
 8720TIP3   OH226104   7.249   2.376   5.771 -0.0389 -0.4024  0.0268
 8720TIP3    H126105   7.324   2.432   5.751 -0.2357 -0.6376 -1.4854
 8720TIP3    H226106   7.231   2.393   5.864  0.2699  1.5849 -0.2270
 8721TIP3   OH226107   1.412   1.669   4.851 -0.5912  0.0629 -0.4090
 8721TIP3    H126108   1.351   1.739   4.827  0.7942  1.7925  0.8205
 8721TIP3    H226109   1.375   1.590   4.812 -2.0845  1.5141 -2.0960
 8722TIP3   OH226110   2.998   5.512   2.706 -0.0199  0.0800 -0.4949
 8722TIP3    H126111   2.966   5.422   2.704  0.1374 -0.1069  2.1585
 8722TIP3    H226112   2.928   5.561   2.750 -0.0320  1.2441 -1.7592
 8723TIP3   OH226113   4.894   2.119   6.680 -0.5867 -0.3142  0.2593
 8723TIP3    H126114   4.904   2.143   6.588 -1.4104 -1.5631 -0.1703
 8723TIP3    H226115   4.984   2.101   6.710 -0.3686 -0.3897 -0.4293
 8724TIP3   OH226116   3.618   0.905   5.874  0.1026 -0.2633 -0.1229
 8724TIP3    H126117   3.690   0.842   5.877  0.5768  0.3075  0.6803
 8724TIP3    H226118   3.640   0.962   5.800  1.5010  1.0789  1.2559
 8725TIP3   OH226119   3.564   1.451   1.397  0.3824 -0.0652 -0.3901
 8725TIP3    H126120   3.600   1.362   1.387 -0.3158 -0.3796 -0.1839
 8725TIP3    H226121   3.470   1.439   1.389 -0.0042  0.1875  2.5738
 8726TIP3   OH226122   4.465   0.044   3.468 -0.2725 -0.2060 -0.1076
 8726TIP3    H126123   4.378   0.084   3.474  0.0850  1.0635 -2.3518
 8726TIP3    H226124   4.447  -0.050   3.461 -1.5501  0.0875 -1.2769
 8727TIP3   OH226125   3.628   2.243   5.818  0.4357 -0.1928  0.4257
 8727TIP3    H126126   3.716   2.282   5.823  0.3233  0.1759 -0.3206
 8727TIP3    H226127   3.595   2.246   5.908  0.6981  0.8053  0.4954
 8728TIP3   OH226128   4.928   2.431   1.424  0.3759 -0.3868  0.3902
 8728TIP3    H126129   5.006   2.485   1.413 -0.0331 -0.0528 -1.1413
 8728TIP3    H226130   4.874   2.450   1.347 -1.6074 -0.0029  1.7794
 8729TIP3   OH226131   1.615   1.958   3.594  0.2200 -0.6729 -0.1471
 8729TIP3    H126132   1.657   2.033   3.552 -1.7093 -0.3070 -1.5520
 8729TIP3    H226133   1.602   1.986   3.685 -0.7009  0.8325 -0.7083
 8730TIP3   OH226134   1.993   6.532   4.840  0.4262 -0.0236  0.5564
 8730TIP3    H126135   1.901   6.539   4.814  0.3193  1.8132  1.3171
 8730TIP3    H226136   2.002   6.442   4.873 -0.6172 -0.8323 -1.1784
 8731TIP3   OH226137   4.717   6.899   6.571 -0.0581  0.1367  0.1051
 8731TIP3    H126138   4.785   6.925   6.509 -0.6541 -0.6347 -0.8799
 8731TIP3    H226139   4.635   6.912   6.524 -0.5525  0.0858  0.9321
 8732TIP3   OH226140   6.115   3.849   5.945 -0.3852  0.0062 -0.4700
 8732TIP3    H126141   6.024   3.871   5.925 -1.0698  0.9158  2.9613
 8732TIP3    H226142   6.146   3.924   5.996  0.7434 -2.2053  2.3718
 8733TIP3   OH226143   2.433   4.171   6.028  0.2225  0.1077  0.2009
 8733TIP3    H126144   2.439   4.156   6.123 -1.4729  0.8938  0.4902
 8733TIP3    H226145   2.359   4.232   6.019 -0.4643 -0.9224 -1.7244
 8734TIP3   OH226146   6.279   0.681   3.743 -0.1865  0.9210  0.0507
 8734TIP3    H126147   6.337   0.649   3.674  0.5311  3.0037 -0.3543
 8734TIP3    H226148   6.287   0.615   3.813  0.2414 -0.4238 -1.2106
 8735TIP3   OH226149   2.028   6.753   0.747  0.1854 -0.1088  0.3828
 8735TIP3    H126150   2.017   6.700   0.667 -0.5977  1.6074 -0.7021
 8735TIP3    H226151   2.068   6.834   0.717 -0.2369  0.6276  1.7353
 8736TIP3   OH226152   4.112   0.240   0.096 -0.0480  0.0410 -0.1163
 8736TIP3    H126153   4.156   0.226   0.180  0.7538 -1.6591 -0.7624
 8736TIP3    H226154   4.155   0.179   0.036 -0.8474  0.9444 -1.6892
 8737TIP3   OH226155   4.807   6.971   4.667 -0.2860 -0.1164 -0.2644
 8737TIP3    H126156   4.781   6.956   4.758  2.7432  0.6954  0.8428
 8737TIP3    H226157   4.862   7.049   4.670 -1.3285  0.8415 -3.0795
 8738TIP3   OH226158   2.766   6.631   5.174  0.9357  0.5217  0.3917
 8738TIP3    H126159   2.797   6.670   5.256  3.2690  0.1040 -0.2118
 8738TIP3    H226160   2.845   6.593   5.135 -0.6165 -1.8646 -0.6608
 8739TIP3   OH226161   7.855   2.917   4.038 -0.5569  0.6609 -1.1113
 8739TIP3    H126162   7.789   2.852   4.013 -0.4268 -1.4522  3.1792
 8739TIP3    H226163   7.931   2.897   3.983 -2.2804  0.9663 -3.7712
 8740TIP3   OH226164   6.904   3.905   0.926 -0.4965  0.2031  0.9598
 8740TIP3    H126165   6.859   3.881   0.845  2.2563  0.1718 -0.6860
 8740TIP3    H226166   6.961   3.831   0.944 -1.8434 -0.2898  3.6516
 8741TIP3   OH226167   3.284   7.324   6.422 -0.1892  0.2509 -0.2308
 8741TIP3    H126168   3.318   7.250   6.472 -2.5810 -0.1364  0.9834
 8741TIP3    H226169   3.272   7.289   6.333  2.4564  0.4402 -0.7524
 8742TIP3   OH226170   6.155   1.197   5.247  0.7505  0.0456  1.0678
 8742TIP3    H126171   6.130   1.185   5.156  0.1989 -2.8243  1.4977
 8742TIP3    H226172   6.167   1.291   5.257 -1.4385  0.6889 -1.3838
 8743TIP3   OH226173   4.192   6.217   4.084  0.5005 -1.0259 -0.0467
 8743TIP3    H126174   4.217   6.304   4.051 -4.3648  1.8592  2.7612
 8743TIP3    H226175   4.185   6.163   4.005  1.2650  1.8557 -2.2664
 8744TIP3   OH226176   6.090   4.817   3.594 -0.3501  0.1718  0.4050
 8744TIP3    H126177   6.157   4.785   3.654 -1.4330 -0.0156  1.5580
 8744TIP3    H226178   6.018   4.754   3.602 -1.4071  1.3523  0.6152
 8745TIP3   OH226179   3.161   6.074   4.412  0.3594 -0.0073  0.2802
 8745TIP3    H126180   3.137   5.999   4.466 -0.4139  0.9090  1.2455
 8745TIP3    H226181   3.232   6.116   4.460 -0.3250  0.8053  0.6085
 8746TIP3   OH226182   2.043   6.975   4.750  0.5028 -0.7827  0.2973
 8746TIP3    H126183   2.022   6.928   4.831 -1.0154 -0.3025  0.2171
 8746TIP3    H226184   2.090   7.053   4.780  0.2508 -0.7790  0.6874
 8747TIP3   OH226185   5.842   4.277   0.688  0.2556  0.1112  0.1252
 8747TIP3    H126186   5.854   4.183   0.698 -0.1435 -0.2403 -2.1498
 8747TIP3    H226187   5.822   4.289   0.595 -0.2312  2.3917  0.4622
 8748TIP3   OH226188   7.284   6.668   5.914  0.1619  0.2215 -0.2670
 8748TIP3    H126189   7.265   6.666   5.821  0.9286  1.1040 -0.4568
 8748TIP3    H226190   7.200   6.649   5.956 -0.3565  0.5568 -1.1241
 8749TIP3   OH226191   6.388   6.387   3.252  0.0426 -0.1157 -0.2244
 8749TIP3    H126192   6.421   6.454   3.312 -3.8977  1.4545  0.5061
 8749TIP3    H226193   6.354   6.318   3.310 -3.3054  1.1632 -0.4643
 8750TIP3   OH226194   3.735   5.379   5.348  0.4297 -0.2757  0.2148
 8750TIP3    H126195   3.704   5.453   5.296  1.2335  0.0622  0.2162
 8750TIP3    H226196   3.818   5.407   5.385  1.7137 -1.8578 -1.3318
 8751TIP3   OH226197   6.381   6.855   0.846  0.3648 -0.4927 -0.1583
 8751TIP3    H126198   6.336   6.875   0.928 -0.4130 -0.1039 -0.6729
 8751TIP3    H226199   6.466   6.819   0.874  1.0586  1.7114  0.8237
 8752TIP3   OH226200   6.126   3.335   0.301 -0.7525 -0.4854  0.0290
 8752TIP3    H126201   6.123   3.395   0.226  0.0641  2.9749  2.5307
 8752TIP3    H226202   6.220   3.326   0.319 -0.9486 -1.1422  0.7457
 8753TIP3   OH226203   7.501   1.910   1.770 -1.0428 -0.1077  0.0496
 8753TIP3    H126204   7.413   1.890   1.802 -0.7432 -0.2458  0.8036
 8753TIP3    H226205   7.487   1.967   1.694 -1.7381  0.9549  0.9565
 8754TIP3   OH226206   1.511   2.194   0.561 -0.0804 -0.1225  0.1568
 8754TIP3    H126207   1.559   2.214   0.641 -0.3357  0.2590  0.2223
 8754TIP3    H226208   1.573   2.146   0.506  0.4584  0.5780  0.1373
 8755TIP3   OH226209   0.876   2.007   4.377 -0.3744 -0.8841 -0.1041
 8755TIP3    H126210   0.920   2.091   4.363  0.9900 -1.2125  1.7566
 8755TIP3    H226211   0.843   1.982   4.291  1.7376  0.1684 -1.3119
 8756TIP3   OH226212   0.396   6.027   5.338  0.4521  0.0672 -0.5257
 8756TIP3    H126213   0.346   5.955   5.377 -0.1437 -0.0801 -1.5460
 8756TIP3    H226214   0.412   6.000   5.248  1.2446  0.7025 -0.5894
 8757TIP3   OH226215   4.855   7.558   4.332  0.0271 -1.0658 -0.5670
 8757TIP3    H126216   4.789   7.606   4.383  1.3485  0.1038  0.1147
 8757TIP3    H226217   4.804   7.500   4.276 -1.5873 -0.1980 -0.0689
 8758TIP3   OH226218   7.615   2.777   5.169 -0.0676 -0.3653 -0.4603
 8758TIP3    H126219   7.690   2.761   5.226 -1.1037  1.9201  1.7584
 8758TIP3    H226220   7.648   2.837   5.102  0.2173  0.2750  0.2382
 8759TIP3   OH226221   1.939   3.600   6.725  0.4928  0.1543  0.3490
 8759TIP3    H126222   1.911   3.602   6.634 -0.1751  0.1657  0.5482
 8759TIP3    H226223   2.029   3.631   6.724  0.8555 -0.8753 -0.4348
 8760TIP3   OH226224   0.512   0.228   4.807 -0.3065 -0.2200 -0.6227
 8760TIP3    H126225   0.608   0.222   4.801 -0.3105  0.6482 -1.9083
 8760TIP3    H226226   0.480   0.149   4.763 -0.1860 -0.1581 -0.8233
 8761TIP3   OH226227   4.293   4.453   1.354 -0.2443  0.0973  0.0694
 8761TIP3    H126228   4.320   4.492   1.437  0.8154  0.3254 -0.3634
 8761TIP3    H226229   4.355   4.381   1.340 -2.2288 -1.8919  0.9111
 8762TIP3   OH226230   2.352   1.234   0.302 -0.1306  0.3021  0.5139
 8762TIP3    H126231   2.311   1.171   0.361 -0.1917  0.3807  0.5557
 8762TIP3    H226232   2.359   1.187   0.219 -0.5719  0.3842  0.4264
 8763TIP3   OH226233   6.863   2.599   5.484 -0.5889 -0.3581 -0.2807
 8763TIP3    H126234   6.839   2.547   5.561  0.8463 -1.8390 -0.7699
 8763TIP3    H226235   6.885   2.685   5.520 -0.9546 -0.7060  0.8371
 8764TIP3   OH226236   0.769   0.756   0.834  0.1885 -0.0222 -0.1068
 8764TIP3    H126237   0.721   0.722   0.760 -0.6415  1.5364 -0.3210
 8764TIP3    H226238   0.852   0.709   0.833  0.0129 -0.3347 -1.7600
 8765TIP3   OH226239   5.783   0.167   5.275  0.4612  0.2394 -0.2131
 8765TIP3    H126240   5.849   0.098   5.268 -0.4578 -0.7142  0.2270
 8765TIP3    H226241   5.812   0.220   5.349  0.0868 -0.9347  0.8196
 8766TIP3   OH226242   0.125   1.832   5.991  0.3005 -0.1988  0.4234
 8766TIP3    H126243   0.043   1.811   6.036  0.6722 -1.8939  0.3782
 8766TIP3    H226244   0.193   1.813   6.055  0.6940  1.1779  0.4528
 8767TIP3   OH226245   6.955   0.701   1.697 -0.5803 -0.4909  0.3726
 8767TIP3    H126246   6.957   0.795   1.719  2.7622 -0.6055  1.2233
 8767TIP3    H226247   6.909   0.697   1.614 -0.3345  2.0275  0.0156
 8768TIP3   OH226248   2.446   3.430   6.487  0.8599 -0.4077  0.2505
 8768TIP3    H126249   2.353   3.410   6.481  0.7089  0.5111 -0.7053
 8768TIP3    H226250   2.464   3.488   6.413  2.0144  0.1019  0.8914
 8769TIP3   OH226251   5.351   2.443   3.884 -0.4172  0.2823 -0.3356
 8769TIP3    H126252   5.276   2.444   3.823 -1.5171 -0.3215  0.9540
 8769TIP3    H226253   5.357   2.352   3.913  1.3426  0.1650 -0.9985
 8770TIP3   OH226254   6.175   2.322   6.234  0.1930  0.6260 -0.3031
 8770TIP3    H126255   6.269   2.317   6.217  0.2150  2.4385 -1.0095
 8770TIP3    H226256   6.140   2.367   6.157 -1.1012  0.8668  0.4013
 8771TIP3   OH226257   1.813   1.976   4.883 -0.2358 -0.5876  0.4288
 8771TIP3    H126258   1.849   1.894   4.848  0.1365 -0.2815  0.0872
 8771TIP3    H226259   1.718   1.965   4.877 -0.1887 -0.9383  0.2576
 8772TIP3   OH226260   3.347   0.735   4.435 -0.8296 -0.2892 -0.1804
 8772TIP3    H126261   3.441   0.732   4.415 -0.7820 -1.3084  0.1210
 8772TIP3    H226262   3.310   0.787   4.364 -0.0770 -0.1403 -0.4809
 8773TIP3   OH226263   1.740   0.448   2.820  0.0282 -0.0608  0.4526
 8773TIP3    H126264   1.706   0.466   2.908  0.6380 -0.1979  0.7211
 8773TIP3    H226265   1.706   0.361   2.798  0.2074 -0.2035  0.7274
 8774TIP3   OH226266   4.852   0.517   4.256  0.1639  0.2617  0.7253
 8774TIP3    H126267   4.789   0.563   4.201 -0.9259  0.1941  1.8886
 8774TIP3    H226268   4.805   0.442   4.290  1.0702 -0.1369  1.1252
 8775TIP3   OH226269   5.861   5.862   0.248 -0.3742 -0.3830 -0.5090
 8775TIP3    H126270   5.823   5.908   0.322 -0.6452 -0.9190 -0.3048
 8775TIP3    H226271   5.897   5.782   0.286  2.8965  1.0315 -0.3141
 8776TIP3   OH226272   5.970   1.306   1.667  0.1899  0.4937 -0.3700
 8776TIP3    H126273   5.936   1.282   1.753  1.0971 -0.4603 -0.2560
 8776TIP3    H226274   5.892   1.330   1.616 -0.2818  2.2130  1.0263
 8777TIP3   OH226275   6.317   6.781   0.583 -0.5518 -0.3269 -0.1759
 8777TIP3    H126276   6.365   6.789   0.665  0.0983 -0.8491 -0.4977
 8777TIP3    H226277   6.229   6.813   0.603 -0.1505  0.3824  0.4921
 8778TIP3   OH226278   7.549   3.771   4.275 -0.2001  0.3927  0.5283
 8778TIP3    H126279   7.643   3.764   4.257 -0.0142 -1.0522  1.7549
 8778TIP3    H226280   7.516   3.835   4.213  1.8642  2.0622  1.0461
 8779TIP3   OH226281   4.222   1.235   5.753  0.0577  0.4489 -0.1335
 8779TIP3    H126282   4.289   1.245   5.820 -2.0131  2.6439  1.7511
 8779TIP3    H226283   4.230   1.314   5.699 -0.2153  0.0974 -0.7000
 8780TIP3   OH226284   2.199   5.990   2.847 -0.2137  0.2864  0.4522
 8780TIP3    H126285   2.130   5.930   2.818 -0.5027  1.2520 -0.9609
 8780TIP3    H226286   2.177   6.009   2.938 -1.4634  0.1078  0.2024
 8781TIP3   OH226287   7.234   0.405   3.235  0.0287  0.0284  0.3050
 8781TIP3    H126288   7.239   0.443   3.323  2.7692  0.3000  0.1349
 8781TIP3    H226289   7.325   0.386   3.212 -0.5557  0.2882 -2.6252
 8782TIP3   OH226290   3.843   5.581   5.986  0.0738 -0.2825 -0.0073
 8782TIP3    H126291   3.803   5.517   6.044  0.6834  0.7732  1.6463
 8782TIP3    H226292   3.938   5.571   5.999  0.1934  2.2414  1.8744
 8783TIP3   OH226293   0.466   3.254   3.540  0.3715 -0.3988  0.1388
 8783TIP3    H126294   0.382   3.227   3.502  1.3071 -0.9659 -1.6533
 8783TIP3    H226295   0.493   3.329   3.488  0.8179  0.0054  0.9347
 8784TIP3   OH226296   6.572   7.727   5.979 -0.3533  0.4060  0.4076
 8784TIP3    H126297   6.617   7.710   5.896 -1.2331  0.5637 -0.1088
 8784TIP3    H226298   6.562   7.822   5.981 -2.8453  0.2390 -0.6790
 8785TIP3   OH226299   4.678   7.313   2.308 -0.2391 -0.1434  0.3225
 8785TIP3    H126300   4.635   7.395   2.330  0.5872  0.7947 -1.3265
 8785TIP3    H226301   4.760   7.315   2.357 -0.5994 -0.3939  0.9412
 8786TIP3   OH226302   1.974   7.341   2.874 -0.2156  0.3507  0.1172
 8786TIP3    H126303   2.004   7.324   2.785 -1.9592  1.3410 -0.7056
 8786TIP3    H226304   2.016   7.424   2.898 -0.1631  0.3569  0.0075
 8787TIP3   OH226305   2.404   5.390   0.155  0.1156 -0.5114  0.2098
 8787TIP3    H126306   2.401   5.341   0.238  1.4564  3.8988  3.2544
 8787TIP3    H226307   2.477   5.353   0.107 -0.2690 -2.7879  1.2568
 8788TIP3   OH226308   2.481   0.633   4.959 -0.4722  0.4804  0.3215
 8788TIP3    H126309   2.520   0.567   4.900  3.4133  1.1808  1.7902
 8788TIP3    H226310   2.453   0.583   5.035  0.0527  0.1915  0.3354
 8789TIP3   OH226311   6.428   2.389   0.152 -0.5222 -0.1964 -0.5838
 8789TIP3    H126312   6.467   2.304   0.133  0.5497  0.2745 -0.5958
 8789TIP3    H226313   6.478   2.451   0.099 -2.0266  0.3253 -1.4405
 8790TIP3   OH226314   7.002   4.252   0.150 -0.0150  0.7773 -0.1624
 8790TIP3    H126315   6.973   4.256   0.059  1.3138 -0.5733 -0.6820
 8790TIP3    H226316   7.058   4.329   0.161  0.5192  0.4775 -0.7538
 8791TIP3   OH226317   7.631   6.789   5.314 -0.4346  0.4261 -0.3928
 8791TIP3    H126318   7.716   6.754   5.342 -0.3620  0.3179 -0.7434
 8791TIP3    H226319   7.573   6.713   5.313 -0.7001  0.6026  0.4466
 8792TIP3   OH226320   5.680   5.044   6.423 -0.5361  0.0761  0.2117
 8792TIP3    H126321   5.725   5.110   6.476 -0.0461  0.0517 -0.1736
 8792TIP3    H226322   5.734   4.966   6.430 -1.0156 -0.2328  0.5088
 8793TIP3   OH226323   4.047   6.527   4.230 -0.6332 -0.1844 -0.2462
 8793TIP3    H126324   4.141   6.537   4.247 -0.8109 -0.2147  0.7822
 8793TIP3    H226325   4.030   6.434   4.247 -1.1078  0.1038  0.8848
 8794TIP3   OH226326  -0.002   5.204   5.218  0.1764  0.2044  0.1982
 8794TIP3    H126327   0.063   5.141   5.249  0.1247  0.5646  1.0467
 8794TIP3    H226328   0.049   5.280   5.191  0.4198 -0.8327 -2.5950
 8795TIP3   OH226329   0.686   0.321   0.014  0.0832  0.3640  0.7791
 8795TIP3    H126330   0.592   0.309   0.023 -0.2849  2.8710  1.0068
 8795TIP3    H226331   0.721   0.233   0.003 -2.6792 -0.4744 -3.4222
 8796TIP3   OH226332   0.971   5.661   0.342  0.2450  0.2421 -0.4169
 8796TIP3    H126333   0.988   5.699   0.256  2.4331 -0.0496 -0.1530
 8796TIP3    H226334   1.004   5.725   0.405 -0.1723 -0.1120  0.1839
 8797TIP3   OH226335   4.880   1.047   4.529 -0.2723 -0.6625  0.0987
 8797TIP3    H126336   4.858   1.022   4.619 -2.0593  0.7411  0.1145
 8797TIP3    H226337   4.959   0.998   4.509  0.5342 -0.5519  2.6586
 8798TIP3   OH226338   0.254   4.739   3.136 -0.1161  0.4445 -0.1936
 8798TIP3    H126339   0.201   4.699   3.204  0.7741 -1.5759 -0.6177
 8798TIP3    H226340   0.191   4.778   3.075 -0.9837  0.3606  0.6416
 8799TIP3   OH226341   5.472   2.146   0.895  0.4487 -0.4028  0.3455
 8799TIP3    H126342   5.380   2.163   0.874  0.7331  0.8045 -0.0197
 8799TIP3    H226343   5.512   2.233   0.896  1.0537 -0.6453  3.1606
 8800TIP3   OH226344   6.177   0.124   0.377 -0.0882  0.3065  0.3258
 8800TIP3    H126345   6.271   0.116   0.392 -0.0649 -0.4432 -0.1428
 8800TIP3    H226346   6.148   0.190   0.439  0.4843 -0.5904  1.5803
 8801TIP3   OH226347   4.772   7.410   4.013  0.3059  0.0410  0.8406
 8801TIP3    H126348   4.867   7.405   4.020  0.3941  2.3510  2.2527
 8801TIP3    H226349   4.755   7.415   3.919  1.4918 -1.1745  0.5370
 8802TIP3   OH226350   4.017   3.587   4.524 -0.1518 -0.0927 -0.4460
 8802TIP3    H126351   3.962   3.560   4.451  0.4432 -0.4948 -0.7482
 8802TIP3    H226352   3.973   3.551   4.601 -0.3960 -0.2738 -0.6683
 8803TIP3   OH226353   2.218   6.003   1.655 -0.2217 -0.0878 -0.3445
 8803TIP3    H126354   2.247   5.941   1.588 -1.7208 -1.1055 -0.1001
 8803TIP3    H226355   2.163   6.065   1.608 -2.8749 -1.9081  0.1340
 8804TIP3   OH226356   0.348   1.502   0.583  0.3814 -0.1228  0.0579
 8804TIP3    H126357   0.433   1.543   0.593  0.4099 -0.1262 -0.1787
 8804TIP3    H226358   0.291   1.549   0.644  0.7492 -0.6849  0.8591
 8805TIP3   OH226359   4.686   2.528   2.130  0.1979 -0.2068  0.0227
 8805TIP3    H126360   4.605   2.500   2.088  0.1621  1.1815 -0.8820
 8805TIP3    H226361   4.662   2.542   2.222 -0.4583 -0.2668 -0.1378
 8806TIP3   OH226362   8.119   4.311   2.502  0.5717 -0.3524 -0.2595
 8806TIP3    H126363   8.083   4.234   2.458  1.7716 -1.4885  0.6608
 8806TIP3    H226364   8.077   4.311   2.588  1.8188 -0.9977  0.3747
 8807TIP3   OH226365   6.599   3.876   3.673  0.4578  0.3309  0.2105
 8807TIP3    H126366   6.589   3.836   3.760  0.1698 -0.6478 -0.2641
 8807TIP3    H226367   6.584   3.804   3.612  0.2340  1.1085 -0.6617
 8808TIP3   OH226368   5.325   7.665   4.382 -0.3527 -0.1026  0.1966
 8808TIP3    H126369   5.286   7.578   4.389  2.7323 -1.6186  0.0823
 8808TIP3    H226370   5.306   7.706   4.466 -1.4810 -1.0292  0.4321
 8809TIP3   OH226371   6.634   6.181   3.462  0.2380 -0.6679  0.5438
 8809TIP3    H126372   6.581   6.223   3.530 -0.4456  0.7475 -0.8221
 8809TIP3    H226373   6.672   6.253   3.412  0.2454 -1.6551 -0.9428
 8810TIP3   OH226374   6.867   4.809   4.883  0.1207  0.4133 -0.5690
 8810TIP3    H126375   6.934   4.744   4.903 -1.2076 -0.4323  1.5267
 8810TIP3    H226376   6.914   4.892   4.877  1.2413  0.0753  2.2585
 8811TIP3   OH226377   3.244   2.373   6.304  0.0193  0.4209  0.3396
 8811TIP3    H126378   3.236   2.279   6.287  1.5604  0.3414 -0.0961
 8811TIP3    H226379   3.246   2.380   6.400 -0.5420  0.0692  0.3832
 8812TIP3   OH226380   4.447   7.784   1.495  0.4252 -0.4757 -0.4485
 8812TIP3    H126381   4.444   7.876   1.468  2.3435 -0.3163 -0.2426
 8812TIP3    H226382   4.416   7.785   1.585  1.8988  0.2459  0.0908
 8813TIP3   OH226383   1.462   2.274   5.775  0.0397 -0.1068 -0.2683
 8813TIP3    H126384   1.429   2.334   5.841 -0.2733  0.1297 -0.6317
 8813TIP3    H226385   1.387   2.217   5.755  0.0726 -0.0558 -0.5486
 8814TIP3   OH226386   5.229   2.469   3.573 -0.7064 -0.1716 -0.2768
 8814TIP3    H126387   5.189   2.553   3.597  0.4482  0.3569 -0.1481
 8814TIP3    H226388   5.268   2.485   3.487 -1.6407 -0.9893 -0.8802
 8815TIP3   OH226389   8.060   5.130   3.642 -0.2721  0.3947 -0.2497
 8815TIP3    H126390   7.998   5.180   3.694 -1.5227  1.0933 -2.2835
 8815TIP3    H226391   8.017   5.045   3.628 -0.7777  0.8398 -1.5696
 8816TIP3   OH226392   3.556   5.534   2.757  0.9177  0.0752 -0.5892
 8816TIP3    H126393   3.581   5.456   2.805  0.6739  0.2757 -0.1264
 8816TIP3    H226394   3.590   5.521   2.669  1.8477 -0.0553 -0.2164
 8817TIP3   OH226395   5.745   6.339   4.606 -0.7072  0.9043 -0.1262
 8817TIP3    H126396   5.708   6.381   4.684 -1.7107  2.0177 -1.1485
 8817TIP3    H226397   5.837   6.327   4.627 -1.0628  0.6299  1.4487
 8818TIP3   OH226398   7.878   5.257   3.819 -0.6518 -0.3300  0.2942
 8818TIP3    H126399   7.912   5.342   3.849  0.6106 -0.8889  0.5325
 8818TIP3    H226400   7.784   5.263   3.831 -0.8489  1.8201 -1.6633
 8819TIP3   OH226401   1.355   1.239   1.500 -0.0795  0.5032 -0.3290
 8819TIP3    H126402   1.265   1.253   1.527 -0.5838  1.5642 -2.3842
 8819TIP3    H226403   1.395   1.326   1.505  0.9360 -0.0010  0.8213
 8820TIP3   OH226404   5.126   2.691   5.700 -0.3963 -0.3112  0.1174
 8820TIP3    H126405   5.146   2.621   5.638 -1.4786 -0.7021  0.1742
 8820TIP3    H226406   5.172   2.667   5.780  0.3263 -0.2481 -0.2772
 8821TIP3   OH226407   0.198   0.656   6.521 -0.4154 -0.2052  0.4490
 8821TIP3    H126408   0.137   0.723   6.552 -0.7854 -0.7429  0.8998
 8821TIP3    H226409   0.281   0.678   6.563  0.0229  1.1826 -1.0272
 8822TIP3   OH226410   5.339   4.591   0.622  0.0112 -0.0573  0.2776
 8822TIP3    H126411   5.377   4.679   0.621 -0.8956  0.3424 -0.8340
 8822TIP3    H226412   5.270   4.596   0.688 -1.1277  0.5754 -0.9136
 8823TIP3   OH226413   3.099   3.452   2.831 -0.8338  0.1077  0.2065
 8823TIP3    H126414   3.108   3.541   2.796 -2.5071  0.7607  1.3113
 8823TIP3    H226415   3.137   3.457   2.919  2.2739 -1.2240 -0.9067
 8824TIP3   OH226416   5.776   3.767   4.285  0.0002 -0.5016 -0.5520
 8824TIP3    H126417   5.825   3.825   4.343  2.1861 -1.7362 -1.0463
 8824TIP3    H226418   5.767   3.816   4.204 -0.6263  0.1837 -0.0739
 8825TIP3   OH226419   5.971   2.434   2.045  0.2824 -0.0921 -0.1525
 8825TIP3    H126420   5.915   2.360   2.068  2.5027 -1.8939 -0.2063
 8825TIP3    H226421   6.026   2.448   2.123 -0.0499  1.4991 -0.1635
 8826TIP3   OH226422   5.922   0.479   5.491 -0.1789 -0.2411  0.2871
 8826TIP3    H126423   5.931   0.573   5.479  0.3795 -0.3423 -0.1265
 8826TIP3    H226424   6.003   0.442   5.455 -1.6777 -1.1163 -2.5341
 8827TIP3   OH226425   7.687   5.908   5.910 -0.1885 -0.2774  0.5073
 8827TIP3    H126426   7.653   5.913   5.821  2.1825 -2.8605 -0.6966
 8827TIP3    H226427   7.717   5.818   5.919  3.7504  0.9981  2.2541
 8828TIP3   OH226428   1.042   1.590   2.086  0.1057  0.6945  0.2941
 8828TIP3    H126429   1.017   1.670   2.134 -3.0190  0.5516 -0.8207
 8828TIP3    H226430   0.982   1.588   2.011  3.1082 -0.3948 -2.3044
 8829TIP3   OH226431   2.673   4.625   3.403 -0.3809 -0.6261 -0.6989
 8829TIP3    H126432   2.734   4.593   3.470  1.6934 -1.5180 -2.8705
 8829TIP3    H226433   2.589   4.585   3.425  0.0915 -0.4691  1.6072
 8830TIP3   OH226434   7.000   0.853   2.161  0.0843 -0.4565  0.2366
 8830TIP3    H126435   6.941   0.918   2.122  0.8915  0.4623  0.5194
 8830TIP3    H226436   7.062   0.831   2.092 -1.1661 -2.2424 -0.4236
 8831TIP3   OH226437   2.511   5.816   0.291  0.1462  0.1402 -0.2528
 8831TIP3    H126438   2.589   5.769   0.264  2.0926  2.4854  0.8567
 8831TIP3    H226439   2.455   5.816   0.214  2.1941  0.2100 -1.8264
 8832TIP3   OH226440   1.671   5.912   1.646  0.0374  0.2544 -0.0760
 8832TIP3    H126441   1.584   5.874   1.661 -0.3607  0.8929 -0.6869
 8832TIP3    H226442   1.681   5.912   1.551  1.0103 -0.4486  0.0126
 8833TIP3   OH226443   5.342   5.054   2.689 -0.1612 -0.2605  0.0221
 8833TIP3    H126444   5.329   5.120   2.621  1.3380  0.1277  0.0769
 8833TIP3    H226445   5.421   5.008   2.662 -0.6594 -1.4219  0.4886
 8834TIP3   OH226446   6.305   0.665   3.345 -0.4828  0.4341  0.0796
 8834TIP3    H126447   6.357   0.624   3.413 -0.3746  0.3116 -0.0783
 8834TIP3    H226448   6.332   0.757   3.346 -0.0640  0.3165 -0.1887
 8835TIP3   OH226449   0.729   3.557   3.286  0.1857  0.3879  0.1730
 8835TIP3    H126450   0.789   3.612   3.337  0.1370  1.5104 -0.9325
 8835TIP3    H226451   0.743   3.584   3.196 -0.4288 -0.8879 -0.3252
 8836TIP3   OH226452   0.219   0.758   3.155 -0.6284  0.1502  0.3034
 8836TIP3    H126453   0.173   0.674   3.153 -1.0104  0.3792 -0.8611
 8836TIP3    H226454   0.157   0.818   3.197 -1.4868  0.4893 -1.3776
 8837TIP3   OH226455   7.918   0.931   5.504  0.6791 -0.2658  0.2392
 8837TIP3    H126456   8.012   0.916   5.511  0.4709 -1.4527  0.8001
 8837TIP3    H226457   7.878   0.849   5.533 -0.5299 -0.0027 -0.5739
 8838TIP3   OH226458   5.815   7.004   4.948  0.1447  0.5452  0.0099
 8838TIP3    H126459   5.792   6.993   4.856  1.1825  0.4788 -0.2550
 8838TIP3    H226460   5.906   6.975   4.954  0.2712  1.0863  0.9495
 8839TIP3   OH226461   5.553   4.436   2.967  0.1088 -0.0380 -0.0883
 8839TIP3    H126462   5.615   4.501   2.933 -0.9813 -0.4128 -3.1039
 8839TIP3    H226463   5.484   4.488   3.007  0.7309  0.5235  0.2718
 8840TIP3   OH226464   7.463   0.720   6.783 -0.4322 -0.5470 -0.1796
 8840TIP3    H126465   7.390   0.669   6.818  0.4015 -2.9761 -1.6713
 8840TIP3    H226466   7.495   0.668   6.709  2.5036  0.6413  0.1098
 8841TIP3   OH226467   4.979   7.767   5.453  0.3338 -0.0150  0.0415
 8841TIP3    H126468   5.051   7.725   5.406  0.1266  1.2088 -1.4356
 8841TIP3    H226469   4.903   7.710   5.437  0.5305 -0.2418 -0.0901
 8842TIP3   OH226470   2.247   7.529   2.071  0.1858  0.5191 -0.2456
 8842TIP3    H126471   2.309   7.566   2.008  1.5220  1.3420  1.4354
 8842TIP3    H226472   2.232   7.600   2.133 -0.0918 -0.6133  1.0342
 8843TIP3   OH226473   1.856   1.006   4.133 -0.0157 -0.5675  0.2464
 8843TIP3    H126474   1.852   0.915   4.103  0.2768 -1.1939  2.0123
 8843TIP3    H226475   1.894   1.001   4.220  0.7690  1.3405  0.0714
 8844TIP3   OH226476   7.921   6.313   4.139 -0.8565 -0.1671 -0.1582
 8844TIP3    H126477   7.974   6.326   4.217  0.6124  0.8296 -1.2640
 8844TIP3    H226478   7.982   6.275   4.075 -1.0685  2.1915 -1.8783
 8845TIP3   OH226479   6.893   2.802   4.802 -0.3543 -0.4715  0.1386
 8845TIP3    H126480   6.830   2.782   4.871 -1.7786  1.0124 -0.6707
 8845TIP3    H226481   6.944   2.876   4.836 -0.4604 -0.3176 -0.0327
 8846TIP3   OH226482   4.777   1.199   5.806 -0.6569 -0.0175  0.1480
 8846TIP3    H126483   4.840   1.222   5.738 -2.0451 -0.1506 -1.2279
 8846TIP3    H226484   4.711   1.146   5.762 -0.7789 -1.4707  1.9533
 8847TIP3   OH226485   7.702   7.175   4.513 -0.0086  0.6210  0.6850
 8847TIP3    H126486   7.792   7.207   4.516 -0.3739  1.6940  0.6938
 8847TIP3    H226487   7.654   7.233   4.572 -0.9042  0.7405 -0.1365
 8848TIP3   OH226488   4.346   4.848   2.420  0.4684 -0.3319 -0.0776
 8848TIP3    H126489   4.407   4.775   2.426  1.7449  0.6639 -0.5571
 8848TIP3    H226490   4.383   4.905   2.353 -0.4027  0.8608  0.4153
 8849TIP3   OH226491   4.526   2.722   2.977  0.0897  0.0838  0.0611
 8849TIP3    H126492   4.594   2.700   2.913  0.3249 -0.3700  0.4645
 8849TIP3    H226493   4.486   2.802   2.942  3.4048  2.7169  1.7569
 8850TIP3   OH226494   2.696   0.267   4.114  0.2575 -0.2113  0.4024
 8850TIP3    H126495   2.743   0.349   4.099  0.2905 -0.2343  0.3805
 8850TIP3    H226496   2.662   0.242   4.029  0.8743 -0.6066  0.2640
 8851TIP3   OH226497   0.678   1.539   3.062 -0.0086 -0.1013  0.1647
 8851TIP3    H126498   0.729   1.617   3.041  2.0141 -0.8440  2.0038
 8851TIP3    H226499   0.697   1.479   2.990 -0.2515  0.4849 -0.4026
 8852TIP3   OH226500   3.494   0.432   3.543  0.1913  0.1363  0.0744
 8852TIP3    H126501   3.451   0.347   3.531 -1.7658  1.1373 -0.3110
 8852TIP3    H226502   3.515   0.461   3.454 -0.3414  0.6491  0.1158
 8853TIP3   OH226503   7.691   4.498   2.437 -0.2056 -0.7613  0.3348
 8853TIP3    H126504   7.603   4.460   2.438 -0.8970  0.6856  2.6698
 8853TIP3    H226505   7.685   4.572   2.498  1.6331  1.7204 -2.2493
 8854TIP3   OH226506   5.113   0.507   4.172 -0.1860 -0.2074 -0.1505
 8854TIP3    H126507   5.034   0.521   4.225 -0.0476 -0.3166  0.0799
 8854TIP3    H226508   5.101   0.567   4.098 -1.0396 -1.0478 -0.7215
 8855TIP3   OH226509   3.302   1.965   5.510 -0.6786  0.2598  0.1488
 8855TIP3    H126510   3.302   2.044   5.455  0.2056  0.5520  0.5534
 8855TIP3    H226511   3.237   1.908   5.470  0.8287 -0.0662 -1.9545
 8856TIP3   OH226512   6.273   3.346   3.431 -0.2606  0.0363  0.7871
 8856TIP3    H126513   6.255   3.437   3.453  2.5221  0.8277  0.1226
 8856TIP3    H226514   6.366   3.334   3.450  0.2697 -1.6677 -2.2250
 8857TIP3   OH226515   1.916   3.884   4.951  0.2974  0.0565  0.4279
 8857TIP3    H126516   1.946   3.842   4.871  0.3411  1.2951 -0.2258
 8857TIP3    H226517   1.996   3.920   4.991 -0.0302  1.8008 -0.3984
 8858TIP3   OH226518   1.272   2.514   3.089 -0.0433 -0.0002  0.4387
 8858TIP3    H126519   1.199   2.504   3.150  0.4762 -1.3863  0.8688
 8858TIP3    H226520   1.253   2.452   3.018 -0.1191  0.8536 -0.3148
 8859TIP3   OH226521   3.597   5.486   5.112 -0.0825  0.8160 -0.2995
 8859TIP3    H126522   3.542   5.409   5.124  0.9270  0.3747  1.9251
 8859TIP3    H226523   3.624   5.482   5.020  0.6604 -1.9941 -0.0379
 8860TIP3   OH226524   0.862   3.948   3.195  0.7828  0.3043  0.0144
 8860TIP3    H126525   0.855   3.862   3.239 -0.6287 -0.2470 -1.1836
 8860TIP3    H226526   0.787   3.997   3.229  0.7444  0.5323 -0.4007
 8861TIP3   OH226527   6.213   0.128   5.819  0.2704  0.3860 -0.1504
 8861TIP3    H126528   6.138   0.180   5.791 -0.8523 -1.6784 -1.1702
 8861TIP3    H226529   6.196   0.109   5.911  0.7042  1.7509  0.2429
 8862TIP3   OH226530   7.853   6.413   5.966  0.1510  0.1131  0.4166
 8862TIP3    H126531   7.939   6.422   6.009  0.9322  0.6341 -1.1676
 8862TIP3    H226532   7.869   6.442   5.876 -1.5456 -0.4540 -0.0909
 8863TIP3   OH226533   7.802   7.058   0.947  0.1468  0.3059 -0.0361
 8863TIP3    H126534   7.836   7.091   1.030  0.5156 -2.2168  0.9012
 8863TIP3    H226535   7.877   7.056   0.888 -0.0977  2.0092 -0.4748
 8864TIP3   OH226536   2.758   7.601   1.589 -0.0207  0.5055  0.3482
 8864TIP3    H126537   2.664   7.621   1.587  0.3209  2.3039  0.2082
 8864TIP3    H226538   2.779   7.580   1.498  0.1576  2.6236 -0.1487
 8865TIP3   OH226539   7.493   0.951   6.072  0.2219  0.0700  0.3694
 8865TIP3    H126540   7.516   0.864   6.039 -0.1791 -0.3665  1.2236
 8865TIP3    H226541   7.400   0.961   6.051 -0.0163 -0.1757  1.2582
 8866TIP3   OH226542   5.073   4.262   6.446  0.2782  0.3768 -0.7544
 8866TIP3    H126543   5.126   4.226   6.517 -0.1406 -0.0535 -0.6591
 8866TIP3    H226544   5.003   4.310   6.490 -0.0217  0.0517 -0.8795
 8867TIP3   OH226545   0.950   3.830   2.711  0.8413 -0.3562  0.2053
 8867TIP3    H126546   0.953   3.775   2.789  1.2944 -1.2455 -0.4205
 8867TIP3    H226547   0.920   3.915   2.743 -0.8592 -1.2157  1.0292
 8868TIP3   OH226548   1.226   6.046   0.707  0.6991  0.3634 -0.2556
 8868TIP3    H126549   1.266   6.024   0.623  0.3033 -0.3220 -0.2657
 8868TIP3    H226550   1.159   6.111   0.685 -1.2391 -1.7083 -0.8864
 8869TIP3   OH226551   7.903   4.871   5.040 -0.0030  0.8626 -0.1510
 8869TIP3    H126552   7.845   4.796   5.026  0.3277  0.5894 -0.0736
 8869TIP3    H226553   7.871   4.911   5.122 -0.0754  0.7101 -0.1044
 8870TIP3   OH226554   0.561   2.290   6.577  0.0438  0.6265 -0.5499
 8870TIP3    H126555   0.599   2.377   6.575  2.2809 -0.2019  1.1437
 8870TIP3    H226556   0.593   2.252   6.659 -1.4553 -1.5296 -0.8766
 8871TIP3   OH226557   2.970   1.003   0.206 -0.5181  0.1200  0.0516
 8871TIP3    H126558   3.045   1.043   0.250  0.0865  0.1153 -0.9390
 8871TIP3    H226559   2.900   1.067   0.214  0.2700  1.1566 -1.0026
 8872TIP3   OH226560   0.166   2.008   3.029 -0.0891  0.5158  0.8612
 8872TIP3    H126561   0.207   2.087   3.063  0.8787  0.6774 -0.6134
 8872TIP3    H226562   0.080   2.036   2.998  1.2145  1.6724 -2.1194
 8873TIP3   OH226563   5.222   0.066   0.320  0.2188  0.7351  0.8361
 8873TIP3    H126564   5.133   0.095   0.337  0.1254  1.2229 -0.4009
 8873TIP3    H226565   5.246   0.016   0.398 -1.9281 -1.3242  0.2827
 8874TIP3   OH226566   7.995   3.138   2.077 -0.0348 -0.0449  0.9856
 8874TIP3    H126567   7.954   3.051   2.077  0.7035 -0.4369 -0.5306
 8874TIP3    H226568   7.979   3.171   1.988  1.9582  0.2452  0.6943
 8875TIP3   OH226569   4.327   5.203   4.774  0.0012  0.1354  0.3419
 8875TIP3    H126570   4.349   5.175   4.685  3.5416 -0.0324  1.1209
 8875TIP3    H226571   4.319   5.298   4.768 -1.1722  0.0097 -0.3626
 8876TIP3   OH226572   0.083   1.376   0.916 -0.1456 -0.1795 -0.6643
 8876TIP3    H126573   0.165   1.329   0.902 -0.9970 -1.8512 -0.2828
 8876TIP3    H226574   0.019   1.330   0.863 -1.1061  0.2838  0.0645
 8877TIP3   OH226575   6.200   0.950   5.659  0.0833 -0.0496  0.1923
 8877TIP3    H126576   6.213   0.880   5.724 -2.1174 -1.0400 -0.3194
 8877TIP3    H226577   6.285   0.993   5.652  0.1173  1.2812  5.0095
 8878TIP3   OH226578   1.438   6.143   4.837  0.2565 -0.4283  0.4685
 8878TIP3    H126579   1.498   6.075   4.807 -0.9221 -1.0107 -0.6677
 8878TIP3    H226580   1.355   6.097   4.851 -0.5920  0.7696 -0.4180
 8879TIP3   OH226581   2.979   1.557   2.497  0.0418  0.1622  0.7763
 8879TIP3    H126582   2.895   1.548   2.542 -0.9049 -0.1875 -0.9722
 8879TIP3    H226583   3.037   1.596   2.562 -0.9220 -1.3356  2.6528
 8880TIP3   OH226584   8.078   5.363   5.366  0.2525 -0.2336 -0.3726
 8880TIP3    H126585   8.151   5.360   5.305  0.0032 -0.6328 -0.6533
 8880TIP3    H226586   8.007   5.315   5.322  0.3116 -1.2076  0.5482
 8881TIP3   OH226587   4.233   7.620   1.778 -0.1166 -0.0546  0.1852
 8881TIP3    H126588   4.138   7.607   1.766  0.0696 -0.2868 -1.1527
 8881TIP3    H226589   4.252   7.702   1.733  0.6909 -1.1923 -1.6740
 8882TIP3   OH226590   0.276   1.637   3.753  0.0591  0.0187 -0.5024
 8882TIP3    H126591   0.355   1.586   3.771 -0.4444 -0.8047 -0.5583
 8882TIP3    H226592   0.207   1.571   3.743 -0.9514  0.7758  1.0882
 8883TIP3   OH226593   4.783   3.687   1.059  0.3438 -0.2598 -0.2808
 8883TIP3    H126594   4.773   3.699   0.964  3.0798  0.8244 -0.5133
 8883TIP3    H226595   4.702   3.724   1.095  0.3598  1.8279 -2.1048
 8884TIP3   OH226596   6.953   1.939   0.412  0.5042  0.8425 -0.6884
 8884TIP3    H126597   6.929   2.028   0.387  0.9454  1.8209  2.0533
 8884TIP3    H226598   6.951   1.939   0.508 -0.3448 -2.3536 -0.5823
 8885TIP3   OH226599   0.422   6.772   0.556  0.8535 -0.2228 -0.2566
 8885TIP3    H126600   0.482   6.814   0.618 -0.4586 -0.3160  1.1283
 8885TIP3    H226601   0.381   6.845   0.510 -0.1079 -0.0222  0.8802
 8886TIP3   OH226602   2.333   4.983   2.202  0.1266  0.0224 -0.3546
 8886TIP3    H126603   2.368   4.911   2.149  0.5563  1.4668 -2.1498
 8886TIP3    H226604   2.246   5.000   2.165  0.1880  0.6783 -0.2041
 8887TIP3   OH226605   3.730   5.759   4.479  0.0618 -0.4626 -0.3507
 8887TIP3    H126606   3.684   5.700   4.419  0.5716 -1.2190 -0.0234
 8887TIP3    H226607   3.738   5.841   4.431  0.1210 -0.9330 -1.1719
 8888TIP3   OH226608   0.699   7.762   6.389 -0.4029  0.3957  0.2989
 8888TIP3    H126609   0.655   7.724   6.466  2.0220 -0.1780  1.5122
 8888TIP3    H226610   0.792   7.761   6.413  0.5240 -0.4168 -2.9039
 8889TIP3   OH226611   6.390   2.450   5.051  0.1952 -0.0463  0.9806
 8889TIP3    H126612   6.479   2.443   5.016 -0.2710 -1.3015 -0.0533
 8889TIP3    H226613   6.371   2.544   5.049  0.7094  0.0738 -0.8985
 8890TIP3   OH226614   5.061   7.464   4.066  0.6408  0.0539  0.2804
 8890TIP3    H126615   5.040   7.532   4.130 -1.4382  1.1929 -1.4860
 8890TIP3    H226616   5.064   7.509   3.982  0.8483 -1.7902 -0.7608
 8891TIP3   OH226617   2.614   0.248   3.836  0.3738 -0.1645 -0.6734
 8891TIP3    H126618   2.636   0.322   3.780  0.2327 -0.5471 -1.2435
 8891TIP3    H226619   2.554   0.195   3.784 -2.0070  0.8723  0.8459
 8892TIP3   OH226620   7.791   3.501   5.783 -0.5141  0.2976  0.1120
 8892TIP3    H126621   7.847   3.507   5.705 -0.4722 -0.5056  0.0710
 8892TIP3    H226622   7.703   3.521   5.750 -0.7096 -1.3023 -0.4270
 8893TIP3   OH226623   6.202   5.373   5.634 -0.1991  0.3584 -0.3753
 8893TIP3    H126624   6.190   5.462   5.667  0.7236  0.2931  0.1634
 8893TIP3    H226625   6.284   5.343   5.674 -0.5636 -0.7806 -0.4443
 8894TIP3   OH226626   4.626   2.807   3.209 -0.0492 -0.0150  0.2411
 8894TIP3    H126627   4.577   2.801   3.291  1.1062  0.6871  0.9936
 8894TIP3    H226628   4.570   2.761   3.145 -0.7744 -0.9170  1.4858
 8895TIP3   OH226629   7.443   0.047   0.586 -0.3120 -0.3718  0.1814
 8895TIP3    H126630   7.429   0.011   0.673  1.3744  0.2502  0.7476
 8895TIP3    H226631   7.359   0.085   0.562 -1.0488 -1.3199  1.1470
 8896TIP3   OH226632   7.960   3.585   5.582  0.3402 -0.3927  0.3009
 8896TIP3    H126633   7.981   3.648   5.513  1.6603 -1.4753 -0.3323
 8896TIP3    H226634   8.045   3.552   5.610 -0.3303 -2.9752 -0.4441
 8897TIP3   OH226635   4.162   2.273   5.800  0.0259 -0.1750 -0.0066
 8897TIP3    H126636   4.205   2.357   5.818  1.4437 -0.0186 -3.3939
 8897TIP3    H226637   4.234   2.210   5.792 -0.6689 -0.7813 -1.7754
 8898TIP3   OH226638   1.866   3.859   1.212 -0.0062  0.3220 -0.6600
 8898TIP3    H126639   1.810   3.781   1.207  2.0031 -1.1953 -0.7616
 8898TIP3    H226640   1.903   3.868   1.124  0.0066  1.2465 -0.5714
 8899TIP3   OH226641   2.299   6.157   0.105  0.1123  0.4581 -0.2730
 8899TIP3    H126642   2.289   6.234   0.161 -1.2040 -0.3816  0.6918
 8899TIP3    H226643   2.392   6.156   0.083  0.3820  1.6390  0.7013
 8900TIP3   OH226644   4.584   2.535   2.400 -0.0918  0.0265 -0.2946
 8900TIP3    H126645   4.644   2.479   2.449 -0.4107 -0.3332 -0.3150
 8900TIP3    H226646   4.602   2.623   2.432  2.2484  0.2944 -2.0479
 8901TIP3   OH226647   5.759   0.921   4.269  0.1037 -0.6299 -0.2075
 8901TIP3    H126648   5.675   0.941   4.310  0.8221 -0.5532  1.3245
 8901TIP3    H226649   5.824   0.947   4.335  1.3094 -1.1494 -1.1498
 8902TIP3   OH226650   3.764   1.076   4.798  0.0759  0.2278 -0.4068
 8902TIP3    H126651   3.726   1.123   4.873  0.2766  2.4048 -1.5963
 8902TIP3    H226652   3.690   1.064   4.738  0.1494 -0.5349 -0.3601
 8903TIP3   OH226653   1.230   5.591   5.148  0.9836  0.0252 -0.2087
 8903TIP3    H126654   1.247   5.623   5.060  3.1237 -1.4769 -0.4352
 8903TIP3    H226655   1.251   5.498   5.144 -0.2000 -0.3760  1.5828
 8904TIP3   OH226656   2.306   0.366   0.811  0.3321  0.0589  0.1650
 8904TIP3    H126657   2.231   0.385   0.868  1.4960  0.7399  1.5307
 8904TIP3    H226658   2.309   0.271   0.805  0.2575 -0.0232  1.3456
 8905TIP3   OH226659   2.972   5.174   2.992  0.2465 -0.1469  0.1728
 8905TIP3    H126660   2.930   5.091   3.014  1.2424 -0.9023 -0.6701
 8905TIP3    H226661   2.934   5.198   2.908  0.4486 -0.0850  0.1001
 8906TIP3   OH226662   7.545   2.527   0.310 -0.5919 -0.5865  0.1119
 8906TIP3    H126663   7.507   2.559   0.229 -2.3493 -0.5693  0.9053
 8906TIP3    H226664   7.470   2.510   0.368  0.5644 -1.1979  1.5162
 8907TIP3   OH226665   7.622   6.206   0.504 -0.4617  0.2052 -0.1184
 8907TIP3    H126666   7.564   6.140   0.542  0.9384 -1.6715 -1.1237
 8907TIP3    H226667   7.659   6.252   0.579  0.0984 -1.5239  0.6940
 8908TIP3   OH226668   7.038   7.482   2.438 -0.6296  0.3248 -0.0048
 8908TIP3    H126669   7.105   7.429   2.395 -0.6331 -0.0912  0.5016
 8908TIP3    H226670   6.957   7.435   2.423 -0.8517  0.9098 -0.7565
 8909TIP3   OH226671   1.079   3.140   2.384  0.3069  0.3462 -0.0431
 8909TIP3    H126672   1.126   3.170   2.462  0.1346 -0.3063  0.3218
 8909TIP3    H226673   0.988   3.165   2.399 -0.2616 -2.1440  1.2658
 8910TIP3   OH226674   2.593   6.120   0.742  0.1702  0.5347  0.6183
 8910TIP3    H126675   2.553   6.034   0.757  0.9762 -0.1588 -0.9959
 8910TIP3    H226676   2.531   6.182   0.780 -0.3317 -0.7606  1.9919
 8911TIP3   OH226677   2.987   3.000   3.423  0.0974 -0.2793  0.4390
 8911TIP3    H126678   3.024   3.008   3.511  0.9702 -1.4370  0.1924
 8911TIP3    H226679   2.908   2.947   3.435  0.0400 -0.1663  0.5673
 8912TIP3   OH226680   3.019   0.936   5.553  0.1168 -0.2443 -0.5516
 8912TIP3    H126681   2.962   0.919   5.478 -0.0615 -0.1024 -0.4501
 8912TIP3    H226682   3.075   1.009   5.525 -0.7171  0.5699 -0.1481
 8913TIP3   OH226683   3.880   3.117   4.709 -0.4253 -0.2129 -0.3022
 8913TIP3    H126684   3.853   3.190   4.764 -0.2603 -1.0502  0.9224
 8913TIP3    H226685   3.884   3.154   4.621 -0.7995  1.1280  0.2182
 8914TIP3   OH226686   1.156   5.287   0.649 -0.3381 -0.2513  0.1163
 8914TIP3    H126687   1.091   5.311   0.582  0.0328  0.5676  0.0502
 8914TIP3    H226688   1.106   5.232   0.711 -1.4690  1.4629  0.8058
 8915TIP3   OH226689   8.231   1.194   5.610 -0.1156 -0.4452 -0.9706
 8915TIP3    H126690   8.213   1.256   5.539  2.1734  1.3853 -0.0910
 8915TIP3    H226691   8.177   1.226   5.683 -0.5900 -0.8330 -1.1467
 8916TIP3   OH226692   2.990   1.119   6.444  0.1411  0.2833  0.7836
 8916TIP3    H126693   2.919   1.163   6.491 -1.5940 -0.2257 -1.1801
 8916TIP3    H226694   2.949   1.042   6.406  1.6683  0.1326 -0.6809
 8917TIP3   OH226695   1.565   2.661   2.039 -0.3145 -0.0511 -0.7305
 8917TIP3    H126696   1.483   2.709   2.028 -0.3983 -0.2410 -0.9418
 8917TIP3    H226697   1.576   2.654   2.134 -0.6540 -0.2100 -0.7003
 8918TIP3   OH226698   5.632   2.521   2.441  0.2612 -0.5176 -0.6936
 8918TIP3    H126699   5.645   2.427   2.456  1.7637  0.0345  2.5318
 8918TIP3    H226700   5.538   2.534   2.452  0.2788 -1.4311  0.9223
 8919TIP3   OH226701   2.541   4.399   6.720  1.0572  0.1153  0.3020
 8919TIP3    H126702   2.616   4.454   6.700  0.5261  0.6248 -0.3566
 8919TIP3    H226703   2.468   4.442   6.676  0.5766 -0.9715  0.0108
 8920TIP3   OH226704   0.581   5.185   5.875  0.0086  0.2352 -0.1662
 8920TIP3    H126705   0.519   5.113   5.888  0.8871 -1.0152 -2.3698
 8920TIP3    H226706   0.571   5.209   5.783  0.0902  2.6745  0.3893
 8921TIP3   OH226707   6.455   5.817   4.359  0.3378  0.4880  0.4029
 8921TIP3    H126708   6.508   5.760   4.414 -3.1045 -2.9549  0.5456
 8921TIP3    H226709   6.455   5.774   4.273 -0.6751  1.4319 -0.0973
 8922TIP3   OH226710   4.362   1.466   3.161  0.0309 -0.3094 -0.0024
 8922TIP3    H126711   4.368   1.373   3.183  1.0281  0.0316  1.3207
 8922TIP3    H226712   4.450   1.500   3.178 -0.0074  0.6729 -1.5506
 8923TIP3   OH226713   2.298   0.763   6.281 -0.0481 -0.0528 -0.3745
 8923TIP3    H126714   2.234   0.834   6.278 -0.6347 -0.4630  1.3723
 8923TIP3    H226715   2.254   0.690   6.237 -0.5469 -0.1540  0.2863
 8924TIP3   OH226716   2.746   5.288   1.583  0.0263 -0.3112  0.3346
 8924TIP3    H126717   2.794   5.357   1.630 -0.8482 -0.7938  2.0149
 8924TIP3    H226718   2.665   5.332   1.554  0.2376 -0.1991 -0.0875
 8925TIP3   OH226719   5.699   1.220   5.315  0.4115  0.3042  0.0033
 8925TIP3    H126720   5.666   1.184   5.397 -1.5599  0.8592 -0.4940
 8925TIP3    H226721   5.742   1.302   5.341  1.0546 -0.2077  0.6124
 8926TIP3   OH226722   7.963   3.409   4.302 -0.2502 -0.4165  0.4420
 8926TIP3    H126723   7.930   3.472   4.238 -1.3134 -0.5774  0.8003
 8926TIP3    H226724   7.902   3.416   4.376  0.9246 -0.2675  1.4191
 8927TIP3   OH226725   6.400   3.322   4.798 -0.1300 -0.3447  0.2577
 8927TIP3    H126726   6.399   3.243   4.744  0.6454  1.0740 -1.9736
 8927TIP3    H226727   6.309   3.333   4.825 -0.5089 -1.2684 -0.5515
 8928TIP3   OH226728   4.965   3.666   2.679 -0.2294 -0.2542  0.4578
 8928TIP3    H126729   5.028   3.657   2.750  0.7701 -2.1623 -0.5966
 8928TIP3    H226730   5.012   3.639   2.600 -2.1270 -1.1021 -0.4728
 8929TIP3   OH226731   2.927   4.737   1.253  0.1662  0.0694  0.3778
 8929TIP3    H126732   2.903   4.665   1.310  2.4579  0.2542  1.7317
 8929TIP3    H226733   3.006   4.707   1.208 -0.0720  0.9358 -0.6664
 8930TIP3   OH226734   7.740   6.324   5.096 -0.0205 -0.0003  0.1358
 8930TIP3    H126735   7.680   6.397   5.084 -2.2488 -1.3591  2.0685
 8930TIP3    H226736   7.703   6.253   5.045  0.6661 -0.5283  0.3515
 8931TIP3   OH226737   2.566   6.934   0.716  0.0935  0.2310  0.0759
 8931TIP3    H126738   2.559   6.839   0.711  0.3386  0.1925  0.3699
 8931TIP3    H226739   2.489   6.961   0.767 -0.1048  0.2145 -0.2145
 8932TIP3   OH226740   1.310   7.830   5.400 -0.4298 -0.2240  0.1544
 8932TIP3    H126741   1.239   7.805   5.460 -0.6728 -1.0953 -0.4719
 8932TIP3    H226742   1.358   7.749   5.385 -2.0548 -0.7553 -3.0069
 8933TIP3   OH226743   4.532   3.844   2.525 -0.0339  0.0743 -0.0262
 8933TIP3    H126744   4.615   3.819   2.566 -0.6579  1.4405  2.2534
 8933TIP3    H226745   4.546   3.933   2.492 -0.9601  0.9332  1.7432
 8934TIP3   OH226746   5.963   6.260   2.490 -0.2437 -0.0398  0.1523
 8934TIP3    H126747   6.029   6.197   2.461  0.0249  0.6255 -0.7013
 8934TIP3    H226748   5.943   6.234   2.580 -0.2519 -1.4403 -0.2312
 8935TIP3   OH226749   4.979   0.952   4.206  0.1096 -0.2047 -0.3894
 8935TIP3    H126750   5.026   0.870   4.216  1.5739  0.6029 -0.4088
 8935TIP3    H226751   4.887   0.926   4.196  0.8073 -1.9933 -3.1077
 8936TIP3   OH226752   5.031   1.254   2.327  0.1709 -0.6939 -1.1339
 8936TIP3    H126753   5.104   1.307   2.359 -1.5338  0.9372  0.2697
 8936TIP3    H226754   5.041   1.254   2.232  1.4101  0.3807 -1.0263
 8937TIP3   OH226755   5.559   5.374   2.755  0.4621  0.1438 -0.0063
 8937TIP3    H126756   5.545   5.447   2.816  1.3009  0.2625  0.0506
 8937TIP3    H226757   5.640   5.396   2.710  1.0869 -1.0899  0.4765
 8938TIP3   OH226758   6.693   6.159   3.935 -0.2845 -0.0001 -0.3483
 8938TIP3    H126759   6.742   6.152   4.017  0.8193 -0.8135 -1.0546
 8938TIP3    H226760   6.758   6.146   3.867 -1.0845  1.2439 -1.3881
 8939TIP3   OH226761   2.757   4.062   5.704  0.0845  0.1167 -0.2658
 8939TIP3    H126762   2.743   4.111   5.623  1.2452  0.1075 -0.4836
 8939TIP3    H226763   2.715   3.977   5.689  0.3914  0.0750 -0.8989
 8940TIP3   OH226764   6.976   0.241   0.164 -0.7609 -0.7738  0.7523
 8940TIP3    H126765   6.985   0.219   0.071 -2.1938  0.3738  0.3048
 8940TIP3    H226766   7.049   0.196   0.206 -0.2977 -1.6331 -0.8695
 8941TIP3   OH226767   6.810   4.748   6.628  0.2670  0.1025 -0.0569
 8941TIP3    H126768   6.811   4.783   6.717 -0.5952  0.2309 -0.0917
 8941TIP3    H226769   6.758   4.668   6.635  1.7766 -0.9353 -0.0758
 8942TIP3   OH226770   6.906   2.634   1.515  0.3857  0.1480 -0.4026
 8942TIP3    H126771   6.940   2.655   1.429  1.1469 -0.6578 -0.3124
 8942TIP3    H226772   6.811   2.647   1.507  0.1096 -2.1444 -2.0848
 8943TIP3   OH226773   5.498   4.130   1.664  0.0131  0.3918  0.3081
 8943TIP3    H126774   5.516   4.128   1.570  2.1419  4.1076  0.4314
 8943TIP3    H226775   5.573   4.085   1.703  0.2327  0.7167  0.2673
 8944TIP3   OH226776   7.152   3.903   3.331 -0.3231  0.3136  0.4223
 8944TIP3    H126777   7.183   3.815   3.354  0.0696  0.6838  1.3620
 8944TIP3    H226778   7.174   3.912   3.238  0.8294 -0.0943  0.6346
 8945TIP3   OH226779   0.789   3.915   3.853 -0.0521 -0.1948  0.4258
 8945TIP3    H126780   0.805   4.001   3.812 -0.7813 -0.8136 -1.2855
 8945TIP3    H226781   0.693   3.910   3.859 -0.0183 -0.9078  0.4260
 8946TIP3   OH226782   5.844   3.607   5.849  0.5767 -0.1107 -0.2777
 8946TIP3    H126783   5.873   3.584   5.938 -0.2929 -0.3110 -0.0378
 8946TIP3    H226784   5.850   3.702   5.846 -0.0237 -0.0496  0.2271
 8947TIP3   OH226785   1.581   1.045   5.502 -0.3921 -0.4919  0.0453
 8947TIP3    H126786   1.588   0.983   5.575  1.2152  1.9126  2.1209
 8947TIP3    H226787   1.491   1.075   5.505 -0.1156  0.3077  1.8027
 8948TIP3   OH226788   6.598   6.152   1.383  0.2103  0.1156  0.5530
 8948TIP3    H126789   6.514   6.166   1.338 -0.0306 -1.2281  0.5192
 8948TIP3    H226790   6.659   6.209   1.338 -0.2402 -0.4858 -0.8945
 8949TIP3   OH226791   0.633   5.249   4.325 -0.1752 -0.1905  0.3840
 8949TIP3    H126792   0.674   5.177   4.372 -0.0931 -0.9217 -0.7601
 8949TIP3    H226793   0.558   5.275   4.379  0.2437 -0.6061  1.1801
 8950TIP3   OH226794   6.176   4.495   6.260 -0.0149 -0.1269 -0.3295
 8950TIP3    H126795   6.116   4.439   6.211 -1.7276  0.2748  1.1748
 8950TIP3    H226796   6.220   4.436   6.321 -0.1355 -0.1888 -0.3014
 8951TIP3   OH226797   0.196   5.947   1.906 -0.2068  0.0464 -0.0463
 8951TIP3    H126798   0.150   5.913   1.829  0.0708 -2.3506  0.7429
 8951TIP3    H226799   0.236   6.029   1.877 -1.5428  0.0901 -1.9252
 8952TIP3   OH226800   2.628   2.250   2.216  0.9870 -0.1637 -0.5981
 8952TIP3    H126801   2.676   2.192   2.157 -0.8215 -2.3007 -0.1363
 8952TIP3    H226802   2.581   2.190   2.274 -0.9297  1.7892 -0.0154
 8953TIP3   OH226803   3.494   2.321   1.989  0.1118  0.2961  0.3574
 8953TIP3    H126804   3.428   2.256   2.011  0.8566 -0.2522  0.9881
 8953TIP3    H226805   3.545   2.333   2.069  0.1746  1.4461  0.1711
 8954TIP3   OH226806   7.172   5.528   2.111 -0.1104  0.5148  0.0575
 8954TIP3    H126807   7.204   5.604   2.063 -2.4996 -0.2873 -3.1243
 8954TIP3    H226808   7.096   5.561   2.160 -1.2249  0.2622 -1.4217
 8955TIP3   OH226809   0.303   6.569   1.867 -0.5663 -0.0166  0.5200
 8955TIP3    H126810   0.326   6.483   1.830 -1.3769 -0.4642  1.0262
 8955TIP3    H226811   0.279   6.551   1.957 -0.2083  0.8401  0.8002
 8956TIP3   OH226812   6.609   1.254   3.575 -0.3648 -0.2129 -0.2324
 8956TIP3    H126813   6.680   1.303   3.534 -0.1156  0.0432  0.4839
 8956TIP3    H226814   6.654   1.184   3.623 -0.6052 -0.1522  0.0850
 8957TIP3   OH226815   3.580   5.915   0.605  0.0895  0.0409 -0.1221
 8957TIP3    H126816   3.620   5.906   0.518  0.0255 -1.3357 -0.0303
 8957TIP3    H226817   3.646   5.961   0.656  1.0800 -1.1093 -0.3135
 8958TIP3   OH226818   5.114   2.870   4.286  0.2521 -0.0092 -0.4325
 8958TIP3    H126819   5.206   2.890   4.269  0.3710  0.3446  0.5237
 8958TIP3    H226820   5.097   2.911   4.371 -1.0246  0.6430 -0.9860
 8959TIP3   OH226821   8.240   1.493   0.520  0.0341 -0.0128 -0.8351
 8959TIP3    H126822   8.317   1.466   0.470  0.4858 -0.0396 -0.1493
 8959TIP3    H226823   8.182   1.533   0.456  0.7309  0.2335 -1.3215
 8960TIP3   OH226824   5.078   3.955   4.784 -0.2890 -0.5694  0.2123
 8960TIP3    H126825   5.088   3.865   4.751  1.4726 -0.1367 -0.5591
 8960TIP3    H226826   5.167   3.992   4.779 -1.4507  2.2849 -2.6844
 8961TIP3   OH226827   2.315   2.671   5.861  0.8978  0.1657 -0.6910
 8961TIP3    H126828   2.315   2.667   5.766 -0.3018 -0.6280 -0.6787
 8961TIP3    H226829   2.292   2.582   5.889 -0.9657  0.8922  0.2766
 8962TIP3   OH226830   1.705   2.752   3.170 -0.1616  0.5202 -0.4899
 8962TIP3    H126831   1.631   2.725   3.115 -0.2932 -1.8599  0.7129
 8962TIP3    H226832   1.677   2.835   3.208 -1.9147  0.0585 -0.6648
 8963TIP3   OH226833   6.621   5.359   5.305  0.2081  0.0328 -0.1131
 8963TIP3    H126834   6.669   5.288   5.263 -3.0640 -1.7560 -1.1497
 8963TIP3    H226835   6.589   5.413   5.233 -2.1830 -0.8360  0.2154
 8964TIP3   OH226836   5.062   3.031   1.652  0.0384 -0.5738 -0.5575
 8964TIP3    H126837   5.022   3.116   1.672 -0.0190 -0.6611 -0.2889
 8964TIP3    H226838   5.023   3.005   1.569 -0.4403 -0.6383 -0.3170
 8965TIP3   OH226839   4.575   5.111   3.290 -0.0637  0.2865  0.1963
 8965TIP3    H126840   4.504   5.105   3.227  0.6098 -2.0720 -0.4516
 8965TIP3    H226841   4.543   5.062   3.367 -0.6353  2.5978  1.5208
 8966TIP3   OH226842   2.210   5.253   1.754 -0.3743  0.0175  0.4372
 8966TIP3    H126843   2.129   5.285   1.714 -0.2851 -0.8488 -0.4657
 8966TIP3    H226844   2.189   5.244   1.847 -1.6397 -1.1570  0.0629
 8967TIP3   OH226845   6.046   1.904   5.603  0.3550 -0.0058 -0.0505
 8967TIP3    H126846   6.107   1.847   5.649 -0.6773 -1.0422  0.0852
 8967TIP3    H226847   5.977   1.923   5.667 -0.8003 -1.0016 -0.9556
 8968TIP3   OH226848   7.404   3.649   4.764 -0.0433 -0.3165  0.1505
 8968TIP3    H126849   7.421   3.583   4.831 -0.1411 -0.6971 -0.1928
 8968TIP3    H226850   7.466   3.719   4.782  1.0235 -1.1203 -0.3141
 8969TIP3   OH226851   4.912   7.668   0.304 -0.2718 -0.4287  0.6894
 8969TIP3    H126852   4.946   7.669   0.394  2.0861 -1.0537 -0.1358
 8969TIP3    H226853   4.953   7.593   0.263 -1.6373 -0.3978 -0.8435
 8970TIP3   OH226854   3.089   3.920   3.134  0.2826 -0.2259  0.3689
 8970TIP3    H126855   3.002   3.932   3.173 -0.4698  1.7667 -1.7391
 8970TIP3    H226856   3.090   3.829   3.105 -2.0048  0.2529 -1.4807
 8971TIP3   OH226857   8.046   2.826   5.510 -0.0221 -0.2282  0.4801
 8971TIP3    H126858   7.996   2.882   5.450 -0.6985 -0.5959  0.6799
 8971TIP3    H226859   8.096   2.886   5.564  0.0026  0.1374  0.0569
 8972TIP3   OH226860   0.405   7.495   3.912  0.2148 -0.4193  0.5156
 8972TIP3    H126861   0.409   7.446   3.995 -0.4881 -0.8097  0.3299
 8972TIP3    H226862   0.369   7.433   3.849 -0.2312  0.1843  0.1582
 8973TIP3   OH226863   6.979   2.927   6.302 -0.2867  0.2998 -0.3731
 8973TIP3    H126864   7.045   2.877   6.351 -0.0790 -0.2786 -1.2014
 8973TIP3    H226865   6.909   2.944   6.364 -0.0953 -0.5386  0.0825
 8974TIP3   OH226866   0.628   0.391   2.128  0.2326  0.0132 -0.5829
 8974TIP3    H126867   0.715   0.387   2.086 -0.0633 -0.5081 -1.1688
 8974TIP3    H226868   0.606   0.299   2.144 -0.4962  0.1024 -1.0447
 8975TIP3   OH226869   5.326   4.765   3.483  0.3451 -0.6149  0.1241
 8975TIP3    H126870   5.316   4.685   3.535 -0.6276 -1.0473 -0.6866
 8975TIP3    H226871   5.259   4.824   3.517 -0.9086 -1.2215 -1.1639
 8976TIP3   OH226872   4.570   5.310   4.056  0.2539  0.0846 -0.3294
 8976TIP3    H126873   4.583   5.217   4.042  1.6408  0.0547  0.8554
 8976TIP3    H226874   4.499   5.334   3.997 -0.5373 -1.8272 -0.2100
 8977TIP3   OH226875   1.326   2.325   2.190  0.3373 -0.0264 -0.8332
 8977TIP3    H126876   1.277   2.279   2.257 -0.3873  0.4584 -1.0168
 8977TIP3    H226877   1.338   2.414   2.225 -0.6135  0.4252 -1.5928
 8978TIP3   OH226878   6.300   5.250   5.070  0.1453  0.1536  0.6108
 8978TIP3    H126879   6.328   5.303   5.144 -0.2483  0.4378  0.5546
 8978TIP3    H226880   6.357   5.278   4.998  0.6708 -0.2716  0.8523
 8979TIP3   OH226881   2.150   4.472   6.779 -0.1431  0.2832 -0.1847
 8979TIP3    H126882   2.190   4.393   6.814 -1.4138 -0.5766 -0.6001
 8979TIP3    H226883   2.172   4.471   6.686  0.5668  0.8996 -0.0374
 8980TIP3   OH226884   3.938   5.225   6.678 -0.2666 -0.3879 -0.0496
 8980TIP3    H126885   4.003   5.228   6.607 -1.0619 -0.2595 -0.7856
 8980TIP3    H226886   3.975   5.164   6.741  0.6985 -0.1206 -0.3311
 8981TIP3   OH226887   0.406   3.603   4.991  0.0539  1.1240  0.6976
 8981TIP3    H126888   0.447   3.571   4.910  0.6943  2.8955  0.2761
 8981TIP3    H226889   0.414   3.530   5.052  0.9896  0.3054 -0.3493
 8982TIP3   OH226890   8.051   0.490   5.176 -0.0963 -0.2090 -0.6090
 8982TIP3    H126891   7.960   0.461   5.177 -0.4549  0.7911 -1.7836
 8982TIP3    H226892   8.101   0.417   5.212 -1.3565 -0.7834  0.0030
 8983TIP3   OH226893   0.640   5.247   0.544  0.0416  0.0583  0.4698
 8983TIP3    H126894   0.615   5.235   0.636  0.2203  0.4261  0.5702
 8983TIP3    H226895   0.561   5.280   0.502  0.3337  1.2032  0.7820
 8984TIP3   OH226896   2.839   2.521   0.677  0.5983 -0.3655  0.0703
 8984TIP3    H126897   2.818   2.506   0.585 -1.4963 -2.7856  0.8205
 8984TIP3    H226898   2.863   2.435   0.711  1.5343  0.5106  1.7444
 8985TIP3   OH226899   5.491   7.197   4.307  0.1763  0.0270 -0.4333
 8985TIP3    H126900   5.549   7.272   4.294  0.9522 -0.3772  0.6034
 8985TIP3    H226901   5.406   7.227   4.276  0.7289  0.9367 -1.1254
 8986TIP3   OH226902   1.449   6.801   6.235 -0.2008  0.1120 -0.1138
 8986TIP3    H126903   1.468   6.714   6.200 -1.2064  0.2853 -1.1630
 8986TIP3    H226904   1.365   6.792   6.279  0.1403  0.3487  0.5962
 8987TIP3   OH226905   1.062   3.463   1.243  0.2618 -0.2085  0.0973
 8987TIP3    H126906   1.071   3.377   1.201 -1.3133 -0.0195 -0.6864
 8987TIP3    H226907   0.981   3.457   1.293  0.3568  0.6896  0.3751
 8988TIP3   OH226908   5.867   5.739   0.521 -0.4508  0.1337  0.3254
 8988TIP3    H126909   5.916   5.739   0.603  0.4494  1.1449 -0.1742
 8988TIP3    H226910   5.833   5.828   0.514  0.8095  0.5568 -1.1214
 8989TIP3   OH226911   5.293   1.109   4.954 -0.2652 -0.6383 -0.0231
 8989TIP3    H126912   5.224   1.128   4.890 -0.6607  1.8832  1.0081
 8989TIP3    H226913   5.248   1.069   5.028  0.1732 -3.4284 -1.1374
 8990TIP3   OH226914   5.893   0.725   0.538 -0.1556  0.4674 -0.1819
 8990TIP3    H126915   5.891   0.820   0.524 -2.5787  0.3767 -0.9420
 8990TIP3    H226916   5.937   0.691   0.459  2.0224  0.9643  0.7332
 8991TIP3   OH226917   8.153   5.809   6.466 -0.2619  0.4319 -0.1657
 8991TIP3    H126918   8.122   5.821   6.556  0.2432 -0.3148  0.1131
 8991TIP3    H226919   8.224   5.745   6.473 -2.3367 -2.1986 -1.4817
 8992TIP3   OH226920   0.992   2.401   1.469 -0.0345 -0.0273 -0.5001
 8992TIP3    H126921   1.050   2.437   1.402  1.4633 -0.0742  0.7110
 8992TIP3    H226922   1.034   2.424   1.552 -0.8734 -1.5335  0.3881
 8993TIP3   OH226923   6.063   3.790   2.432  0.4778  0.5102  0.0860
 8993TIP3    H126924   6.098   3.769   2.345  0.2180 -0.1837  0.1393
 8993TIP3    H226925   6.017   3.711   2.459  1.8730  0.1133  1.5290
 8994TIP3   OH226926   0.994   6.420   4.447 -0.7027  0.4370  0.2275
 8994TIP3    H126927   0.995   6.409   4.542 -1.1408 -1.1257  0.0750
 8994TIP3    H226928   0.927   6.359   4.417  0.9278 -0.7153 -1.2649
 8995TIP3   OH226929   1.054   6.263   0.679 -0.4545 -0.5813  0.1352
 8995TIP3    H126930   1.031   6.352   0.706 -1.4647 -0.6452 -0.4487
 8995TIP3    H226931   1.081   6.272   0.588  0.0932 -0.7832  0.2748
 8996TIP3   OH226932   7.302   3.613   0.623 -0.0735 -0.3399 -0.1010
 8996TIP3    H126933   7.286   3.568   0.706 -0.4681 -0.1268 -0.0617
 8996TIP3    H226934   7.247   3.691   0.627  1.3442  0.6907  0.2583
 8997TIP3   OH226935   6.669   3.791   4.120  0.0203  0.5767 -0.1755
 8997TIP3    H126936   6.668   3.885   4.138 -1.0457  0.6328 -0.4286
 8997TIP3    H226937   6.677   3.750   4.206 -0.2025  0.8976 -0.0008
 8998TIP3   OH226938   3.644   6.166   3.612 -0.0988  0.4490 -0.5046
 8998TIP3    H126939   3.731   6.206   3.609 -0.1784  0.6061 -0.8185
 8998TIP3    H226940   3.587   6.236   3.643 -0.5617  1.2052 -2.8844
 8999TIP3   OH226941   0.871   2.910   3.665  0.2317  0.1966  0.5724
 8999TIP3    H126942   0.855   2.834   3.609  0.2688  0.7787 -0.2432
 8999TIP3    H226943   0.959   2.895   3.700  0.2833 -0.0842  0.3290
 9000TIP3   OH226944   3.745   1.488   1.076 -0.4833 -0.1835 -0.3312
 9000TIP3    H126945   3.689   1.497   0.999 -0.4792 -0.3570 -0.3545
 9000TIP3    H226946   3.716   1.407   1.117  0.1121 -0.5633 -0.6399
 9001TIP3   OH226947   0.419   4.309   5.382 -0.3604  0.3252 -0.0490
 9001TIP3    H126948   0.387   4.317   5.293  0.5967  1.1362 -0.3362
 9001TIP3    H226949   0.498   4.255   5.374 -0.6340 -0.1555  0.4050
 9002TIP3   OH226950   5.124   5.707   3.738 -0.2505  0.1890  0.4588
 9002TIP3    H126951   5.218   5.689   3.736  0.1956  2.2975 -0.4569
 9002TIP3    H226952   5.091   5.674   3.655 -0.0988  0.3945  0.3139
 9003TIP3   OH226953   2.111   7.233   3.631  0.2310 -0.1564 -0.3007
 9003TIP3    H126954   2.187   7.282   3.662 -0.5702  1.1983 -0.3862
 9003TIP3    H226955   2.122   7.231   3.536 -0.0856  0.4994 -0.3587
 9004TIP3   OH226956   7.461   2.794   3.716 -0.1777 -0.2327 -0.9814
 9004TIP3    H126957   7.533   2.759   3.769 -0.9726  0.9133  0.9828
 9004TIP3    H226958   7.464   2.744   3.635  0.3951 -2.9706  0.6001
 9005TIP3   OH226959   1.199   0.531   2.665  0.2816 -0.4774 -0.0333
 9005TIP3    H126960   1.165   0.538   2.755 -1.0766  0.8050 -0.5877
 9005TIP3    H226961   1.211   0.622   2.638  1.9745 -0.8709 -0.7185
 9006TIP3   OH226962   4.588   4.120   2.195  0.6500 -0.0365 -0.3068
 9006TIP3    H126963   4.618   4.124   2.286 -0.1622  2.4291 -0.0744
 9006TIP3    H226964   4.496   4.093   2.202  0.2744  1.1925 -0.2721
 9007TIP3   OH226965   7.712   5.255   2.456  0.2412 -0.0886  0.3340
 9007TIP3    H126966   7.664   5.296   2.384  0.0984 -2.0984 -0.7765
 9007TIP3    H226967   7.800   5.291   2.451  0.1605 -0.0226 -0.7037
 9008TIP3   OH226968   2.744   4.917   5.535  0.3552 -0.0644 -0.1173
 9008TIP3    H126969   2.812   4.873   5.587 -0.6417 -0.2866  1.0596
 9008TIP3    H226970   2.791   4.983   5.485  1.8813 -2.2856 -1.7828
 9009TIP3   OH226971   6.023   5.106   1.306 -0.3461 -0.2263 -0.7914
 9009TIP3    H126972   5.961   5.153   1.361 -0.7009 -1.3914 -0.1593
 9009TIP3    H226973   6.000   5.130   1.216 -1.0207  0.1726 -0.5138
 9010TIP3   OH226974   5.740   2.090   1.016  0.2098  0.2076  0.2141
 9010TIP3    H126975   5.655   2.048   1.006 -0.0862  0.4115  1.7063
 9010TIP3    H226976   5.721   2.175   1.056  1.1098  0.2883  0.4938
 9011TIP3   OH226977   1.546   1.215   4.911  0.5803  0.3325  0.0836
 9011TIP3    H126978   1.508   1.240   4.995  0.6437  0.8335 -0.0340
 9011TIP3    H226979   1.592   1.133   4.929  1.6802  1.0823  0.8575
 9012TIP3   OH226980   5.137   4.897   2.579 -0.5788  0.0038  0.5808
 9012TIP3    H126981   5.213   4.949   2.607 -1.4654  3.1582 -2.2032
 9012TIP3    H226982   5.167   4.849   2.502 -0.7184 -0.9260  1.0912
 9013TIP3   OH226983   4.177   6.091   1.947 -0.3862  0.1031 -0.4208
 9013TIP3    H126984   4.136   6.099   2.033  0.6666  1.4846 -0.0054
 9013TIP3    H226985   4.257   6.041   1.963  0.4436  1.4009 -0.3275
 9014TIP3   OH226986   7.326   2.152   2.616 -0.1547 -0.0512  0.4450
 9014TIP3    H126987   7.414   2.190   2.624 -0.5427  0.7830  0.8836
 9014TIP3    H226988   7.285   2.168   2.701 -1.4391  1.3845 -0.3875
 9015TIP3   OH226989   2.544   3.193   1.334 -0.0532 -0.2711 -0.3630
 9015TIP3    H126990   2.513   3.171   1.421 -1.3199 -3.0083 -1.3923
 9015TIP3    H226991   2.471   3.241   1.294  0.5785  1.1018  0.0838
 9016TIP3   OH226992   2.146   6.996   0.674  0.5914 -0.0847  0.2736
 9016TIP3    H126993   2.233   7.014   0.638  0.4941 -1.5551 -0.8206
 9016TIP3    H226994   2.093   7.070   0.646  1.6421  1.2328  1.6328
 9017TIP3   OH226995   7.017   0.839   5.069  0.8932 -0.3636 -0.0654
 9017TIP3    H126996   7.082   0.796   5.125  1.2306  0.1800 -0.0271
 9017TIP3    H226997   7.006   0.779   4.995  2.8946  0.3876 -1.0554
 9018TIP3   OH226998   7.442   1.730   2.281  0.1172  0.4645 -0.0293
 9018TIP3    H126999   7.511   1.710   2.344  0.5853  2.4891  0.1842
 9018TIP3    H227000   7.380   1.785   2.330 -1.4837 -0.9598 -0.3354
 9019TIP3   OH227001   4.063   1.802   3.523 -0.7325 -0.5975  0.5660
 9019TIP3    H127002   4.063   1.710   3.496 -0.2135 -0.4625  0.0824
 9019TIP3    H227003   4.127   1.807   3.594 -1.0763 -0.6875  0.8856
 9020TIP3   OH227004   5.543   1.032   2.855  0.5675 -0.0239 -0.0016
 9020TIP3    H127005   5.525   0.951   2.806 -0.5584 -0.3895  0.9576
 9020TIP3    H227006   5.456   1.071   2.869  0.8492  0.0575  1.6873
 9021TIP3   OH227007   5.614   4.091   0.892 -0.4390  0.0036 -0.9964
 9021TIP3    H127008   5.652   4.073   0.806  0.9986 -0.1178 -0.3692
 9021TIP3    H227009   5.616   4.187   0.899  2.0840 -0.0428 -0.0291
 9022TIP3   OH227010   5.454   1.768   0.043  0.4069  0.1338 -0.0909
 9022TIP3    H127011   5.508   1.689   0.040 -0.2159 -0.2821 -0.6944
 9022TIP3    H227012   5.434   1.780   0.135  0.5469 -0.3898  0.0090
 9023TIP3   OH227013   0.913   6.643   5.927  0.0794  0.3916 -0.8173
 9023TIP3    H127014   0.953   6.635   6.014 -0.0622 -0.4808 -0.8244
 9023TIP3    H227015   0.829   6.685   5.943  0.1107  0.3535 -0.5447
 9024TIP3   OH227016   2.406   2.147   3.361  0.4182  0.1031  0.3556
 9024TIP3    H127017   2.475   2.125   3.298  0.7356 -0.1697  0.7950
 9024TIP3    H227018   2.367   2.227   3.327  0.8034  0.1348 -0.0143
 9025TIP3   OH227019   4.849   6.127   5.489 -0.0790  0.2890 -0.2959
 9025TIP3    H127020   4.937   6.131   5.450  0.3375 -0.1369  0.5827
 9025TIP3    H227021   4.863   6.148   5.581 -0.8698 -0.0193 -0.1019
 9026TIP3   OH227022   4.973   5.802   0.258  0.5105  0.4022  0.2466
 9026TIP3    H127023   5.047   5.781   0.316  0.8320 -2.2056 -0.9703
 9026TIP3    H227024   4.903   5.828   0.318  1.4678 -0.0835  1.6568
 9027TIP3   OH227025   6.331   4.215   4.935  0.5280  0.5735 -0.0548
 9027TIP3    H127026   6.289   4.136   4.901 -3.0396  2.3653 -0.2541
 9027TIP3    H227027   6.344   4.270   4.858 -0.2898  1.5365  0.4713
 9028TIP3   OH227028   1.975   3.255   0.351  0.7996  0.1986 -0.0552
 9028TIP3    H127029   2.052   3.307   0.329 -0.2624  1.1790 -1.6627
 9028TIP3    H227030   1.927   3.247   0.269 -0.4653 -1.0033  0.7532
 9029TIP3   OH227031   5.137   2.294   5.802  0.3884  0.4893  0.3378
 9029TIP3    H127032   5.069   2.317   5.739  0.6750  2.6217  0.7186
 9029TIP3    H227033   5.091   2.273   5.882  0.0916 -0.7318 -0.1335
 9030TIP3   OH227034   2.486   1.948   2.979 -0.1683 -0.0457  0.0348
 9030TIP3    H127035   2.546   2.016   3.009 -1.3441  0.0671  2.3510
 9030TIP3    H227036   2.500   1.875   3.039 -0.3463 -1.1185 -1.1745
 9031TIP3   OH227037   0.218   0.248   3.568 -0.0602  0.0447  0.3164
 9031TIP3    H127038   0.201   0.157   3.590  0.3261 -0.2223 -0.4328
 9031TIP3    H227039   0.183   0.298   3.641 -0.3203 -0.7029  0.7105
 9032TIP3   OH227040   6.300   0.528   0.232  0.0941  0.7796  0.2672
 9032TIP3    H127041   6.378   0.477   0.255 -0.5292 -0.8885 -1.1018
 9032TIP3    H227042   6.331   0.618   0.225  1.8562  0.1738 -0.0639
 9033TIP3   OH227043   1.611   6.919   5.164 -0.2563  0.3376 -0.1054
 9033TIP3    H127044   1.687   6.887   5.211 -1.7852 -0.7250  1.7813
 9033TIP3    H227045   1.605   6.864   5.086 -0.4448 -1.2254  0.9694
 9034TIP3   OH227046   7.246   7.737   1.544  0.0647  0.1183  0.2449
 9034TIP3    H127047   7.328   7.687   1.547 -0.3557 -0.5542  1.3164
 9034TIP3    H227048   7.182   7.676   1.508 -0.2248  0.2198  0.5753
 9035TIP3   OH227049   0.413   4.661   5.063  0.2057 -0.1392 -0.4331
 9035TIP3    H127050   0.487   4.614   5.025  0.4256  1.1752 -1.6932
 9035TIP3    H227051   0.450   4.704   5.140  1.1814  1.6759 -1.8335
 9036TIP3   OH227052   0.357   5.516   5.409  0.1680  0.4292  0.1666
 9036TIP3    H127053   0.336   5.571   5.485 -1.1460  2.0557 -1.3109
 9036TIP3    H227054   0.430   5.560   5.367  0.8006 -0.3975  0.3649
 9037TIP3   OH227055   0.544   1.981   6.026 -0.2644 -0.0319 -0.0052
 9037TIP3    H127056   0.472   1.925   5.995 -0.4019  0.1509 -0.0217
 9037TIP3    H227057   0.549   2.050   5.960 -1.6419  1.2881  1.2043
 9038TIP3   OH227058   2.543   1.235   2.838  0.1508  0.1128  0.4052
 9038TIP3    H127059   2.571   1.326   2.838 -0.8473  0.4720 -1.2868
 9038TIP3    H227060   2.492   1.225   2.919 -3.3530  2.3460 -1.2523
 9039TIP3   OH227061   7.707   0.085  -0.007 -0.5874  0.7430  0.1582
 9039TIP3    H127062   7.693   0.073   0.087 -1.0320  1.1965  0.1530
 9039TIP3    H227063   7.695  -0.003  -0.044  0.4580  0.3925  0.6168
 9040TIP3   OH227064   6.502   0.051   6.657 -0.0034 -0.1445 -0.4765
 9040TIP3    H127065   6.516  -0.029   6.708  0.0914  0.5036  0.5552
 9040TIP3    H227066   6.557   0.040   6.579 -0.3209 -1.2584 -0.5679
 9041TIP3   OH227067   2.773   5.681   0.639 -0.3843 -0.0762  0.4667
 9041TIP3    H127068   2.836   5.625   0.593 -1.0211 -1.3792  1.1105
 9041TIP3    H227069   2.825   5.732   0.700  0.1489 -0.4200  0.3086
 9042TIP3   OH227070   0.291   0.166   2.609 -0.0484  0.4223 -0.2374
 9042TIP3    H127071   0.377   0.166   2.568 -0.3463  1.4107 -0.9016
 9042TIP3    H227072   0.284   0.080   2.651  1.1490  0.2387 -0.3857
 9043TIP3   OH227073   3.723   7.584   6.366  0.7054  0.0943  0.0345
 9043TIP3    H127074   3.747   7.546   6.282 -1.4357  0.1878 -0.6698
 9043TIP3    H227075   3.630   7.566   6.375  0.5128  1.6129  1.5828
 9044TIP3   OH227076   8.145   3.604   5.178  0.0522  0.7101  0.4606
 9044TIP3    H127077   8.227   3.590   5.130  0.8053  1.0819  1.6085
 9044TIP3    H227078   8.146   3.537   5.246 -1.0048  0.1931 -0.0097
 9045TIP3   OH227079   3.507   5.717   1.557 -0.5200  0.8849  0.6392
 9045TIP3    H127080   3.570   5.741   1.625  0.1292  1.5810 -0.1719
 9045TIP3    H227081   3.422   5.742   1.592 -0.3661 -0.0968  1.7683
 9046TIP3   OH227082   7.764   5.176   1.803 -0.7723 -0.2083 -0.1375
 9046TIP3    H127083   7.754   5.150   1.711  2.7316  1.4214 -1.1667
 9046TIP3    H227084   7.812   5.103   1.843 -0.7086 -0.1469 -0.1016
 9047TIP3   OH227085   0.868   5.477   6.380 -0.8248 -0.4431  0.6683
 9047TIP3    H127086   0.892   5.563   6.414  1.5514 -0.7661 -0.0108
 9047TIP3    H227087   0.934   5.417   6.416 -1.7827 -1.8070  0.2461
 9048TIP3   OH227088   6.161   2.405   5.549  0.3963 -0.4557 -0.1088
 9048TIP3    H127089   6.192   2.320   5.518 -2.0865 -1.8529  0.9645
 9048TIP3    H227090   6.191   2.409   5.640  0.0427 -0.4434  0.0081
 9049TIP3   OH227091   3.026   2.589   0.391  0.1173  0.8331 -0.0732
 9049TIP3    H127092   3.098   2.561   0.446 -0.0292 -1.3034 -0.8670
 9049TIP3    H227093   3.054   2.568   0.301 -0.9555  1.1439 -0.5022
 9050TIP3   OH227094   0.442   1.357   6.755  0.2425 -0.3079 -0.1867
 9050TIP3    H127095   0.444   1.452   6.769  0.5524 -0.4982  1.2149
 9050TIP3    H227096   0.379   1.345   6.684 -1.3545  0.8324  0.9443
 9051TIP3   OH227097   6.140   3.311   3.702 -0.3276  0.1411  0.4092
 9051TIP3    H127098   6.048   3.291   3.685 -0.3846  0.3057  0.5189
 9051TIP3    H227099   6.173   3.343   3.618 -0.3198 -0.1060  0.3188
 9052TIP3   OH227100   3.837   6.517   2.223 -0.0054 -0.2434  0.2487
 9052TIP3    H127101   3.755   6.565   2.238 -0.2035 -0.2161 -0.8142
 9052TIP3    H227102   3.888   6.574   2.166  0.7310 -0.3001  0.8377
 9053TIP3   OH227103   3.418   6.319   2.608 -0.0296 -0.1869 -0.5444
 9053TIP3    H127104   3.395   6.352   2.521 -4.3844  1.3221  0.9055
 9053TIP3    H227105   3.367   6.238   2.617  0.2975 -0.2816  0.6342
 9054TIP3   OH227106   6.615   3.070   5.815 -0.1557  0.0570 -0.0649
 9054TIP3    H127107   6.609   3.163   5.792  2.3208  0.4632  0.6177
 9054TIP3    H227108   6.581   3.025   5.738 -0.2673  1.5056 -0.9119
 9055TIP3   OH227109   1.269   1.391   6.427 -0.1696  0.1327 -0.3109
 9055TIP3    H127110   1.264   1.480   6.392  1.0708  0.7525  1.0232
 9055TIP3    H227111   1.213   1.340   6.368 -0.5692  1.6942 -1.3584
 9056TIP3   OH227112   3.164   2.530   3.867 -0.0196  0.5007 -0.0593
 9056TIP3    H127113   3.241   2.473   3.867 -0.7311 -0.4929  1.3610
 9056TIP3    H227114   3.187   2.601   3.927 -0.4910 -0.2271  1.0084
 9057TIP3   OH227115   5.508   3.637   6.020 -0.1614 -0.2222 -0.2115
 9057TIP3    H127116   5.430   3.635   5.964 -0.7537 -2.3813  0.6002
 9057TIP3    H227117   5.569   3.577   5.977 -0.2798 -1.1993  0.9225
 9058TIP3   OH227118   8.026   2.623   0.712 -0.6861  0.2376  0.3385
 9058TIP3    H127119   7.985   2.619   0.626 -0.2305 -0.9611  0.1598
 9058TIP3    H227120   8.030   2.532   0.741  0.9295  0.4190  0.7793
 9059TIP3   OH227121   7.683   6.390   1.019 -0.3046  0.7904 -0.2026
 9059TIP3    H127122   7.688   6.472   0.969  1.2070  1.1315  0.4223
 9059TIP3    H227123   7.645   6.327   0.958 -3.3870  2.3476 -0.0986
 9060TIP3   OH227124   2.777   1.334   6.330 -0.4698  0.0802  0.2249
 9060TIP3    H127125   2.779   1.295   6.242 -1.9870  0.6672 -0.1036
 9060TIP3    H227126   2.760   1.261   6.389  1.8605 -0.5312  0.2098
 9061TIP3   OH227127   1.850   7.779   2.938 -0.4018  0.4587 -0.2861
 9061TIP3    H127128   1.877   7.870   2.925 -0.2702  0.5625  0.6412
 9061TIP3    H227129   1.923   7.738   2.983 -0.2935 -0.2222 -1.0643
 9062TIP3   OH227130   3.908   4.219   1.192 -0.5902 -0.0628  0.4155
 9062TIP3    H127131   3.932   4.220   1.100 -1.1043  0.3375  0.2756
 9062TIP3    H227132   3.819   4.256   1.194  0.2432  2.0468  1.2931
 9063TIP3   OH227133   6.856   4.380   5.427 -0.0585 -0.4159  0.1318
 9063TIP3    H127134   6.807   4.299   5.430  2.9698 -2.4965 -1.1016
 9063TIP3    H227135   6.943   4.357   5.462  1.0493  2.1574 -0.6668
 9064TIP3   OH227136   3.462   6.969   5.619 -0.1040  0.3904  0.0217
 9064TIP3    H127137   3.517   6.950   5.543  0.0670  0.7014  0.0656
 9064TIP3    H227138   3.414   6.888   5.635 -0.1472  0.3278 -0.4239
 9065TIP3   OH227139   2.579   3.277   2.881 -0.2057 -0.2122 -0.5641
 9065TIP3    H127140   2.543   3.361   2.853  1.7138  0.5474 -0.9278
 9065TIP3    H227141   2.593   3.287   2.975  0.2347 -0.0413 -0.6479
 9066TIP3   OH227142   3.880   1.075   0.954  0.5840 -0.7603  0.0787
 9066TIP3    H127143   3.925   1.136   1.013  1.7102  0.2522 -1.7601
 9066TIP3    H227144   3.788   1.082   0.979  0.7055  1.5807  0.0548
 9067TIP3   OH227145   7.343   0.954   4.925  0.0778 -0.2892  0.1690
 9067TIP3    H127146   7.263   1.006   4.920  0.2823  0.4176  2.8134
 9067TIP3    H227147   7.324   0.875   4.875 -2.1890 -0.0212  0.5073
 9068TIP3   OH227148   3.341   6.699   4.093  0.3121  0.4537  0.1328
 9068TIP3    H127149   3.367   6.727   4.005 -0.2946  0.7572  0.0479
 9068TIP3    H227150   3.302   6.777   4.133 -0.4279  0.0240  0.2726
 9069TIP3   OH227151   7.037   0.066   6.070 -0.2988  0.5369 -0.1295
 9069TIP3    H127152   7.070  -0.007   6.123 -0.8097  0.3522 -0.0509
 9069TIP3    H227153   6.944   0.071   6.094 -0.6912  0.0344 -1.4773
 9070TIP3   OH227154   1.152   4.712   3.969  0.0965 -0.3273 -0.0371
 9070TIP3    H127155   1.088   4.648   3.937  1.6170 -1.9756  0.1080
 9070TIP3    H227156   1.099   4.776   4.018 -1.2572 -2.9040  2.1071
 9071TIP3   OH227157   6.431   0.699   4.473  0.2516  0.3840  0.6850
 9071TIP3    H127158   6.484   0.692   4.553  0.3359 -1.1205  0.5226
 9071TIP3    H227159   6.416   0.609   4.446 -2.0245  0.7695  0.4695
 9072TIP3   OH227160   7.366   0.786   6.396  0.2167 -0.2044 -0.1571
 9072TIP3    H127161   7.438   0.776   6.458 -0.1350 -0.1980  0.2521
 9072TIP3    H227162   7.299   0.725   6.427 -0.6659  1.0672  0.4846
 9073TIP3   OH227163   1.949   5.246   1.503 -0.2575  0.2945  0.0380
 9073TIP3    H127164   2.000   5.263   1.423  1.6650 -1.9499  0.6718
 9073TIP3    H227165   1.958   5.327   1.554  2.0766  0.2808 -0.2410
 9074TIP3   OH227166   6.594   3.712   1.443 -0.0782 -0.4230  0.1053
 9074TIP3    H127167   6.627   3.742   1.358  1.8955 -0.1032  0.9388
 9074TIP3    H227168   6.528   3.777   1.467 -0.1029 -0.0902 -0.8133
 9075TIP3   OH227169   4.214   5.021   6.156  0.7818  0.6006  0.4359
 9075TIP3    H127170   4.169   5.070   6.087  0.7280  0.1393  0.1387
 9075TIP3    H227171   4.154   5.022   6.230  0.1518 -0.2410 -0.0477
 9076TIP3   OH227172   1.893   2.974   5.268 -0.0262  0.1403 -0.7811
 9076TIP3    H127173   1.970   3.009   5.224 -1.0699  2.0444 -1.2056
 9076TIP3    H227174   1.838   3.051   5.284 -0.5562 -0.7401  2.1426
 9077TIP3   OH227175   5.469   4.351   0.560 -0.4311  0.0627  0.3009
 9077TIP3    H127176   5.432   4.437   0.579  0.6561  0.4764  0.6277
 9077TIP3    H227177   5.397   4.290   0.575 -1.1354  0.8844  0.3468
 9078TIP3   OH227178   6.941   0.536   5.334 -0.0753  0.6754  0.2118
 9078TIP3    H127179   6.965   0.464   5.275 -1.9034 -0.6043  0.9180
 9078TIP3    H227180   6.988   0.612   5.300  1.3053 -0.6707 -1.0524
 9079TIP3   OH227181   7.538   5.914   3.042  0.3148  0.5629 -0.4283
 9079TIP3    H127182   7.556   5.870   2.959  0.2359 -0.6153  0.1445
 9079TIP3    H227183   7.604   5.879   3.102  0.0922  1.0557  0.1168
 9080TIP3   OH227184   6.819   6.569   0.951  0.7376 -0.8307 -0.0929
 9080TIP3    H127185   6.888   6.556   1.016  2.0064 -0.6947 -1.3666
 9080TIP3    H227186   6.857   6.540   0.869  0.1293  1.3889 -1.2555
 9081TIP3   OH227187   6.190   4.952   1.525  0.0343  0.2943 -0.8712
 9081TIP3    H127188   6.161   4.996   1.445 -1.3038  0.5052 -0.2995
 9081TIP3    H227189   6.111   4.945   1.578  0.9138  0.2211  0.4674
 9082TIP3   OH227190   3.899   2.326   6.178  0.2382  0.4007 -0.0862
 9082TIP3    H127191   3.992   2.346   6.166 -0.1847  2.6794  0.1716
 9082TIP3    H227192   3.898   2.233   6.200  2.3182 -0.1016 -1.7178
 9083TIP3   OH227193   6.477   0.128   5.964  0.3290 -0.0211 -0.0740
 9083TIP3    H127194   6.414   0.191   5.999  0.9408 -0.0151  1.0898
 9083TIP3    H227195   6.462   0.048   6.015  0.8209 -0.2161 -0.2239
 9084TIP3   OH227196   3.178   1.863   1.493 -0.0461 -0.3370  0.0113
 9084TIP3    H127197   3.211   1.933   1.549  1.2279 -2.1566  1.7107
 9084TIP3    H227198   3.209   1.885   1.406 -0.9815  1.9472  0.1785
 9085TIP3   OH227199   7.781   2.424   2.773  0.2084  0.7151  0.1884
 9085TIP3    H127200   7.871   2.399   2.754 -0.4629 -0.3135 -2.0014
 9085TIP3    H227201   7.787   2.480   2.850  2.8656  1.8938 -0.7549
 9086TIP3   OH227202   4.684   5.934   5.018 -0.2345 -0.1473 -0.1579
 9086TIP3    H127203   4.648   6.021   5.002  1.8987  1.1703  1.7444
 9086TIP3    H227204   4.642   5.905   5.099  0.0413 -0.3513 -0.0887
 9087TIP3   OH227205   3.847   0.952   5.176  0.0793 -0.0236 -0.3396
 9087TIP3    H127206   3.792   1.018   5.135 -0.5697  0.4744  1.2589
 9087TIP3    H227207   3.827   0.958   5.269  2.0673 -0.5631  0.1802
 9088TIP3   OH227208   2.124   7.515   3.031  0.0311  0.7151 -0.4724
 9088TIP3    H127209   2.128   7.419   3.032 -0.2211  0.6391  2.5006
 9088TIP3    H227210   2.050   7.537   3.087  0.7143  2.6525 -0.2442
 9089TIP3   OH227211   5.325   1.445   0.050 -0.3071 -0.1263  0.2143
 9089TIP3    H127212   5.330   1.447   0.146  0.6617  2.8180  0.1866
 9089TIP3    H227213   5.237   1.474   0.029  0.1887  1.4519  0.2293
 9090TIP3   OH227214   3.658   6.591   4.507 -0.0374  0.0594  0.2332
 9090TIP3    H127215   3.691   6.641   4.582 -0.3563  1.0890 -0.2882
 9090TIP3    H227216   3.689   6.640   4.430 -2.1449  0.7054 -0.2896
 9091TIP3   OH227217   7.428   1.650   1.517 -0.3655  0.1202 -0.1814
 9091TIP3    H127218   7.385   1.724   1.473 -2.2080 -0.4523  0.5699
 9091TIP3    H227219   7.522   1.666   1.504 -0.7669  1.5316 -1.7277
 9092TIP3   OH227220   4.843   1.049   5.511 -0.4672 -0.3338 -0.1994
 9092TIP3    H127221   4.755   1.083   5.493  0.0716  1.7821  0.7852
 9092TIP3    H227222   4.896   1.077   5.436  0.1692  1.9680  1.0054
 9093TIP3   OH227223   3.773   5.099   2.082  0.5925  0.3753  0.1096
 9093TIP3    H127224   3.806   5.011   2.063  1.4492  0.9608 -1.2816
 9093TIP3    H227225   3.844   5.157   2.055 -0.8939  1.5985 -1.3444
 9094TIP3   OH227226   6.434   4.844   2.755  0.2753 -0.2420  0.5559
 9094TIP3    H127227   6.387   4.761   2.764  1.7017 -1.2178 -0.3932
 9094TIP3    H227228   6.461   4.866   2.844  1.3512 -1.7340  0.6405
 9095TIP3   OH227229   7.677   0.536   5.474  0.1119  0.1169 -0.1547
 9095TIP3    H127230   7.756   0.574   5.512  1.7380 -1.2105 -2.0068
 9095TIP3    H227231   7.613   0.538   5.545  2.1253  0.2727  1.7556
 9096TIP3   OH227232   1.080   5.683   3.724 -0.3571  0.7018  0.3324
 9096TIP3    H127233   1.123   5.599   3.706  0.8677  1.2573  0.5643
 9096TIP3    H227234   1.129   5.747   3.672 -3.1667  0.9170 -2.3245
 9097TIP3   OH227235   0.126   4.894   5.963  1.1746  0.4826  0.0816
 9097TIP3    H127236   0.056   4.915   6.024  1.7755  1.8914  0.3355
 9097TIP3    H227237   0.178   4.827   6.008  1.1564  0.9326  0.7804
 9098TIP3   OH227238   4.354   0.891   4.468 -0.2854 -0.0926  0.2232
 9098TIP3    H127239   4.444   0.920   4.450 -1.4224  2.9517 -1.2200
 9098TIP3    H227240   4.334   0.831   4.396  0.4682 -0.5927  0.4095
 9099TIP3   OH227241   6.006   2.906   1.480 -0.2210  0.2385 -0.3253
 9099TIP3    H127242   5.944   2.833   1.472 -2.2636  1.8701 -0.5253
 9099TIP3    H227243   5.996   2.954   1.398 -1.5994  2.6120  1.1162
 9100TIP3   OH227244   5.043   2.624   5.028 -0.1038  0.5809  0.0881
 9100TIP3    H127245   5.085   2.573   5.098 -0.4750  1.2274  0.7982
 9100TIP3    H227246   5.049   2.569   4.950 -1.5058 -1.0485  1.0762
 9101TIP3   OH227247   0.613   4.230   4.867  0.1255  0.4089  0.0025
 9101TIP3    H127248   0.626   4.318   4.904 -1.1591  1.8127 -2.5521
 9101TIP3    H227249   0.676   4.224   4.796 -0.4763 -0.3156 -0.4898
 9102TIP3   OH227250   1.131   6.211   2.115  0.4881  0.1436  0.1329
 9102TIP3    H127251   1.194   6.145   2.085 -0.0972 -0.0191 -0.7569
 9102TIP3    H227252   1.090   6.172   2.192 -1.0169 -1.2569 -1.3096
 9103TIP3   OH227253   7.143   0.724   5.274  0.4186 -0.2611 -0.3723
 9103TIP3    H127254   7.196   0.672   5.213  0.3316 -0.0790 -0.6080
 9103TIP3    H227255   7.204   0.786   5.312  0.0283  1.2701 -2.1096
 9104TIP3   OH227256   5.014   7.673   4.610  0.1803  0.0003  0.1536
 9104TIP3    H127257   5.096   7.720   4.627  1.2163 -2.0046  1.0323
 9104TIP3    H227258   5.030   7.627   4.527  0.2454 -0.9539  0.6774
 9105TIP3   OH227259   4.184   2.879   2.117  0.0469 -0.1399 -0.0303
 9105TIP3    H127260   4.250   2.935   2.077  0.0796 -0.1468  0.0142
 9105TIP3    H227261   4.147   2.830   2.043 -0.4876  0.4650 -0.1681
 9106TIP3   OH227262   2.128   2.126   5.031  0.3749  0.0947 -0.0248
 9106TIP3    H127263   2.132   2.055   5.095  1.0356 -1.1442 -1.4025
 9106TIP3    H227264   2.104   2.084   4.949  1.1132  1.4105 -0.9562
 9107TIP3   OH227265   1.638   3.835   6.183  0.6071  0.2332 -0.7688
 9107TIP3    H127266   1.665   3.853   6.273  0.2776 -0.3056 -0.5556
 9107TIP3    H227267   1.600   3.917   6.152 -0.5147  0.0402  0.0505
 9108TIP3   OH227268   7.407   5.103   2.435 -0.0515 -0.0331  0.0419
 9108TIP3    H127269   7.473   5.145   2.380  0.3607  0.5245  0.9357
 9108TIP3    H227270   7.327   5.154   2.419  0.4982  1.2940  1.2873
 9109TIP3   OH227271   8.047   5.920   2.397  0.1888  0.1561 -0.4509
 9109TIP3    H127272   8.092   6.005   2.391 -0.4313  0.6389  1.3063
 9109TIP3    H227273   8.007   5.920   2.483  0.5192 -2.1220 -0.2387
 9110TIP3   OH227274   1.528   1.562   2.690 -0.0859 -0.3364 -0.0376
 9110TIP3    H127275   1.484   1.518   2.617  0.2339 -1.3288  0.3499
 9110TIP3    H227276   1.618   1.530   2.686  0.1003  0.1212  0.3953
 9111TIP3   OH227277   5.564   6.919   2.705 -0.4380  0.0422  0.4449
 9111TIP3    H127278   5.565   6.993   2.645  1.5136 -1.2139 -1.2041
 9111TIP3    H227279   5.539   6.844   2.651 -0.3775 -0.8409  1.6008
 9112TIP3   OH227280   7.668   0.429   2.322 -0.3859 -0.5610  0.0465
 9112TIP3    H127281   7.749   0.382   2.302 -0.7068 -1.1064 -0.0052
 9112TIP3    H227282   7.688   0.521   2.306  0.7601 -0.4856  1.7196
 9113TIP3   OH227283   5.468   1.835   6.394 -0.1729 -0.5765  0.1558
 9113TIP3    H127284   5.528   1.896   6.350 -1.6218 -0.4414 -1.7494
 9113TIP3    H227285   5.512   1.750   6.388 -0.0026 -0.4317 -0.9850
 9114TIP3   OH227286   5.325   3.016   5.583  0.5328  0.1206 -0.6937
 9114TIP3    H127287   5.277   3.076   5.526 -2.4621 -1.5503 -0.1364
 9114TIP3    H227288   5.327   2.933   5.536  1.7488 -0.2253 -0.1015
 9115TIP3   OH227289   4.612   4.895   4.319 -0.4363  0.1230  0.0682
 9115TIP3    H127290   4.628   4.802   4.331 -0.1522  0.1552 -0.0464
 9115TIP3    H227291   4.699   4.936   4.328 -0.4243  0.2853 -0.6968
 9116TIP3   OH227292   6.882   4.696   0.963 -0.3160 -0.1744 -0.2161
 9116TIP3    H127293   6.868   4.786   0.934  0.3640  0.0382  0.0997
 9116TIP3    H227294   6.815   4.645   0.917 -0.5085  0.4467 -0.6298
 9117TIP3   OH227295   3.927   1.515   5.160 -0.2953 -0.0065 -0.1268
 9117TIP3    H127296   4.004   1.508   5.216  0.4808 -0.1479 -1.1641
 9117TIP3    H227297   3.944   1.452   5.089 -0.9924  0.5454 -0.7936
 9118TIP3   OH227298   6.280   4.896   4.446 -0.1898  0.5665 -0.0187
 9118TIP3    H127299   6.337   4.957   4.492  1.3716 -1.5310  0.9766
 9118TIP3    H227300   6.197   4.902   4.493  0.3104  1.0328  0.8347
 9119TIP3   OH227301   0.640   7.131   5.643 -0.1118  0.6230 -0.3370
 9119TIP3    H127302   0.586   7.098   5.716  0.0410  0.4527 -0.3008
 9119TIP3    H227303   0.710   7.181   5.685  0.2887  0.0719 -0.3376
 9120TIP3   OH227304   3.168   2.023   6.307  0.6974 -0.3008  0.4826
 9120TIP3    H127305   3.176   1.933   6.276  0.0682  0.3705 -1.8414
 9120TIP3    H227306   3.196   2.020   6.399  1.7383 -2.6450  0.1532
 9121TIP3   OH227307   6.213   1.120   1.337  0.5171  0.0271 -0.0781
 9121TIP3    H127308   6.166   1.044   1.371 -1.2959  0.1226 -2.1848
 9121TIP3    H227309   6.256   1.088   1.258 -1.3587  1.4182 -1.7441
 9122TIP3   OH227310   3.499   0.460   6.195  0.1772  0.1686  0.4584
 9122TIP3    H127311   3.511   0.459   6.100 -0.7409  0.9774  0.3244
 9122TIP3    H227312   3.447   0.382   6.213 -1.2829  1.0171  0.0489
 9123TIP3   OH227313   2.460   7.490   3.361 -0.8872 -0.6187  0.1697
 9123TIP3    H127314   2.468   7.409   3.312 -1.1322  0.2860 -1.4338
 9123TIP3    H227315   2.412   7.465   3.440 -0.3579 -2.1460  0.0445
 9124TIP3   OH227316   4.688   0.675   4.574 -0.0705  0.3341  0.4081
 9124TIP3    H127317   4.675   0.762   4.537  0.5402  0.6211  0.8663
 9124TIP3    H227318   4.618   0.622   4.535 -1.8090  1.5146  1.7561
 9125TIP3   OH227319   1.729   5.784   3.207 -0.3383  0.2846  0.1944
 9125TIP3    H127320   1.742   5.878   3.211  1.7173  0.0210  1.1592
 9125TIP3    H227321   1.815   5.749   3.179 -0.1059 -1.4667  2.7614
 9126TIP3   OH227322   0.284   5.652   4.020  0.1121  0.1466  0.3223
 9126TIP3    H127323   0.345   5.599   4.072 -0.1832  1.2957  1.9169
 9126TIP3    H227324   0.197   5.619   4.043 -0.1437  1.9159  2.1385
 9127TIP3   OH227325   0.904   0.395   6.129  0.2611  0.2288  0.1322
 9127TIP3    H127326   0.850   0.474   6.126  0.8018  0.5782 -1.8597
 9127TIP3    H227327   0.932   0.389   6.221 -1.0159  1.4896  0.6430
 9128TIP3   OH227328  -0.034   4.156   5.361 -0.2327  0.1376  0.2019
 9128TIP3    H127329   0.039   4.101   5.389  0.3486 -0.2393 -1.9346
 9128TIP3    H227330   0.004   4.243   5.351 -0.2127  0.0718 -0.3121
 9129TIP3   OH227331   3.494   1.109   6.478  0.3316 -0.1756 -0.2869
 9129TIP3    H127332   3.425   1.144   6.422 -0.3356 -1.5194 -0.3575
 9129TIP3    H227333   3.527   1.033   6.430  1.0107 -0.2672  0.3171
 9130TIP3   OH227334   0.265   0.737   6.167 -0.7161  0.3703 -0.2219
 9130TIP3    H127335   0.194   0.725   6.103 -0.1006 -1.1583 -0.6816
 9130TIP3    H227336   0.296   0.648   6.184  0.2324  0.9073  0.9619
 9131TIP3   OH227337   1.369   3.505   5.791  0.0297 -0.1537 -0.6229
 9131TIP3    H127338   1.300   3.459   5.742 -1.0466  0.2537  0.4471
 9131TIP3    H227339   1.406   3.567   5.729 -1.0064  0.0575 -1.0434
 9132TIP3   OH227340   6.302   4.563   3.245  0.2707  0.2853 -0.0552
 9132TIP3    H127341   6.291   4.478   3.289  2.2928  0.1797  0.3209
 9132TIP3    H227342   6.353   4.543   3.167 -0.1239  1.0215 -0.5126
 9133TIP3   OH227343   1.120   5.006   5.554  0.3759  0.0734  0.0422
 9133TIP3    H127344   1.204   5.038   5.519  0.3887 -0.4835 -0.4691
 9133TIP3    H227345   1.064   4.998   5.477 -0.4185  1.2060  0.4815
 9134TIP3   OH227346   4.427   7.446   4.840  0.0243 -0.3514 -0.1695
 9134TIP3    H127347   4.428   7.380   4.771  0.3655 -1.4086  0.8134
 9134TIP3    H227348   4.513   7.438   4.882 -0.3366 -0.0398  0.6532
 9135TIP3   OH227349   4.565   4.559   1.568  0.0980 -0.1938  0.0923
 9135TIP3    H127350   4.638   4.502   1.544  1.0734  0.3703  1.5623
 9135TIP3    H227351   4.522   4.514   1.641  0.0838  0.3017  0.4005
 9136TIP3   OH227352   0.014   4.426   5.288 -0.3054 -0.3489 -0.0333
 9136TIP3    H127353   0.049   4.438   5.199  3.7513  0.5505  1.4913
 9136TIP3    H227354  -0.017   4.512   5.314  0.9582  0.0178  0.3081
 9137TIP3   OH227355   6.571   3.415   2.799 -0.4199  0.3216 -0.4897
 9137TIP3    H127356   6.484   3.452   2.787  0.0485  1.4335 -0.6118
 9137TIP3    H227357   6.620   3.483   2.846  0.8223  0.3887 -1.7865
 9138TIP3   OH227358   0.453   2.290   4.540  0.1807  0.0109  0.4114
 9138TIP3    H127359   0.364   2.276   4.572 -0.9399  0.0380 -2.4071
 9138TIP3    H227360   0.479   2.206   4.502 -0.1635  0.9263 -2.0349
 9139TIP3   OH227361   2.234   7.293   0.732  0.0610 -0.0143  0.1626
 9139TIP3    H127362   2.300   7.349   0.772 -0.7300  0.8956  0.2386
 9139TIP3    H227363   2.282   7.215   0.704  1.9464  2.0666 -3.1136
 9140TIP3   OH227364   1.182   0.370   4.245 -0.1411  0.3586 -0.0420
 9140TIP3    H127365   1.106   0.313   4.234  0.5059 -0.6200  0.4405
 9140TIP3    H227366   1.211   0.355   4.335  0.0847  1.4052  0.0724
 9141TIP3   OH227367   5.590   4.031   0.622 -0.2795  0.2477  0.3737
 9141TIP3    H127368   5.507   4.077   0.609 -1.0981 -1.5082 -1.0201
 9141TIP3    H227369   5.566   3.939   0.621  1.7522 -0.3110 -0.3978
 9142TIP3   OH227370   6.754   1.721   2.885  0.9192  0.0687  0.6438
 9142TIP3    H127371   6.815   1.716   2.813 -0.4584 -1.5545 -0.5120
 9142TIP3    H227372   6.799   1.677   2.958  0.7217 -2.3700 -0.5806
 9143TIP3   OH227373   6.431   1.986   2.665  0.1414 -0.4204 -0.2476
 9143TIP3    H127374   6.396   2.004   2.753 -0.9809 -2.4487 -0.2311
 9143TIP3    H227375   6.353   1.975   2.610  0.8293  0.3861 -1.4247
 9144TIP3   OH227376   5.912   3.432   4.671 -0.2789 -0.0963  0.5373
 9144TIP3    H127377   5.929   3.440   4.765 -1.0249 -1.0881  0.7750
 9144TIP3    H227378   5.848   3.501   4.652  0.6639  0.8035  0.5192
 9145TIP3   OH227379   6.447   7.369   4.672 -0.1494 -0.6022  0.2760
 9145TIP3    H127380   6.528   7.413   4.695  0.0073 -1.2769  1.0689
 9145TIP3    H227381   6.383   7.440   4.660  0.6150 -0.0521 -0.6538
 9146TIP3   OH227382   3.959   6.696   2.046  0.1290  0.2672 -0.2498
 9146TIP3    H127383   3.904   6.734   1.978 -0.5500  2.3668  1.3500
 9146TIP3    H227384   4.048   6.722   2.023 -0.0459  0.5997 -0.5592
 9147TIP3   OH227385   2.215   7.490   5.944 -0.7345 -0.1320  0.2304
 9147TIP3    H127386   2.243   7.419   5.886  1.0328 -1.5108  2.5770
 9147TIP3    H227387   2.272   7.563   5.921 -0.5561 -0.4208 -0.2701
 9148TIP3   OH227388   3.492   1.183   1.911  0.6329 -0.2641  0.0486
 9148TIP3    H127389   3.468   1.091   1.899  1.0867 -0.5502  1.1482
 9148TIP3    H227390   3.437   1.230   1.849  1.6606 -1.4177 -1.8350
 9149TIP3   OH227391   0.367   3.090   3.914 -0.2001  0.0274  0.8443
 9149TIP3    H127392   0.462   3.095   3.925 -0.0839 -1.1873  0.5772
 9149TIP3    H227393   0.334   3.170   3.954  0.8199 -0.3055  2.4763
 9150TIP3   OH227394   4.836   4.605   1.776 -0.3807 -0.2431  1.1777
 9150TIP3    H127395   4.827   4.526   1.724 -2.7354  0.5484  0.2615
 9150TIP3    H227396   4.874   4.669   1.717 -0.2973 -0.1557  1.3252
 9151TIP3   OH227397   7.484   5.894   0.896 -0.0239  0.0472 -0.2902
 9151TIP3    H127398   7.552   5.924   0.835 -2.5157  3.7155 -1.5936
 9151TIP3    H227399   7.446   5.817   0.853  2.6828 -1.6752  0.1613
 9152TIP3   OH227400   6.949   5.995   6.182 -0.4135  0.4270  0.0454
 9152TIP3    H127401   6.983   5.939   6.113 -0.4223  0.3832  0.0761
 9152TIP3    H227402   7.002   6.075   6.178  0.9967 -0.3993  1.3473
 9153TIP3   OH227403   4.702   0.981   2.921 -0.3182  0.0158  0.2312
 9153TIP3    H127404   4.632   1.003   2.981 -0.0755  2.1910 -0.1904
 9153TIP3    H227405   4.701   1.051   2.856  0.2764 -1.5473 -1.5597
 9154TIP3   OH227406   5.268   6.886   3.289  0.4617  0.2830 -0.1810
 9154TIP3    H127407   5.361   6.904   3.303  0.4668 -0.7450  1.4498
 9154TIP3    H227408   5.265   6.832   3.210  1.3015  0.0138 -0.0439
 9155TIP3   OH227409   6.217   0.337   3.531  0.3946  0.1090  0.2334
 9155TIP3    H127410   6.165   0.381   3.598 -0.2393  1.1420 -0.9020
 9155TIP3    H227411   6.302   0.381   3.535  0.6295 -0.3807  0.8842
 9156TIP3   OH227412   1.179   2.932   3.555 -0.6231 -0.3074  0.3943
 9156TIP3    H127413   1.106   2.983   3.519 -0.3273 -0.3602 -0.3075
 9156TIP3    H227414   1.243   2.998   3.581 -1.8132 -0.1269  3.1438
 9157TIP3   OH227415  -0.002   7.575   2.427  0.0546 -0.0243 -0.0870
 9157TIP3    H127416   0.082   7.541   2.458 -0.4643 -0.0569  1.3679
 9157TIP3    H227417  -0.046   7.604   2.506 -1.9131 -1.3160 -0.6443
 9158TIP3   OH227418   4.656   2.071   1.143 -0.4787  0.1066  0.4809
 9158TIP3    H127419   4.750   2.079   1.159 -0.2548  0.2821 -0.8076
 9158TIP3    H227420   4.629   1.997   1.197  1.0390 -2.0268 -1.4739
 9159TIP3   OH227421   2.605   0.836   2.030 -0.6957  0.3280 -0.4129
 9159TIP3    H127422   2.592   0.879   2.114 -0.2566 -0.3570  0.0132
 9159TIP3    H227423   2.693   0.798   2.036 -1.2510 -1.0404 -0.5868
 9160TIP3   OH227424   2.396   6.576   2.456  0.0986  0.7417  0.3472
 9160TIP3    H127425   2.474   6.528   2.430 -0.7489 -0.3801 -0.1769
 9160TIP3    H227426   2.350   6.595   2.375 -1.2866 -0.5770  0.7716
 9161TIP3   OH227427   2.148   0.345   3.225  0.6032 -0.4336 -0.0703
 9161TIP3    H127428   2.063   0.341   3.267  0.2056  0.7038 -0.7300
 9161TIP3    H227429   2.130   0.332   3.132  1.2510 -1.0074 -0.1271
 9162TIP3   OH227430   4.388   0.620   1.257  0.6940 -0.7667 -0.0841
 9162TIP3    H127431   4.379   0.701   1.308 -0.2775 -1.1060  0.3139
 9162TIP3    H227432   4.467   0.632   1.205  0.7087  0.3226  0.1825
 9163TIP3   OH227433   5.738   3.784   5.545  0.1686  0.6390  0.7493
 9163TIP3    H127434   5.730   3.818   5.456 -1.7927 -1.0832  0.1886
 9163TIP3    H227435   5.732   3.862   5.601 -0.1303  1.6115 -0.5785
 9164TIP3   OH227436   3.346   3.439   4.051  0.1190  0.1706  0.2942
 9164TIP3    H127437   3.387   3.500   4.112 -0.5199 -0.3730  1.2830
 9164TIP3    H227438   3.267   3.408   4.096  0.3033 -1.2182 -0.2810
 9165TIP3   OH227439   4.676   0.745   0.415  0.1031 -0.0264  0.1585
 9165TIP3    H127440   4.724   0.701   0.345  0.6855  1.7051 -0.5904
 9165TIP3    H227441   4.695   0.693   0.493 -0.2944 -1.8170 -0.8709
 9166TIP3   OH227442   2.390   6.057   6.106 -0.9673 -0.3968 -0.5593
 9166TIP3    H127443   2.372   6.004   6.184 -0.1807 -1.8596 -1.3348
 9166TIP3    H227444   2.314   6.115   6.100 -0.1083  1.2535  2.4413
 9167TIP3   OH227445   3.976   3.725   6.097 -0.1386  0.4675  0.2405
 9167TIP3    H127446   4.014   3.700   6.182 -0.0684 -1.0685 -0.2034
 9167TIP3    H227447   4.034   3.684   6.033 -1.2574 -0.0053 -0.4915
 9168TIP3   OH227448   5.956   0.536   6.538  0.0706  0.3921 -0.8794
 9168TIP3    H127449   5.928   0.588   6.462  2.1106  1.7946 -0.7398
 9168TIP3    H227450   5.874   0.512   6.581 -1.0553  1.3428 -2.3548
 9169TIP3   OH227451   7.622   4.413   4.017 -0.0878 -0.4987 -0.1278
 9169TIP3    H127452   7.637   4.496   3.972 -0.0648 -0.7093 -0.5134
 9169TIP3    H227453   7.533   4.420   4.051  1.1180  1.2187  3.1406
 9170TIP3   OH227454   2.179   5.790   1.474  0.4325 -0.5390 -0.1543
 9170TIP3    H127455   2.192   5.716   1.414 -1.3862  1.5712 -3.4643
 9170TIP3    H227456   2.207   5.866   1.424 -0.7027  1.3406  1.9114
 9171TIP3   OH227457   3.818   2.442   4.253  0.2284 -0.3498 -0.0355
 9171TIP3    H127458   3.723   2.431   4.242 -0.0593  0.1029  1.7603
 9171TIP3    H227459   3.850   2.354   4.273  0.1299 -0.4131 -0.1471
 9172TIP3   OH227460   6.877   3.611   5.333  0.0915  0.0197  0.4325
 9172TIP3    H127461   6.947   3.646   5.278 -0.6112  0.1617 -0.3971
 9172TIP3    H227462   6.859   3.680   5.396  2.4440 -0.9798  2.3817
 9173TIP3   OH227463   6.520   7.416   2.177 -0.3235  0.3737 -0.1220
 9173TIP3    H127464   6.577   7.488   2.203 -1.4449  1.2991 -0.1383
 9173TIP3    H227465   6.576   7.357   2.127  0.8373  0.7432  0.7153
 9174TIP3   OH227466   6.119   2.875   4.309  0.2994 -0.4364  1.3900
 9174TIP3    H127467   6.116   2.962   4.349 -0.3145 -0.8834  2.3599
 9174TIP3    H227468   6.204   2.840   4.335  1.4868  0.6631 -0.7891
 9175TIP3   OH227469   4.374   7.411   2.872 -0.1216 -0.0221 -0.4643
 9175TIP3    H127470   4.307   7.478   2.884  0.8722  1.0576 -0.8238
 9175TIP3    H227471   4.338   7.333   2.915 -1.7540  0.4247 -0.9535
 9176TIP3   OH227472   1.253   3.715   1.177 -0.0362  0.0724  0.3683
 9176TIP3    H127473   1.239   3.659   1.100 -0.1714  1.7323 -0.8537
 9176TIP3    H227474   1.263   3.803   1.141 -0.4197  0.9378  2.2886
 9177TIP3   OH227475   6.083   0.425   2.915  1.1795 -0.9547 -0.4337
 9177TIP3    H127476   6.147   0.482   2.957 -0.2196  0.0986  0.3525
 9177TIP3    H227477   6.108   0.425   2.822  0.5601  1.9300 -0.6862
 9178TIP3   OH227478   3.809   1.206   1.611  0.5998  0.4328  0.4209
 9178TIP3    H127479   3.780   1.143   1.676  2.0869 -0.8201 -0.0626
 9178TIP3    H227480   3.904   1.192   1.605  0.6435  1.2325 -1.2516
 9179TIP3   OH227481   6.291   7.731   2.945 -0.6502 -0.3936 -0.5073
 9179TIP3    H127482   6.288   7.695   3.034  1.8338  0.4833  0.0080
 9179TIP3    H227483   6.353   7.674   2.899 -1.7662 -0.7241 -1.6743
 9180TIP3   OH227484   2.446   3.031   0.676  0.7249  0.5800  0.5922
 9180TIP3    H127485   2.528   3.068   0.710  0.7117  0.9637  0.2147
 9180TIP3    H227486   2.394   3.011   0.754 -0.1082  3.2490  0.7985
 9181TIP3   OH227487   5.017   2.248   1.086  0.3246 -0.4555  0.2974
 9181TIP3    H127488   5.059   2.201   1.014  1.6061 -0.7406  1.1983
 9181TIP3    H227489   5.083   2.250   1.156 -0.0236  1.8438  0.6543
 9182TIP3   OH227490   1.952   2.123   0.567 -0.0182 -0.1865 -0.6724
 9182TIP3    H127491   1.916   2.081   0.645  0.1825  0.4917 -0.2027
 9182TIP3    H227492   1.972   2.051   0.507 -0.9679 -0.6595 -0.4417
 9183TIP3   OH227493   0.831   4.853   2.806  0.3469  0.1460 -0.7442
 9183TIP3    H127494   0.848   4.791   2.878  0.7600 -0.4014 -1.3008
 9183TIP3    H227495   0.837   4.939   2.847 -1.2765 -0.1775  0.2689
 9184TIP3   OH227496   4.776   3.378   1.044  0.2875  0.1845  0.5456
 9184TIP3    H127497   4.803   3.286   1.039 -0.8105 -0.2489  1.8888
 9184TIP3    H227498   4.740   3.397   0.957  2.4342  0.0171 -0.4449
 9185TIP3   OH227499   2.840   5.699   3.547  0.0499  0.2528  0.2607
 9185TIP3    H127500   2.922   5.712   3.594  2.8017  0.7768 -4.0884
 9185TIP3    H227501   2.809   5.787   3.527  0.0258  0.0895 -0.4736
 9186TIP3   OH227502   5.583   1.688   5.417 -0.2940 -0.7744  0.4852
 9186TIP3    H127503   5.627   1.627   5.477 -1.0643 -1.2683  0.5647
 9186TIP3    H227504   5.651   1.750   5.391 -0.1285  0.0009  2.5551
 9187TIP3   OH227505   2.942   0.042   5.536 -0.1197 -0.6387 -0.2720
 9187TIP3    H127506   2.867   0.091   5.570 -0.0876 -0.6576 -0.1723
 9187TIP3    H227507   2.905  -0.042   5.508 -0.0968 -0.7406  0.0012
 9188TIP3   OH227508   2.883   2.848   4.962 -0.1486 -0.1352 -0.4937
 9188TIP3    H127509   2.897   2.756   4.941  1.0677 -0.1073  0.1519
 9188TIP3    H227510   2.971   2.885   4.971 -0.5747  0.3582  2.4435
 9189TIP3   OH227511   3.039   3.395   3.410 -0.3033  0.6247 -0.7098
 9189TIP3    H127512   3.014   3.484   3.434 -1.9968  0.8368 -2.9783
 9189TIP3    H227513   3.115   3.406   3.352  0.8620  0.4048  0.7187
 9190TIP3   OH227514   1.176   4.196   3.607  0.1878  0.2413 -0.6935
 9190TIP3    H127515   1.210   4.238   3.528  1.9642 -0.0372 -0.1195
 9190TIP3    H227516   1.090   4.165   3.582 -0.2326  2.1417 -1.8413
 9191TIP3   OH227517   7.164   1.509   3.379  0.1044  0.5917  0.1509
 9191TIP3    H127518   7.256   1.521   3.404  0.5435 -0.8191 -0.6403
 9191TIP3    H227519   7.168   1.461   3.296 -1.3553  0.4914  0.1114
 9192TIP3   OH227520   2.366   5.629   6.035 -0.5299  0.1660  0.3556
 9192TIP3    H127521   2.309   5.692   5.991 -0.5586 -0.4568 -0.5290
 9192TIP3    H227522   2.368   5.658   6.126  0.2860  2.0620 -0.1990
 9193TIP3   OH227523   4.336   4.893   5.121  0.0610  0.3636  0.1616
 9193TIP3    H127524   4.423   4.875   5.155 -0.3007  0.8175  1.3621
 9193TIP3    H227525   4.310   4.812   5.077  1.4927  0.5649 -1.1679
 9194TIP3   OH227526   7.694   2.741   2.696  0.2412 -0.7617  0.0846
 9194TIP3    H127527   7.712   2.718   2.605  1.6324 -0.5212  0.2798
 9194TIP3    H227528   7.598   2.747   2.701  0.1938  0.4394 -1.6486
 9195TIP3   OH227529   7.661   1.382   5.209 -0.4405  0.0171 -0.4053
 9195TIP3    H127530   7.635   1.470   5.238  0.8870  0.1118  0.5892
 9195TIP3    H227531   7.611   1.323   5.264 -0.4945  0.1610 -0.2997
 9196TIP3   OH227532   4.391   1.317   5.982 -0.2446  0.5789  0.2387
 9196TIP3    H127533   4.344   1.284   6.059 -1.0157 -0.1104 -0.4961
 9196TIP3    H227534   4.438   1.394   6.013 -0.7569  0.4646  1.3384
 9197TIP3   OH227535   3.785   1.973   5.731 -0.4426 -0.3112 -0.0562
 9197TIP3    H127536   3.776   2.052   5.678 -3.0820  0.0942  0.8495
 9197TIP3    H227537   3.826   1.909   5.672  0.8116  1.3877 -1.1152
 9198TIP3   OH227538   0.645   1.829   3.903  0.6581  0.2128  0.1142
 9198TIP3    H127539   0.659   1.798   3.993  0.6606  0.5649  0.2383
 9198TIP3    H227540   0.718   1.889   3.887  0.2800  0.6832  0.1276
 9199TIP3   OH227541   6.996   3.746   0.347  0.0675 -0.1079  0.2151
 9199TIP3    H127542   7.058   3.809   0.387 -0.4791  0.4793  0.1500
 9199TIP3    H227543   6.918   3.752   0.402 -0.0722 -0.5619  0.0653
 9200TIP3   OH227544   4.488   3.020   5.929 -0.3575  0.6920 -0.2602
 9200TIP3    H127545   4.579   3.046   5.945 -0.9022  1.9144  1.0231
 9200TIP3    H227546   4.473   2.948   5.991  0.0591 -0.2838 -1.2700
 9201TIP3   OH227547   3.513   2.831   2.006 -0.5874 -0.1857  0.5543
 9201TIP3    H127548   3.440   2.789   1.962 -0.2245 -0.6306  0.3609
 9201TIP3    H227549   3.532   2.775   2.081  1.7000 -2.0178 -1.2305
 9202TIP3   OH227550   6.861   1.030   4.662  0.4940 -0.2689  0.0444
 9202TIP3    H127551   6.787   0.969   4.662  0.4667 -0.3020 -1.7586
 9202TIP3    H227552   6.905   1.013   4.579  3.4523 -1.3055  1.7104
 9203TIP3   OH227553   3.602   4.378   4.595 -0.5909  0.1280  0.3333
 9203TIP3    H127554   3.553   4.431   4.659 -0.2373  0.3446  0.4237
 9203TIP3    H227555   3.689   4.417   4.593  0.0363 -1.1460  1.2489
 9204TIP3   OH227556   7.005   7.657   4.685 -0.2295  0.2233 -0.2862
 9204TIP3    H127557   7.084   7.688   4.640 -0.5483 -1.0338 -1.8017
 9204TIP3    H227558   6.946   7.732   4.685  0.1035  0.4994 -1.2595
 9205TIP3   OH227559   7.633   1.161   4.329  0.0472  0.3353 -0.1531
 9205TIP3    H127560   7.561   1.103   4.355 -0.1288  0.1419 -1.0219
 9205TIP3    H227561   7.695   1.156   4.401 -0.0094 -0.8825 -0.1637
 9206TIP3   OH227562   4.783   1.406   0.039 -0.2448  0.5992  0.3898
 9206TIP3    H127563   4.732   1.325   0.031  0.1570  0.3300  0.5380
 9206TIP3    H227564   4.719   1.476   0.027 -0.6915  0.2674  0.8191
 9207TIP3   OH227565   0.336   0.211   5.659 -0.7118  0.0295 -0.5104
 9207TIP3    H127566   0.426   0.192   5.685 -0.1459 -0.2309 -2.4368
 9207TIP3    H227567   0.282   0.171   5.727  0.5810  2.3615  2.0791
 9208TIP3   OH227568   7.934   1.615   1.983  0.2957  0.1146 -0.7301
 9208TIP3    H127569   7.886   1.533   1.996  0.7490 -0.0442 -0.0442
 9208TIP3    H227570   7.869   1.684   2.002  0.4165 -0.0989  0.5230
 9209TIP3   OH227571   7.887   2.436   3.371  0.2040 -0.3717 -0.4959
 9209TIP3    H127572   7.955   2.491   3.409 -0.5938  0.9384 -0.8969
 9209TIP3    H227573   7.933   2.380   3.309  1.2273 -1.1709  0.9283
 9210TIP3   OH227574   1.056   4.195   4.007  0.1026  1.3720  0.1813
 9210TIP3    H127575   1.105   4.234   4.079 -0.7187  2.2148  0.2996
 9210TIP3    H227576   0.969   4.234   4.013 -0.6647 -0.2305  0.1012
 9211TIP3   OH227577   4.068   3.845   1.941  0.2676  0.0053 -0.2935
 9211TIP3    H127578   4.005   3.843   2.013 -0.1937  1.2875 -0.6306
 9211TIP3    H227579   4.142   3.895   1.976 -0.0285  0.7771 -0.7435
 9212TIP3   OH227580   3.441   1.458   1.768 -0.1808  0.4111 -0.2868
 9212TIP3    H127581   3.424   1.516   1.694 -0.3627 -1.0557 -1.4395
 9212TIP3    H227582   3.362   1.404   1.774  0.3677 -0.3569  0.1381
 9213TIP3   OH227583   1.490   6.282   5.272  0.0039 -0.0553  0.0316
 9213TIP3    H127584   1.403   6.242   5.281 -0.2370  0.5397  0.4114
 9213TIP3    H227585   1.547   6.210   5.245  0.2130 -1.4317  3.5871
 9214TIP3   OH227586   7.991   2.039   3.995 -0.2257  0.6771  0.5254
 9214TIP3    H127587   8.038   2.079   4.069 -0.4353  2.5749 -0.3019
 9214TIP3    H227588   8.031   2.078   3.917  0.8926 -2.2745 -0.4919
 9215TIP3   OH227589   6.038   3.194   1.746  0.4629  0.0581  0.3185
 9215TIP3    H127590   6.057   3.100   1.751 -0.1283 -0.1319 -0.6829
 9215TIP3    H227591   6.098   3.227   1.679  0.1410  0.2418  0.1164
 9216TIP3   OH227592   4.710   2.993   1.575  0.3307  0.1166  0.2909
 9216TIP3    H127593   4.668   2.915   1.612  0.5178  0.1865  0.6539
 9216TIP3    H227594   4.787   2.959   1.530  0.1132  0.0334 -0.0221
 9217TIP3   OH227595   7.910   1.305   5.300  0.1373  0.6718 -0.3481
 9217TIP3    H127596   7.987   1.343   5.258 -0.0307  1.2406 -0.1482
 9217TIP3    H227597   7.836   1.341   5.252  0.0012 -0.5515 -1.1097
 9218TIP3   OH227598   2.541   5.035   1.849  0.1660  0.1828  0.7944
 9218TIP3    H127599   2.565   5.010   1.759  0.8125  0.1624  0.9696
 9218TIP3    H227600   2.602   4.987   1.904  0.6306  1.2026  1.1883
 9219TIP3   OH227601   1.847   5.063   1.954  0.0401  0.0052  0.4472
 9219TIP3    H127602   1.860   5.084   1.862 -0.9258  1.3999  0.6042
 9219TIP3    H227603   1.774   5.001   1.954  2.0948 -2.6040  0.0832
 9220TIP3   OH227604   6.682   0.738   2.570  0.4013  0.0756 -0.0306
 9220TIP3    H127605   6.705   0.801   2.501 -0.7877  0.1760 -0.3588
 9220TIP3    H227606   6.674   0.791   2.649 -1.2229  0.4838 -0.4276
 9221TIP3   OH227607   7.662   1.762   4.842  0.4591 -0.3974 -0.7884
 9221TIP3    H127608   7.649   1.849   4.881 -2.7315 -0.8379 -0.6551
 9221TIP3    H227609   7.680   1.780   4.750 -0.7163  0.4525 -0.8800
 9222TIP3   OH227610   2.786   6.255   6.207 -0.2895 -0.1822  0.2195
 9222TIP3    H127611   2.809   6.227   6.118  0.6203  1.0355  0.0404
 9222TIP3    H227612   2.798   6.177   6.260  1.0680 -0.4625 -0.4384
 9223TIP3   OH227613   2.756   1.669   1.488 -0.0212  0.1792  0.2959
 9223TIP3    H127614   2.713   1.754   1.483 -1.1244 -0.2722  1.4483
 9223TIP3    H227615   2.695   1.608   1.447  1.0916  0.0091 -1.2249
 9224TIP3   OH227616   6.145   1.900   0.918  0.3592  0.5991  0.1368
 9224TIP3    H127617   6.075   1.931   0.976  0.8977  0.9995  0.5831
 9224TIP3    H227618   6.131   1.949   0.836  0.4272  1.0678  0.4004
 9225TIP3   OH227619   2.830   6.950   0.102  0.3368 -0.0609 -0.1822
 9225TIP3    H127620   2.859   6.882   0.163 -1.8476 -1.2481 -0.3589
 9225TIP3    H227621   2.742   6.922   0.075 -0.3787  2.4860 -0.7942
 9226TIP3   OH227622   2.437   7.556   0.041 -0.5056  0.1182 -0.7921
 9226TIP3    H127623   2.488   7.480   0.071 -0.5080 -0.3517 -1.9107
 9226TIP3    H227624   2.356   7.518   0.008 -1.7310  0.8795  1.1731
 9227TIP3   OH227625   1.517   3.293   6.365 -0.0452  0.0093 -0.6424
 9227TIP3    H127626   1.579   3.360   6.335 -1.0909  2.4835  2.2118
 9227TIP3    H227627   1.570   3.229   6.411  0.5951  1.2383  0.3729
 9228TIP3   OH227628   2.664   0.570   0.351 -0.0762 -0.0740 -0.0057
 9228TIP3    H127629   2.696   0.654   0.318 -1.5107  0.3162 -0.4937
 9228TIP3    H227630   2.719   0.551   0.427 -0.1412  1.6371  0.5157
 9229TIP3   OH227631   4.232   1.240   0.112 -0.2972  0.4396 -0.2247
 9229TIP3    H127632   4.154   1.249   0.057  0.5777 -0.2716 -1.6374
 9229TIP3    H227633   4.221   1.306   0.180 -1.6614  1.0189 -0.9665
 9230TIP3   OH227634   0.235   3.546   0.564 -0.1386  0.1930  0.6356
 9230TIP3    H127635   0.286   3.471   0.533 -0.3338  0.9892 -1.7952
 9230TIP3    H227636   0.300   3.616   0.576 -0.1861  0.1375  1.2891
 9231TIP3   OH227637   6.931   5.764   3.233 -0.3456  0.2580  0.1795
 9231TIP3    H127638   6.874   5.787   3.307 -1.1660 -0.5967 -0.1712
 9231TIP3    H227639   6.995   5.704   3.271 -0.4266  0.2491  0.3052
 9232TIP3   OH227640   3.502   2.933   4.322  0.1605 -0.2493 -0.3264
 9232TIP3    H127641   3.509   2.849   4.367 -0.5734 -0.3365 -0.3592
 9232TIP3    H227642   3.462   2.911   4.237  2.7573 -0.2921 -1.6422
 9233TIP3   OH227643   5.050   5.526   3.944  0.0737 -0.2184  0.1779
 9233TIP3    H127644   5.071   5.451   3.888 -0.9834  0.1018 -0.6999
 9233TIP3    H227645   5.017   5.592   3.883  0.6724  0.8451  0.9807
 9234TIP3   OH227646   5.688   6.621   2.917  0.7863 -0.0135 -0.7333
 9234TIP3    H127647   5.674   6.552   2.852  0.9764 -1.0791  0.3240
 9234TIP3    H227648   5.608   6.674   2.914  0.0266 -1.1293 -0.5616
 9235TIP3   OH227649   1.539   2.498   2.713 -0.2347  0.0790  0.1103
 9235TIP3    H127650   1.606   2.459   2.769 -0.7258 -0.0530  0.6241
 9235TIP3    H227651   1.461   2.445   2.729 -0.6232  0.6049 -0.0086
 9236TIP3   OH227652   5.188   4.243   4.025  0.6995  0.1075 -0.3699
 9236TIP3    H127653   5.205   4.261   4.117  0.1773  2.9306 -0.7422
 9236TIP3    H227654   5.106   4.194   4.025 -0.4229  1.8718  0.6536
 9237TIP3   OH227655   6.461   3.596   3.491  0.0893 -0.2827  0.0415
 9237TIP3    H127656   6.540   3.552   3.524 -0.8813 -1.3120  1.0585
 9237TIP3    H227657   6.402   3.599   3.565 -0.7360  0.7768 -0.6204
 9238TIP3   OH227658   7.103   3.253   6.477  0.1674  0.1666 -0.3874
 9238TIP3    H127659   7.045   3.200   6.531 -1.7503  1.1147 -1.4166
 9238TIP3    H227660   7.148   3.190   6.421 -0.5215 -0.5359 -0.1700
 9239TIP3   OH227661   4.543   4.709   4.080  0.1363 -0.0198  0.4745
 9239TIP3    H127662   4.490   4.770   4.131  0.2341 -0.2463  0.8554
 9239TIP3    H227663   4.578   4.648   4.145  0.4646 -0.1647  0.1666
 9240TIP3   OH227664   6.995   3.068   4.916 -0.4238  0.7789  0.1174
 9240TIP3    H127665   7.055   3.141   4.904  0.3422  0.3421  1.2022
 9240TIP3    H227666   6.911   3.101   4.884  0.1487  1.7456 -0.4427
 9241TIP3   OH227667   1.548   0.805   6.716 -0.4413  0.2897  0.2013
 9241TIP3    H127668   1.465   0.790   6.761 -0.1753 -0.7023  0.3860
 9241TIP3    H227669   1.564   0.723   6.668  1.7268 -0.6159  2.2970
 9242TIP3   OH227670   0.136   5.092   6.289 -0.0963  0.5583 -0.5402
 9242TIP3    H127671   0.055   5.127   6.326  1.0284  1.2762  1.3875
 9242TIP3    H227672   0.162   5.022   6.349  0.9786  0.6896 -0.8234
 9243TIP3   OH227673   5.785   2.908   4.551 -0.3745 -0.2172  0.5877
 9243TIP3    H127674   5.838   2.841   4.508 -2.4075 -1.2296 -0.4844
 9243TIP3    H227675   5.782   2.980   4.487  0.7541  0.4215  1.2121
 9244TIP3   OH227676   3.984   1.640   3.038 -0.2204 -0.1054 -0.4518
 9244TIP3    H127677   4.021   1.654   2.951  0.8854  2.3125  0.3018
 9244TIP3    H227678   3.984   1.727   3.078 -1.4332 -1.0089  1.6848
 9245TIP3   OH227679   1.072   1.017   4.983  0.3248 -0.0526 -0.0937
 9245TIP3    H127680   1.126   0.960   5.038 -1.2432 -0.0657  1.5434
 9245TIP3    H227681   1.094   1.106   5.013 -0.4517 -0.0551  0.5388
 9246TIP3   OH227682   0.481   4.269   0.782 -0.0314 -0.3684  0.2039
 9246TIP3    H127683   0.549   4.296   0.721  1.9349 -1.6204  1.7275
 9246TIP3    H227684   0.469   4.344   0.840 -1.6221  0.6747 -1.3598
 9247TIP3   OH227685   5.797   1.247   6.423 -0.3342  0.1677  0.1948
 9247TIP3    H127686   5.705   1.240   6.399 -0.4522  1.3060  0.2539
 9247TIP3    H227687   5.826   1.156   6.434 -1.3739 -0.2123 -0.0687
 9248TIP3   OH227688   7.142   0.091   0.997  0.4068  0.1635 -0.2575
 9248TIP3    H127689   7.060   0.072   0.952 -0.2729 -0.0575  1.0256
 9248TIP3    H227690   7.131   0.181   1.029 -0.1951 -0.5185  1.6131
 9249TIP3   OH227691   6.893   1.701   5.888 -0.1667  0.5342 -0.4667
 9249TIP3    H127692   6.903   1.782   5.839 -0.8823  0.0076 -1.5085
 9249TIP3    H227693   6.803   1.672   5.870 -0.8347  0.8429  1.9732
 9250TIP3   OH227694   7.663   5.361   5.842 -0.0290  0.3686 -0.1594
 9250TIP3    H127695   7.628   5.332   5.926 -0.0710 -0.6810 -0.5317
 9250TIP3    H227696   7.709   5.285   5.807 -0.7769  0.5125 -1.5070
 9251TIP3   OH227697   6.747   0.770   4.266  0.1295 -0.1084  0.3765
 9251TIP3    H127698   6.680   0.756   4.200 -0.0067  1.6426  0.0830
 9251TIP3    H227699   6.768   0.864   4.259 -0.4109  0.3201  3.2843
 9252TIP3   OH227700   1.479   1.891   1.914 -0.3423 -0.2027 -0.1223
 9252TIP3    H127701   1.501   1.804   1.948  0.7083 -0.4492 -1.3517
 9252TIP3    H227702   1.480   1.881   1.819  0.7819  1.3539 -0.3317
 9253TIP3   OH227703   2.030   6.048   3.053  0.4851 -0.4830 -0.1231
 9253TIP3    H127704   1.962   6.031   2.987 -0.4298 -0.7189  0.8390
 9253TIP3    H227705   2.044   5.963   3.095  0.8424 -0.2730  0.1851
 9254TIP3   OH227706   3.594   2.121   2.407 -0.3642 -0.4131  0.2229
 9254TIP3    H127707   3.608   2.170   2.488  1.6761  1.1987 -0.9912
 9254TIP3    H227708   3.650   2.044   2.416 -0.0434 -0.1742  0.3370
 9255TIP3   OH227709   6.704   2.570   6.309  0.0278 -0.3014  0.1295
 9255TIP3    H127710   6.697   2.624   6.387  0.7774  1.7307 -1.1414
 9255TIP3    H227711   6.679   2.482   6.338  0.5168  0.3355  2.6751
 9256TIP3   OH227712   6.088   2.970   6.646 -0.6705  0.3352  0.2956
 9256TIP3    H127713   6.028   2.971   6.571 -0.4215 -0.6714  0.0697
 9256TIP3    H227714   6.155   2.907   6.622  1.1239  2.2345  0.0640
 9257TIP3   OH227715   4.932   4.145   4.095  0.2518 -0.1016  0.3225
 9257TIP3    H127716   4.864   4.129   4.029 -0.6299  0.1551  1.1591
 9257TIP3    H227717   4.889   4.197   4.162  1.4834  0.7032  0.5166
 9258TIP3   OH227718   2.394   3.994   4.629  0.4173 -0.0064  0.2698
 9258TIP3    H127719   2.419   4.038   4.711 -0.0631 -2.6790  1.9545
 9258TIP3    H227720   2.306   4.028   4.610  0.6735  0.9087  0.6432
 9259TIP3   OH227721   1.973   7.439   6.346  0.2927 -0.1989  0.0015
 9259TIP3    H127722   1.981   7.531   6.368 -0.5982 -0.3466  0.9914
 9259TIP3    H227723   1.985   7.393   6.429  1.8292 -1.0588 -0.6472
 9260TIP3   OH227724   2.977   0.812   3.041  0.6594 -0.3381  0.2883
 9260TIP3    H127725   3.030   0.793   3.118 -0.7178  2.4224  2.1083
 9260TIP3    H227726   2.944   0.727   3.013  1.7496 -1.5234  2.3265
 9261TIP3   OH227727   0.280   5.213   0.083 -0.3779  0.4876  0.2999
 9261TIP3    H127728   0.352   5.272   0.104 -0.5964  0.5622  0.8462
 9261TIP3    H227729   0.303   5.130   0.126 -1.1723  0.8506  1.4829
 9262TIP3   OH227730   2.970   2.720   3.604 -0.2754 -0.4548 -0.5838
 9262TIP3    H127731   2.909   2.653   3.636  1.0437 -0.6631  1.6702
 9262TIP3    H227732   2.980   2.781   3.677  0.5551  0.7919 -1.6914
 9263TIP3   OH227733   4.720   5.679   5.069  0.0545  0.3160  0.0634
 9263TIP3    H127734   4.747   5.768   5.045  3.0636 -1.2489 -3.1426
 9263TIP3    H227735   4.631   5.672   5.035 -0.9395  2.5440  1.9410
 9264TIP3   OH227736   1.758   4.041   5.839 -0.6949  0.0395 -0.6032
 9264TIP3    H127737   1.730   3.989   5.914  1.0824  0.6063  0.5373
 9264TIP3    H227738   1.778   4.127   5.876 -3.5171  1.6120 -2.4231
 9265TIP3   OH227739   3.874   5.560   2.370 -0.1724  0.1765 -0.8435
 9265TIP3    H127740   3.908   5.527   2.287 -0.1191  0.8180 -1.0800
 9265TIP3    H227741   3.822   5.637   2.346 -0.6778 -0.0059 -0.3470
 9266TIP3   OH227742   5.673   6.282   3.456  0.0703 -0.0885  0.2551
 9266TIP3    H127743   5.651   6.213   3.519  0.3521 -1.5489 -1.1891
 9266TIP3    H227744   5.590   6.299   3.411  0.6694 -2.0308 -1.7603
 9267TIP3   OH227745   6.484   0.307   5.373 -0.4559 -0.8241  0.1136
 9267TIP3    H127746   6.504   0.398   5.348  1.7664 -1.1817  0.3378
 9267TIP3    H227747   6.452   0.313   5.463  0.9354 -0.3356  0.6015
 9268TIP3   OH227748   4.681   7.393   4.607  0.0598 -0.1721 -0.0672
 9268TIP3    H127749   4.759   7.347   4.577  1.2746  2.0879 -0.6084
 9268TIP3    H227750   4.679   7.380   4.702  0.4682 -1.1375 -0.1853
 9269TIP3   OH227751   5.194   4.056   1.723  0.2959  0.9037 -0.1920
 9269TIP3    H127752   5.287   4.068   1.704  0.2748  0.9468 -0.2689
 9269TIP3    H227753   5.192   4.015   1.810  0.3909  0.7808 -0.2470
 9270TIP3   OH227754   6.653   5.691   3.452  0.3045 -0.4060  0.3082
 9270TIP3    H127755   6.645   5.751   3.377  1.5149  0.9752  1.2397
 9270TIP3    H227756   6.668   5.605   3.412 -1.1127 -0.0704 -1.0554
 9271TIP3   OH227757   5.408   4.841   5.224  0.4922 -0.2554  0.2253
 9271TIP3    H127758   5.326   4.888   5.239 -0.2856 -1.8748  1.3079
 9271TIP3    H227759   5.397   4.758   5.270  2.0298 -1.2844 -1.1487
 9272TIP3   OH227760   6.968   5.458   0.650  0.4774 -0.4742 -0.0441
 9272TIP3    H127761   7.040   5.420   0.700  0.3488 -0.8649 -0.1567
 9272TIP3    H227762   7.007   5.532   0.604  1.0800 -1.3562 -0.9964
 9273TIP3   OH227763   1.665   4.112   0.112  0.2613  0.4646  0.1709
 9273TIP3    H127764   1.717   4.175   0.162  0.0176  2.1159 -1.5521
 9273TIP3    H227765   1.634   4.161   0.036 -2.6798 -0.8265  0.3923
 9274TIP3   OH227766   0.575   5.690   5.372 -0.0004  0.9304  0.4399
 9274TIP3    H127767   0.601   5.748   5.301  0.9150 -1.1468 -1.0273
 9274TIP3    H227768   0.655   5.640   5.391 -0.8481 -0.1054  1.3749
 9275TIP3   OH227769   7.317   6.054   5.784 -0.5009  0.3501  0.0825
 9275TIP3    H127770   7.273   6.045   5.699  1.7910  0.2614 -1.1900
 9275TIP3    H227771   7.400   6.007   5.772 -1.0307 -1.6445  3.1475
 9276TIP3   OH227772   6.671   2.275   1.448 -0.4333  0.1823  0.0588
 9276TIP3    H127773   6.648   2.187   1.476 -0.4308 -0.0990 -0.7770
 9276TIP3    H227774   6.766   2.280   1.461 -0.1350 -0.5943 -1.5591
 9277TIP3   OH227775   1.045   3.716   4.217 -0.0409  0.7493  0.6588
 9277TIP3    H127776   0.997   3.799   4.213  1.2567  1.4816 -1.0951
 9277TIP3    H227777   1.137   3.742   4.220  0.3478 -0.6361  1.9470
 9278TIP3   OH227778   6.394   1.420   4.716 -0.0290 -0.0351 -0.0489
 9278TIP3    H127779   6.417   1.332   4.745  2.1632  0.3561 -0.4835
 9278TIP3    H227780   6.422   1.424   4.625  1.9618  1.7838  0.5798
 9279TIP3   OH227781   5.094   1.349   5.101 -0.6201 -0.0954 -0.4101
 9279TIP3    H127782   5.083   1.307   5.186 -0.3087  0.1975 -0.2201
 9279TIP3    H227783   5.012   1.396   5.086 -0.8768 -0.5666 -0.5142
 9280TIP3   OH227784   1.962   2.632   4.011  0.0138 -0.3775 -0.6166
 9280TIP3    H127785   1.871   2.661   4.005  0.0831 -0.4808 -3.3670
 9280TIP3    H227786   1.963   2.570   4.084 -1.6482  1.1250  0.7643
 9281TIP3   OH227787   6.274   4.287   6.463 -0.4138 -0.0505 -0.3859
 9281TIP3    H127788   6.253   4.206   6.417  0.7315 -0.9403  0.5784
 9281TIP3    H227789   6.367   4.279   6.484 -0.5887  0.9237  0.8759
 9282TIP3   OH227790   1.359   5.267   3.105  0.3953 -0.4517  0.2190
 9282TIP3    H127791   1.378   5.212   3.181 -0.8141  0.1311  0.9619
 9282TIP3    H227792   1.396   5.353   3.127  0.4552 -0.4029 -0.0629
 9283TIP3   OH227793   0.343   1.075   3.333 -0.3260  0.3643  0.2336
 9283TIP3    H127794   0.371   1.147   3.389  0.0498  0.6325 -0.2964
 9283TIP3    H227795   0.249   1.091   3.321 -0.7469 -0.5235  1.9836
 9284TIP3   OH227796   7.988   4.303   1.419 -0.6079 -0.1953  0.0799
 9284TIP3    H127797   8.022   4.361   1.486  1.0173 -0.7867 -0.1992
 9284TIP3    H227798   7.985   4.216   1.460 -2.5534 -0.0462  0.3421
 9285TIP3   OH227799   4.346   6.029   5.036  0.3939  0.1568  0.0880
 9285TIP3    H127800   4.392   6.113   5.043  0.4297  0.3221 -1.6944
 9285TIP3    H227801   4.380   5.977   5.109  1.1228  1.3444  0.6185
 9286TIP3   OH227802   2.198   4.143   1.679 -0.2392 -0.2835 -0.0458
 9286TIP3    H127803   2.201   4.232   1.714  1.3678 -0.1484 -0.4439
 9286TIP3    H227804   2.105   4.119   1.682 -0.4351  0.5306  2.2089
 9287TIP3   OH227805   4.579   7.653   1.199 -0.3489  0.3725 -0.0471
 9287TIP3    H127806   4.497   7.702   1.193  0.4133  1.7832  0.4578
 9287TIP3    H227807   4.645   7.714   1.167  0.6013 -0.4768  0.2496
 9288TIP3   OH227808   5.879   3.067   3.925 -0.0767  0.2912  0.3073
 9288TIP3    H127809   5.809   3.103   3.979 -1.8364 -0.0341 -1.5966
 9288TIP3    H227810   5.863   3.104   3.838  1.0922 -1.1484 -0.5771
 9289TIP3   OH227811   3.954   4.660   2.806  0.0737 -0.3260 -0.6113
 9289TIP3    H127812   3.978   4.701   2.889 -0.9554 -1.1073  0.0964
 9289TIP3    H227813   3.859   4.670   2.802  0.2464  1.3141 -2.5788
 9290TIP3   OH227814   7.313   4.201   2.296  0.3154 -0.1341  0.1710
 9290TIP3    H127815   7.289   4.267   2.230  1.4125 -1.5750 -1.7702
 9290TIP3    H227816   7.350   4.253   2.368 -1.3085  1.5310 -0.1170
 9291TIP3   OH227817   7.426   7.188   6.033 -0.5196 -0.2991  0.1188
 9291TIP3    H127818   7.355   7.130   6.059  0.0465 -1.0025  0.1323
 9291TIP3    H227819   7.450   7.158   5.945  1.0339 -1.3358  0.8652
 9292TIP3   OH227820   6.729   2.517   5.251  0.3988  0.3482  0.1306
 9292TIP3    H127821   6.782   2.560   5.318  0.0588 -0.5032  0.9811
 9292TIP3    H227822   6.676   2.454   5.300 -0.2829  0.1106 -0.8823
 9293TIP3   OH227823   7.808   7.326   2.634  0.3146  0.2546 -0.7569
 9293TIP3    H127824   7.864   7.387   2.681  1.3502 -1.7022  0.7124
 9293TIP3    H227825   7.809   7.357   2.543  1.0297  2.1809 -0.1459
 9294TIP3   OH227826   0.413   5.087   2.966  0.1943 -0.1845  0.5607
 9294TIP3    H127827   0.502   5.090   3.002 -0.1452  1.8675  1.3316
 9294TIP3    H227828   0.399   5.173   2.927 -1.5057 -0.4208  0.5747
 9295TIP3   OH227829   5.194   3.679   4.039 -0.2836 -0.5220 -0.2510
 9295TIP3    H127830   5.231   3.704   3.955 -0.2333 -0.6667 -0.2724
 9295TIP3    H227831   5.149   3.758   4.070  0.1174 -0.3168 -0.1860
 9296TIP3   OH227832   8.017   4.664   5.726  0.1818  0.4225  0.0161
 9296TIP3    H127833   8.019   4.609   5.804  1.3458  0.9475  0.3877
 9296TIP3    H227834   8.103   4.707   5.725 -0.0694  0.9415 -1.1822
 9297TIP3   OH227835   1.947   2.258   2.691  0.6776 -0.0794 -0.3588
 9297TIP3    H127836   1.893   2.179   2.701  0.8004 -0.1680 -0.3879
 9297TIP3    H227837   1.925   2.292   2.605 -0.3797  0.6809  0.1927
 9298TIP3   OH227838   1.632   5.766   3.739  0.4352  0.5796  0.4215
 9298TIP3    H127839   1.688   5.753   3.815 -0.5901 -0.1419  1.0889
 9298TIP3    H227840   1.689   5.751   3.664  1.1104 -0.2284  1.0763
 9299TIP3   OH227841   6.191   7.373   1.965 -0.3891 -0.2298  0.3575
 9299TIP3    H127842   6.124   7.439   1.951 -0.0780 -0.1235 -0.7213
 9299TIP3    H227843   6.187   7.353   2.059 -0.5699  1.2267  0.6728
 9300TIP3   OH227844   7.329   7.651   0.941  0.2329  0.1542  0.7692
 9300TIP3    H127845   7.345   7.712   1.012 -0.0026  0.3159  0.6839
 9300TIP3    H227846   7.359   7.566   0.975  0.3077  0.2662  0.9848
 9301TIP3   OH227847   4.524   1.464   2.436 -0.2146  0.1339 -0.0476
 9301TIP3    H127848   4.474   1.536   2.474 -0.5004 -0.1440  0.1009
 9301TIP3    H227849   4.486   1.451   2.349  0.6297  0.9648 -0.5573
 9302TIP3   OH227850   8.259   2.963   1.740 -0.2938  0.0150  0.2568
 9302TIP3    H127851   8.229   3.025   1.807 -0.3889  0.0731  0.1610
 9302TIP3    H227852   8.197   2.974   1.668  0.8310  1.2384 -0.5729
 9303TIP3   OH227853   7.027   3.267   2.921 -0.0408 -0.2579  0.2915
 9303TIP3    H127854   7.100   3.288   2.862  0.6165  0.8263  1.4590
 9303TIP3    H227855   6.949   3.273   2.865  0.5836  0.4482 -0.5354
 9304TIP3   OH227856   3.131   0.650   5.035 -0.4899  0.1018 -0.0623
 9304TIP3    H127857   3.172   0.711   4.974 -0.9882  1.9804  1.4126
 9304TIP3    H227858   3.205   0.612   5.083 -0.1790 -0.5570 -1.0191
 9305TIP3   OH227859   5.373   0.579   2.437  0.5808  0.3782 -0.1376
 9305TIP3    H127860   5.421   0.647   2.390  0.1837  0.1170 -0.9274
 9305TIP3    H227861   5.324   0.628   2.504 -0.3802  0.9892 -1.2523
 9306TIP3   OH227862   2.458   0.408   4.250 -0.2799 -0.2378  0.1168
 9306TIP3    H127863   2.500   0.478   4.301  2.2701 -2.4167  1.1991
 9306TIP3    H227864   2.530   0.354   4.219 -2.0553 -1.4350 -2.2507
 9307TIP3   OH227865   6.993   3.245   4.197 -0.0900 -0.0714 -0.3155
 9307TIP3    H127866   6.971   3.338   4.202  3.7360  0.9573  0.9345
 9307TIP3    H227867   7.049   3.237   4.120 -0.1168 -1.2831 -0.2418
 9308TIP3   OH227868   6.653   6.987   0.263  0.0634  0.5022 -0.3938
 9308TIP3    H127869   6.745   6.989   0.287  0.3383  0.7352 -1.4099
 9308TIP3    H227870   6.613   6.927   0.326  0.8789  0.5135  0.1449
 9309TIP3   OH227871   5.958   6.257   0.263 -0.0762 -0.2798  0.0296
 9309TIP3    H127872   5.979   6.348   0.242  1.1221 -0.6924 -0.6301
 9309TIP3    H227873   5.893   6.263   0.333 -0.6491  1.0881 -0.5814
 9310TIP3   OH227874   0.775   6.401   2.957 -0.7593 -0.2622 -0.2663
 9310TIP3    H127875   0.683   6.413   2.932 -1.0986 -1.1544  0.5102
 9310TIP3    H227876   0.807   6.490   2.971 -1.6017  0.0471 -0.2143
 9311TIP3   OH227877   3.407   2.046   2.666  0.7311 -0.1185 -0.1716
 9311TIP3    H127878   3.469   1.979   2.694 -0.4200 -1.0642  0.1511
 9311TIP3    H227879   3.442   2.128   2.702  1.4732 -0.7160  0.4918
 9312TIP3   OH227880   3.497   5.924   3.629 -0.6703  0.2154 -0.0487
 9312TIP3    H127881   3.557   5.999   3.626 -0.0478 -0.2760  0.0463
 9312TIP3    H227882   3.460   5.920   3.541  0.1042 -0.0171 -0.3668
 9313TIP3   OH227883   5.159   4.133   2.566  0.0527  0.0728  0.1196
 9313TIP3    H127884   5.211   4.053   2.573  0.2603  0.3083  1.3886
 9313TIP3    H227885   5.074   4.103   2.535  0.5069 -0.4778 -0.6407
 9314TIP3   OH227886   6.356   6.428   5.485 -0.0557  0.9154  0.3119
 9314TIP3    H127887   6.286   6.416   5.549  0.0715  0.5398  0.3872
 9314TIP3    H227888   6.436   6.408   5.534 -0.0817 -1.1596 -0.4127
 9315TIP3   OH227889   5.244   2.193   4.490 -0.0409  0.5982 -0.2461
 9315TIP3    H127890   5.274   2.150   4.410 -0.4359 -0.2462  0.0531
 9315TIP3    H227891   5.169   2.246   4.463 -2.1613 -2.0490  0.0369
 9316TIP3   OH227892   6.652   5.105   3.963  0.0946  0.1076  0.3625
 9316TIP3    H127893   6.567   5.135   3.994 -0.8235 -1.4398 -0.5641
 9316TIP3    H227894   6.669   5.157   3.884  0.6042  1.2586  1.1981
 9317TIP3   OH227895   1.873   1.125   0.384  0.1671 -0.0021 -0.5118
 9317TIP3    H127896   1.870   1.112   0.289  0.2224  1.1729 -0.6943
 9317TIP3    H227897   1.857   1.219   0.395 -2.2088 -0.4791  0.7637
 9318TIP3   OH227898   5.331   5.052   1.502  0.5357 -0.2997 -0.0498
 9318TIP3    H127899   5.398   5.014   1.445 -0.9888 -1.9318 -0.8590
 9318TIP3    H227900   5.255   5.063   1.445 -1.0171 -1.9226  1.5963
 9319TIP3   OH227901   5.613   3.793   0.341 -0.0317  0.1291 -0.5627
 9319TIP3    H127902   5.550   3.749   0.283 -0.2927  0.7315 -0.7466
 9319TIP3    H227903   5.584   3.771   0.429 -2.4024  2.8795 -0.5371
 9320TIP3   OH227904   6.896   6.695   3.410 -0.1090  0.0663 -0.6999
 9320TIP3    H127905   6.980   6.687   3.455 -0.8554 -2.2465  0.4056
 9320TIP3    H227906   6.840   6.742   3.472 -0.2683 -0.3763 -0.5106
 9321TIP3   OH227907   6.758   1.518   1.162  0.1163  0.0574 -0.3327
 9321TIP3    H127908   6.842   1.541   1.122  0.0901 -1.3067 -1.2338
 9321TIP3    H227909   6.699   1.508   1.088 -1.7544  3.9921  0.3442
 9322TIP3   OH227910   7.086   7.002   0.817  0.1463  0.4350  0.1552
 9322TIP3    H127911   7.092   7.097   0.817  0.5817  0.4118 -0.0641
 9322TIP3    H227912   7.048   6.980   0.902 -2.5497  0.9494 -0.8212
 9323TIP3   OH227913   1.164   3.841   0.646 -0.1280 -0.2016  0.3037
 9323TIP3    H127914   1.155   3.897   0.569  1.1428  0.6063  0.7257
 9323TIP3    H227915   1.092   3.867   0.703  0.1111  0.6056  0.2443
 9324TIP3   OH227916   5.962   4.581   1.849  1.3819 -0.3179  0.0842
 9324TIP3    H127917   5.876   4.583   1.891  2.2566  0.3646  1.9429
 9324TIP3    H227918   6.023   4.560   1.920  2.9354  0.8741 -0.8370
 9325TIP3   OH227919   8.047   1.241   4.393 -0.7158 -0.4366  0.2137
 9325TIP3    H127920   8.139   1.259   4.371 -0.2209  0.0942  2.4968
 9325TIP3    H227921   8.000   1.256   4.311  1.1419 -0.0688 -0.8465
 9326TIP3   OH227922   6.611   1.050   1.885  0.0818  0.5295 -0.2275
 9326TIP3    H127923   6.516   1.050   1.873  0.1696  1.7211 -1.0895
 9326TIP3    H227924   6.644   0.993   1.815  0.0900  1.4676 -1.0157
 9327TIP3   OH227925   6.355   4.498   5.038  0.2169  0.2445  0.7934
 9327TIP3    H127926   6.309   4.578   5.012 -2.8340 -1.4107  0.5992
 9327TIP3    H227927   6.364   4.449   4.957 -2.0852 -1.4760  1.4726
 9328TIP3   OH227928   7.692   5.543   4.798  0.0165  0.8530  0.9162
 9328TIP3    H127929   7.666   5.535   4.890 -1.4848  2.0016  0.6264
 9328TIP3    H227930   7.685   5.637   4.780  2.0928  0.8968  0.1133
 9329TIP3   OH227931   0.732   2.278   1.819  0.1577  0.1304 -0.0430
 9329TIP3    H127932   0.749   2.294   1.727 -0.1637 -1.6979 -0.4622
 9329TIP3    H227933   0.711   2.185   1.824  1.5642 -0.1511  2.0819
 9330TIP3   OH227934   3.472   2.331   1.655 -0.3784 -0.3431  0.4667
 9330TIP3    H127935   3.524   2.269   1.706  0.6197  1.6794  2.0704
 9330TIP3    H227936   3.392   2.342   1.706 -1.4013 -1.6446 -0.7754
 9331TIP3   OH227937   2.640   6.355   3.702 -0.0968  0.1959 -0.1023
 9331TIP3    H127938   2.558   6.310   3.723  0.2201 -0.7679 -0.8292
 9331TIP3    H227939   2.696   6.286   3.666  0.4541  1.1504 -1.1390
 9332TIP3   OH227940   6.159   0.434   2.060 -0.2220 -0.0855 -0.3068
 9332TIP3    H127941   6.219   0.427   2.134  0.6524  1.7488 -0.7582
 9332TIP3    H227942   6.217   0.443   1.984 -1.0909 -0.5091 -1.0291
 9333TIP3   OH227943  -0.005   0.809   1.680 -0.5442  0.0590  0.3442
 9333TIP3    H127944   0.040   0.751   1.618  0.5399  1.0627  0.1536
 9333TIP3    H227945  -0.026   0.753   1.754 -0.5039 -0.8213 -0.2941
 9334TIP3   OH227946   7.650   1.805   0.917 -0.5751 -0.2537  0.0072
 9334TIP3    H127947   7.610   1.846   0.840 -1.0048  0.3841  0.5588
 9334TIP3    H227948   7.591   1.732   0.938 -0.2246 -0.6926 -0.5185
 9335TIP3   OH227949   1.728   0.176   1.646 -0.7600 -0.3817  0.0845
 9335TIP3    H127950   1.739   0.091   1.603  1.2390  0.6130 -1.6209
 9335TIP3    H227951   1.768   0.238   1.585 -1.0219  1.6281  1.8394
 9336TIP3   OH227952   6.074   5.237   6.036  0.8780  0.2045  0.2423
 9336TIP3    H127953   5.981   5.253   6.054 -0.0313 -2.1327 -1.8029
 9336TIP3    H227954   6.112   5.325   6.026 -1.5711  1.2316 -0.8390
 9337TIP3   OH227955   7.177   2.529   1.113  0.1096 -0.1817  0.1590
 9337TIP3    H127956   7.109   2.572   1.060 -0.7354 -0.5893  0.8816
 9337TIP3    H227957   7.232   2.601   1.144  0.2239  0.1255 -0.7155
 9338TIP3   OH227958   7.650   1.373   1.467 -0.3678  0.6626 -0.7527
 9338TIP3    H127959   7.640   1.423   1.548  1.6706 -2.1159  1.4464
 9338TIP3    H227960   7.583   1.305   1.473 -0.8978  1.0707 -1.9558
 9339TIP3   OH227961   1.791   4.720   1.584  0.0025  0.0342  0.3292
 9339TIP3    H127962   1.869   4.775   1.595 -0.3480  0.9096 -1.2310
 9339TIP3    H227963   1.768   4.693   1.673  1.1449  1.0882  0.9749
 9340TIP3   OH227964   2.066   2.326   2.908  0.3952  0.0701 -0.4290
 9340TIP3    H127965   2.059   2.419   2.929 -0.0788 -0.0657  0.0441
 9340TIP3    H227966   2.028   2.318   2.821  0.7543  0.3690 -0.6156
 9341TIP3   OH227967   5.261   6.403   2.330 -0.0167  0.3399  0.1109
 9341TIP3    H127968   5.247   6.374   2.240  0.4488  1.9775 -0.5127
 9341TIP3    H227969   5.356   6.400   2.341 -0.1117 -0.6771  0.8631
 9342TIP3   OH227970   0.755   2.802   4.679 -0.1253 -0.0739  0.0874
 9342TIP3    H127971   0.725   2.717   4.713 -1.5900  0.4753  0.2507
 9342TIP3    H227972   0.731   2.801   4.587  0.1367  0.0374  0.0190
 9343TIP3   OH227973   1.779   0.609   1.436 -0.4166 -0.1064 -0.4341
 9343TIP3    H127974   1.713   0.668   1.472 -0.8342 -0.1532 -1.1224
 9343TIP3    H227975   1.859   0.629   1.486 -0.6028  0.8956 -0.5252
 9344TIP3   OH227976   7.335   7.753   5.428  0.4835  0.1784  0.1495
 9344TIP3    H127977   7.425   7.749   5.459  0.2897 -1.5393  0.5875
 9344TIP3    H227978   7.332   7.690   5.356 -0.7106 -0.9172  1.1232
 9345TIP3   OH227979   2.628   4.520   1.251 -0.9873  0.3122  0.2260
 9345TIP3    H127980   2.673   4.464   1.315  0.2397  1.6607  0.5831
 9345TIP3    H227981   2.569   4.574   1.303 -0.2146  1.1949  0.2101
 9346TIP3   OH227982   6.800   1.499   0.723  0.0096  0.4904  0.2620
 9346TIP3    H127983   6.710   1.492   0.753  0.3427  3.1263  2.2425
 9346TIP3    H227984   6.797   1.561   0.650  0.1083 -0.4794 -0.5991
 9347TIP3   OH227985   6.629   2.654   4.754  0.1607 -0.2106 -0.3390
 9347TIP3    H127986   6.561   2.721   4.752  0.6152  0.2862  0.4181
 9347TIP3    H227987   6.695   2.688   4.814  1.6896 -0.0962 -1.9953
 9348TIP3   OH227988   4.439   7.808   6.324  0.2138 -0.8289 -0.6570
 9348TIP3    H127989   4.381   7.733   6.310 -2.4581  0.9951  0.0854
 9348TIP3    H227990   4.431   7.829   6.417  1.8641 -0.3207 -0.5916
 9349TIP3   OH227991   5.293   5.397   3.593  0.0555 -0.5579 -1.0008
 9349TIP3    H127992   5.292   5.311   3.552 -0.0195 -0.1849 -1.8006
 9349TIP3    H227993   5.275   5.380   3.685  2.2987 -1.6370 -0.6980
 9350TIP3   OH227994   4.075   6.964   3.779 -0.4166  0.2288 -0.6023
 9350TIP3    H127995   4.035   6.962   3.692 -2.6753  1.0879  0.3409
 9350TIP3    H227996   4.027   7.032   3.826  0.4026 -0.5462  1.4888
 9351TIP3   OH227997   7.092   4.976   6.404 -0.2598  0.0924 -0.0370
 9351TIP3    H127998   7.092   4.972   6.499  1.1816  0.4344  0.0026
 9351TIP3    H227999   7.023   5.039   6.382 -0.3554  0.2825  0.7854
 9352TIP3   OH228000   6.589   2.095   6.311 -0.5703 -0.3117  0.0944
 9352TIP3    H128001   6.550   2.078   6.225  1.1992 -2.0914 -0.4133
 9352TIP3    H228002   6.534   2.047   6.372 -1.0661 -0.1176 -0.1915
 9353TIP3   OH228003   2.736   3.259   5.268 -0.0245 -0.2795  0.1340
 9353TIP3    H128004   2.831   3.256   5.277 -0.0420 -0.9445  0.1030
 9353TIP3    H228005   2.712   3.174   5.231 -0.4509  0.6036 -1.7223
 9354TIP3   OH228006   4.346   3.769   5.637 -0.5047  0.4739  0.7072
 9354TIP3    H128007   4.257   3.736   5.626 -0.7144  0.8840  1.1390
 9354TIP3    H228008   4.359   3.831   5.564  0.1962 -1.1582 -0.6216
 9355TIP3   OH228009   1.711   1.273   6.127  0.3560  0.5629 -0.1550
 9355TIP3    H128010   1.619   1.280   6.150  0.1520  0.1751 -0.8452
 9355TIP3    H228011   1.712   1.240   6.037  1.1792 -0.5942  0.2534
 9356TIP3   OH228012   5.613   0.384   5.178 -0.3846 -0.3197  0.3779
 9356TIP3    H128013   5.674   0.316   5.149 -2.2143 -1.4927 -0.9097
 9356TIP3    H228014   5.577   0.350   5.261 -1.4385 -1.0758 -0.3588
 9357TIP3   OH228015   4.931   1.589   5.783 -0.0179 -0.2492  0.2844
 9357TIP3    H128016   4.875   1.666   5.788  1.0758  0.6185 -0.4543
 9357TIP3    H228017   4.912   1.540   5.863 -1.7209  0.0748  0.1191
 9358TIP3   OH228018   1.239   6.960   1.851 -0.4236  0.6873  0.2031
 9358TIP3    H128019   1.317   6.932   1.899 -0.3831  2.4650  1.2888
 9358TIP3    H228020   1.191   7.014   1.914 -1.3739  1.4872 -1.1580
 9359TIP3   OH228021   7.658   6.781   3.210 -0.1104  0.2438  0.0057
 9359TIP3    H128022   7.706   6.719   3.155  0.0542 -1.2426  1.7461
 9359TIP3    H228023   7.577   6.799   3.161  0.9522  0.6685 -1.6897
 9360TIP3   OH228024   4.183   3.767   1.439  0.3453 -0.1407 -0.3836
 9360TIP3    H128025   4.275   3.784   1.459  0.1137  0.4909  0.1976
 9360TIP3    H228026   4.137   3.843   1.474 -0.4222 -0.5574 -0.4719
 9361TIP3   OH228027   3.888   5.469   0.627 -0.4936 -0.1039 -0.4362
 9361TIP3    H128028   3.904   5.407   0.697 -0.1728  0.1296 -0.3027
 9361TIP3    H228029   3.794   5.489   0.634 -0.7400 -1.0569 -0.8864
 9362TIP3   OH228030   3.109   0.937   2.525 -0.7994 -0.0744  0.0283
 9362TIP3    H128031   3.156   0.942   2.608 -1.6445  0.8794  0.4773
 9362TIP3    H228032   3.172   0.899   2.464  0.3786  0.7005  0.7179
 9363TIP3   OH228033   2.316   4.327   4.903  0.1009 -0.0999  0.3886
 9363TIP3    H128034   2.360   4.243   4.891  1.9664  0.7689  0.7562
 9363TIP3    H228035   2.259   4.315   4.979 -0.4660 -1.3109 -0.2041
 9364TIP3   OH228036   6.516   7.062   0.044  0.0840 -0.0810  0.3129
 9364TIP3    H128037   6.551   6.998   0.107  1.3704  0.0027 -0.2928
 9364TIP3    H228038   6.431   7.026   0.019  0.8180 -1.6421 -0.0931
 9365TIP3   OH228039   5.411   3.713   1.876 -0.0460 -0.1463 -0.0362
 9365TIP3    H128040   5.457   3.659   1.812 -0.5672 -0.8912  0.1991
 9365TIP3    H228041   5.340   3.754   1.827  0.8449  1.0274 -0.4063
 9366TIP3   OH228042   1.184   1.577   1.613  0.0218 -0.3650  0.5590
 9366TIP3    H128043   1.168   1.485   1.633 -2.1173 -0.3048 -0.6495
 9366TIP3    H228044   1.135   1.626   1.679  0.5397 -0.0707  0.7393
 9367TIP3   OH228045   7.205   5.687   3.047 -0.8169 -0.1854  0.1836
 9367TIP3    H128046   7.294   5.681   3.084 -1.0905  1.0539  1.0933
 9367TIP3    H228047   7.196   5.778   3.020 -1.1560 -0.7226 -1.6941
 9368TIP3   OH228048   3.640   5.071   0.893 -1.0090 -0.4516  0.5693
 9368TIP3    H128049   3.663   5.113   0.976  1.7347 -2.2562  0.8269
 9368TIP3    H228050   3.604   4.986   0.918 -4.2339  0.5705 -0.0457
 9369TIP3   OH228051   7.600   1.344   2.985 -0.2648 -0.1856  0.1084
 9369TIP3    H128052   7.522   1.378   2.942 -0.0113 -0.6746 -0.7656
 9369TIP3    H228053   7.632   1.275   2.927  3.1574  2.6167 -1.7222
 9370TIP3   OH228054   1.398   7.669   6.578 -0.1444  1.0656 -0.0216
 9370TIP3    H128055   1.342   7.731   6.625 -0.3330  1.3227 -0.5720
 9370TIP3    H228056   1.421   7.603   6.644 -1.7493  0.5165  0.0448
 9371TIP3   OH228057   1.160   2.385   5.544 -0.6647  0.2722 -0.3428
 9371TIP3    H128058   1.098   2.349   5.480  0.5764 -1.9482 -0.3831
 9371TIP3    H228059   1.142   2.337   5.625  1.7678 -1.4313 -0.6852
 9372TIP3   OH228060   5.433   0.331   2.933 -0.2269 -0.1694 -0.4552
 9372TIP3    H128061   5.337   0.335   2.934 -0.2267 -0.1076 -0.6867
 9372TIP3    H228062   5.460   0.406   2.881 -0.0008  0.6580  0.8140
 9373TIP3   OH228063   0.819   7.754   4.899  0.5483  0.2962  0.0169
 9373TIP3    H128064   0.806   7.837   4.854 -0.1622  0.7689  1.0440
 9373TIP3    H228065   0.809   7.775   4.992 -2.2256 -1.3701  0.2120
 9374TIP3   OH228066   0.557   1.239   2.747  0.4180  0.5042  0.2973
 9374TIP3    H128067   0.640   1.192   2.749  2.2617  3.2906 -1.5975
 9374TIP3    H228068   0.522   1.222   2.659 -0.1980  0.5917  0.5203
 9375TIP3   OH228069   5.570   1.716   0.867  0.1862 -0.2099  0.1904
 9375TIP3    H128070   5.580   1.621   0.860 -0.1284 -0.1647 -1.4375
 9375TIP3    H228071   5.493   1.735   0.813 -0.2520  0.8942  1.1720
 9376TIP3   OH228072   7.631   0.290   6.034  0.0851  0.2127  0.3964
 9376TIP3    H128073   7.721   0.299   6.004  0.4188 -1.5327  0.7449
 9376TIP3    H228074   7.577   0.310   5.957  0.7033  2.0901  0.4039
 9377TIP3   OH228075   0.119   2.861   1.947  0.6625  0.4561 -0.4523
 9377TIP3    H128076   0.073   2.876   1.864  0.8818  0.6019 -0.5492
 9377TIP3    H228077   0.075   2.919   2.009 -0.6897 -0.9521 -0.0235
 9378TIP3   OH228078   1.772   3.312   1.353  0.7299  0.5216 -0.4171
 9378TIP3    H128079   1.692   3.260   1.339  0.8860 -0.8331  2.7222
 9378TIP3    H228080   1.755   3.395   1.311 -1.7428 -0.2707 -1.1384
 9379TIP3   OH228081   3.911   0.889   3.069 -0.8408  0.6162  0.0157
 9379TIP3    H128082   3.961   0.956   3.022  1.3931 -0.6033  0.5675
 9379TIP3    H228083   3.861   0.844   3.000 -0.4850  1.2616 -0.6771
 9380TIP3   OH228084   1.539   0.591   1.798  0.9658  0.2674  0.0427
 9380TIP3    H128085   1.445   0.605   1.790  0.9201  0.7016  1.2148
 9380TIP3    H228086   1.568   0.574   1.708 -0.2726 -0.2159 -0.2819
 9381TIP3   OH228087   6.590   1.653   3.901 -0.2891 -0.4534 -0.2991
 9381TIP3    H128088   6.652   1.579   3.897 -0.7985 -0.8869 -0.2720
 9381TIP3    H228089   6.622   1.707   3.973 -0.2948 -1.0018  0.1218
 9382TIP3   OH228090   3.389   3.401   5.227 -0.0881 -0.2659 -0.5134
 9382TIP3    H128091   3.373   3.311   5.253 -0.0595 -0.4179 -1.0162
 9382TIP3    H228092   3.396   3.449   5.310  1.4965 -0.9936 -0.1779
 9383TIP3   OH228093   4.250   7.088   1.521  0.0610  0.0921 -0.1906
 9383TIP3    H128094   4.273   7.158   1.459  1.0277  0.2520  0.3280
 9383TIP3    H228095   4.156   7.098   1.535  0.3656  2.0709  0.7899
 9384TIP3   OH228096   4.391   7.702   5.132 -0.2421  0.2310 -0.1071
 9384TIP3    H128097   4.320   7.765   5.142  0.1327  0.5033  1.0117
 9384TIP3    H228098   4.350   7.625   5.092 -0.4838  1.5565 -2.6005
 9385TIP3   OH228099   1.867   3.505   4.051  0.5419 -0.3846 -0.2583
 9385TIP3    H128100   1.801   3.507   3.982  1.0797 -2.2771 -0.8865
 9385TIP3    H228101   1.822   3.464   4.125  0.4059  0.2748  0.0303
 9386TIP3   OH228102   3.839   5.080   5.486  0.1811  0.2117 -0.1745
 9386TIP3    H128103   3.860   4.999   5.440  0.0264 -0.3380  0.6907
 9386TIP3    H228104   3.761   5.114   5.441  0.5654  0.1693 -0.8803
 9387TIP3   OH228105   4.192   1.765   5.600  0.1839 -0.3604  0.2346
 9387TIP3    H128106   4.262   1.784   5.662  0.6101 -1.6726  0.1916
 9387TIP3    H228107   4.222   1.804   5.517  0.0242  0.6176  0.6237
 9388TIP3   OH228108   5.424   1.252   5.803 -0.2380 -0.0875 -0.1483
 9388TIP3    H128109   5.442   1.320   5.868  0.9192 -1.0133  0.5210
 9388TIP3    H228110   5.378   1.298   5.732  0.4382  1.3595  0.3319
 9389TIP3   OH228111   4.490   0.866   6.329 -0.5600  0.2695 -0.5194
 9389TIP3    H128112   4.511   0.869   6.236  2.0531 -0.1935 -0.0396
 9389TIP3    H228113   4.514   0.777   6.356  0.6604  0.9910  0.9459
 9390TIP3   OH228114   6.670   1.290   1.306 -0.5722 -0.0399  0.0018
 9390TIP3    H128115   6.649   1.228   1.237 -0.4165 -0.9208  0.7211
 9390TIP3    H228116   6.717   1.361   1.262  2.1241 -1.9470 -0.4212
 9391TIP3   OH228117   2.289   3.620   3.827 -0.2186  0.3559  0.3707
 9391TIP3    H128118   2.357   3.686   3.813 -0.2598  0.1374 -0.9612
 9391TIP3    H228119   2.284   3.611   3.922  0.0908  1.9536  0.5667
 9392TIP3   OH228120   0.177   3.590   5.770 -0.1307  0.2000  0.0566
 9392TIP3    H128121   0.263   3.617   5.802 -0.3793  2.0462 -0.6870
 9392TIP3    H228122   0.122   3.668   5.782 -1.6464 -0.8659  0.3006
 9393TIP3   OH228123   5.024   7.586   1.698 -0.1079  0.0744 -0.3267
 9393TIP3    H128124   4.996   7.495   1.699 -1.2459  0.4092  0.7261
 9393TIP3    H228125   5.077   7.596   1.778  0.1256  0.3046 -0.5054
 9394TIP3   OH228126   3.966   1.954   4.252  0.3568 -0.1495 -0.1213
 9394TIP3    H128127   3.922   1.926   4.332  0.3344 -0.0986 -0.1158
 9394TIP3    H228128   3.915   1.913   4.181 -1.0422  1.6630 -0.2392
 9395TIP3   OH228129   2.952   0.984   0.644  0.0346 -0.1128 -0.6584
 9395TIP3    H128130   3.023   1.001   0.705 -1.4509  0.0596  1.1284
 9395TIP3    H228131   2.957   1.055   0.580  2.0493 -0.6905 -1.1979
 9396TIP3   OH228132   3.995   1.389   6.311  0.0050 -0.0797  0.2601
 9396TIP3    H128133   3.972   1.453   6.378  1.0348  0.8617 -0.2613
 9396TIP3    H228134   4.073   1.425   6.269  1.5901 -2.4172  0.9815
 9397TIP3   OH228135   0.635   5.203   3.399 -0.1564 -0.2423  0.5244
 9397TIP3    H128136   0.650   5.140   3.470 -0.7205 -0.0742  0.7997
 9397TIP3    H228137   0.541   5.221   3.404 -0.0355  0.4477  0.2992
 9398TIP3   OH228138   6.738   7.750   0.845  0.3293 -0.0385  0.0781
 9398TIP3    H128139   6.692   7.828   0.814  0.4033 -0.9489 -2.5651
 9398TIP3    H228140   6.818   7.784   0.885 -0.0935  1.2807 -0.1289
 9399TIP3   OH228141   5.912   5.206   1.623 -0.6158 -0.2240  0.2906
 9399TIP3    H128142   5.933   5.112   1.632  0.9819  0.0458 -0.2032
 9399TIP3    H228143   5.935   5.243   1.709  0.5635 -0.0026 -0.1038
 9400TIP3   OH228144   2.339   2.516   2.262 -0.4248  0.2789 -0.6112
 9400TIP3    H128145   2.407   2.449   2.250 -0.8437 -0.8686  2.4439
 9400TIP3    H228146   2.268   2.470   2.306 -1.5458  2.3495 -0.1319
 9401TIP3   OH228147   3.358   5.095   4.348 -0.7177  0.1035  0.5635
 9401TIP3    H128148   3.285   5.086   4.286 -1.0227 -0.9366  1.0534
 9401TIP3    H228149   3.336   5.036   4.420  0.9541 -0.7879  0.3928
 9402TIP3   OH228150   1.715   3.748   3.689  0.2773  0.1388 -0.0863
 9402TIP3    H128151   1.760   3.678   3.642  1.2467  0.8109 -0.1883
 9402TIP3    H228152   1.664   3.703   3.756 -1.6975 -0.8958 -2.1589
 9403TIP3   OH228153   1.770   2.714   2.757  0.0817 -0.4456 -0.2118
 9403TIP3    H128154   1.688   2.763   2.768  1.4395  2.0102 -0.2790
 9403TIP3    H228155   1.767   2.647   2.825 -3.6139 -3.0579 -2.5413
 9404TIP3   OH228156   3.657   0.551   4.141 -0.3417  0.6591  0.0741
 9404TIP3    H128157   3.583   0.554   4.081 -0.5266  1.9617  0.3288
 9404TIP3    H228158   3.677   0.458   4.151 -0.7949  0.3845 -1.3924
 9405TIP3   OH228159   8.065   3.796   5.408  0.1692 -0.5215 -0.2824
 9405TIP3    H128160   8.061   3.816   5.314 -0.6222  0.7149 -0.0064
 9405TIP3    H228161   8.152   3.824   5.435  0.4982 -1.1300 -0.6949
 9406TIP3   OH228162   1.080   5.398   2.036 -0.3000  0.3236  0.1378
 9406TIP3    H128163   1.009   5.345   2.073 -0.3171  1.3845  1.7179
 9406TIP3    H228164   1.047   5.488   2.040  0.6055  0.6877 -0.3642
 9407TIP3   OH228165   2.256   7.552   1.509 -0.3837  0.0495  0.0624
 9407TIP3    H128166   2.221   7.539   1.421 -0.3942  0.4287  0.0081
 9407TIP3    H228167   2.226   7.475   1.558 -0.9502  0.1655 -0.0918
 9408TIP3   OH228168   1.060   2.470   6.190 -0.2605 -1.0663 -0.1049
 9408TIP3    H128169   1.022   2.435   6.271  0.5762 -1.3058  0.1888
 9408TIP3    H228170   1.088   2.392   6.141 -0.4050 -0.9043 -0.4490
 9409TIP3   OH228171   5.503   0.877   4.839 -0.1381  0.0622  0.4232
 9409TIP3    H128172   5.508   0.899   4.932 -0.7851 -0.5025  0.6006
 9409TIP3    H228173   5.410   0.887   4.817  0.0119  0.1952 -0.1628
 9410TIP3   OH228174   7.941   4.916   4.419 -0.1144 -0.3782 -0.0519
 9410TIP3    H128175   7.940   4.935   4.513 -1.5044 -3.0713  0.5705
 9410TIP3    H228176   7.849   4.919   4.393  0.2600  0.3652 -1.3851
 9411TIP3   OH228177   5.827   6.129   6.088  0.5036 -0.2215 -0.4891
 9411TIP3    H128178   5.866   6.054   6.133 -0.1225 -1.1622 -1.4511
 9411TIP3    H228179   5.809   6.097   5.999  1.4126  1.4793 -1.3280
 9412TIP3   OH228180   6.363   2.658   0.695  0.1077 -0.0643 -0.3122
 9412TIP3    H128181   6.391   2.748   0.713  1.1415 -0.2496 -0.9031
 9412TIP3    H228182   6.275   2.667   0.658  0.0260  0.6615  0.0343
 9413TIP3   OH228183   4.971   5.662   2.557  0.2888 -0.1893 -0.3886
 9413TIP3    H128184   5.003   5.741   2.601  1.9979 -0.2982 -1.3599
 9413TIP3    H228185   4.898   5.691   2.504  0.0185  0.4680  0.3300
 9414TIP3   OH228186   4.521   5.065   3.896  0.1076 -0.0756 -0.3266
 9414TIP3    H128187   4.455   5.041   3.961  0.4631  0.9165  0.4240
 9414TIP3    H228188   4.472   5.105   3.825 -0.6238 -3.5939 -2.0307
 9415TIP3   OH228189   4.818   4.623   2.419  0.0486 -0.3248 -0.0988
 9415TIP3    H128190   4.869   4.604   2.498 -1.2053 -1.3253  0.5158
 9415TIP3    H228191   4.870   4.585   2.348  1.3532  0.8824  0.1818
 9416TIP3   OH228192   6.172   4.198   1.398  0.0059  0.0325 -0.2938
 9416TIP3    H128193   6.263   4.225   1.408 -0.4906  2.2754 -1.0620
 9416TIP3    H228194   6.137   4.195   1.487  0.5758  0.2249 -0.0621
 9417TIP3   OH228195   4.903   3.844   1.486 -0.4009 -0.2178  0.3570
 9417TIP3    H128196   4.817   3.861   1.447 -0.1443 -0.1863 -0.2027
 9417TIP3    H228197   4.901   3.891   1.569 -0.8355 -0.0079  0.2316
 9418TIP3   OH228198   5.948   1.682   6.772 -0.2440  0.5074  0.1024
 9418TIP3    H128199   5.943   1.693   6.677  4.4745  0.7054 -0.3623
 9418TIP3    H228200   5.993   1.761   6.803 -3.1726  1.2766  2.8908
 9419TIP3   OH228201   5.784   1.589   1.486 -0.1633 -0.0681 -0.7371
 9419TIP3    H128202   5.767   1.496   1.498 -0.5281  0.1560  0.8026
 9419TIP3    H228203   5.783   1.624   1.575  1.2196  1.1970 -1.1794
 9420TIP3   OH228204   8.169   5.633   3.417 -0.3202  0.0007 -0.8246
 9420TIP3    H128205   8.099   5.672   3.470 -0.2769  0.4912 -1.1208
 9420TIP3    H228206   8.228   5.706   3.400  0.4314 -0.4765 -0.3136
 9421TIP3   OH228207   2.356   6.870   1.116 -0.7920 -0.3783  0.2034
 9421TIP3    H128208   2.392   6.860   1.205 -1.0605  0.3542  0.4016
 9421TIP3    H228209   2.280   6.812   1.115 -1.0849 -0.0160  0.6314
 9422TIP3   OH228210   5.656   2.524   3.844 -0.0107  0.3434  0.2580
 9422TIP3    H128211   5.699   2.603   3.877 -0.1089  0.1846  0.7687
 9422TIP3    H228212   5.567   2.528   3.880 -0.6248  0.9507 -1.2338
 9423TIP3   OH228213   2.731   0.300   1.551 -0.7867 -0.2472  0.2736
 9423TIP3    H128214   2.783   0.301   1.471  0.1205 -0.7420  0.8400
 9423TIP3    H228215   2.754   0.218   1.595 -0.7216  0.3374  1.3825
 9424TIP3   OH228216   0.570   3.532   2.024 -0.1279 -0.0539  0.0704
 9424TIP3    H128217   0.540   3.538   1.933 -2.7566  1.7185  0.9269
 9424TIP3    H228218   0.608   3.445   2.032  1.2807  0.1638 -3.0002
 9425TIP3   OH228219   0.626   4.739   6.671  0.3912  0.0054  0.1865
 9425TIP3    H128220   0.719   4.751   6.689  0.4914  0.5812 -0.6542
 9425TIP3    H228221   0.608   4.797   6.597 -0.9813  1.0911  1.3114
 9426TIP3   OH228222   5.096   3.924   4.078  0.3656 -0.0109 -0.5916
 9426TIP3    H128223   5.098   3.933   3.983 -0.9367 -0.3642 -0.6836
 9426TIP3    H228224   5.025   3.982   4.106  0.3003 -0.4087  0.0885
 9427TIP3   OH228225   0.066   5.282   4.930 -0.0926 -0.4233  0.4813
 9427TIP3    H128226  -0.012   5.323   4.968  0.1086  0.3123  0.1304
 9427TIP3    H228227   0.044   5.190   4.923 -0.1815 -0.5805  2.2686
 9428TIP3   OH228228   6.068   5.009   5.846  0.2633 -0.3517 -0.9493
 9428TIP3    H128229   6.087   5.099   5.872  0.5645 -0.4307 -0.8956
 9428TIP3    H228230   6.072   5.011   5.750  1.3856 -0.5489 -0.9172
 9429TIP3   OH228231   1.369   2.789   4.130 -0.6319  0.6675  0.2319
 9429TIP3    H128232   1.368   2.856   4.062 -1.7726  1.1195  0.6833
 9429TIP3    H228233   1.278   2.781   4.158 -0.6058 -1.3296 -0.0550
 9430TIP3   OH228234   8.121   3.747   1.413  0.3226  0.1160 -0.4166
 9430TIP3    H128235   8.027   3.757   1.397  0.6940 -0.0391 -3.2728
 9430TIP3    H228236   8.160   3.827   1.376  1.3211  0.3695  1.1022
 9431TIP3   OH228237   0.267   0.816   4.951  0.1303  0.6494  0.5439
 9431TIP3    H128238   0.172   0.814   4.967 -0.0012 -1.1504 -0.2440
 9431TIP3    H228239   0.280   0.892   4.894 -1.3517 -0.8511 -1.9820
 9432TIP3   OH228240   6.515   6.347   5.026  0.3747 -0.1969 -0.3312
 9432TIP3    H128241   6.450   6.329   4.958 -0.3478 -1.7818  0.7228
 9432TIP3    H228242   6.467   6.393   5.094  0.1754 -1.8566  0.6963
 9433TIP3   OH228243   0.103   0.212   4.297 -0.7211 -0.5150 -0.5911
 9433TIP3    H128244   0.196   0.230   4.286 -0.7427 -1.1423 -2.2241
 9433TIP3    H228245   0.083   0.235   4.387  0.8709  0.2542 -0.4171
 9434TIP3   OH228246   5.909   4.582   1.374 -0.2366 -0.5969 -0.0266
 9434TIP3    H128247   5.946   4.670   1.365 -0.3665 -0.4943  0.4260
 9434TIP3    H228248   5.920   4.542   1.288  0.2245 -0.2914 -0.1104
 9435TIP3   OH228249   7.979   2.225   0.244  0.2148 -0.4325 -0.6871
 9435TIP3    H128250   7.946   2.193   0.328  1.3821 -0.9724 -0.4174
 9435TIP3    H228251   7.927   2.304   0.227 -0.6660 -0.8261  0.0815
 9436TIP3   OH228252   7.456   2.723   6.064 -0.1204  0.2752  0.0614
 9436TIP3    H128253   7.364   2.709   6.089  0.2388 -0.9034  0.7685
 9436TIP3    H228254   7.502   2.734   6.148  0.3676  1.0103 -0.2962
 9437TIP3   OH228255   8.263   7.027   3.402 -0.3531 -0.0609 -0.0639
 9437TIP3    H128256   8.179   7.069   3.419 -0.3761  0.5233 -1.4764
 9437TIP3    H228257   8.306   7.085   3.340  1.1872 -0.2620  0.7845
 9438TIP3   OH228258   2.020   7.488   5.338 -1.0053 -0.5437 -0.0574
 9438TIP3    H128259   1.989   7.573   5.306 -1.8933 -0.1440  1.7191
 9438TIP3    H228260   1.961   7.468   5.411  0.6843 -1.5372  1.0957
 9439TIP3   OH228261   1.221   4.925   5.822 -0.1676 -1.0238  0.2730
 9439TIP3    H128262   1.172   4.941   5.741 -0.6817  0.4052  0.8352
 9439TIP3    H228263   1.155   4.893   5.884 -0.7917  2.1210  1.4235
 9440TIP3   OH228264   7.043   3.559   2.598 -0.2297 -0.4121 -0.6352
 9440TIP3    H128265   7.103   3.633   2.589 -1.0975  0.4349  0.2281
 9440TIP3    H228266   6.975   3.591   2.657 -1.4722 -1.3845 -1.4979
 9441TIP3   OH228267   0.940   4.441   2.764  0.2633 -0.4590 -0.1633
 9441TIP3    H128268   0.983   4.522   2.792  2.0778 -1.0855 -0.9940
 9441TIP3    H228269   0.847   4.461   2.768  0.6399  1.3419  0.6114
 9442TIP3   OH228270   5.260   4.261   2.341 -0.4057 -0.3709 -0.5719
 9442TIP3    H128271   5.216   4.201   2.281  1.7214 -2.5757 -0.1099
 9442TIP3    H228272   5.235   4.230   2.428  1.2699 -1.1051 -0.3175
 9443TIP3   OH228273   3.383   6.363   4.725 -0.5737 -0.0528  0.2161
 9443TIP3    H128274   3.476   6.388   4.728 -0.6175  0.1081  0.2490
 9443TIP3    H228275   3.384   6.270   4.701 -0.3472 -0.4594  1.7319
 9444TIP3   OH228276   0.445   0.683   5.262 -0.5742  0.1708  0.5417
 9444TIP3    H128277   0.382   0.753   5.278 -0.2944  0.7813 -0.8810
 9444TIP3    H228278   0.499   0.715   5.189  0.4530 -0.9447  0.7772
 9445TIP3   OH228279   0.968   1.612   3.807  0.3301 -0.6458 -0.2771
 9445TIP3    H128280   0.986   1.577   3.894 -0.0811 -1.2467 -0.4273
 9445TIP3    H228281   0.991   1.705   3.814 -0.5764 -0.4722  0.7427
 9446TIP3   OH228282   1.760   1.650   6.586  0.4736 -0.0571  0.0593
 9446TIP3    H128283   1.799   1.666   6.672  0.8319 -1.6380  0.2206
 9446TIP3    H228284   1.674   1.612   6.606  0.5964 -0.5113 -0.2645
 9447TIP3   OH228285   1.647   1.354   4.276 -0.4057 -0.4135 -0.2488
 9447TIP3    H128286   1.667   1.447   4.282  1.1682 -0.7949  1.6495
 9447TIP3    H228287   1.632   1.338   4.183  0.5900  1.4761 -0.7754
 9448TIP3   OH228288   8.199   4.236   3.384 -0.2685  0.3355 -0.3229
 9448TIP3    H128289   8.293   4.246   3.399 -0.1407  1.6908 -1.6884
 9448TIP3    H228290   8.193   4.176   3.309 -0.5740 -0.9206  0.6844
 9449TIP3   OH228291   1.669   6.882   1.464 -0.1607  0.3997 -0.7900
 9449TIP3    H128292   1.626   6.934   1.395 -1.2505 -0.3731 -0.7097
 9449TIP3    H228293   1.620   6.902   1.543  1.6124  1.9479 -0.0040
 9450TIP3   OH228294   6.881   5.161   6.411  1.0537 -0.4042  0.5685
 9450TIP3    H128295   6.894   5.196   6.322  2.9839 -1.7898  0.2595
 9450TIP3    H228296   6.832   5.230   6.456  2.7120  1.7188 -0.6816
 9451TIP3   OH228297   1.643   3.549   0.562  0.5048  0.1351 -0.0843
 9451TIP3    H128298   1.732   3.561   0.597  0.3177  2.0586 -0.1349
 9451TIP3    H228299   1.601   3.488   0.623  1.7283 -0.5030  0.1577
 9452TIP3   OH228300   6.399   1.166   6.536  0.8846  0.3514 -0.5844
 9452TIP3    H128301   6.458   1.163   6.611 -0.4440 -0.3371  0.4649
 9452TIP3    H228302   6.322   1.116   6.563  0.3512  0.1071 -2.3922
 9453TIP3   OH228303   0.845   2.275   2.661  0.2444 -0.0784 -0.4205
 9453TIP3    H128304   0.825   2.184   2.683  1.6285 -0.1647  0.6529
 9453TIP3    H228305   0.936   2.274   2.633  1.1981  1.3006  2.2387
 9454TIP3   OH228306   4.553   5.470   6.648 -0.4570 -0.1782  0.3325
 9454TIP3    H128307   4.528   5.523   6.723 -0.0974  0.6029 -0.0822
 9454TIP3    H228308   4.566   5.383   6.683 -0.3400  0.1654  1.1648
 9455TIP3   OH228309   8.269   1.488   2.396 -0.5937 -0.0764  0.1495
 9455TIP3    H128310   8.214   1.433   2.339 -3.4377  0.2267  2.3612
 9455TIP3    H228311   8.300   1.558   2.339 -0.2680 -1.7156 -1.7992
 9456TIP3   OH228312   6.140   1.529   0.396  0.2984  0.6525 -0.0494
 9456TIP3    H128313   6.086   1.498   0.323  1.5187  1.0680 -1.1879
 9456TIP3    H228314   6.175   1.613   0.366  0.7405  0.8857  1.0702
 9457TIP3   OH228315   3.369   2.040   2.091  0.2197  0.0132 -0.6629
 9457TIP3    H128316   3.377   2.017   1.998 -0.1823 -1.1400 -0.4295
 9457TIP3    H228317   3.439   1.990   2.134  0.9675  1.2140 -0.4335
 9458TIP3   OH228318   0.057   3.565   0.797 -0.1315  0.5415  0.1710
 9458TIP3    H128319   0.084   3.649   0.833  2.3825  0.4012 -1.1796
 9458TIP3    H228320   0.075   3.572   0.703 -1.2054 -1.0196 -0.1984
 9459TIP3   OH228321   3.053   3.398   2.208  0.1614  0.4233  0.6974
 9459TIP3    H128322   3.060   3.373   2.300  2.2459  1.6343  0.9268
 9459TIP3    H228323   3.114   3.340   2.163 -1.6302 -0.9065 -0.1566
 9460TIP3   OH228324   4.225   2.983   3.154  0.3925  0.2933  0.3718
 9460TIP3    H128325   4.158   2.942   3.100  2.4100 -0.3537 -1.8068
 9460TIP3    H228326   4.253   2.913   3.213 -0.8039  0.5833  1.3367
 9461TIP3   OH228327   6.076   6.731   5.888 -0.2992  0.4862  0.5710
 9461TIP3    H128328   6.124   6.726   5.805  0.1692 -2.3082  0.9219
 9461TIP3    H228329   6.137   6.770   5.950 -0.1841  1.3488 -0.0696
 9462TIP3   OH228330   4.339   3.405   6.663 -0.3305  0.5068 -0.2819
 9462TIP3    H128331   4.269   3.341   6.678  0.7644 -0.4606  0.9412
 9462TIP3    H228332   4.404   3.358   6.611  1.4909 -0.1974  2.4434
 9463TIP3   OH228333   6.948   5.731   1.479  0.2649 -0.2171 -0.2491
 9463TIP3    H128334   6.942   5.739   1.574 -0.8816 -1.5811 -0.1682
 9463TIP3    H228335   7.041   5.721   1.462  0.5203  0.4643  0.6911
 9464TIP3   OH228336   6.930   3.030   0.777 -0.5134  0.1310 -0.0539
 9464TIP3    H128337   6.871   2.955   0.790  1.2119 -1.1350  0.8215
 9464TIP3    H228338   6.977   3.010   0.696 -0.4801  0.5819 -0.1471
 9465TIP3   OH228339   4.136   6.266   3.141  0.3764  0.0059 -0.2146
 9465TIP3    H128340   4.154   6.358   3.123 -1.0856 -0.0625 -2.3320
 9465TIP3    H228341   4.042   6.256   3.130  0.3006 -1.5011  1.3273
 9466TIP3   OH228342   0.792   3.496   6.151  0.5076  0.2989  0.2338
 9466TIP3    H128343   0.842   3.529   6.076 -0.4785  1.4467  0.0654
 9466TIP3    H228344   0.728   3.564   6.169 -0.0017 -0.4745  1.4222
 9467TIP3   OH228345   7.801   5.703   0.025 -0.3814  0.1960 -0.5287
 9467TIP3    H128346   7.795   5.798   0.023  0.4767  0.2655  0.0300
 9467TIP3    H228347   7.843   5.683   0.108 -2.1970 -0.7674  0.2203
 9468TIP3   OH228348   3.908   1.317   4.204  0.4559  0.4976 -0.1944
 9468TIP3    H128349   3.877   1.380   4.270  0.7053 -0.6063  1.0125
 9468TIP3    H228350   4.001   1.306   4.224  0.3283 -0.5394 -0.1437
 9469TIP3   OH228351   1.774   1.885   3.112 -0.5007 -0.0562 -0.1057
 9469TIP3    H128352   1.749   1.885   3.205  0.8992  0.8676  0.3174
 9469TIP3    H228353   1.725   1.957   3.074 -0.0183  0.4722  0.2562
 9470TIP3   OH228354   0.427   6.529   6.065 -0.1552  0.5285  0.0044
 9470TIP3    H128355   0.517   6.508   6.043 -0.0500  1.3005 -0.3091
 9470TIP3    H228356   0.428   6.622   6.088 -0.3696 -0.0683  2.7496
 9471TIP3   OH228357   7.543   7.325   5.345 -0.5855 -0.0730  0.5751
 9471TIP3    H128358   7.614   7.371   5.300 -0.2324  0.7687  1.9381
 9471TIP3    H228359   7.468   7.384   5.339 -0.4984  0.1034  1.2065
 9472TIP3   OH228360   7.961   0.970   1.302 -0.7428 -0.5529 -0.0330
 9472TIP3    H128361   7.977   1.063   1.312  0.0101 -0.4224 -1.9912
 9472TIP3    H228362   8.036   0.927   1.344 -1.0896 -0.2947  0.8654
 9473TIP3   OH228363   4.184   2.544   1.390 -0.0915 -0.1636 -0.2472
 9473TIP3    H128364   4.164   2.471   1.331 -0.6777 -0.3952  0.2228
 9473TIP3    H228365   4.130   2.616   1.357  2.1483  0.7872 -2.0953
 9474TIP3   OH228366   5.664   2.849   2.174  0.0704  0.0650  0.5161
 9474TIP3    H128367   5.639   2.905   2.100  1.5723  1.8349  1.2860
 9474TIP3    H228368   5.688   2.766   2.133 -0.5716  0.4986 -0.8205
 9475TIP3   OH228369   7.507   4.062   2.132 -0.1108  0.2043 -0.4488
 9475TIP3    H128370   7.459   4.128   2.182  0.6846  0.6209 -0.2289
 9475TIP3    H228371   7.453   4.048   2.054  0.2116  1.8819 -1.0125
 9476TIP3   OH228372   3.464   2.947   6.152 -0.1000 -0.4830  0.6459
 9476TIP3    H128373   3.391   2.915   6.099 -2.2219  4.0271  0.3796
 9476TIP3    H228374   3.424   2.973   6.235  1.8139 -0.6132  1.6696
 9477TIP3   OH228375   2.909   6.849   2.186 -0.2233 -0.4123  0.5479
 9477TIP3    H128376   2.892   6.755   2.185  0.8255 -0.6147 -1.2175
 9477TIP3    H228377   2.928   6.871   2.095 -0.8004  1.5864  0.8662
 9478TIP3   OH228378   3.949   0.750   6.769 -0.0457 -0.2195 -0.3920
 9478TIP3    H128379   3.986   0.672   6.811 -0.1347 -0.7494 -1.2783
 9478TIP3    H228380   4.006   0.766   6.693  0.1384  0.7496 -0.0717
 9479TIP3   OH228381   5.177   1.944   3.751 -0.1964 -0.0780 -0.9526
 9479TIP3    H128382   5.149   1.852   3.750  1.9089 -0.7746 -0.9112
 9479TIP3    H228383   5.218   1.955   3.837 -1.5129  1.3150 -0.4428
 9480TIP3   OH228384   3.978   3.300   1.378  0.3559  0.0529  0.3050
 9480TIP3    H128385   4.038   3.371   1.355 -0.4790  0.7744  0.2995
 9480TIP3    H228386   3.961   3.254   1.296  0.0524  0.5176  0.1065
 9481TIP3   OH228387   4.889   4.514   2.028  0.1055 -0.4619  0.0609
 9481TIP3    H128388   4.804   4.513   1.985  0.4162  1.4150 -0.7340
 9481TIP3    H228389   4.939   4.581   1.980  2.0054 -1.4576  0.5458
 9482TIP3   OH228390   1.004   7.567   4.818 -0.0030 -0.1519  0.8174
 9482TIP3    H128391   1.092   7.596   4.843  0.0575 -0.3704  0.8554
 9482TIP3    H228392   0.949   7.645   4.830  0.1660 -0.0437  0.8912
 9483TIP3   OH228393   7.324   5.605   2.774  0.6516  0.2161 -0.2737
 9483TIP3    H128394   7.266   5.623   2.847  0.3544  1.5179 -0.8101
 9483TIP3    H228395   7.359   5.518   2.792 -2.9237 -1.5295 -0.8983
 9484TIP3   OH228396   4.715   0.642   5.340  0.2047  0.5051 -0.2820
 9484TIP3    H128397   4.766   0.612   5.416  0.9580 -0.9287 -1.3003
 9484TIP3    H228398   4.668   0.718   5.372 -0.7625 -0.9716  2.1281
 9485TIP3   OH228399   4.632   7.729   2.077  0.0408  0.1684 -0.8593
 9485TIP3    H128400   4.704   7.783   2.047  0.1028  0.5969  0.0564
 9485TIP3    H228401   4.567   7.791   2.111  0.3351 -0.3325  0.6865
 9486TIP3   OH228402   1.138   1.896   5.904  0.6009 -0.1205 -1.0805
 9486TIP3    H128403   1.134   1.982   5.862  0.7735 -0.6491 -2.2173
 9486TIP3    H228404   1.174   1.838   5.837 -0.4634 -1.2898 -0.6883
 9487TIP3   OH228405   2.445   2.261   5.094 -0.0980 -0.2550 -0.4363
 9487TIP3    H128406   2.515   2.325   5.108  0.5539 -1.3052  1.4678
 9487TIP3    H228407   2.490   2.179   5.077 -0.9077 -0.5344 -1.3025
 9488TIP3   OH228408   4.391   7.340   2.490 -0.2450  0.3587 -0.2592
 9488TIP3    H128409   4.409   7.434   2.481 -0.0709  0.2971 -0.5528
 9488TIP3    H228410   4.305   7.328   2.451 -0.1645  0.3562 -0.4368
 9489TIP3   OH228411   2.222   4.371   6.001  0.2880 -0.2235 -0.2223
 9489TIP3    H128412   2.137   4.381   6.043  0.3132  0.5702 -0.3415
 9489TIP3    H228413   2.213   4.413   5.915  0.2475 -1.8043 -1.0306
 9490TIP3   OH228414   1.830   2.229   4.648 -0.1496 -0.1922  0.0891
 9490TIP3    H128415   1.771   2.292   4.689 -0.9983  0.5188 -2.0987
 9490TIP3    H228416   1.773   2.159   4.618 -0.4941  1.7375 -4.4562
 9491TIP3   OH228417   7.856   2.191   0.483  0.1872  0.1704  0.3171
 9491TIP3    H128418   7.893   2.104   0.501 -0.4771 -0.4225 -1.0367
 9491TIP3    H228419   7.762   2.177   0.486  0.0792  0.8385  0.0127
 9492TIP3   OH228420   1.973   0.566   3.977  0.1372  0.6090 -0.2330
 9492TIP3    H128421   1.989   0.542   3.886  1.5669  0.1300  0.1142
 9492TIP3    H228422   2.041   0.520   4.026  0.7619  2.5856  0.8389
 9493TIP3   OH228423   1.928   3.557   2.808  0.4566  0.0730 -0.2714
 9493TIP3    H128424   1.870   3.481   2.810  0.2503  0.2384  0.0798
 9493TIP3    H228425   1.872   3.628   2.775  0.5166  0.1825 -0.1385
 9494TIP3   OH228426   3.431   6.617   6.315  0.0663 -0.3692  0.5969
 9494TIP3    H128427   3.396   6.652   6.397 -1.5962  0.3800 -0.3717
 9494TIP3    H228428   3.445   6.694   6.260  0.1281 -0.9434 -0.2115
 9495TIP3   OH228429   4.481   4.959   3.501  0.2488  0.0175  0.0670
 9495TIP3    H128430   4.413   4.902   3.537  1.0730 -0.7084  0.5057
 9495TIP3    H228431   4.550   4.960   3.567  0.4966  1.0718 -0.1895
 9496TIP3   OH228432   2.883   4.175   1.297 -0.7414  0.1823  0.2164
 9496TIP3    H128433   2.802   4.175   1.246  0.4748  0.0457 -1.8567
 9496TIP3    H228434   2.953   4.171   1.231  0.9652  0.2717  1.9127
 9497TIP3   OH228435   4.753   6.539   2.274 -0.0228  0.1235 -0.6864
 9497TIP3    H128436   4.836   6.581   2.297 -0.8316  1.2136  0.3772
 9497TIP3    H228437   4.719   6.592   2.202 -0.0215 -0.0419 -0.8092
 9498TIP3   OH228438   1.845   0.226   6.051  0.3590  0.1909 -0.2503
 9498TIP3    H128439   1.895   0.290   5.998  1.8462  0.0264  0.8790
 9498TIP3    H228440   1.895   0.145   6.043  0.0187 -0.1017  0.5614
 9499TIP3   OH228441   1.561   1.891   3.328 -0.1816  0.3529 -0.0194
 9499TIP3    H128442   1.527   1.940   3.253  1.0991 -1.7127 -2.0956
 9499TIP3    H228443   1.489   1.889   3.391 -1.2088  2.4051 -1.0510
 9500TIP3   OH228444   5.002   1.683   0.530  0.1651  0.7530 -0.1870
 9500TIP3    H128445   4.918   1.636   0.534  1.0340 -0.8631  0.2135
 9500TIP3    H228446   5.000   1.728   0.445 -0.9920  0.5191 -0.3051
 9501TIP3   OH228447   6.588   6.828   1.237  0.0820  0.3548  0.0962
 9501TIP3    H128448   6.521   6.855   1.174  1.7202  2.0265 -1.0583
 9501TIP3    H228449   6.671   6.855   1.197  1.4309 -1.1304  1.7036
 9502TIP3   OH228450   6.741   7.602   0.106 -0.5237 -0.4217  0.2266
 9502TIP3    H128451   6.695   7.600   0.190 -1.1238 -0.3215 -0.0856
 9502TIP3    H228452   6.793   7.682   0.109 -0.4657 -0.4714  0.5435
 9503TIP3   OH228453   4.497   2.106   4.813  0.0682 -0.3692 -0.0617
 9503TIP3    H128454   4.459   2.182   4.769 -0.4813 -0.8062 -0.3509
 9503TIP3    H228455   4.423   2.048   4.829  0.4297 -0.6870  0.4848
 9504TIP3   OH228456   5.868   0.198   3.781 -0.0933 -0.5431  0.3058
 9504TIP3    H128457   5.928   0.272   3.792  0.5240 -0.8634 -0.8024
 9504TIP3    H228458   5.888   0.139   3.854  1.3120 -0.8944 -0.3456
 9505TIP3   OH228459   3.271   2.809   6.015 -0.5662  0.0300 -0.5385
 9505TIP3    H128460   3.195   2.770   6.059 -1.6416 -0.5912 -2.8152
 9505TIP3    H228461   3.334   2.737   6.008  0.6151  0.7139  1.9659
 9506TIP3   OH228462   5.417   0.282   2.210  0.0784 -0.2249 -0.2780
 9506TIP3    H128463   5.423   0.188   2.225 -1.2303 -0.4388 -0.9586
 9506TIP3    H228464   5.493   0.302   2.154  0.4129 -0.8474 -0.0604
 9507TIP3   OH228465   4.636   7.535   5.880 -0.4704  0.3684 -0.4059
 9507TIP3    H128466   4.660   7.628   5.873 -0.4793  0.2740 -1.9974
 9507TIP3    H228467   4.549   7.530   5.840 -0.9362 -0.1602  0.6473
 9508TIP3   OH228468   8.061   0.620   0.232  0.0612  0.0388 -0.3755
 9508TIP3    H128469   8.047   0.588   0.142  0.0363 -2.7256  0.4948
 9508TIP3    H228470   8.013   0.702   0.236  0.0561  0.2335 -2.8829
 9509TIP3   OH228471   3.344   7.062   6.493 -0.4599  0.5059 -0.2624
 9509TIP3    H128472   3.391   7.062   6.410 -0.5719  1.0558 -0.3285
 9509TIP3    H228473   3.293   6.981   6.493  1.1306 -0.5466  0.1730
 9510TIP3   OH228474   3.309   4.540   4.924 -0.7180 -0.7864  0.2976
 9510TIP3    H128475   3.372   4.470   4.940 -0.5256 -0.4717  0.9039
 9510TIP3    H228476   3.238   4.523   4.986  0.3733  0.8666  2.0905
 9511TIP3   OH228477   4.584   6.733   1.771  0.0573  0.2288 -0.0856
 9511TIP3    H128478   4.562   6.824   1.751 -2.3754 -0.2712 -0.0102
 9511TIP3    H228479   4.529   6.681   1.713 -0.4930 -1.1840  1.5919
 9512TIP3   OH228480   3.105   1.507   0.975  0.3609  0.1554 -0.1236
 9512TIP3    H128481   3.096   1.444   1.048  0.5704  0.3890  0.1062
 9512TIP3    H228482   3.042   1.576   0.996  0.2490  0.1028 -0.2897
 9513TIP3   OH228483   4.368   4.890   4.790 -0.7858  0.3568  0.1405
 9513TIP3    H128484   4.303   4.821   4.778 -0.3743  0.1049 -0.6850
 9513TIP3    H228485   4.322   4.971   4.767 -0.6965  0.1355 -0.8406
 9514TIP3   OH228486   5.761   1.870   3.772 -0.5956 -0.3572  0.2501
 9514TIP3    H128487   5.821   1.921   3.717 -0.2123 -3.1417 -2.1435
 9514TIP3    H228488   5.692   1.842   3.712 -2.6331  0.1118  2.2490
 9515TIP3   OH228489   2.314   1.628   2.922  0.1286 -0.0635 -0.2172
 9515TIP3    H128490   2.250   1.580   2.869  0.0238 -2.0166  1.5371
 9515TIP3    H228491   2.309   1.718   2.890 -3.1813 -0.2191 -0.4488
 9516TIP3   OH228492   5.715   1.345   0.149  0.3761  0.3748  0.5164
 9516TIP3    H128493   5.669   1.356   0.232  1.1504  1.6914  0.8001
 9516TIP3    H228494   5.806   1.329   0.173  0.2150 -1.7525 -0.0493
 9517TIP3   OH228495   7.071   5.301   5.899 -0.2993 -0.3300 -0.0189
 9517TIP3    H128496   6.997   5.244   5.880  0.1933 -0.7764 -0.6181
 9517TIP3    H228497   7.030   5.385   5.923 -1.0230 -0.8929  0.8014
 9518TIP3   OH228498   8.160   7.830   2.371  0.3628 -0.2202 -0.0996
 9518TIP3    H128499   8.245   7.852   2.409  0.2180 -2.1811  1.5143
 9518TIP3    H228500   8.167   7.738   2.346 -1.2383 -0.3860 -0.0684
 9519TIP3   OH228501   7.977   4.932   2.844  0.1890 -0.1522  0.2102
 9519TIP3    H128502   7.960   4.839   2.859 -0.4147  0.1538  1.5323
 9519TIP3    H228503   8.021   4.934   2.759  1.3195 -1.7575  0.7056
 9520TIP3   OH228504   6.150   7.448   6.240 -0.3051 -0.0332 -0.3844
 9520TIP3    H128505   6.073   7.430   6.185  0.9015 -0.8904 -1.8712
 9520TIP3    H228506   6.214   7.486   6.180  1.8692 -3.0138 -0.1853
 9521TIP3   OH228507   0.959   6.499   6.742 -0.2109  0.3751  0.7449
 9521TIP3    H128508   1.013   6.549   6.803  0.8832 -1.3276  1.2509
 9521TIP3    H228509   0.874   6.541   6.745  0.5939  2.0589  1.2892
 9522TIP3   OH228510   2.959   6.729   2.512 -0.0015  0.4531 -0.3480
 9522TIP3    H128511   2.972   6.820   2.484 -0.8459  2.0325  3.7474
 9522TIP3    H228512   2.877   6.703   2.469 -0.8730  2.4229 -0.0068
 9523TIP3   OH228513   3.255   7.521   0.699  0.3218  0.2482 -0.2400
 9523TIP3    H128514   3.263   7.603   0.748 -2.2893 -0.3315  1.3339
 9523TIP3    H228515   3.300   7.456   0.753 -1.1376 -0.0735  0.6497
 9524TIP3   OH228516   8.044   5.708   5.065  0.9688 -0.3801 -0.3276
 9524TIP3    H128517   7.952   5.725   5.045  0.9897 -0.8179 -0.8441
 9524TIP3    H228518   8.090   5.788   5.040  0.6072  0.2596  0.9697
 9525TIP3   OH228519   6.575   6.603   3.352  0.5464 -0.3221  0.9768
 9525TIP3    H128520   6.562   6.652   3.271  1.4359  0.3278  1.2022
 9525TIP3    H228521   6.573   6.670   3.421 -2.6956 -1.1242  1.7959
 9526TIP3   OH228522   6.668   4.522   1.326  0.1617 -0.0263  0.2838
 9526TIP3    H128523   6.641   4.557   1.411  1.3004  3.2625 -0.5564
 9526TIP3    H228524   6.607   4.561   1.263  0.3865 -1.0394 -0.6001
 9527TIP3   OH228525   2.942   4.940   0.847  0.0103 -0.5195 -0.0142
 9527TIP3    H128526   3.000   4.986   0.908  0.2519 -0.5051 -0.2534
 9527TIP3    H228527   2.873   4.905   0.902 -0.4197  0.5065  0.1285
 9528TIP3   OH228528   2.698   4.342   4.094 -0.3640  0.1316 -0.5252
 9528TIP3    H128529   2.751   4.337   4.173 -0.2211 -0.1673 -0.6378
 9528TIP3    H228530   2.743   4.285   4.031 -0.9802 -0.3741 -0.5270
 9529TIP3   OH228531   7.028   1.621   0.796  0.5522 -0.4786  0.1329
 9529TIP3    H128532   7.000   1.708   0.767  1.1445 -0.4994 -0.5192
 9529TIP3    H228533   6.971   1.560   0.749 -0.6909 -0.4382  1.4986
 9530TIP3   OH228534   4.049   2.232   5.558  0.2340 -0.0100  0.2409
 9530TIP3    H128535   4.084   2.232   5.647 -0.5033 -1.2594  0.5624
 9530TIP3    H228536   3.979   2.298   5.559  0.4618  0.2281  0.4856
 9531TIP3   OH228537   7.289   4.235   4.092  0.0778  0.5073  0.0573
 9531TIP3    H128538   7.232   4.192   4.029 -0.4431  0.7891  0.3340
 9531TIP3    H228539   7.282   4.182   4.171  1.9316 -0.7693 -0.5408
 9532TIP3   OH228540   6.808   0.190   6.221  0.1157  0.0615 -0.6226
 9532TIP3    H128541   6.833   0.221   6.308  0.6792 -0.6275 -0.5318
 9532TIP3    H228542   6.815   0.095   6.226 -0.3555 -0.0183 -1.2739
 9533TIP3   OH228543   6.615   2.189   2.248 -0.6365 -0.1453  0.4942
 9533TIP3    H128544   6.537   2.175   2.195 -0.1132  0.8906 -0.5902
 9533TIP3    H228545   6.581   2.210   2.335 -1.5346 -0.6080  0.2664
 9534TIP3   OH228546   6.465   0.724   2.132  0.1530  0.0677 -0.2300
 9534TIP3    H128547   6.455   0.734   2.227  1.3406 -0.7718  0.0122
 9534TIP3    H228548   6.555   0.752   2.114 -0.3013  0.9541 -1.2396
 9535TIP3   OH228549   1.276   6.393   2.686 -0.0255 -0.0293 -0.5815
 9535TIP3    H128550   1.204   6.336   2.713  1.0757 -1.7790 -1.1546
 9535TIP3    H228551   1.235   6.458   2.630 -1.3006 -0.4046 -0.1324
 9536TIP3   OH228552   4.070   7.491   2.457  0.4921  0.0872  0.7282
 9536TIP3    H128553   4.049   7.516   2.547  0.7222  1.4462  0.4269
 9536TIP3    H228554   4.138   7.553   2.431 -1.1383  1.1842 -1.1315
 9537TIP3   OH228555   6.170   3.482   5.008  0.0645 -0.1542 -0.8079
 9537TIP3    H128556   6.081   3.505   5.033  0.4113 -0.2464  0.6303
 9537TIP3    H228557   6.213   3.460   5.091  1.1213 -1.1663 -1.5890
 9538TIP3   OH228558   3.178   4.634   1.278 -0.3623 -0.6150  0.9698
 9538TIP3    H128559   3.265   4.665   1.302  0.4937 -1.1147 -1.2947
 9538TIP3    H228560   3.163   4.559   1.336  1.3587 -1.4231  0.4368
 9539TIP3   OH228561   5.985   1.924   6.334  0.9651  0.1691  0.2787
 9539TIP3    H128562   6.065   1.976   6.332  0.3355  1.1717 -1.6244
 9539TIP3    H228563   6.005   1.847   6.280  0.9970 -0.1858  0.7835
 9540TIP3   OH228564   7.148   2.696   5.672 -0.5927  0.3023 -0.0481
 9540TIP3    H128565   7.186   2.640   5.604 -1.1143 -1.4744  1.0550
 9540TIP3    H228566   7.218   2.708   5.736 -1.3049 -1.7853  1.2655
 9541TIP3   OH228567   1.132   5.506   4.092 -0.3811 -0.0635  0.1479
 9541TIP3    H128568   1.187   5.528   4.167  0.2446 -0.2623 -0.2430
 9541TIP3    H228569   1.182   5.441   4.043 -1.6007 -1.3563  0.5497
 9542TIP3   OH228570   5.727   1.200   6.104  0.0418 -0.0845  0.0272
 9542TIP3    H128571   5.651   1.236   6.150 -0.4975 -1.7825  0.5427
 9542TIP3    H228572   5.781   1.276   6.084 -2.7384  1.4808 -2.2155
 9543TIP3   OH228573   5.666   3.150   4.159 -0.0022  0.2397 -0.4812
 9543TIP3    H128574   5.684   3.057   4.145 -0.6157 -0.0371  0.4633
 9543TIP3    H228575   5.580   3.152   4.201  0.1798  1.2085 -0.1289
 9544TIP3   OH228576   0.300   3.425   2.130  0.3211  0.2700 -0.1046
 9544TIP3    H128577   0.324   3.374   2.207  0.4703  1.1899  0.4676
 9544TIP3    H228578   0.384   3.453   2.093  0.2453  2.4374  1.1893
 9545TIP3   OH228579   5.873   3.254   3.709  0.1153 -0.0512 -0.0785
 9545TIP3    H128580   5.829   3.339   3.720  0.0183 -0.3122  2.0238
 9545TIP3    H228581   5.816   3.205   3.650 -0.5148  0.8684 -0.2630
 9546TIP3   OH228582   3.280   3.241   5.806  0.5301 -0.4457  0.2811
 9546TIP3    H128583   3.311   3.261   5.894 -0.2658  1.2646  0.2160
 9546TIP3    H228584   3.241   3.154   5.813 -1.8006  0.6316  2.2634
 9547TIP3   OH228585   7.443   4.937   6.060  0.5164 -0.3017  0.1243
 9547TIP3    H128586   7.524   4.915   6.013  0.7690  0.9861 -0.0832
 9547TIP3    H228587   7.452   5.031   6.079 -1.0775 -0.0671 -0.2019
 9548TIP3   OH228588   6.647   0.443   4.158  0.2764 -0.0674  0.1701
 9548TIP3    H128589   6.694   0.465   4.239 -0.8988  2.8922  0.1637
 9548TIP3    H228590   6.596   0.521   4.137  0.7953 -0.5521 -3.6795
 9549TIP3   OH228591   7.978   6.723   4.113  0.3374  0.6254  0.4659
 9549TIP3    H128592   7.999   6.679   4.031 -1.8386 -0.3754  0.3767
 9549TIP3    H228593   7.972   6.816   4.089  0.0028  0.3737 -0.4638
 9550TIP3   OH228594   2.928   2.983   6.030  0.2804 -0.1226  0.2876
 9550TIP3    H128595   2.977   2.934   5.963 -0.6302 -0.2284 -0.3210
 9550TIP3    H228596   2.836   2.969   6.007 -0.0245  0.6507  0.9938
 9551TIP3   OH228597   0.256   1.562   0.142  0.0991  0.0304 -0.5258
 9551TIP3    H128598   0.270   1.595   0.054  3.8076  0.5192  0.0636
 9551TIP3    H228599   0.256   1.641   0.197  1.8108 -0.4335  0.2099
 9552TIP3   OH228600   7.669   3.776   3.319 -0.3015  0.1934  0.7295
 9552TIP3    H128601   7.695   3.847   3.377  1.7176  0.1840 -0.0759
 9552TIP3    H228602   7.690   3.696   3.368  1.3222  0.1858  0.0802
 9553TIP3   OH228603   1.164   3.152   0.881  0.0596 -0.4463  0.5769
 9553TIP3    H128604   1.126   3.157   0.793 -1.2449 -0.2869  1.1232
 9553TIP3    H228605   1.205   3.066   0.884  2.0907  0.3968 -0.9249
 9554TIP3   OH228606   4.897   0.672   6.311  0.8472 -0.7183 -0.2043
 9554TIP3    H128607   4.868   0.755   6.272  0.6529 -0.8767 -0.4040
 9554TIP3    H228608   4.972   0.646   6.257  0.3024 -1.1630 -0.7696
 9555TIP3   OH228609   5.488   7.140   6.696  0.1666 -0.4131  0.2381
 9555TIP3    H128610   5.423   7.211   6.695  1.1962  0.5444 -0.3403
 9555TIP3    H228611   5.549   7.166   6.765  1.0572 -0.2596 -0.6008
 9556TIP3   OH228612   1.746   4.646   5.058 -0.5354  0.8979 -0.1508
 9556TIP3    H128613   1.726   4.716   4.995 -0.3623  0.2151 -0.9831
 9556TIP3    H228614   1.840   4.653   5.073  0.1219 -1.0325 -2.6337
 9557TIP3   OH228615   7.253   0.781   2.349  0.5226 -0.1016 -0.2046
 9557TIP3    H128616   7.228   0.690   2.329  0.3930 -0.1183  0.0374
 9557TIP3    H228617   7.267   0.821   2.263  0.7769 -0.4068 -0.3080
 9558TIP3   OH228618   8.119   6.502   1.770  0.1379  0.2200 -0.2214
 9558TIP3    H128619   8.140   6.567   1.702 -1.4462  1.0302  0.0329
 9558TIP3    H228620   8.121   6.418   1.724 -0.2677  0.6939 -1.1307
 9559TIP3   OH228621   1.718   1.047   2.364 -0.9390 -0.2524 -0.3150
 9559TIP3    H128622   1.710   1.137   2.394 -3.2057 -0.2649 -0.6891
 9559TIP3    H228623   1.634   1.007   2.386 -0.9096 -1.5775 -2.3412
 9560TIP3   OH228624   4.958   1.511   2.544  0.1595 -0.8184 -0.3548
 9560TIP3    H128625   4.978   1.529   2.452 -1.2179  1.8852 -0.2395
 9560TIP3    H228626   5.037   1.536   2.591  0.2750 -0.5297 -0.6972
 9561TIP3   OH228627   4.469   6.545   4.044 -0.0589 -0.0591  0.6724
 9561TIP3    H128628   4.556   6.513   4.067 -0.8735 -1.7427  1.6256
 9561TIP3    H228629   4.444   6.496   3.966  1.1279  2.8675 -1.7285
 9562TIP3   OH228630   2.693   3.632   3.101 -0.2225 -0.0719  0.6232
 9562TIP3    H128631   2.642   3.699   3.056  0.1305  1.6631  2.6356
 9562TIP3    H228632   2.661   3.549   3.066 -3.1826  1.0004  0.5323
 9563TIP3   OH228633   7.492   2.649   1.926  0.0348  0.0227 -0.6084
 9563TIP3    H128634   7.556   2.697   1.873  1.7170 -2.1848 -0.7197
 9563TIP3    H228635   7.508   2.679   2.015  1.1127 -0.3099 -0.6686
 9564TIP3   OH228636   6.686   7.563   5.104 -0.3159 -0.2321  0.4701
 9564TIP3    H128637   6.671   7.468   5.106  0.8177 -0.5242 -1.3563
 9564TIP3    H228638   6.768   7.575   5.152 -0.6750 -0.1187  1.0562
 9565TIP3   OH228639   0.505   2.140   2.194 -0.1605 -0.0529 -0.5586
 9565TIP3    H128640   0.531   2.091   2.271  0.7434  0.5476 -0.4665
 9565TIP3    H228641   0.426   2.095   2.162  1.1773 -2.2044 -1.0766
 9566TIP3   OH228642   6.509   7.519   4.139  0.3104 -0.4820 -0.1354
 9566TIP3    H128643   6.479   7.573   4.065  0.4646  0.0610  0.1949
 9566TIP3    H228644   6.579   7.571   4.179 -1.0464  0.1361  1.5771
 9567TIP3   OH228645   5.835   6.691   6.556  0.5159 -0.2076  0.0608
 9567TIP3    H128646   5.893   6.624   6.592  0.4824 -1.5000 -2.0873
 9567TIP3    H228647   5.874   6.774   6.584  0.6429 -1.0733  2.6625
 9568TIP3   OH228648   0.540   4.081   0.389 -0.1813  0.5336  0.4944
 9568TIP3    H128649   0.597   4.007   0.368  1.6139  1.8979  0.3765
 9568TIP3    H228650   0.486   4.093   0.311 -0.4884 -0.6044  0.5077
 9569TIP3   OH228651   0.009   2.605   1.258  0.3396  0.3895 -0.0935
 9569TIP3    H128652   0.090   2.604   1.308  0.0382 -0.3867  0.3976
 9569TIP3    H228653  -0.010   2.512   1.240 -0.0633  0.5967 -0.8178
 9570TIP3   OH228654   0.216   4.479   3.584  0.3337  0.4414  0.1454
 9570TIP3    H128655   0.165   4.398   3.586  0.6359  0.1295 -1.8912
 9570TIP3    H228656   0.175   4.531   3.515  0.5921  1.7379  0.9337
 9571TIP3   OH228657   5.457   3.816   6.207  0.1394 -0.2340 -0.1307
 9571TIP3    H128658   5.435   3.743   6.148  0.7071 -0.1022 -0.5115
 9571TIP3    H228659   5.379   3.872   6.205  0.0059 -0.4263 -0.4607
 9572TIP3   OH228660   5.192   2.036   0.434  0.0168  0.6434 -0.1210
 9572TIP3    H128661   5.140   2.017   0.512 -0.0810 -1.1727 -0.5882
 9572TIP3    H228662   5.264   2.091   0.466  0.2511 -0.4558  1.3306
 9573TIP3   OH228663   1.498   7.479   4.977  0.1205 -0.3029 -0.1531
 9573TIP3    H128664   1.434   7.540   4.940 -0.3135 -2.0012 -2.3697
 9573TIP3    H228665   1.564   7.536   5.017 -1.6517  1.5349  0.3616
 9574TIP3   OH228666   5.533   0.926   1.575 -0.1553 -0.9261  0.3024
 9574TIP3    H128667   5.535   1.005   1.522 -0.6181 -0.4654  0.9565
 9574TIP3    H228668   5.488   0.861   1.521 -0.2527 -0.5868 -0.0242
 9575TIP3   OH228669   7.378   6.417   3.311  0.2651  0.0624  0.7118
 9575TIP3    H128670   7.285   6.401   3.298  0.1933  1.2447 -0.5277
 9575TIP3    H228671   7.388   6.430   3.405 -0.8227 -0.0695  0.8500
 9576TIP3   OH228672   5.026   5.451   1.361 -0.0444  0.3364 -0.5491
 9576TIP3    H128673   5.015   5.526   1.302 -0.1909  0.5121 -0.3014
 9576TIP3    H228674   5.105   5.407   1.329 -0.5622 -0.0239 -1.3624
 9577TIP3   OH228675   4.375   5.127   2.478 -0.4596  0.5344  0.1326
 9577TIP3    H128676   4.304   5.073   2.512 -0.2294 -1.8283 -2.7680
 9577TIP3    H228677   4.396   5.187   2.549 -3.7475 -0.2383  1.9346
 9578TIP3   OH228678   0.064   4.470   2.686  0.7379  0.6467 -0.5389
 9578TIP3    H128679  -0.001   4.425   2.631  1.2541 -0.6652 -0.1071
 9578TIP3    H228680   0.127   4.506   2.624 -0.0146  1.3379 -0.9236
 9579TIP3   OH228681   6.121   6.593   4.646  0.1114 -0.5489  0.4677
 9579TIP3    H128682   6.062   6.551   4.584  0.2360 -0.2894  0.1642
 9579TIP3    H228683   6.070   6.604   4.726 -0.7843  1.0925 -0.2707
 9580TIP3   OH228684   7.326   6.736   4.794 -0.1331 -0.1009  0.7032
 9580TIP3    H128685   7.301   6.755   4.704  2.2181  0.3629  0.0703
 9580TIP3    H228686   7.360   6.646   4.792  1.5457  0.4949  0.6991
 9581TIP3   OH228687   6.705   3.495   3.524  0.5366  0.4498 -0.1898
 9581TIP3    H128688   6.730   3.403   3.513  0.7304  0.6011 -1.0939
 9581TIP3    H228689   6.732   3.537   3.442  1.7116  1.5931  0.7501
 9582TIP3   OH228690   6.207   0.210   5.130 -0.3661  0.0802 -0.5484
 9582TIP3    H128691   6.159   0.150   5.074 -0.7766  0.5172 -0.6657
 9582TIP3    H228692   6.219   0.162   5.212  2.3832 -1.5411 -1.7632
 9583TIP3   OH228693   7.251   7.163   1.064 -0.2617  0.7313 -0.2850
 9583TIP3    H128694   7.345   7.153   1.076 -0.2419 -1.1703 -1.5132
 9583TIP3    H228695   7.212   7.095   1.119 -1.0409  2.2787  1.1743
 9584TIP3   OH228696   6.170   0.586   6.716 -0.3551  0.3012  0.0622
 9584TIP3    H128697   6.100   0.567   6.654 -1.5974 -1.4591  1.8964
 9584TIP3    H228698   6.127   0.593   6.800  1.5480  0.1549  1.1088
 9585TIP3   OH228699   2.180   2.380   3.908 -0.2301  0.3320  0.5557
 9585TIP3    H128700   2.201   2.342   3.994 -2.5070  0.7348  1.3624
 9585TIP3    H228701   2.104   2.436   3.925 -1.8309 -0.9035 -2.0183
 9586TIP3   OH228702   4.755   7.563   6.360  0.0329 -0.2811  0.0972
 9586TIP3    H128703   4.746   7.655   6.385 -0.1248 -0.0950 -0.6131
 9586TIP3    H228704   4.839   7.559   6.314  0.4446 -0.6683  0.8641
 9587TIP3   OH228705   7.283   3.459   6.488  0.6439 -0.4350 -0.0429
 9587TIP3    H128706   7.362   3.432   6.442  2.1410  0.2255  2.0005
 9587TIP3    H228707   7.229   3.381   6.491  1.1379 -0.8659 -1.5986
 9588TIP3   OH228708   8.160   0.328   5.542 -0.7660 -0.5375 -0.7554
 9588TIP3    H128709   8.187   0.261   5.479  1.2010 -1.2003  0.7155
 9588TIP3    H228710   8.230   0.331   5.606 -2.2433  0.8075  0.9053
 9589TIP3   OH228711   3.930   2.923   4.217  0.0014  0.2295 -0.1930
 9589TIP3    H128712   3.961   3.008   4.248  0.4554 -0.0316  0.0960
 9589TIP3    H228713   3.898   2.879   4.295 -1.6967  0.7153 -0.5751
 9590TIP3   OH228714   0.305   5.450   5.789  0.3398 -0.8102 -0.0389
 9590TIP3    H128715   0.377   5.479   5.733 -0.5352 -0.3774 -0.9973
 9590TIP3    H228716   0.261   5.382   5.737 -0.8200 -0.0128 -0.1256
 9591TIP3   OH228717   0.269   7.719   2.297 -0.2975  0.2191  0.2092
 9591TIP3    H128718   0.212   7.770   2.355 -3.4964 -2.2669 -0.4596
 9591TIP3    H228719   0.229   7.726   2.211 -0.5391 -2.7633 -0.0362
 9592TIP3   OH228720   0.433   2.583   3.500  0.3687  0.5667 -0.0970
 9592TIP3    H128721   0.403   2.598   3.590 -1.3583 -0.5160 -0.4476
 9592TIP3    H228722   0.485   2.503   3.506 -0.1254  0.2378 -0.1181
 9593TIP3   OH228723   0.830   1.917   5.686  0.1801  0.0463  0.3067
 9593TIP3    H128724   0.873   1.885   5.765  1.0774  1.0197  0.2315
 9593TIP3    H228725   0.809   1.837   5.636  0.8793 -0.5083  0.8750
 9594TIP3   OH228726   0.286   5.799   4.303  0.5533 -0.4700 -0.0292
 9594TIP3    H128727   0.372   5.839   4.315  0.3610  0.2589 -0.9989
 9594TIP3    H228728   0.228   5.852   4.357  0.6382 -0.6965  0.2860
 9595TIP3   OH228729   0.084   2.655   0.861  0.3280 -0.3717  0.5876
 9595TIP3    H128730   0.074   2.718   0.933 -1.9834 -1.2359  1.1442
 9595TIP3    H228731  -0.005   2.647   0.825  1.1137 -1.2614 -1.2501
 9596TIP3   OH228732   3.991   6.054   0.499  0.1783  0.6234 -0.1804
 9596TIP3    H128733   4.059   6.031   0.563 -0.0425  1.6664  0.4512
 9596TIP3    H228734   4.005   5.993   0.426  1.0539  0.0616  0.4397
 9597TIP3   OH228735   3.427   0.428   1.590  0.0700  0.3082 -0.0883
 9597TIP3    H128736   3.487   0.503   1.590 -0.4645  0.7527  0.5363
 9597TIP3    H228737   3.349   0.460   1.545 -0.0126  0.0040 -0.1636
 9598TIP3   OH228738   8.000   6.586   3.868  0.2997 -1.1250 -0.3146
 9598TIP3    H128739   8.046   6.663   3.835  0.5754 -1.3515 -0.4586
 9598TIP3    H228740   8.028   6.515   3.812  0.0114 -1.3252 -0.2068
 9599TIP3   OH228741   8.078   0.712   3.735 -0.1592  0.2788 -0.2190
 9599TIP3    H128742   8.090   0.671   3.821 -1.7798 -0.1314 -0.1521
 9599TIP3    H228743   7.984   0.729   3.730  0.1826  2.2929 -1.0291
 9600TIP3   OH228744   8.204   0.721   6.208 -0.0464  0.2939 -0.2000
 9600TIP3    H128745   8.215   0.657   6.279 -0.3951  0.1776 -0.2526
 9600TIP3    H228746   8.162   0.796   6.250 -1.8425 -0.4385 -0.6376
 9601TIP3   OH228747   4.787   5.033   2.929  0.0109 -0.4648  0.9257
 9601TIP3    H128748   4.709   5.088   2.918  0.1078  0.2557  3.3552
 9601TIP3    H228749   4.839   5.049   2.850 -1.4818  0.3708  0.0595
 9602TIP3   OH228750   6.087   6.584   0.681 -0.0966  0.1169  0.3761
 9602TIP3    H128751   6.079   6.599   0.587  0.1544  1.2135  0.5120
 9602TIP3    H228752   6.043   6.500   0.696 -0.4406  0.0952 -0.6614
 9603TIP3   OH228753   2.408   7.330   0.465 -0.0227 -0.2985  0.3162
 9603TIP3    H128754   2.437   7.343   0.555 -0.9321  1.0239  0.4472
 9603TIP3    H228755   2.427   7.412   0.421 -0.9867 -0.3743 -0.2856
 9604TIP3   OH228756   0.935   1.246   0.340 -0.3075 -0.1677 -0.3233
 9604TIP3    H128757   0.943   1.181   0.270  2.0509  1.2167 -1.4560
 9604TIP3    H228758   1.010   1.229   0.397 -1.3248 -0.2608  1.0480
 9605TIP3   OH228759   8.003   5.921   0.554  0.3743  0.0996 -0.0753
 9605TIP3    H128760   7.997   5.858   0.482  1.6504  0.0325 -0.1521
 9605TIP3    H228761   7.991   5.868   0.633 -0.9569  0.1617 -0.2184
 9606TIP3   OH228762   5.421   3.219  -0.020 -0.4773  0.3343  0.1674
 9606TIP3    H128763   5.409   3.219   0.075 -0.0414  2.7412  0.2953
 9606TIP3    H228764   5.473   3.298  -0.038 -0.5047 -0.0811 -2.0628
 9607TIP3   OH228765   1.867   2.479   6.622 -0.4201 -0.1441  0.4343
 9607TIP3    H128766   1.807   2.407   6.639  0.8321 -1.0123  1.3154
 9607TIP3    H228767   1.904   2.500   6.708  0.4365  0.4660 -0.0696
 9608TIP3   OH228768   0.946   3.697   2.451 -0.1465  0.0526 -0.2291
 9608TIP3    H128769   0.956   3.742   2.535  0.8995  1.2510 -0.9540
 9608TIP3    H228770   0.859   3.657   2.455  0.5008 -1.3083  2.0572
 9609TIP3   OH228771   5.752   0.121   6.634  0.2329  0.1764 -0.4718
 9609TIP3    H128772   5.726   0.041   6.681 -0.9053  1.1681  0.6788
 9609TIP3    H228773   5.674   0.177   6.638  1.0718  1.4189 -1.0815
 9610TIP3   OH228774   5.543   1.104   1.789 -0.4302  0.6265 -0.4451
 9610TIP3    H128775   5.456   1.133   1.761 -0.3480  1.2789 -0.0280
 9610TIP3    H228776   5.571   1.044   1.720 -1.6466 -0.4145 -0.0602
 9611TIP3   OH228777   2.087   4.031   0.879  0.2934  0.0287  0.7056
 9611TIP3    H128778   2.077   3.946   0.923 -0.5580  0.0552  0.5815
 9611TIP3    H228779   2.166   4.021   0.826  0.1247 -0.7367  0.5855
 9612TIP3   OH228780   8.225   2.437   0.574 -0.2298 -0.5118  0.1511
 9612TIP3    H128781   8.231   2.416   0.667  0.3293 -1.5248 -0.1065
 9612TIP3    H228782   8.279   2.516   0.564 -0.5676 -0.1982  0.7327
 9613TIP3   OH228783   7.219   4.585   0.911 -0.9219  0.4099 -0.7626
 9613TIP3    H128784   7.310   4.603   0.935 -0.8485 -0.4501 -0.3589
 9613TIP3    H228785   7.189   4.524   0.978 -1.6699  0.3749 -1.1282
 9614TIP3   OH228786   4.755   2.373   3.608  0.3980 -0.2870  0.0537
 9614TIP3    H128787   4.661   2.354   3.612  0.3823 -0.2049  0.0800
 9614TIP3    H228788   4.765   2.454   3.659  0.2724  0.5254 -1.1852
 9615TIP3   OH228789   5.275   5.489   5.754 -0.3307 -0.2317 -0.2845
 9615TIP3    H128790   5.182   5.513   5.757 -0.5308 -0.9618 -0.4967
 9615TIP3    H228791   5.301   5.483   5.846 -0.5426 -0.2081 -0.2213
 9616TIP3   OH228792   5.227   1.959   1.111 -0.0545 -0.3314 -0.8150
 9616TIP3    H128793   5.144   1.933   1.151  0.7631 -0.1865  1.1133
 9616TIP3    H228794   5.203   1.990   1.024 -2.0638 -0.0210 -0.2159
 9617TIP3   OH228795   3.447   4.396   1.246 -0.0201 -0.1649  0.2076
 9617TIP3    H128796   3.538   4.407   1.273  0.3119  1.8324 -1.5057
 9617TIP3    H228797   3.397   4.453   1.305 -0.0164 -0.3302  0.3714
 9618TIP3   OH228798   3.025   7.613   6.518  1.1123  0.0590 -0.0488
 9618TIP3    H128799   3.112   7.574   6.518  0.3850 -1.6995  1.1493
 9618TIP3    H228800   3.009   7.636   6.610  0.0862 -0.2576 -0.1300
 9619TIP3   OH228801   6.105   0.701   6.083 -0.0696 -0.3228 -0.7186
 9619TIP3    H128802   6.107   0.610   6.112  0.9437 -0.7805 -2.0949
 9619TIP3    H228803   6.030   0.740   6.128  1.2141 -1.0009  2.2454
 9620TIP3   OH228804   1.420   6.926   5.343 -0.0553  0.3815  0.0539
 9620TIP3    H128805   1.459   6.956   5.425  0.9862  1.0078 -0.6395
 9620TIP3    H228806   1.492   6.931   5.279 -0.6326 -0.8269 -0.7336
 9621TIP3   OH228807   6.768   0.156   1.281 -0.0386  0.4556 -0.6061
 9621TIP3    H128808   6.861   0.175   1.277  0.0801  0.1954  0.4664
 9621TIP3    H228809   6.731   0.198   1.204  0.9205  0.8226 -0.8788
 9622TIP3   OH228810   3.847   1.729   1.051 -0.2598  0.3051  0.0602
 9622TIP3    H128811   3.884   1.727   0.963  0.3404  0.3666  0.3077
 9622TIP3    H228812   3.830   1.637   1.072  0.5417  0.1979  0.2701
 9623TIP3   OH228813   6.565   1.419   2.496 -0.1913  0.1707  0.0740
 9623TIP3    H128814   6.624   1.493   2.485  1.8582 -1.3891  0.0549
 9623TIP3    H228815   6.573   1.369   2.414 -0.0825 -1.0366  0.7898
 9624TIP3   OH228816   1.061   0.962   1.565  0.3205 -0.5558 -0.6296
 9624TIP3    H128817   1.141   0.920   1.595  1.1363  0.0960 -1.7962
 9624TIP3    H228818   1.035   0.911   1.488 -0.9006 -1.3007  0.2402
 9625TIP3   OH228819   0.749   1.153   3.122  0.2052 -0.6017  0.7352
 9625TIP3    H128820   0.813   1.113   3.181  0.8893 -1.1337 -0.3516
 9625TIP3    H228821   0.757   1.247   3.137  2.1439 -0.5678 -0.2661
 9626TIP3   OH228822   8.240   0.292   5.239 -0.4443  0.3063  0.2473
 9626TIP3    H128823   8.312   0.301   5.301 -1.2777  0.4029  1.2396
 9626TIP3    H228824   8.275   0.237   5.169  0.1097 -1.0174  1.5041
 9627TIP3   OH228825   8.219   7.220   6.105  0.6299 -0.1659  0.2059
 9627TIP3    H128826   8.131   7.252   6.127 -0.1846 -1.8830 -0.3727
 9627TIP3    H228827   8.238   7.154   6.173  1.7192  0.5535  0.6333
 9628TIP3   OH228828   8.028   6.757   0.724  0.6586 -0.2862  0.0705
 9628TIP3    H128829   8.099   6.741   0.662  0.8029  1.0895 -0.1701
 9628TIP3    H228830   8.061   6.725   0.808  2.0019  1.2349  0.1689
 9629TIP3   OH228831   1.316   3.705   3.563 -0.0164  0.7773 -0.4869
 9629TIP3    H128832   1.332   3.782   3.617  0.5369 -1.0898  2.1936
 9629TIP3    H228833   1.400   3.688   3.519  0.5888  0.3858  0.7760
 9630TIP3   OH228834   3.191   7.375   6.678 -0.1362  0.6321  0.1969
 9630TIP3    H128835   3.278   7.399   6.708  0.3172  0.3349 -0.8243
 9630TIP3    H228836   3.199   7.369   6.582 -1.5404  1.7092 -0.0242
 9631TIP3   OH228837   2.580   2.767   6.699  0.2136  0.4078  0.2057
 9631TIP3    H128838   2.671   2.787   6.676  1.0412 -2.2317  0.8584
 9631TIP3    H228839   2.560   2.687   6.651 -1.1303 -0.0663  1.4777
 9632TIP3   OH228840   0.100   2.984   0.529 -0.4078  0.1940  0.3284
 9632TIP3    H128841   0.033   3.043   0.564 -1.3083 -0.9022  0.5548
 9632TIP3    H228842   0.107   3.008   0.436 -1.7693 -0.2084  0.0863
 9633TIP3   OH228843   5.652   2.096   5.937 -0.3323 -0.0055 -0.3808
 9633TIP3    H128844   5.646   2.182   5.895  0.1995  0.2963  0.1377
 9633TIP3    H228845   5.561   2.075   5.960 -0.6989 -0.4152 -2.0962
 9634TIP3   OH228846   0.024   0.341   0.211 -0.3043 -0.7097  0.1752
 9634TIP3    H128847   0.082   0.269   0.234 -0.7001 -0.5981  1.6307
 9634TIP3    H228848   0.061   0.417   0.257  0.2107  0.0882 -1.4749
 9635TIP3   OH228849   7.108   2.807   4.406  0.1705 -0.0592 -0.0021
 9635TIP3    H128850   7.064   2.845   4.329  1.4381 -0.4350 -0.9500
 9635TIP3    H228851   7.067   2.850   4.481  0.3122  1.8379 -0.9559
 9636TIP3   OH228852   0.827   1.526   1.935  0.1688 -0.2479  0.0321
 9636TIP3    H128853   0.735   1.521   1.961  0.1603 -0.1090  0.0258
 9636TIP3    H228854   0.826   1.512   1.840  0.1848 -0.5830  0.0778
 9637TIP3   OH228855   7.155   3.024   5.833  0.4836 -0.1559 -0.0797
 9637TIP3    H128856   7.072   2.994   5.870  0.0685  0.3457 -0.6059
 9637TIP3    H228857   7.131   3.089   5.767  1.2384 -0.7251 -0.9409
 9638TIP3   OH228858   6.336   5.275   2.784 -0.1682 -0.3868 -0.1002
 9638TIP3    H128859   6.286   5.216   2.841  1.8042  0.1018  2.2745
 9638TIP3    H228860   6.299   5.361   2.800 -1.4295 -0.5819 -1.7285
 9639TIP3   OH228861   4.192   6.262   5.971  0.2572  0.6040  0.6099
 9639TIP3    H128862   4.277   6.252   6.014 -0.0322  0.2078  1.0986
 9639TIP3    H228863   4.198   6.205   5.894  0.1802  0.0088  1.0338
 9640TIP3   OH228864   8.173   0.875   2.051  0.0221  0.8325  0.2298
 9640TIP3    H128865   8.106   0.851   1.988  0.2135  1.5855 -0.2730
 9640TIP3    H228866   8.251   0.826   2.023 -0.7479 -1.5144  1.8995
 9641TIP3   OH228867   2.727   3.455   0.179 -0.2814  0.3372  1.0667
 9641TIP3    H128868   2.804   3.408   0.146 -0.7158 -0.2066  0.8250
 9641TIP3    H228869   2.678   3.390   0.229 -0.6538  0.6464  1.1090
 9642TIP3   OH228870   5.964   1.502   4.381  0.1003 -0.7854  0.4476
 9642TIP3    H128871   6.053   1.476   4.356 -0.4745  0.6093 -3.8781
 9642TIP3    H228872   5.907   1.453   4.322 -1.6554  1.7470 -0.1241
 9643TIP3   OH228873   7.279   1.373   1.163 -0.2805 -0.7957 -0.2363
 9643TIP3    H128874   7.357   1.417   1.194 -1.1986  0.9383 -0.2470
 9643TIP3    H228875   7.308   1.286   1.137  1.6128 -0.2116 -0.1655
 9644TIP3   OH228876   4.066   5.978   6.334 -0.1970 -0.1685 -0.1873
 9644TIP3    H128877   4.101   6.059   6.372 -1.9073  1.2767 -1.5168
 9644TIP3    H228878   4.096   5.909   6.394  1.4058  1.3967  0.9390
 9645TIP3   OH228879   3.645   6.170   2.986  0.4845  0.9523  0.6857
 9645TIP3    H128880   3.596   6.156   2.906  0.9010  0.5725  0.4970
 9645TIP3    H228881   3.587   6.139   3.056  0.4307  0.5742  0.4714
 9646TIP3   OH228882   3.076   4.835   4.627 -0.1282  0.5344 -0.3602
 9646TIP3    H128883   3.115   4.854   4.712  0.9406 -1.6688 -0.2994
 9646TIP3    H228884   2.988   4.803   4.648 -0.0751  0.5394 -0.1271
 9647TIP3   OH228885   5.087   5.150   2.282 -0.1255 -0.1732 -0.1251
 9647TIP3    H128886   5.026   5.089   2.324  0.2232 -0.0159  0.6428
 9647TIP3    H228887   5.032   5.221   2.249 -0.6028 -1.2007 -1.5932
 9648TIP3   OH228888   6.313   3.631   0.455 -0.4431 -0.0548  0.1286
 9648TIP3    H128889   6.363   3.549   0.459 -2.1906 -1.1170  2.6717
 9648TIP3    H228890   6.377   3.699   0.476  0.5658 -1.0428  0.3405
 9649TIP3   OH228891   5.351   5.780   6.370  0.4818  0.0685  0.0973
 9649TIP3    H128892   5.423   5.758   6.429  0.6795  0.7619  0.1240
 9649TIP3    H228893   5.277   5.798   6.428  0.5052  0.1283  0.1090
 9650TIP3   OH228894   4.771   7.480   2.872  0.5521 -0.6538  0.5804
 9650TIP3    H128895   4.744   7.566   2.840 -0.2665 -1.1518 -0.1021
 9650TIP3    H228896   4.694   7.447   2.919  0.9545 -0.9028  1.0757
 9651TIP3   OH228897   1.934   5.112   6.172 -0.4451  0.4283 -0.1697
 9651TIP3    H128898   1.934   5.199   6.131 -0.0021  0.0976 -0.8799
 9651TIP3    H228899   1.996   5.120   6.245 -3.0471  1.7484  2.0796
 9652TIP3   OH228900   2.797   5.788   1.300  0.0327 -0.3270  0.3081
 9652TIP3    H128901   2.801   5.874   1.344 -2.1880 -0.3122  0.6210
 9652TIP3    H228902   2.703   5.775   1.283  0.3977 -2.4213 -0.3179
 9653TIP3   OH228903   5.620   5.950   3.371  0.2227  0.4481 -0.1805
 9653TIP3    H128904   5.619   5.858   3.344 -0.7841  0.4076 -0.0324
 9653TIP3    H228905   5.588   5.998   3.295 -0.4484  0.5501  0.1605
 9654TIP3   OH228906   5.863   6.136   1.762 -0.2633 -0.1074 -0.0238
 9654TIP3    H128907   5.827   6.055   1.798 -1.5494  0.4141 -0.0689
 9654TIP3    H228908   5.881   6.190   1.838 -1.3618  0.3351 -0.0543
 9655TIP3   OH228909   7.027   0.945   6.232  0.1778 -0.2710 -0.1384
 9655TIP3    H128910   6.998   0.864   6.274 -1.1312  1.0594  1.6895
 9655TIP3    H228911   6.947   0.982   6.195  0.4012  1.0592  0.6490
 9656TIP3   OH228912   5.232   1.355   0.358 -0.5706  0.1660  0.3240
 9656TIP3    H128913   5.139   1.360   0.336 -1.0404 -1.1123  1.8120
 9656TIP3    H228914   5.233   1.347   0.454  0.9704 -1.6158  0.2069
 9657TIP3   OH228915   0.263   7.353   4.518 -0.3246 -0.2210 -0.0827
 9657TIP3    H128916   0.321   7.372   4.444  0.7969 -2.0727  0.2609
 9657TIP3    H228917   0.240   7.438   4.553  1.4538  0.6033 -0.8111
 9658TIP3   OH228918   4.960   1.685   4.813  0.5247  0.3892 -0.3350
 9658TIP3    H128919   4.931   1.725   4.895  0.6741  0.1016 -0.1367
 9658TIP3    H228920   4.928   1.595   4.818  0.3700  0.4236 -0.6801
 9659TIP3   OH228921   0.214   5.109   0.427 -0.3975  0.0311  0.4525
 9659TIP3    H128922   0.282   5.053   0.390 -0.6336 -0.0763  0.1797
 9659TIP3    H228923   0.164   5.051   0.484  0.2216  0.2917  1.2727
 9660TIP3   OH228924   2.614   4.606   0.931 -0.2642 -0.4713 -0.2385
 9660TIP3    H128925   2.668   4.600   0.852  1.5354 -2.6639  1.0142
 9660TIP3    H228926   2.606   4.515   0.961 -1.0926  0.2675  1.9627
 9661TIP3   OH228927   0.770   1.007   0.928 -0.5505  0.1811  1.2036
 9661TIP3    H128928   0.845   1.043   0.880 -1.4844  0.3532 -0.1834
 9661TIP3    H228929   0.755   0.921   0.890 -1.7792  0.6285  0.5925
 9662TIP3   OH228930   1.333   1.219   3.726 -0.2589  0.7700  0.0178
 9662TIP3    H128931   1.291   1.152   3.673  1.3247 -0.6547  0.4562
 9662TIP3    H228932   1.271   1.292   3.727 -1.3226 -0.0442 -1.8396
 9663TIP3   OH228933   3.412   0.396   0.206  0.0082  0.1104  0.0911
 9663TIP3    H128934   3.411   0.335   0.279 -1.1189  0.2042  0.1803
 9663TIP3    H228935   3.504   0.413   0.190  0.4452 -2.3677 -0.5649
 9664TIP3   OH228936   7.158   6.750   6.736 -0.2104 -0.5617 -0.0630
 9664TIP3    H128937   7.147   6.695   6.814 -2.1136 -1.4605 -0.8981
 9664TIP3    H228938   7.076   6.738   6.687  0.8374  0.1647 -2.0840
 9665TIP3   OH228939   7.058   5.427   4.560 -0.4523 -0.3059 -0.5366
 9665TIP3    H128940   7.127   5.423   4.626  0.4163 -1.1069 -1.4650
 9665TIP3    H228941   7.014   5.343   4.567 -1.8253  0.4574  0.5216
 9666TIP3   OH228942   0.615   1.947   3.605  0.2244  0.2737 -0.0492
 9666TIP3    H128943   0.548   1.893   3.564  0.5492  0.0582 -0.2960
 9666TIP3    H228944   0.610   1.925   3.698  0.1111  0.0837 -0.1003
 9667TIP3   OH228945   7.992   4.225   6.388  0.0493  0.1996 -0.0770
 9667TIP3    H128946   8.088   4.223   6.382  0.1529  0.2764  1.3257
 9667TIP3    H228947   7.963   4.168   6.317  1.1037  0.7726 -1.0034
 9668TIP3   OH228948   7.352   2.138   0.291  0.1395 -0.4724  0.8462
 9668TIP3    H128949   7.343   2.211   0.230  1.4294 -0.2423  0.9094
 9668TIP3    H228950   7.298   2.068   0.253 -0.3317  0.1924  0.2803
 9669TIP3   OH228951   2.307   0.554   3.327 -0.0686  0.2505  0.1424
 9669TIP3    H128952   2.340   0.510   3.405 -0.9092  1.3925  1.1777
 9669TIP3    H228953   2.249   0.490   3.287 -0.0799 -0.1449  0.7715
 9670TIP3   OH228954   7.379   3.908   5.113 -0.4019 -0.1428 -0.5388
 9670TIP3    H128955   7.310   3.851   5.079 -2.1393 -0.7698  3.5189
 9670TIP3    H228956   7.356   3.995   5.080 -2.4717 -0.5447 -0.3043
 9671TIP3   OH228957   6.906   6.381   6.011 -0.5942  0.2062 -0.5829
 9671TIP3    H128958   6.969   6.355   6.078 -0.0747 -0.4013 -1.2892
 9671TIP3    H228959   6.935   6.468   5.983  1.1071 -0.8187 -2.2296
 9672TIP3   OH228960   7.691   7.342   2.090  0.4108 -0.1217  0.0981
 9672TIP3    H128961   7.615   7.287   2.069 -0.5281  1.3145 -0.4349
 9672TIP3    H228962   7.725   7.305   2.172 -0.9796 -0.6918  0.4524
 9673TIP3   OH228963   5.593   1.184   4.124  0.0735  0.1601  0.2038
 9673TIP3    H128964   5.551   1.151   4.204  0.1303 -2.6287 -0.8099
 9673TIP3    H228965   5.522   1.223   4.074 -0.0324  1.5905  1.4055
 9674TIP3   OH228966   0.038   0.423   4.053 -0.0920 -0.0858 -0.1233
 9674TIP3    H128967   0.026   0.347   4.109  2.2970 -0.6839 -0.3369
 9674TIP3    H228968   0.077   0.489   4.110  0.6816 -0.0786 -0.6499
 9675TIP3   OH228969   2.770   0.379   0.997  0.2390  0.1667  0.3162
 9675TIP3    H128970   2.694   0.407   0.946  0.1158  0.5035  0.6790
 9675TIP3    H228971   2.845   0.396   0.940  0.1698  1.2487  0.5170
 9676TIP3   OH228972   8.320   3.392   6.761  0.1134  0.1350 -0.1533
 9676TIP3    H128973   8.238   3.368   6.804  0.2891 -0.0109  0.1072
 9676TIP3    H228974   8.294   3.423   6.674 -0.3084  0.9990  0.2644
 9677TIP3   OH228975   1.542   3.955   1.836 -0.5100  0.2217  0.0442
 9677TIP3    H128976   1.487   3.895   1.786 -0.5979  1.2053 -1.0897
 9677TIP3    H228977   1.631   3.927   1.819 -0.5982 -1.3461  1.8437
 9678TIP3   OH228978   0.675   1.794   0.911 -0.2848  0.0124  0.7107
 9678TIP3    H128979   0.649   1.744   0.988  1.8661 -0.7676  1.0072
 9678TIP3    H228980   0.663   1.886   0.936 -0.0699 -0.2480  1.7926
 9679TIP3   OH228981   3.496   5.254   3.422  0.3720  0.0499  0.0490
 9679TIP3    H128982   3.520   5.226   3.334 -0.1683 -0.5633  0.0853
 9679TIP3    H228983   3.424   5.195   3.447  1.2844 -0.5574  1.3394
 9680TIP3   OH228984   3.099   5.422   1.115 -0.3869  0.6536 -0.3075
 9680TIP3    H128985   3.043   5.496   1.091  1.2404  1.3427 -2.3155
 9680TIP3    H228986   3.171   5.462   1.165 -0.1489  0.2360 -0.3131
 9681TIP3   OH228987   8.256   6.740   5.970 -0.1180  0.1478 -0.1038
 9681TIP3    H128988   8.296   6.756   5.884 -0.1358 -2.6737 -0.7458
 9681TIP3    H228989   8.301   6.799   6.029  2.2501 -0.1220 -1.5080
 9682TIP3   OH228990   2.981   5.694   1.103 -0.6914  0.7347 -0.0514
 9682TIP3    H128991   2.906   5.728   1.153 -1.2694 -0.2848 -0.2032
 9682TIP3    H228992   3.056   5.745   1.134 -1.2598  0.9860  0.9311
 9683TIP3   OH228993   5.725   2.285   0.199  0.2814  0.2112  0.0202
 9683TIP3    H128994   5.670   2.258   0.125 -0.1765 -0.9679  0.7720
 9683TIP3    H228995   5.717   2.214   0.262  1.4645  0.7404  0.7954
 9684TIP3   OH228996   3.983   0.373   1.069 -0.3020  0.3110 -0.3238
 9684TIP3    H128997   3.937   0.363   1.152  0.2161  0.7628  0.0244
 9684TIP3    H228998   4.039   0.450   1.082 -1.2421  1.2600 -1.5581
 9685TIP3   OH228999   4.992   2.644   3.205  0.1631 -0.2450  0.0803
 9685TIP3    H129000   5.061   2.676   3.264  0.1232 -2.0407  1.1798
 9685TIP3    H229001   4.913   2.642   3.258 -0.2457 -0.3464 -0.5179
 9686TIP3   OH229002   8.224   4.290   2.101 -0.4810  0.2559  0.4184
 9686TIP3    H129003   8.272   4.215   2.064 -2.4669 -0.2435 -1.3280
 9686TIP3    H229004   8.235   4.359   2.035 -2.1706  0.1063 -0.0492
 9687TIP3   OH229005   6.680   4.185   3.552 -0.1969  0.6064 -0.8476
 9687TIP3    H129006   6.738   4.185   3.628 -1.1358 -1.4526 -0.0648
 9687TIP3    H229007   6.718   4.120   3.493 -0.3600  1.0345 -1.4365
 9688TIP3   OH229008   1.282   5.461   4.343  0.5446  0.1509 -0.1111
 9688TIP3    H129009   1.375   5.444   4.324  0.8259  1.2662  0.2369
 9688TIP3    H229010   1.282   5.537   4.400 -0.5312 -0.5686  0.8970
 9689TIP3   OH229011   5.352   6.308   5.134 -0.5254  0.2585 -0.2504
 9689TIP3    H129012   5.347   6.308   5.230  3.2502 -0.0408  0.1115
 9689TIP3    H229013   5.417   6.241   5.114  1.2709  2.5607 -2.7549
 9690TIP3   OH229014   1.840   7.156   4.633  0.3500 -0.3034 -0.2144
 9690TIP3    H129015   1.898   7.089   4.670  1.3249  0.2291 -0.7193
 9690TIP3    H229016   1.796   7.194   4.709 -0.0322 -1.3361  0.1000
 9691TIP3   OH229017   6.646   2.007   4.387  0.1804 -0.1270  0.2950
 9691TIP3    H129018   6.731   2.045   4.365  1.0160 -1.7620  0.5876
 9691TIP3    H229019   6.642   2.011   4.483  0.4716 -1.1500  0.3589
 9692TIP3   OH229020   1.014   3.686   5.456 -0.6488 -0.2514  0.7022
 9692TIP3    H129021   1.038   3.702   5.547  2.0159 -0.4631  0.1216
 9692TIP3    H229022   0.941   3.746   5.440  2.0093  3.6158  1.6234
 9693TIP3   OH229023   1.052   3.556   3.649 -0.0825  0.3170 -0.6129
 9693TIP3    H129024   1.112   3.600   3.588  0.6130 -1.0700 -0.9776
 9693TIP3    H229025   1.093   3.566   3.735  0.6880 -0.6015 -0.8566
 9694TIP3   OH229026   2.269   2.942   0.871  0.2422  0.1565  0.1685
 9694TIP3    H129027   2.257   2.852   0.899  1.3151 -0.1819 -0.3757
 9694TIP3    H229028   2.323   2.982   0.939 -1.5852  0.8920  1.2517
 9695TIP3   OH229029   6.384   2.787   1.820 -0.1665 -0.2044 -0.1814
 9695TIP3    H129030   6.332   2.864   1.795 -0.4977 -0.0845  0.8380
 9695TIP3    H229031   6.423   2.811   1.904  1.3334 -0.4123 -0.7984
 9696TIP3   OH229032   3.203   2.146   6.031  0.5322 -0.2893 -0.6538
 9696TIP3    H129033   3.113   2.155   6.062  0.5421  0.9666 -0.9502
 9696TIP3    H229034   3.250   2.106   6.105 -0.1066 -0.2697 -0.2305
 9697TIP3   OH229035   4.210   2.232   5.143 -0.6645 -0.3815 -0.1025
 9697TIP3    H129036   4.246   2.311   5.102  2.0170 -1.0585  0.7683
 9697TIP3    H229037   4.127   2.217   5.098  0.7083  0.5943 -3.1914
 9698TIP3   OH229038   5.681   6.035   4.241  0.2919  0.0562 -0.8449
 9698TIP3    H129039   5.616   6.081   4.188  0.1596  1.5089  0.4802
 9698TIP3    H229040   5.629   5.982   4.301  0.2876  1.0814  0.0959
 9699TIP3   OH229041   1.173   3.967   0.197  0.0746 -0.1127 -0.0804
 9699TIP3    H129042   1.210   3.913   0.128  1.0952 -1.0102  1.1222
 9699TIP3    H229043   1.240   4.034   0.214  0.1879 -0.3874  0.5806
 9700TIP3   OH229044   0.734   4.602   3.604 -0.0682 -0.6418  0.0051
 9700TIP3    H129045   0.803   4.538   3.581  1.5392  0.8785  0.3856
 9700TIP3    H229046   0.686   4.614   3.522 -0.1400 -2.0017 -0.1893
 9701TIP3   OH229047   1.523   6.308   0.660  0.5570  0.0537  0.1250
 9701TIP3    H129048   1.615   6.284   0.672  0.0683 -1.0517  2.3331
 9701TIP3    H229049   1.500   6.270   0.575  1.9420 -0.3116 -0.1266
 9702TIP3   OH229050   5.360   7.491   5.160  0.0133  0.8989  0.0267
 9702TIP3    H129051   5.287   7.431   5.175 -2.0222  2.8284 -1.4129
 9702TIP3    H229052   5.399   7.461   5.078 -0.6155  1.1804 -0.3796
 9703TIP3   OH229053   1.526   7.342   4.330 -0.5542 -0.1543 -0.0932
 9703TIP3    H129054   1.469   7.413   4.300 -0.6290  1.2359  2.9762
 9703TIP3    H229055   1.466   7.276   4.365 -0.3855 -0.3287 -0.1299
 9704TIP3   OH229056   7.351   5.220   6.054  0.0835  0.0833 -0.1152
 9704TIP3    H129057   7.291   5.197   6.125  0.6016 -1.4774 -0.1398
 9704TIP3    H229058   7.302   5.200   5.974  0.2989 -0.3157 -0.1502
 9705TIP3   OH229059   2.895   3.737   6.072 -0.0498 -0.4324 -0.0068
 9705TIP3    H129060   2.844   3.818   6.081 -0.7725 -0.6873 -1.4786
 9705TIP3    H229061   2.939   3.727   6.156  1.4305  2.4055 -0.3061
 9706TIP3   OH229062   5.821   1.342   2.398  0.2425 -0.0369  0.0839
 9706TIP3    H129063   5.889   1.349   2.465 -0.3272  0.0877  0.6697
 9706TIP3    H229064   5.841   1.412   2.335  0.8973 -0.2840  0.0181
 9707TIP3   OH229065   2.403   4.256   0.989 -0.0939 -0.3724  0.4456
 9707TIP3    H129066   2.339   4.321   0.958  0.0575 -0.9889 -1.2735
 9707TIP3    H229067   2.474   4.262   0.926  1.5773  0.2568  2.2872
 9708TIP3   OH229068   6.821   1.767   3.634  0.0552 -0.0610 -0.6004
 9708TIP3    H129069   6.813   1.863   3.632 -0.0555 -0.0580 -0.0443
 9708TIP3    H229070   6.835   1.746   3.726  1.8043 -0.4394 -0.9116
 9709TIP3   OH229071   0.027   2.844   1.119 -0.3897  0.1147 -0.0723
 9709TIP3    H129072   0.040   2.764   1.170  0.4188  0.7081  0.6773
 9709TIP3    H229073  -0.059   2.833   1.079 -1.0700 -0.3447  1.4556
 9710TIP3   OH229074   7.908   2.475   1.246 -0.3393 -0.5830  0.1219
 9710TIP3    H129075   7.954   2.404   1.290 -0.8138 -0.6885  0.4497
 9710TIP3    H229076   7.849   2.511   1.312  0.2602  0.4568  0.1172
 9711TIP3   OH229077   2.017   4.506   2.847 -0.0483 -0.3322  0.7691
 9711TIP3    H129078   2.109   4.501   2.820  0.4069 -0.9159  2.3436
 9711TIP3    H229079   2.019   4.539   2.936 -1.3238 -1.1593  1.1338
 9712TIP3   OH229080   2.574   3.218   0.400 -0.0213 -0.6574 -0.0229
 9712TIP3    H129081   2.631   3.146   0.372  0.7416 -0.4533  0.9339
 9712TIP3    H229082   2.627   3.266   0.464  0.0088  1.5837 -1.6184
 9713TIP3   OH229083   3.777   0.694   5.812 -0.1084 -0.6073  0.2036
 9713TIP3    H129084   3.831   0.618   5.790 -0.0508 -0.4775 -0.1239
 9713TIP3    H229085   3.692   0.677   5.770 -0.2217 -0.6721  0.4610
 9714TIP3   OH229086   2.796   4.393   0.284 -0.2510  0.7245 -0.0268
 9714TIP3    H129087   2.886   4.377   0.257  0.4489 -0.3920  2.6291
 9714TIP3    H229088   2.790   4.488   0.292  0.5934  0.8268 -0.4996
 9715TIP3   OH229089   1.113   3.365   6.005  0.4867  0.4036 -0.1093
 9715TIP3    H129090   1.156   3.341   5.922  1.8114 -0.2733  0.7358
 9715TIP3    H229091   1.166   3.321   6.072 -0.3732  1.2079  1.1203
 9716TIP3   OH229092   1.499   7.181   1.927 -0.0737  0.1492 -0.5549
 9716TIP3    H129093   1.512   7.264   1.972  2.5099  1.4105 -3.2534
 9716TIP3    H229094   1.500   7.204   1.834  0.2533 -2.8493 -1.3905
 9717TIP3   OH229095   6.058   5.092   4.641  0.5814 -0.1804  0.8621
 9717TIP3    H129096   6.081   5.182   4.667  1.4906 -0.9702  3.0866
 9717TIP3    H229097   6.082   5.039   4.717 -0.9429 -2.1926  0.0192
 9718TIP3   OH229098   8.081   4.969   2.593 -0.4660 -0.2941  0.3152
 9718TIP3    H129099   8.163   4.930   2.563 -0.4059  0.1799 -0.1579
 9718TIP3    H229100   8.097   5.063   2.593 -0.8112 -0.2282  0.8308
 9719TIP3   OH229101   7.587   2.009   1.100 -0.4537  0.1393 -0.0631
 9719TIP3    H129102   7.514   1.953   1.072  0.4333 -0.4324 -1.3062
 9719TIP3    H229103   7.665   1.967   1.063  0.5473  0.6450  1.3755
 9720TIP3   OH229104   3.005   2.307   6.169  0.2858  0.7141  0.4856
 9720TIP3    H129105   3.054   2.351   6.237  0.5052 -0.5306  1.1728
 9720TIP3    H229106   2.938   2.257   6.216 -1.3786  2.0268 -0.3950
 9721TIP3   OH229107   4.043   5.274   4.736 -0.2944 -0.0862 -0.2474
 9721TIP3    H129108   4.059   5.180   4.727  0.8582  0.0048  0.6360
 9721TIP3    H229109   4.111   5.316   4.682  0.4303  0.2484  0.8784
 9722TIP3   OH229110   4.909   7.062   1.960 -0.0281 -0.8785  1.0361
 9722TIP3    H129111   4.952   7.018   2.033  0.8383 -0.9024  0.5302
 9722TIP3    H229112   4.910   6.997   1.889  2.0446  0.1765  0.0016
 9723TIP3   OH229113   1.839   2.342   1.035  0.2293  0.0249  0.8459
 9723TIP3    H129114   1.794   2.325   0.952 -1.6226  0.3684  1.7164
 9723TIP3    H229115   1.898   2.268   1.046 -0.5348 -0.7513 -0.1107
 9724TIP3   OH229116   1.528   2.447   0.420 -0.7157  0.6108 -0.0389
 9724TIP3    H129117   1.534   2.367   0.472 -0.0442  0.7070  0.0425
 9724TIP3    H229118   1.489   2.420   0.338 -0.3395  0.1653 -0.0757
 9725TIP3   OH229119   5.455   3.115   4.501  0.1215  0.2851 -0.0006
 9725TIP3    H129120   5.363   3.139   4.510  0.4412  1.3129  0.7253
 9725TIP3    H229121   5.499   3.196   4.478  0.8019 -0.2844 -0.7833
 9726TIP3   OH229122   5.945   4.460   4.335  0.3793 -0.4361 -0.1877
 9726TIP3    H129123   5.943   4.542   4.384  1.4187 -0.4509 -0.1014
 9726TIP3    H229124   5.870   4.465   4.276 -0.2948  0.0238  0.6884
 9727TIP3   OH229125   5.850   4.877   1.277  0.4787  0.5430 -0.2521
 9727TIP3    H129126   5.926   4.935   1.273 -1.0720  2.8135  0.6103
 9727TIP3    H229127   5.840   4.856   1.369 -0.2866  0.7957 -0.2715
 9728TIP3   OH229128   3.631   5.898   3.935  0.6319 -0.1562  0.6935
 9728TIP3    H129129   3.716   5.900   3.891  1.4817  1.2972  2.2751
 9728TIP3    H229130   3.581   5.969   3.894 -0.8107 -2.4892 -1.9062
 9729TIP3   OH229131   3.605   0.700   4.380 -0.0634  0.4198 -0.4213
 9729TIP3    H129132   3.652   0.649   4.447 -0.4109  0.5386 -0.0840
 9729TIP3    H229133   3.622   0.653   4.298  1.5189  1.0444 -0.4804
 9730TIP3   OH229134   4.657   4.136   3.624 -0.4474  0.2969 -0.1512
 9730TIP3    H129135   4.655   4.053   3.576  2.2497  0.3331 -0.4865
 9730TIP3    H229136   4.654   4.203   3.556 -0.1154  0.4124 -0.0556
 9731TIP3   OH229137   1.017   1.210   5.425  0.1423 -0.1282  0.2610
 9731TIP3    H129138   1.030   1.287   5.480 -2.6255 -0.2437  1.1965
 9731TIP3    H229139   0.972   1.242   5.347 -1.6516 -0.8246  0.9620
 9732TIP3   OH229140   1.703   4.072   0.588 -0.1980  0.3025 -0.1487
 9732TIP3    H129141   1.761   4.140   0.554  0.0695 -0.1199 -0.5480
 9732TIP3    H229142   1.716   4.074   0.682  0.2171  0.4363 -0.2083
 9733TIP3   OH229143   7.718   2.123   5.832 -0.1471  0.7163 -0.6142
 9733TIP3    H129144   7.707   2.217   5.845 -1.6340  0.6172 -0.9286
 9733TIP3    H229145   7.643   2.084   5.877  0.3909 -0.3125 -0.5824
 9734TIP3   OH229146   2.502   6.781   2.571  0.5461 -0.0398 -0.8026
 9734TIP3    H129147   2.450   6.708   2.537  1.4084 -0.8008 -0.5318
 9734TIP3    H229148   2.438   6.850   2.588 -0.2826 -0.7086 -1.1190
 9735TIP3   OH229149   2.845   3.549   5.855  0.3270  0.3263 -0.0667
 9735TIP3    H129150   2.849   3.458   5.884  0.6613  0.6043  0.7709
 9735TIP3    H229151   2.874   3.600   5.930 -0.8811  1.1992 -0.1505
 9736TIP3   OH229152   0.275   2.656   4.642 -0.0239 -0.3413  0.0962
 9736TIP3    H129153   0.285   2.590   4.573  1.9728 -0.1205  0.0959
 9736TIP3    H229154   0.248   2.607   4.719  1.1220 -1.1507  0.0108
 9737TIP3   OH229155   2.555   6.009   5.463 -0.0439 -0.7454 -0.4559
 9737TIP3    H129156   2.584   6.100   5.475 -1.0772 -0.5422  0.6424
 9737TIP3    H229157   2.632   5.964   5.428  0.6914  0.4022 -0.3743
 9738TIP3   OH229158   7.357   7.609   2.210  0.0746 -0.3133  0.2836
 9738TIP3    H129159   7.316   7.526   2.234 -1.6929  0.3291 -0.3526
 9738TIP3    H229160   7.384   7.597   2.119  2.0686 -0.9859  0.9147
 9739TIP3   OH229161   7.129   3.804   0.111 -0.2561 -0.2713 -0.9503
 9739TIP3    H129162   7.075   3.780   0.186 -0.6630 -0.5077 -1.3141
 9739TIP3    H229163   7.108   3.896   0.094  1.0168  0.2627  0.2044
 9740TIP3   OH229164   0.855   5.297   2.136  0.1066  0.1610  0.9235
 9740TIP3    H129165   0.781   5.339   2.179 -2.1969 -1.4299 -1.1899
 9740TIP3    H229166   0.841   5.203   2.149  1.7036 -0.1876  0.3868
 9741TIP3   OH229167   2.430   5.112   2.440  0.2210 -0.2327 -0.0248
 9741TIP3    H129168   2.395   5.085   2.356  0.6121  0.1158 -0.3055
 9741TIP3    H229169   2.393   5.051   2.503 -1.7079  0.7222 -0.1632
 9742TIP3   OH229170   5.596   3.031   2.400 -0.5407  0.1204  0.1176
 9742TIP3    H129171   5.555   2.974   2.335  0.5203 -1.2052  0.5562
 9742TIP3    H229172   5.674   2.982   2.428 -0.0269  1.4541  1.0935
 9743TIP3   OH229173   7.828   3.889   4.271 -0.0894  0.0788  0.2280
 9743TIP3    H129174   7.872   3.950   4.211  0.1330 -0.4504 -0.1518
 9743TIP3    H229175   7.766   3.944   4.318  0.1301  0.6116 -0.0853
 9744TIP3   OH229176   2.551   4.152   4.837 -0.4765 -0.4254  0.0652
 9744TIP3    H129177   2.615   4.137   4.767 -1.0024 -1.3010 -0.2303
 9744TIP3    H229178   2.601   4.139   4.917  0.1747  0.7494 -0.1244
 9745TIP3   OH229179   8.078   1.798   4.396  0.6193 -0.7139  0.7108
 9745TIP3    H129180   7.997   1.747   4.389  1.3773 -1.7404 -3.4156
 9745TIP3    H229181   8.049   1.887   4.415 -1.4590 -1.1516 -0.0822
 9746TIP3   OH229182   1.240   1.695   5.711 -0.4375 -0.6185  0.2101
 9746TIP3    H129183   1.169   1.653   5.663 -0.4134 -2.2821  1.5145
 9746TIP3    H229184   1.299   1.623   5.733  1.0532  0.5509  0.1911
 9747TIP3   OH229185   3.156   5.681   4.047  0.0334  0.0549  0.0719
 9747TIP3    H129186   3.109   5.747   3.996 -1.6807 -1.1093  0.0825
 9747TIP3    H229187   3.190   5.620   3.982 -1.2432 -0.8477  0.2239
 9748TIP3   OH229188   0.814   1.155   2.826  0.1284 -0.2535  0.2305
 9748TIP3    H129189   0.895   1.145   2.776  0.6402 -0.1902  1.0276
 9748TIP3    H229190   0.843   1.163   2.917 -0.7506  0.1426  0.4861
 9749TIP3   OH229191   1.747   0.542   5.177 -0.2797 -0.0921 -0.8368
 9749TIP3    H129192   1.716   0.505   5.260 -1.0025  1.8715 -0.1768
 9749TIP3    H229193   1.769   0.466   5.123 -1.1272 -1.4380  0.6524
 9750TIP3   OH229194   6.056   0.602   4.113 -0.1940 -0.4351 -0.4136
 9750TIP3    H129195   6.061   0.577   4.205 -1.6552 -0.3572 -0.2891
 9750TIP3    H229196   5.964   0.588   4.089 -0.2541  1.3239 -1.3590
 9751TIP3   OH229197   6.770   5.831   6.406  0.1025  0.2653 -0.4927
 9751TIP3    H129198   6.744   5.896   6.340 -0.7872  0.2490 -0.1797
 9751TIP3    H229199   6.692   5.776   6.416  0.1665  0.3703  0.6869
 9752TIP3   OH229200   4.621   2.407   4.412  0.1477  0.0678  0.1838
 9752TIP3    H129201   4.710   2.400   4.448 -0.2453  0.0827  1.1806
 9752TIP3    H229202   4.616   2.334   4.349  0.4596 -0.6961  1.0202
 9753TIP3   OH229203   0.135   1.083   5.186  0.6031  0.5855  0.4989
 9753TIP3    H129204   0.197   1.015   5.213  0.1019  0.5616  1.6656
 9753TIP3    H229205   0.179   1.130   5.115  0.3844 -1.8694 -1.3852
 9754TIP3   OH229206   0.203   3.196   1.748  0.1813 -0.0305  0.0197
 9754TIP3    H129207   0.265   3.123   1.745 -0.4090 -0.5731  0.5425
 9754TIP3    H229208   0.169   3.194   1.838 -1.3426 -0.4030 -0.5275
 9755TIP3   OH229209   2.769   5.831   5.388  0.5795 -0.0511 -0.1472
 9755TIP3    H129210   2.767   5.814   5.483  1.1958 -1.9482 -0.4382
 9755TIP3    H229211   2.745   5.747   5.348  1.9964  0.2326 -1.7032
 9756TIP3   OH229212   0.625   3.042   4.581 -0.2578  0.2601  0.1337
 9756TIP3    H129213   0.592   2.973   4.524 -0.2149 -0.9297  1.4804
 9756TIP3    H229214   0.655   2.995   4.659 -0.4867  1.8310  1.2052
 9757TIP3   OH229215   0.175   4.026   0.955  0.0660 -0.1812  0.1994
 9757TIP3    H129216   0.170   4.085   1.030 -0.0349 -0.2827  0.2732
 9757TIP3    H229217   0.094   4.040   0.906 -2.1378 -3.2886  2.4942
 9758TIP3   OH229218   3.691   0.043   3.396 -0.1399 -0.0040 -0.3194
 9758TIP3    H129219   3.745   0.120   3.412 -0.7736  0.1611  1.2193
 9758TIP3    H229220   3.634   0.038   3.473 -0.4939 -1.6891 -0.6605
 9759TIP3   OH229221   6.886   0.081   0.882  0.0812 -0.2220  0.8993
 9759TIP3    H129222   6.872   0.175   0.872 -0.7894 -0.3845  0.4718
 9759TIP3    H229223   6.823   0.041   0.822  0.3102 -1.0777  1.2166
 9760TIP3   OH229224   0.624   4.961   1.967 -0.0753 -0.1924  0.4393
 9760TIP3    H129225   0.567   5.035   1.948  0.5217  0.2749  0.4580
 9760TIP3    H229226   0.584   4.920   2.044 -0.7091 -0.2215  0.1071
 9761TIP3   OH229227   1.506   0.636   2.375  0.2508  0.6941  0.8591
 9761TIP3    H129228   1.529   0.577   2.447  1.9323 -0.2013 -0.3498
 9761TIP3    H229229   1.443   0.586   2.323  2.8204 -0.8758 -1.0388
 9762TIP3   OH229230   2.225   1.673   5.581  0.0265  0.2555 -0.2105
 9762TIP3    H129231   2.180   1.609   5.526 -0.3300 -1.4504  1.9404
 9762TIP3    H229232   2.316   1.670   5.553 -0.2312 -0.1991 -1.0242
 9763TIP3   OH229233   6.760   0.389   1.806  0.2950  0.2309 -0.0140
 9763TIP3    H129234   6.732   0.480   1.807  0.6332  0.3395 -0.0087
 9763TIP3    H229235   6.776   0.369   1.714  1.5805  0.6211  0.0939
 9764TIP3   OH229236   4.469   1.039   3.058 -0.0185 -0.1895  0.3772
 9764TIP3    H129237   4.388   1.066   3.014 -0.6422 -0.8312  1.1172
 9764TIP3    H229238   4.504   1.120   3.094 -1.6907 -0.2314  2.2638
 9765TIP3   OH229239   7.514   2.755   6.329 -0.0500  0.4289  0.4162
 9765TIP3    H129240   7.505   2.692   6.400 -0.7476  0.5116  0.4143
 9765TIP3    H229241   7.600   2.794   6.342  0.9394 -1.3977 -0.3305
 9766TIP3   OH229242   2.296   3.796   3.206  0.5141  0.3084 -0.1825
 9766TIP3    H129243   2.206   3.763   3.206  0.7196 -0.3106  0.9209
 9766TIP3    H229244   2.322   3.795   3.298  0.6175  3.4316 -0.0843
 9767TIP3   OH229245   2.224   6.146   2.643  0.3093 -0.9559 -0.3281
 9767TIP3    H129246   2.225   6.135   2.738  1.6724 -0.1603 -0.2165
 9767TIP3    H229247   2.156   6.212   2.628  1.8519  0.9035  0.4043
 9768TIP3   OH229248   7.159   2.559   2.789 -0.0539  0.2224  0.2202
 9768TIP3    H129249   7.119   2.617   2.854 -0.9912 -0.0456 -0.0968
 9768TIP3    H229250   7.087   2.538   2.729  0.9323  0.9996 -1.2906
 9769TIP3   OH229251   4.871   1.224   6.662  0.1922  0.6789  0.5615
 9769TIP3    H129252   4.820   1.278   6.722  0.1675  0.5097  0.6973
 9769TIP3    H229253   4.888   1.280   6.587 -0.7472  0.5264  0.2291
 9770TIP3   OH229254   1.257   7.619   1.951 -0.0211 -0.0801  0.6807
 9770TIP3    H129255   1.351   7.632   1.933 -0.3525 -0.5781 -1.7583
 9770TIP3    H229256   1.252   7.532   1.990  0.7677  1.1053  3.6953
 9771TIP3   OH229257   7.800   4.765   5.602  0.3998  0.7643 -0.3247
 9771TIP3    H129258   7.876   4.734   5.650  0.3240  0.7030 -0.2445
 9771TIP3    H229259   7.725   4.724   5.646  0.2921  1.1440 -0.1500
 9772TIP3   OH229260   4.188   5.185   3.685 -0.4106  0.2513 -0.0928
 9772TIP3    H129261   4.100   5.218   3.699 -0.1349  1.0744 -0.2669
 9772TIP3    H229262   4.177   5.091   3.672 -1.4537  0.5824 -1.8741
 9773TIP3   OH229263   3.656   6.873   6.685  0.4909  0.0690 -0.1117
 9773TIP3    H129264   3.662   6.788   6.643 -0.9129  0.2101 -0.6335
 9773TIP3    H229265   3.666   6.855   6.779  1.2037 -0.5253 -0.2909
 9774TIP3   OH229266   3.818   2.058   3.694 -0.3174 -0.5115 -0.2478
 9774TIP3    H129267   3.743   2.003   3.719 -0.7937  0.0133 -0.5142
 9774TIP3    H229268   3.792   2.147   3.719 -0.7534  0.0274 -2.4020
 9775TIP3   OH229269   5.048   5.632   0.480  0.3961 -0.5906 -0.1105
 9775TIP3    H129270   5.122   5.576   0.501  0.0995 -1.4657 -1.2818
 9775TIP3    H229271   4.990   5.626   0.556  0.2826 -2.0544 -0.2916
 9776TIP3   OH229272   3.217   7.077   1.555 -0.2759 -0.0628  0.3276
 9776TIP3    H129273   3.298   7.114   1.590 -0.8137  0.3546  1.1414
 9776TIP3    H229274   3.236   7.063   1.462  0.1235  1.7612  0.0959
 9777TIP3   OH229275   0.397   4.002   6.005 -0.2432 -0.5237  0.1842
 9777TIP3    H129276   0.307   4.033   5.994 -0.6510 -2.0617 -1.3059
 9777TIP3    H229277   0.396   3.955   6.088 -0.5532  0.2528  0.6321
 9778TIP3   OH229278   7.824   6.947   5.597  0.5111  0.4334  0.2039
 9778TIP3    H129279   7.835   6.988   5.682  1.0468  1.1546 -0.2020
 9778TIP3    H229280   7.761   7.003   5.551  1.5470  1.0674 -0.4966
 9779TIP3   OH229281   4.641   0.465   1.846 -0.4068 -0.0897 -0.5911
 9779TIP3    H129282   4.735   0.465   1.827  0.1657  0.0987  1.9032
 9779TIP3    H229283   4.613   0.555   1.827  0.1118  0.0852 -0.5430
 9780TIP3   OH229284   5.526   4.322   5.330 -0.1401 -0.0379  0.0864
 9780TIP3    H129285   5.608   4.364   5.303 -1.1960  1.3391 -1.1542
 9780TIP3    H229286   5.512   4.253   5.265 -0.0765 -0.1476  0.1879
 9781TIP3   OH229287   3.553   6.815   5.934  1.0502 -0.1612  0.1566
 9781TIP3    H129288   3.542   6.838   5.842 -2.7484 -1.6391  0.0645
 9781TIP3    H229289   3.624   6.750   5.934  1.5421  0.3275 -1.6168
 9782TIP3   OH229290   7.510   4.202   0.619 -0.1766  1.0092  0.3053
 9782TIP3    H129291   7.565   4.141   0.669 -2.6592 -0.7734  1.0373
 9782TIP3    H229292   7.449   4.237   0.684 -2.0409  0.3715 -1.0496
 9783TIP3   OH229293   5.842   0.970   2.472 -0.1088 -0.1491  0.1887
 9783TIP3    H129294   5.881   1.013   2.396  0.4844  0.2083  0.6785
 9783TIP3    H229295   5.793   1.040   2.515  0.0719 -0.1922  0.4686
 9784TIP3   OH229296   2.558   0.254   3.189  0.3501  0.0753 -0.0042
 9784TIP3    H129297   2.628   0.188   3.189  0.4913  0.2198  0.5885
 9784TIP3    H229298   2.601   0.335   3.218  0.1820  0.4406 -0.7366
 9785TIP3   OH229299   3.382   6.785   5.277 -0.0472  0.2249  0.0791
 9785TIP3    H129300   3.302   6.740   5.305 -0.0865 -0.0144 -0.4133
 9785TIP3    H229301   3.374   6.791   5.182 -0.5317  2.2103  0.1920
 9786TIP3   OH229302   8.247   7.534   2.124 -0.0535  0.0716 -0.2205
 9786TIP3    H129303   8.159   7.512   2.092  0.8852 -1.7488 -1.7682
 9786TIP3    H229304   8.249   7.498   2.212 -1.1705  1.0277  0.2226
 9787TIP3   OH229305   4.067   7.534   3.021  0.1107  0.4632  0.2894
 9787TIP3    H129306   4.013   7.455   3.016  0.2492  0.4294 -0.7338
 9787TIP3    H229307   4.008   7.601   3.057 -0.8520  0.6167 -1.4966
 9788TIP3   OH229308   8.034   1.875   5.023 -0.3451 -0.3670  0.6632
 9788TIP3    H129309   8.003   1.877   4.932 -1.5460 -1.3537  1.0288
 9788TIP3    H229310   7.956   1.857   5.075 -0.0407  2.0899  2.1083
 9789TIP3   OH229311   3.674   3.902   5.428  0.4184  0.2807  0.1322
 9789TIP3    H129312   3.694   3.819   5.385  0.6193 -0.7400  2.1046
 9789TIP3    H229313   3.760   3.941   5.446  0.3541  0.3707  0.2428
 9790TIP3   OH229314   7.498   0.881   2.433  0.3778 -0.6275  0.4514
 9790TIP3    H129315   7.537   0.825   2.500 -0.2098 -1.0345  0.4527
 9790TIP3    H229316   7.404   0.872   2.445  0.2705  0.0208  0.1689
 9791TIP3   OH229317   1.215   2.895   0.927 -0.0417  0.5211 -0.3102
 9791TIP3    H129318   1.150   2.844   0.878  0.4805 -0.7508  0.2854
 9791TIP3    H229319   1.296   2.884   0.877 -0.0882  1.4804 -0.6294
 9792TIP3   OH229320   3.206   6.951   0.687 -0.6529 -0.3599 -0.4345
 9792TIP3    H129321   3.194   6.878   0.627 -3.7871  0.7736 -1.3642
 9792TIP3    H229322   3.233   6.911   0.769  3.0892 -2.0274 -2.2427
 9793TIP3   OH229323   7.604   3.366   2.748  0.1943 -0.3140  0.3652
 9793TIP3    H129324   7.690   3.330   2.727  1.0702  1.2832  1.0426
 9793TIP3    H229325   7.567   3.304   2.811  1.4947 -0.2812  1.2037
 9794TIP3   OH229326   2.737   0.762   4.980 -0.4177  0.5946  0.5314
 9794TIP3    H129327   2.789   0.722   4.909  1.3674  2.2893  0.7950
 9794TIP3    H229328   2.658   0.708   4.985  0.0257 -0.4154 -1.8111
 9795TIP3   OH229329   3.062   0.308   2.471 -0.2766 -0.0326  0.0633
 9795TIP3    H129330   3.062   0.365   2.395  1.0561  1.0785  0.8540
 9795TIP3    H229331   3.055   0.368   2.546  1.0458 -0.8842  0.9118
 9796TIP3   OH229332   1.015   0.851   2.986  0.2171 -0.2201  0.0667
 9796TIP3    H129333   0.997   0.775   3.042  0.1975 -0.4396 -0.2378
 9796TIP3    H229334   0.968   0.833   2.905  0.7711 -0.2067 -0.2648
 9797TIP3   OH229335   6.069   3.586   4.507  0.1917 -0.1591  0.2810
 9797TIP3    H129336   6.135   3.621   4.567 -1.1683  0.1044  1.6665
 9797TIP3    H229337   6.016   3.526   4.560 -0.7366 -0.3059 -0.7685
 9798TIP3   OH229338   3.892   4.050   3.647 -0.0083  0.2742  0.2091
 9798TIP3    H129339   3.888   4.007   3.733 -0.5889 -2.8848 -1.2913
 9798TIP3    H229340   3.801   4.075   3.629 -0.1899 -0.6637 -0.2174
 9799TIP3   OH229341   0.624   6.006   3.223 -0.5404  0.2441 -0.1452
 9799TIP3    H129342   0.649   6.093   3.255 -1.5771  0.6633 -0.4407
 9799TIP3    H229343   0.588   6.023   3.136 -0.5379 -0.5236 -0.3019
 9800TIP3   OH229344   1.283   4.550   0.833 -0.4858  0.4252  0.4185
 9800TIP3    H129345   1.329   4.497   0.898 -1.1545  0.3780  0.8550
 9800TIP3    H229346   1.320   4.521   0.749 -0.7883 -0.6798  0.6513
 9801TIP3   OH229347   7.486   3.845   0.566  0.3688 -0.2864  0.4673
 9801TIP3    H129348   7.449   3.842   0.654  1.8765  1.3533  1.2149
 9801TIP3    H229349   7.512   3.754   0.548 -1.3071 -0.9206  1.0610
 9802TIP3   OH229350   8.228   6.512   4.043  0.6380 -0.8156 -0.2950
 9802TIP3    H129351   8.240   6.419   4.024 -1.4226 -1.4220  1.0557
 9802TIP3    H229352   8.168   6.543   3.976  1.9310 -0.2002 -1.2255
 9803TIP3   OH229353   1.346   2.334   0.232  0.0511 -0.2955  0.2166
 9803TIP3    H129354   1.355   2.238   0.235  0.8947 -0.3741 -2.6012
 9803TIP3    H229355   1.277   2.350   0.168 -0.5898  1.0064  1.1862
 9804TIP3   OH229356   3.926   2.557   3.074  0.5570  0.3886  0.1715
 9804TIP3    H129357   3.986   2.484   3.093 -1.2373 -1.1286  0.3442
 9804TIP3    H229358   3.957   2.628   3.129  1.5889 -0.6830  1.0370
 9805TIP3   OH229359   7.339   1.679   4.844  0.1426 -0.5710  0.2641
 9805TIP3    H129360   7.356   1.728   4.763 -0.6243 -0.3086  0.2480
 9805TIP3    H229361   7.388   1.597   4.833  3.7259  1.2016  1.4548
 9806TIP3   OH229362   4.583   6.884   4.823  0.4265 -0.0380  0.1464
 9806TIP3    H129363   4.533   6.803   4.829  0.6949 -0.2577 -0.4399
 9806TIP3    H229364   4.548   6.927   4.745  1.3914 -0.3792 -0.5024
 9807TIP3   OH229365   4.031   5.222   4.038  0.0564  0.2609  0.3469
 9807TIP3    H129366   3.999   5.250   3.951 -1.1878  0.9132  0.9772
 9807TIP3    H229367   4.053   5.304   4.082 -1.0810  0.0987  1.2814
 9808TIP3   OH229368   4.524   1.675   4.841 -0.3083 -0.0442 -0.3306
 9808TIP3    H129369   4.596   1.734   4.817 -0.5485 -0.1544 -1.3424
 9808TIP3    H229370   4.445   1.725   4.825 -0.6286 -1.3254 -3.3949
 9809TIP3   OH229371   7.781   0.217   5.444  0.7120  0.5197  0.3918
 9809TIP3    H129372   7.857   0.219   5.386  0.4008  0.8331 -0.0085
 9809TIP3    H229373   7.751   0.126   5.441 -0.2151  0.8465 -1.1444
 9810TIP3   OH229374   5.048   4.938   0.359  0.0990  0.1073  0.1176
 9810TIP3    H129375   4.997   4.888   0.294 -0.7119  1.0411  0.0216
 9810TIP3    H229376   5.130   4.958   0.314  0.1818 -0.5929 -0.0622
 9811TIP3   OH229377   1.705   4.991   6.419 -0.2880 -0.0428  0.0700
 9811TIP3    H129378   1.748   5.071   6.389 -1.7007  0.3924 -0.9249
 9811TIP3    H229379   1.651   4.964   6.344 -0.7228 -1.2750  0.8086
 9812TIP3   OH229380   7.197   1.909   0.254 -0.0238 -0.4817 -0.6701
 9812TIP3    H129381   7.127   1.916   0.319  0.8134  0.7779  0.1455
 9812TIP3    H229382   7.183   1.824   0.213 -3.2882  0.5524 -2.0345
 9813TIP3   OH229383   1.575   2.746   6.330 -0.0450  0.4100 -0.2886
 9813TIP3    H129384   1.601   2.751   6.422  0.6770 -0.5671 -0.4277
 9813TIP3    H229385   1.654   2.772   6.282  0.7484 -2.5034 -0.7197
 9814TIP3   OH229386   4.027   1.347   6.035  0.2388  0.6555  0.0689
 9814TIP3    H129387   3.986   1.269   6.073 -0.9042  0.0757 -2.1933
 9814TIP3    H229388   3.957   1.412   6.030 -0.2065  0.0908 -2.6416
 9815TIP3   OH229389   4.240   4.691   4.621 -0.1534 -0.4956 -0.0639
 9815TIP3    H129390   4.296   4.618   4.646  0.4577  0.5653  1.8569
 9815TIP3    H229391   4.164   4.683   4.679  0.7779  1.3905  1.5273
 9816TIP3   OH229392   4.396   3.226   6.129  0.0805 -0.4875  0.8349
 9816TIP3    H129393   4.406   3.230   6.034 -0.3265  0.0641  0.8128
 9816TIP3    H229394   4.365   3.137   6.146 -0.3760 -0.4140  0.3986
 9817TIP3   OH229395   3.125   6.499   3.679  0.2966 -0.4597 -0.3018
 9817TIP3    H129396   3.159   6.452   3.756  0.8707 -0.4507 -0.5429
 9817TIP3    H229397   3.069   6.567   3.715  2.0746  0.8043  0.2279
 9818TIP3   OH229398   5.008   2.273   5.334  0.6387 -0.5166  0.1097
 9818TIP3    H129399   5.048   2.357   5.357 -0.3591  0.0581 -0.2069
 9818TIP3    H229400   5.065   2.237   5.266 -0.5310  1.3354 -1.9790
 9819TIP3   OH229401   8.051   4.721   1.626 -0.5546  0.1448  0.1779
 9819TIP3    H129402   8.118   4.790   1.630 -1.0936  0.6401  1.0097
 9819TIP3    H229403   7.972   4.762   1.662 -0.6178 -1.1988  1.6957
 9820TIP3   OH229404   4.448   3.079   1.358 -0.2472  0.0397 -0.8144
 9820TIP3    H129405   4.468   2.985   1.360 -2.3903 -0.4879 -1.5407
 9820TIP3    H229406   4.386   3.089   1.285  0.0192  2.0437 -0.8247
 9821TIP3   OH229407   0.269   3.487   3.215 -0.0638 -0.5893  0.5845
 9821TIP3    H129408   0.348   3.462   3.264 -0.0236 -0.8474  0.3923
 9821TIP3    H229409   0.293   3.570   3.173  0.9843 -1.8517 -1.4423
 9822TIP3   OH229410   2.879   1.590   5.798 -0.4455  0.2083 -0.2972
 9822TIP3    H129411   2.852   1.679   5.820 -0.2917 -0.0065  0.8033
 9822TIP3    H229412   2.849   1.578   5.708  0.2622  1.6597 -0.7738
 9823TIP3   OH229413   4.052   1.099   2.942 -0.4015  0.0740 -0.1605
 9823TIP3    H129414   3.995   1.156   2.890 -0.2798  0.1013 -0.2634
 9823TIP3    H229415   4.136   1.101   2.897 -0.3954 -0.1839 -0.1662
 9824TIP3   OH229416   8.135   3.322   1.525 -0.2209 -0.4939  0.0120
 9824TIP3    H129417   8.056   3.374   1.509 -0.4426 -0.9384 -0.3890
 9824TIP3    H229418   8.155   3.336   1.618  1.3758  2.5623 -0.6521
 9825TIP3   OH229419   0.828   2.029   3.162 -0.2346  0.1805  0.4458
 9825TIP3    H129420   0.777   1.964   3.114  1.8534 -2.8586  1.9677
 9825TIP3    H229421   0.767   2.064   3.227 -1.1211 -1.3403  0.4886
 9826TIP3   OH229422   1.962   0.645   0.870 -0.5561 -0.4333 -0.3216
 9826TIP3    H129423   1.958   0.603   0.785 -0.6783  0.0360 -0.5541
 9826TIP3    H229424   1.885   0.611   0.917 -0.5684 -0.5828 -0.4505
 9827TIP3   OH229425   8.127   2.256   0.013  0.2861  0.1830  0.1319
 9827TIP3    H129426   8.138   2.350   0.026  1.5441 -0.0451  0.9333
 9827TIP3    H229427   8.070   2.229   0.084  1.1997  0.1130  0.8624
 9828TIP3   OH229428   0.329   1.840   6.225 -0.0038  0.0006  0.0701
 9828TIP3    H129429   0.401   1.863   6.283  0.0299 -0.0230  0.0380
 9828TIP3    H229430   0.251   1.873   6.269 -0.3557 -2.6398  1.6637
 9829TIP3   OH229431   4.667   2.989   6.539  0.4372  0.3440  0.0729
 9829TIP3    H129432   4.626   2.911   6.577 -1.0032  0.3360 -1.3900
 9829TIP3    H229433   4.743   3.005   6.594  0.9070 -2.2229  0.3080
 9830TIP3   OH229434   7.236   2.966   2.448  0.5167  0.7353 -0.3587
 9830TIP3    H129435   7.291   2.897   2.485 -1.4044 -2.1417 -2.3844
 9830TIP3    H229436   7.174   2.988   2.518  0.0452 -0.9523 -0.2063
 9831TIP3   OH229437   6.412   6.495   1.090 -0.2705 -0.6181 -0.1112
 9831TIP3    H129438   6.415   6.416   1.143 -2.0644  0.0592  1.0988
 9831TIP3    H229439   6.328   6.536   1.112  0.7275  1.7828 -0.4644
 9832TIP3   OH229440   6.248   7.796   2.203 -0.2696  0.5946  0.1151
 9832TIP3    H129441   6.176   7.846   2.165 -1.3623 -0.3198  0.8997
 9832TIP3    H229442   6.287   7.750   2.129 -0.5679  0.9918 -0.2952
 9833TIP3   OH229443   1.655   4.649   1.828 -0.1717 -0.3400 -0.2710
 9833TIP3    H129444   1.732   4.649   1.885  0.1648 -0.6760 -0.7084
 9833TIP3    H229445   1.635   4.556   1.815 -2.8829 -0.3161  2.7416
 9834TIP3   OH229446   4.005   6.953   3.502 -0.2750 -0.3126  0.1293
 9834TIP3    H129447   3.918   6.981   3.476  0.9621  1.2271 -2.8598
 9834TIP3    H229448   4.011   6.862   3.472 -0.1738  0.2605 -1.6965
 9835TIP3   OH229449   5.217   0.021   1.098  0.5968  0.1923 -0.4604
 9835TIP3    H129450   5.313   0.017   1.101  0.8540  3.7171  1.0888
 9835TIP3    H229451   5.198   0.063   1.014  0.4068 -0.2493 -0.6407
 9836TIP3   OH229452   0.263   6.138   0.643 -0.3116  0.1099 -0.5021
 9836TIP3    H129453   0.296   6.101   0.561  0.4935 -2.3777  0.8323
 9836TIP3    H229454   0.257   6.063   0.702 -4.4409  1.0793  0.6766
 9837TIP3   OH229455   2.907   4.755   5.667  0.2172  0.1061  0.6379
 9837TIP3    H129456   2.849   4.706   5.726  2.1197 -0.5750  2.0668
 9837TIP3    H229457   2.972   4.690   5.639  0.2944  0.8275 -0.9263
 9838TIP3   OH229458   4.060   4.825   6.337 -0.3022  0.1231  0.0542
 9838TIP3    H129459   4.111   4.749   6.363 -1.5635 -0.5012  0.8479
 9838TIP3    H229460   4.038   4.810   6.245  0.5152  0.1707 -0.1541
 9839TIP3   OH229461   2.499   6.533   1.661 -0.3118  0.1789 -0.0383
 9839TIP3    H129462   2.432   6.520   1.729  0.1532  1.6274  0.7178
 9839TIP3    H229463   2.567   6.470   1.683 -0.0352  0.8275  1.0318
 9840TIP3   OH229464   4.022   4.267   5.575 -0.5617  0.3019  0.0743
 9840TIP3    H129465   4.021   4.225   5.489  2.1050  0.8287 -0.3129
 9840TIP3    H229466   4.065   4.204   5.633  0.2117  1.0235  0.3246
 9841TIP3   OH229467   3.891   3.611   0.484 -0.1679 -0.9693  0.0503
 9841TIP3    H129468   3.985   3.612   0.499 -0.1075 -0.2326 -0.3168
 9841TIP3    H229469   3.867   3.704   0.478 -1.0199 -1.1176  0.7988
 9842TIP3   OH229470   3.734   5.514   0.005  0.6240 -0.3053  0.2375
 9842TIP3    H129471   3.645   5.478   0.016 -0.3417  2.1576  1.1500
 9842TIP3    H229472   3.776   5.500   0.089 -0.0788  1.3909  0.9166
 9843TIP3   OH229473   1.276   3.575   1.898  0.6588  0.1201 -0.0994
 9843TIP3    H129474   1.293   3.481   1.906  0.7432  0.1768  0.3849
 9843TIP3    H229475   1.339   3.604   1.832  0.2640 -0.2593 -0.6519
 9844TIP3   OH229476   0.712   1.486   0.780  0.0132 -0.2030  0.2714
 9844TIP3    H129477   0.748   1.403   0.747 -0.6960  0.9452 -3.9714
 9844TIP3    H229478   0.700   1.471   0.874  1.4296 -4.2896  0.0131
 9845TIP3   OH229479   7.685   6.414   4.367 -0.2711 -0.2766 -0.0862
 9845TIP3    H129480   7.692   6.319   4.359 -1.2411 -0.7706  3.2244
 9845TIP3    H229481   7.775   6.445   4.374  0.0304 -0.9729 -0.7579
 9846TIP3   OH229482   3.134   5.660   0.331  0.1518  0.5177  0.5154
 9846TIP3    H129483   3.210   5.633   0.382 -0.3843 -0.3818  0.8583
 9846TIP3    H229484   3.129   5.755   0.343  1.5202  0.6690  0.0504
 9847TIP3   OH229485   2.662   3.175   4.674 -0.4696  0.5308  0.2927
 9847TIP3    H129486   2.694   3.181   4.764 -0.2436 -1.0234  0.3302
 9847TIP3    H229487   2.739   3.191   4.620 -0.8695  2.9253  0.3124
 9848TIP3   OH229488   2.676   6.601   3.834 -0.4651 -0.5883 -0.9864
 9848TIP3    H129489   2.651   6.527   3.778  1.3512 -2.5719  0.6409
 9848TIP3    H229490   2.763   6.626   3.803  0.7986 -2.0535  1.1247
 9849TIP3   OH229491   5.724   6.750   4.132  0.6311 -0.0842 -0.2507
 9849TIP3    H129492   5.709   6.784   4.044  2.4273 -0.5042 -0.7551
 9849TIP3    H229493   5.810   6.784   4.157 -0.4069  1.1800  1.9409
 9850TIP3   OH229494   4.271   7.404   6.015 -0.0670 -0.0328  0.0222
 9850TIP3    H129495   4.360   7.431   5.991  0.7619 -2.8272 -0.4722
 9850TIP3    H229496   4.229   7.385   5.931 -1.0967  1.0569  0.2683
 9851TIP3   OH229497   7.648   2.385   6.687  0.5702  0.2444  0.5803
 9851TIP3    H129498   7.727   2.345   6.723  1.1832  0.1582 -0.7757
 9851TIP3    H229499   7.587   2.388   6.760  1.4672 -0.6392  1.4026
 9852TIP3   OH229500   1.860   1.922   6.379 -0.3363  0.1178 -0.6673
 9852TIP3    H129501   1.942   1.906   6.425 -0.2325 -1.6369 -1.3890
 9852TIP3    H229502   1.850   2.017   6.380  1.5816  0.3547 -0.3676
 9853TIP3   OH229503   5.622   5.746   5.097  0.3973  0.0245 -0.3122
 9853TIP3    H129504   5.599   5.818   5.156  0.8760 -0.5753  0.6242
 9853TIP3    H229505   5.603   5.667   5.147 -0.3420 -0.5211 -1.4146
 9854TIP3   OH229506   3.840   3.007   0.786 -0.2523 -0.1284  0.1673
 9854TIP3    H129507   3.867   3.072   0.851  1.2448  1.2000 -1.6775
 9854TIP3    H229508   3.757   3.040   0.753  0.4475  0.8796 -0.6858
 9855TIP3   OH229509   4.445   2.274   5.316  0.6404 -0.1517 -0.0148
 9855TIP3    H129510   4.366   2.261   5.263 -0.1338 -0.2208  1.1171
 9855TIP3    H229511   4.516   2.243   5.261 -0.0611  0.3965 -1.2670
 9856TIP3   OH229512   1.726   4.196   6.322  0.4260  0.1082 -0.3051
 9856TIP3    H129513   1.774   4.275   6.297  0.9045  0.5756  1.8591
 9856TIP3    H229514   1.667   4.225   6.392  0.5124 -1.4084  0.4445
 9857TIP3   OH229515   6.343   4.006   2.761  0.1533 -0.1510 -0.0611
 9857TIP3    H129516   6.325   3.996   2.855 -1.3773 -1.4374 -0.4393
 9857TIP3    H229517   6.296   4.086   2.737  0.6709  0.2635  0.2848
 9858TIP3   OH229518   1.418   3.201   2.449  0.6605 -0.2863  0.2911
 9858TIP3    H129519   1.335   3.218   2.493  0.0311 -0.2219 -0.8884
 9858TIP3    H229520   1.408   3.240   2.363  2.0224 -0.0524  0.2174
 9859TIP3   OH229521   0.769   5.978   2.459 -0.1582  0.7027  0.4474
 9859TIP3    H129522   0.796   5.978   2.367  0.7174  0.1875  0.6943
 9859TIP3    H229523   0.825   6.043   2.501 -0.9761  1.3865  0.5156
 9860TIP3   OH229524   3.630   6.866   3.149  0.4634  0.2605  0.1928
 9860TIP3    H129525   3.568   6.899   3.215 -1.5416 -1.7610 -0.5456
 9860TIP3    H229526   3.579   6.860   3.068  1.5269 -1.6495 -0.4218
 9861TIP3   OH229527   5.207   4.103   0.369  0.1638 -0.1668 -0.1905
 9861TIP3    H129528   5.244   4.089   0.457  0.3026 -0.6585 -0.3219
 9861TIP3    H229529   5.264   4.169   0.330 -0.8845  1.2932  0.6769
 9862TIP3   OH229530   4.531   1.043   0.659 -0.2849 -0.2430 -0.0930
 9862TIP3    H129531   4.524   1.138   0.648 -0.2165 -0.2108  0.1337
 9862TIP3    H229532   4.625   1.025   0.648 -0.5003 -0.4989 -1.7861
 9863TIP3   OH229533   0.673   1.007   1.443 -0.3941  0.1857  0.8769
 9863TIP3    H129534   0.669   0.912   1.431 -4.7762  0.2741 -0.0484
 9863TIP3    H229535   0.726   1.038   1.370  1.5769 -1.5032  1.4976
 9864TIP3   OH229536   3.400   1.002   5.746  0.1288 -0.0518 -0.4210
 9864TIP3    H129537   3.435   0.960   5.825 -1.1084 -0.5890 -0.1331
 9864TIP3    H229538   3.360   1.084   5.778 -0.3791 -0.2726 -0.4747
 9865TIP3   OH229539   2.416   6.436   5.765  0.1206 -0.3332  0.3849
 9865TIP3    H129540   2.473   6.399   5.697  0.7729  0.7722  0.3084
 9865TIP3    H229541   2.458   6.411   5.847 -0.9686 -2.1561  0.4489
 9866TIP3   OH229542   3.706   4.593   2.874  0.3910 -0.4369 -0.4414
 9866TIP3    H129543   3.637   4.628   2.818  0.7077 -0.4794 -0.8670
 9866TIP3    H229544   3.697   4.498   2.866  0.1840 -0.4457 -0.1037
 9867TIP3   OH229545   6.045   3.498   1.040  0.1695  0.0505 -0.2822
 9867TIP3    H129546   6.020   3.501   1.132  1.8040 -0.9983  0.2460
 9867TIP3    H229547   5.975   3.446   0.998 -1.7048  2.2755 -0.1078
 9868TIP3   OH229548   0.695   1.411   1.050  0.0276 -0.3722  0.0649
 9868TIP3    H129549   0.626   1.345   1.059  0.3832 -0.8681 -0.8201
 9868TIP3    H229550   0.648   1.495   1.047 -0.5864 -0.7368 -1.0008
 9869TIP3   OH229551   2.152   3.025   2.853  0.0485 -0.1826  0.2661
 9869TIP3    H129552   2.067   2.982   2.851 -0.3041  0.4921  0.3636
 9869TIP3    H229553   2.216   2.954   2.840 -0.4389 -0.9209  1.6608
 9870TIP3   OH229554   2.079   0.791   1.074 -0.1366  0.2656 -1.0202
 9870TIP3    H129555   2.031   0.751   1.147  1.9405 -0.4975  0.0098
 9870TIP3    H229556   2.041   0.752   0.996 -0.1933 -1.4877 -0.1680
 9871TIP3   OH229557   3.880   2.345   5.788 -0.7579  0.5284 -0.0679
 9871TIP3    H129558   3.901   2.432   5.820 -1.3288  1.1354 -1.2732
 9871TIP3    H229559   3.960   2.294   5.801  0.0579  1.6223 -0.6653
 9872TIP3   OH229560   7.600   3.049   2.502 -0.1734 -0.1809 -0.8105
 9872TIP3    H129561   7.690   3.079   2.520 -0.2646 -0.1646 -0.3745
 9872TIP3    H229562   7.611   2.965   2.458  0.0423 -0.7060  0.2222
 9873TIP3   OH229563   4.098   6.671   2.403  0.0920  0.7444  0.0195
 9873TIP3    H129564   4.027   6.647   2.462 -0.1706  0.6353 -0.3397
 9873TIP3    H229565   4.069   6.753   2.363  0.1505  0.6820 -0.1519
 9874TIP3   OH229566   3.785   1.315   2.898 -0.3558  0.0934  0.4025
 9874TIP3    H129567   3.708   1.258   2.897 -0.2979 -0.0567  1.7071
 9874TIP3    H229568   3.841   1.283   2.827 -1.1020 -0.3611  0.0116
 9875TIP3   OH229569   1.180   1.861   6.489  0.2133  0.1445 -0.2151
 9875TIP3    H129570   1.086   1.859   6.505  0.3012  1.1842  0.5756
 9875TIP3    H229571   1.198   1.952   6.467  1.0973  0.0489  0.0836
 9876TIP3   OH229572   1.758   5.097   0.260 -0.8747  0.6443  0.0793
 9876TIP3    H129573   1.663   5.104   0.258 -0.9089  0.0167 -0.8718
 9876TIP3    H229574   1.775   5.004   0.274 -0.4022  0.6864 -0.1918
 9877TIP3   OH229575   8.001   4.381   2.748 -0.1038  0.3169  0.4985
 9877TIP3    H129576   7.974   4.471   2.764 -0.7510  0.3450 -0.6439
 9877TIP3    H229577   7.954   4.330   2.814 -1.4518  0.5942 -0.2118
 9878TIP3   OH229578  -0.022   4.736   5.782 -0.2407  0.5047  0.1493
 9878TIP3    H129579   0.017   4.818   5.814 -0.4362  0.8327 -0.4392
 9878TIP3    H229580   0.018   4.668   5.836  0.4649  0.9206  0.1598
 9879TIP3   OH229581   3.628   4.407   0.400 -0.1646 -0.2433  0.3179
 9879TIP3    H129582   3.646   4.477   0.337  1.3344 -0.4535  0.4654
 9879TIP3    H229583   3.545   4.370   0.372 -0.6112  1.0928 -0.2241
 9880TIP3   OH229584   0.122   0.608   5.967 -0.1079 -0.8180  0.0419
 9880TIP3    H129585   0.069   0.592   6.045 -0.9402 -0.6312 -0.4751
 9880TIP3    H229586   0.064   0.656   5.908  0.9299  0.2173 -0.1790
 9881TIP3   OH229587   4.306   4.658   5.428  0.5959 -0.6939  0.0303
 9881TIP3    H129588   4.290   4.578   5.477  1.3999 -0.8104  0.1090
 9881TIP3    H229589   4.359   4.631   5.353 -0.5052 -0.5024 -0.8580
 9882TIP3   OH229590   1.902   3.650   3.324 -0.3931  0.3301  0.0386
 9882TIP3    H129591   1.940   3.737   3.315  1.0036 -0.2576 -0.1270
 9882TIP3    H229592   1.957   3.606   3.389 -2.2199  0.1571  1.5377
 9883TIP3   OH229593   5.650   2.075   6.754  0.2684 -0.1341  0.6333
 9883TIP3    H129594   5.711   2.025   6.700 -1.0393 -0.0958 -0.9400
 9883TIP3    H229595   5.679   2.166   6.746 -1.1645  0.1773 -1.8474
 9884TIP3   OH229596   7.027   1.599   1.676 -0.0777 -0.0028 -0.0437
 9884TIP3    H129597   7.045   1.514   1.636  2.3674  0.0537  0.8059
 9884TIP3    H229598   6.956   1.581   1.738  1.0244 -1.6740  0.8146
 9885TIP3   OH229599   1.105   4.348   1.008 -0.0122 -0.0303  0.4346
 9885TIP3    H129600   1.198   4.360   0.990 -0.0086  0.3780  0.7206
 9885TIP3    H229601   1.091   4.254   0.999  0.6971 -0.2700  1.7027
 9886TIP3   OH229602   2.701   4.756   3.734  0.2046  0.4279 -0.3975
 9886TIP3    H129603   2.765   4.808   3.686  0.4230  1.1474  0.6506
 9886TIP3    H229604   2.636   4.819   3.765 -0.4934 -0.1656 -0.6094
 9887TIP3   OH229605   0.512   0.957   5.942 -0.0566 -1.1273 -0.7367
 9887TIP3    H129606   0.510   0.861   5.948  0.6263 -1.1979 -1.4808
 9887TIP3    H229607   0.459   0.977   5.865  0.9363 -1.0058 -1.4048
 9888TIP3   OH229608   1.126   2.825   6.732 -0.3527  0.3692  0.3098
 9888TIP3    H129609   1.155   2.895   6.674 -2.3148  1.5783  0.6998
 9888TIP3    H229610   1.030   2.825   6.724 -0.6172 -0.1851  2.6414
 9889TIP3   OH229611   6.655   4.463   2.748  0.5186 -0.2425  0.3891
 9889TIP3    H129612   6.619   4.400   2.811  0.7732  0.6973  1.5267
 9889TIP3    H229613   6.730   4.419   2.710 -0.4249 -1.3430 -0.2778
 9890TIP3   OH229614   5.348   7.055   2.493 -0.3083  0.6492  0.0440
 9890TIP3    H129615   5.283   7.083   2.557 -0.2201  1.8237 -0.3437
 9890TIP3    H229616   5.417   7.122   2.500  0.0957  0.3094 -0.6691
 9891TIP3   OH229617   7.264   2.783   1.185 -0.4974 -0.0309  0.0497
 9891TIP3    H129618   7.351   2.819   1.203 -0.6304  0.3558 -0.0672
 9891TIP3    H229619   7.214   2.858   1.151 -1.6240  0.3764  2.4073
 9892TIP3   OH229620   3.651   2.799   6.299 -0.2990  0.0212 -0.0205
 9892TIP3    H129621   3.578   2.808   6.238  0.3198 -0.8325 -0.9085
 9892TIP3    H229622   3.678   2.707   6.291  0.5982  0.2114  0.6186
 9893TIP3   OH229623   6.314   6.737   1.285  0.0750  0.0368  0.3332
 9893TIP3    H129624   6.251   6.793   1.330 -1.0956 -0.5313 -0.5339
 9893TIP3    H229625   6.331   6.783   1.202 -1.1566 -0.9890 -0.5393
 9894TIP3   OH229626   6.869   3.095   5.613  0.1087 -0.5711 -0.2841
 9894TIP3    H129627   6.815   3.174   5.605 -0.9459 -1.4170 -2.4993
 9894TIP3    H229628   6.958   3.125   5.595 -0.2717  0.1408 -1.0424
 9895TIP3   OH229629   3.600   2.100   1.749  0.3476 -0.0681  0.7398
 9895TIP3    H129630   3.668   2.049   1.794  0.5046 -0.7405 -0.2374
 9895TIP3    H229631   3.521   2.047   1.757  0.2625  0.0447  0.6426
 9896TIP3   OH229632   6.860   1.791   4.257 -0.4174  0.6796 -0.2841
 9896TIP3    H129633   6.851   1.810   4.350  0.5457  1.2516 -0.3018
 9896TIP3    H229634   6.910   1.709   4.254 -0.1495  0.8426 -0.3009
 9897TIP3   OH229635   0.130   4.100   4.865  0.4782 -0.5283 -0.0913
 9897TIP3    H129636   0.122   4.195   4.856  1.1614 -0.2270  1.9924
 9897TIP3    H229637   0.098   4.081   4.953 -2.7555 -2.7146 -1.5523
 9898TIP3   OH229638   5.096   7.819   5.984  0.4590  0.4483 -0.1795
 9898TIP3    H129639   5.069   7.864   5.903 -0.4279 -0.1497 -0.2264
 9898TIP3    H229640   5.056   7.732   5.977  0.0794  0.5106  1.0646
 9899TIP3   OH229641   7.629   6.947   6.368  0.3723  0.5302  0.2556
 9899TIP3    H129642   7.702   6.890   6.394  0.4504  0.4496 -0.1326
 9899TIP3    H229643   7.633   7.020   6.429  0.1501  0.0257  0.8865
 9900TIP3   OH229644   7.714   0.551   0.397  0.3298 -0.6171  0.2883
 9900TIP3    H129645   7.708   0.468   0.349 -0.8489 -0.1338 -0.4517
 9900TIP3    H229646   7.739   0.615   0.331  0.6156 -0.2756  0.7232
 9901TIP3   OH229647   8.061   4.836   4.021 -0.8205 -0.0698  0.1220
 9901TIP3    H129648   8.059   4.756   4.073 -0.1886 -0.6506 -0.7236
 9901TIP3    H229649   8.075   4.906   4.085  1.1781 -0.8780  0.6560
 9902TIP3   OH229650   8.075   6.375   4.608 -0.2718 -0.3528 -0.8345
 9902TIP3    H129651   8.080   6.445   4.674 -0.7559 -1.0996  0.0188
 9902TIP3    H229652   8.106   6.416   4.527  1.1218  0.3620  0.0220
 9903TIP3   OH229653   1.800   2.952   0.196 -0.0802  0.2724 -0.6378
 9903TIP3    H129654   1.871   2.888   0.191  1.6312  1.4407  3.4834
 9903TIP3    H229655   1.842   3.036   0.176 -0.8872  0.7252 -0.4862
 9904TIP3   OH229656   1.058   3.056   1.678 -0.5233 -0.0938 -0.2093
 9904TIP3    H129657   1.078   2.971   1.639 -0.6702 -0.0010 -0.4872
 9904TIP3    H229658   0.978   3.041   1.727 -0.3737 -0.1947  0.0050
 9905TIP3   OH229659   7.682   2.513   6.139  0.3822 -0.0569 -0.0426
 9905TIP3    H129660   7.611   2.564   6.100 -0.0367  0.5825  1.4938
 9905TIP3    H229661   7.751   2.578   6.157  0.4745 -0.3002  0.4874
 9906TIP3   OH229662   3.770   0.797   3.805  0.3190 -0.1600  0.1795
 9906TIP3    H129663   3.763   0.738   3.730  0.5981  0.4306 -0.3232
 9906TIP3    H229664   3.691   0.849   3.803 -0.9034 -1.7956  1.7863
 9907TIP3   OH229665   7.140   5.544   4.284  0.0822  0.5631 -0.6133
 9907TIP3    H129666   7.107   5.501   4.363 -0.3230  0.6030 -0.7581
 9907TIP3    H229667   7.139   5.637   4.304 -0.1872  0.5855 -0.7248
 9908TIP3   OH229668   4.762   4.578   4.923 -0.6666 -0.2922 -0.3426
 9908TIP3    H129669   4.735   4.665   4.892 -0.1885  0.2567  0.7304
 9908TIP3    H229670   4.740   4.578   5.016  0.8282 -0.7151  0.0351
 9909TIP3   OH229671   0.081   2.150   1.449  0.8342 -0.8115  0.0700
 9909TIP3    H129672   0.047   2.077   1.398  2.6900 -1.5009 -0.2626
 9909TIP3    H229673   0.175   2.151   1.429  0.9230  1.4075  0.3960
 9910TIP3   OH229674   3.990   6.505   1.404 -0.3428 -0.0685 -0.0514
 9910TIP3    H129675   3.897   6.520   1.387 -0.4001  0.0045  0.3180
 9910TIP3    H229676   3.995   6.493   1.499 -0.0990 -0.9158 -0.1586
 9911TIP3   OH229677   1.253   5.067   1.000  0.3890 -0.5918  0.2431
 9911TIP3    H129678   1.163   5.082   0.974  0.6340  0.3217 -0.1160
 9911TIP3    H229679   1.273   5.139   1.060  0.7703 -0.9915  0.6077
 9912TIP3   OH229680   3.388   3.845   2.191  1.1042 -0.1772  0.1553
 9912TIP3    H129681   3.326   3.776   2.216  1.1890 -0.2018  0.2983
 9912TIP3    H229682   3.362   3.869   2.102  1.0680 -0.3884  0.1071
 9913TIP3   OH229683   0.979   6.539   5.700  0.3543 -0.4022  0.1538
 9913TIP3    H129684   1.063   6.505   5.729  0.2651  0.0505  0.9767
 9913TIP3    H229685   0.945   6.586   5.776  0.4870  1.5287 -0.9244
 9914TIP3   OH229686   3.661   4.110   0.241 -0.0001 -0.2792 -0.5280
 9914TIP3    H129687   3.569   4.102   0.268 -0.8530  2.6315 -2.1355
 9914TIP3    H229688   3.656   4.136   0.149  2.3203  2.3190 -0.0293
 9915TIP3   OH229689   5.700   0.143   1.199 -0.5892  0.1205 -0.2337
 9915TIP3    H129690   5.740   0.201   1.264 -1.1579 -0.6621  0.8336
 9915TIP3    H229691   5.696   0.197   1.120 -0.2317  1.2256  0.4688
 9916TIP3   OH229692   2.778   1.229   2.656 -0.7102 -0.0363 -0.0091
 9916TIP3    H129693   2.707   1.230   2.720  1.1796  0.3361  2.1894
 9916TIP3    H229694   2.768   1.311   2.608 -2.0821 -0.2651 -0.1638
 9917TIP3   OH229695   5.626   3.431   3.778  0.2759 -0.3947  0.7851
 9917TIP3    H129696   5.586   3.518   3.771  1.7268  0.3100  0.8822
 9917TIP3    H229697   5.655   3.426   3.869  0.9555 -0.6330  0.5604
 9918TIP3   OH229698   7.428   6.438   0.664  0.3253 -0.3947  0.4493
 9918TIP3    H129699   7.497   6.402   0.720 -0.0068 -0.0370  1.0964
 9918TIP3    H229700   7.430   6.532   0.681 -1.0847 -0.5041  1.3453
 9919TIP3   OH229701   3.349   6.049   0.699 -0.1948 -0.1344  0.7694
 9919TIP3    H129702   3.420   5.995   0.664 -0.5894 -1.5553  2.0198
 9919TIP3    H229703   3.271   5.995   0.688 -0.8234  0.7281  0.8967
 9920TIP3   OH229704   8.012   1.217   3.532  0.9927  0.0684 -0.2231
 9920TIP3    H129705   8.052   1.303   3.521 -1.3258  1.2863  0.4638
 9920TIP3    H229706   7.971   1.198   3.447 -0.1998  0.5753  0.2257
 9921TIP3   OH229707   5.430   7.666   1.158 -0.2458  0.2385  0.0759
 9921TIP3    H129708   5.452   7.745   1.109 -0.3608  0.5335  0.4987
 9921TIP3    H229709   5.511   7.641   1.202  0.6396 -1.5466 -2.3273
 9922TIP3   OH229710   7.492   4.924   0.757  0.0612 -0.2039 -0.0654
 9922TIP3    H129711   7.561   4.876   0.802 -0.0901 -0.1682  0.2063
 9922TIP3    H229712   7.420   4.861   0.750 -0.2990  0.1154  0.6829
 9923TIP3   OH229713   6.852   7.317   6.220  0.0466 -0.3086  0.5234
 9923TIP3    H129714   6.827   7.392   6.273  1.0114 -0.7186  1.5960
 9923TIP3    H229715   6.938   7.342   6.184  0.6450 -1.1182  1.3642
 9924TIP3   OH229716   2.543   0.886   1.760  0.0804  0.3910  0.4969
 9924TIP3    H129717   2.558   0.869   1.853  1.6834  0.1558  0.2301
 9924TIP3    H229718   2.474   0.952   1.758 -0.9923 -0.6351  1.7997
 9925TIP3   OH229719   1.847   0.431   4.946 -0.3966  0.6162  0.4321
 9925TIP3    H129720   1.914   0.496   4.970 -0.0774 -0.4177  2.6237
 9925TIP3    H229721   1.895   0.365   4.896 -0.3063  1.0691 -0.0889
 9926TIP3   OH229722   2.438   0.539   3.577  0.0712 -0.0982  0.0620
 9926TIP3    H129723   2.462   0.452   3.545  0.5526 -0.0693  0.3314
 9926TIP3    H229724   2.520   0.577   3.607 -0.4311 -0.4204  2.0310
 9927TIP3   OH229725   3.836   6.513   0.530  0.1138 -0.9598  0.0230
 9927TIP3    H129726   3.863   6.547   0.445 -1.5002  0.3159 -0.0321
 9927TIP3    H229727   3.780   6.437   0.509 -0.5597 -0.4416 -0.0855
 9928TIP3   OH229728   7.282   4.459   5.089 -0.0334 -0.3174  0.4857
 9928TIP3    H129729   7.334   4.390   5.130 -1.1517 -0.1476  2.3349
 9928TIP3    H229730   7.191   4.434   5.108 -0.7122 -0.6568 -2.7161
 9929TIP3   OH229731   5.714   2.231   3.712  0.9660  0.1387  0.2451
 9929TIP3    H129732   5.631   2.223   3.665  1.2624 -1.8191 -0.0234
 9929TIP3    H229733   5.703   2.309   3.766 -2.0215 -1.3366  2.0450
 9930TIP3   OH229734   0.330   1.963   5.348 -0.2446  0.1823 -0.3869
 9930TIP3    H129735   0.371   1.923   5.272 -0.2531 -0.9910  0.2061
 9930TIP3    H229736   0.355   2.056   5.343  0.3883 -0.0264 -1.3805
 9931TIP3   OH229737   0.436   5.532   6.480  0.3443  0.4140 -0.9225
 9931TIP3    H129738   0.504   5.585   6.521  0.2956  0.1919 -0.5404
 9931TIP3    H229739   0.458   5.533   6.387  1.5424 -0.5785 -0.6883
 9932TIP3   OH229740   3.396   7.468   3.952  0.1191 -0.4019  0.6932
 9932TIP3    H129741   3.425   7.554   3.984 -1.5868  0.6313 -0.3297
 9932TIP3    H229742   3.304   7.464   3.979  0.1271 -1.8551  0.5583
 9933TIP3   OH229743   1.173   5.911   5.062  0.0291  0.0354 -0.9348
 9933TIP3    H129744   1.160   5.979   4.995 -0.5360 -0.3263 -1.1975
 9933TIP3    H229745   1.088   5.868   5.069 -0.2707  0.8223  0.8747
 9934TIP3   OH229746   3.988   1.211   5.297 -0.3431 -0.5065 -0.3943
 9934TIP3    H129747   3.949   1.258   5.371  0.3243 -0.5202 -0.0299
 9934TIP3    H229748   3.913   1.191   5.240 -0.9713 -1.0965  0.6026
 9935TIP3   OH229749   6.683   0.461   6.445  0.4929  0.5513  0.4350
 9935TIP3    H129750   6.607   0.424   6.490 -0.2925  3.3717  1.6683
 9935TIP3    H229751   6.685   0.416   6.360 -4.0247  1.8698 -0.6367
 9936TIP3   OH229752   3.944   1.802   5.908  0.0995 -0.2730 -0.8422
 9936TIP3    H129753   4.037   1.823   5.898 -0.2991  2.4690  0.4525
 9936TIP3    H229754   3.898   1.879   5.876 -1.6230 -0.0179  1.9558
 9937TIP3   OH229755   1.459   7.379   5.932 -0.8799 -0.1842 -0.3952
 9937TIP3    H129756   1.389   7.368   5.997  0.0482 -0.7456  0.5268
 9937TIP3    H229757   1.537   7.346   5.975 -0.0734  0.2453 -1.4958
 9938TIP3   OH229758   1.538   3.212   1.208  0.1450  0.5458 -0.5622
 9938TIP3    H129759   1.599   3.155   1.160  1.5208  0.3240  1.3295
 9938TIP3    H229760   1.475   3.151   1.247  2.1128  0.0842  2.1705
 9939TIP3   OH229761   8.166   6.408   3.423 -0.0261 -0.2050 -0.2610
 9939TIP3    H129762   8.097   6.467   3.394  0.4094 -0.0492 -1.0167
 9939TIP3    H229763   8.244   6.437   3.375  1.1062  1.0307  2.1895
 9940TIP3   OH229764   5.103   0.179   3.438  0.2234  0.5074  0.5088
 9940TIP3    H129765   5.040   0.146   3.502  2.1934 -0.7901  1.9019
 9940TIP3    H229766   5.118   0.104   3.379  1.3328  0.3984  0.9200
 9941TIP3   OH229767   0.130   4.387   1.305 -0.1798 -0.7716 -0.0246
 9941TIP3    H129768   0.213   4.432   1.288 -0.7566 -0.2172 -1.5019
 9941TIP3    H229769   0.101   4.423   1.389  0.5870 -0.2245  0.0231
 9942TIP3   OH229770   6.792   6.907   1.937 -0.5196  0.8920  0.2524
 9942TIP3    H129771   6.846   6.829   1.929 -1.7003 -0.1332  1.6736
 9942TIP3    H229772   6.854   6.980   1.941  0.6988 -0.1460  0.6499
 9943TIP3   OH229773   6.569   6.767   3.122  0.4805 -0.1988 -0.5576
 9943TIP3    H129774   6.542   6.804   3.038 -0.1770  0.6219 -0.0084
 9943TIP3    H229775   6.660   6.742   3.109  0.5149  0.3226 -1.3834
 9944TIP3   OH229776   6.513   6.874   6.308  0.0070 -0.5103 -0.0176
 9944TIP3    H129777   6.443   6.923   6.353  1.0138 -0.1360  1.2005
 9944TIP3    H229778   6.582   6.938   6.295 -0.8936 -0.1123 -3.8398
 9945TIP3   OH229779   3.081   2.937   3.129  0.2085  0.3564 -0.1901
 9945TIP3    H129780   3.123   2.918   3.045  0.3321 -0.0405 -0.0425
 9945TIP3    H229781   3.129   2.884   3.192 -1.3860 -1.2664 -0.2262
 9946TIP3   OH229782   3.743   0.178   0.836 -0.2216  0.5949  0.1984
 9946TIP3    H129783   3.689   0.161   0.912  0.7911  0.8411  0.9983
 9946TIP3    H229784   3.751   0.274   0.833 -1.5704  0.7111 -1.1853
 9947TIP3   OH229785   5.801   3.445   0.876  0.2129 -0.5912 -0.3015
 9947TIP3    H129786   5.717   3.434   0.919  0.4632 -0.2399  0.2890
 9947TIP3    H229787   5.780   3.486   0.792 -0.1346  0.2304  0.1773
 9948TIP3   OH229788   1.373   7.268   5.319 -0.3542  0.1424  0.2786
 9948TIP3    H129789   1.294   7.255   5.370 -0.2239  1.1313  0.7456
 9948TIP3    H229790   1.374   7.194   5.258 -1.1345 -0.3956  0.8919
 9949TIP3   OH229791   2.059   3.213   5.981 -0.6820 -0.5075 -0.0728
 9949TIP3    H129792   2.025   3.131   6.015  0.4878 -0.5487  1.0485
 9949TIP3    H229793   2.037   3.278   6.048  1.4961 -0.5597  0.7847
 9950TIP3   OH229794   7.894   5.572   2.097  0.2374  0.0908 -0.0108
 9950TIP3    H129795   7.852   5.547   2.015  0.6146  0.0610 -0.1976
 9950TIP3    H229796   7.822   5.577   2.160 -0.0491  0.0735 -0.3319
 9951TIP3   OH229797   4.472   7.234   0.050 -0.3711  0.1976  0.0330
 9951TIP3    H129798   4.519   7.290   0.111  0.1198 -1.1583  0.9451
 9951TIP3    H229799   4.538   7.174   0.016 -1.1203 -0.6688  0.0643
 9952TIP3   OH229800   3.394   3.309   6.054  1.1448  0.3872 -0.5487
 9952TIP3    H129801   3.384   3.279   6.144  2.2798  1.1749 -0.1270
 9952TIP3    H229802   3.485   3.340   6.049  1.1174  0.3290 -1.9745
 9953TIP3   OH229803   1.408   4.164   1.504  0.1025  0.4001 -0.3794
 9953TIP3    H129804   1.409   4.228   1.433 -0.9241 -0.3068 -1.0653
 9953TIP3    H229805   1.358   4.090   1.469  0.4928 -0.4064  0.7089
 9954TIP3   OH229806   5.570   2.524   0.988  0.4744 -0.1744 -0.4673
 9954TIP3    H129807   5.550   2.602   1.040  0.8832  0.2359 -0.9069
 9954TIP3    H229808   5.570   2.556   0.898 -1.4215 -1.1193 -0.8472
 9955TIP3   OH229809   7.456   7.594   1.954  0.0564  0.3773 -0.3802
 9955TIP3    H129810   7.438   7.688   1.956 -0.5915  0.2552 -0.1828
 9955TIP3    H229811   7.406   7.563   1.878 -0.9156 -0.0333  0.4081
 9956TIP3   OH229812   1.164   4.802   6.442  0.1521 -0.2998  0.6094
 9956TIP3    H129813   1.128   4.891   6.447  0.1993 -0.3367  1.6228
 9956TIP3    H229814   1.242   4.804   6.497  0.1602 -0.9719  0.6300
 9957TIP3   OH229815   1.426   5.676   4.120 -0.2520 -0.2060  0.1322
 9957TIP3    H129816   1.519   5.696   4.134 -0.5409  2.4688 -1.0403
 9957TIP3    H229817   1.381   5.758   4.142 -2.4435 -1.5984  1.2036
 9958TIP3   OH229818   7.615   3.618   6.083  0.0014  0.0394 -0.2694
 9958TIP3    H129819   7.599   3.629   6.177  1.0003  0.0069 -0.0890
 9958TIP3    H229820   7.697   3.569   6.078  0.9742  1.6859 -1.1765
 9959TIP3   OH229821   0.758   2.211   4.615 -0.2265  0.9574 -0.4835
 9959TIP3    H129822   0.803   2.127   4.626  0.3984  1.5623  2.8255
 9959TIP3    H229823   0.680   2.190   4.563  1.4597 -0.9983 -2.4469
 9960TIP3   OH229824   4.670   4.046   6.296 -0.6165  0.2152  0.2157
 9960TIP3    H129825   4.648   3.954   6.313 -0.7035 -0.1301 -1.5884
 9960TIP3    H229826   4.605   4.075   6.232  1.5051  0.4191 -2.0201
 9961TIP3   OH229827   3.453   3.467   0.703  0.3839 -0.0586 -0.0541
 9961TIP3    H129828   3.425   3.376   0.708 -0.0152 -0.2441 -3.1628
 9961TIP3    H229829   3.531   3.465   0.647 -0.7387  1.5850 -1.8272
 9962TIP3   OH229830   5.071   1.676   4.372 -0.1926  0.1348 -0.0400
 9962TIP3    H129831   5.076   1.621   4.294  1.4024 -1.8078  1.3150
 9962TIP3    H229832   5.045   1.762   4.340  0.2867 -0.6290 -2.6794
 9963TIP3   OH229833   1.077   0.436   1.431 -0.3934  0.1037 -0.1443
 9963TIP3    H129834   1.034   0.455   1.348  1.5931 -0.8740 -1.4995
 9963TIP3    H229835   1.167   0.468   1.419  1.0953 -3.4932  0.0242
 9964TIP3   OH229836   4.799   1.007   0.599 -0.3535 -0.2265 -0.4479
 9964TIP3    H129837   4.863   1.071   0.629  0.8481 -1.0673 -1.1454
 9964TIP3    H229838   4.812   1.003   0.504 -1.8292 -0.0058 -0.6765
 9965TIP3   OH229839   6.043   1.897   4.107  0.1520  0.0173  0.3480
 9965TIP3    H129840   6.106   1.967   4.091  0.1633  0.6290  2.7208
 9965TIP3    H229841   6.097   1.820   4.127  0.1813  0.3811  1.7469
 9966TIP3   OH229842   6.715   5.828   0.827 -0.0783 -0.4471 -0.1295
 9966TIP3    H129843   6.710   5.773   0.905 -0.3865 -1.0722 -0.5783
 9966TIP3    H229844   6.643   5.890   0.837  1.0647  0.7619  1.0137
 9967TIP3   OH229845   3.364   1.367   0.135  0.3395 -0.3585  0.2311
 9967TIP3    H129846   3.302   1.435   0.111  0.4237 -0.3513  0.0347
 9967TIP3    H229847   3.385   1.385   0.227 -2.8049 -2.5089  1.5559
 9968TIP3   OH229848   1.099   2.066   4.041  0.5323  0.3097  0.2893
 9968TIP3    H129849   1.061   2.104   4.121  0.4152 -0.7063  0.7221
 9968TIP3    H229850   1.078   2.130   3.973 -0.7152  0.4700  0.7859
 9969TIP3   OH229851   4.308   7.471   4.539  0.6233  0.6419  0.0948
 9969TIP3    H129852   4.344   7.557   4.560  2.3119  0.0407 -0.1769
 9969TIP3    H229853   4.272   7.440   4.622 -0.8658  1.9612 -0.0079
 9970TIP3   OH229854   1.113   0.568   4.059 -0.5312  0.5735  0.5018
 9970TIP3    H129855   1.104   0.489   4.005  1.3281  0.9163 -0.3860
 9970TIP3    H229856   1.165   0.539   4.134  0.6181  1.0177 -0.0887
 9971TIP3   OH229857   4.710   1.966   2.507  0.0974  0.6192  0.6054
 9971TIP3    H129858   4.702   1.872   2.488 -0.0202  0.6636  0.4425
 9971TIP3    H229859   4.651   1.980   2.582  0.3302  0.5082  0.8130
 9972TIP3   OH229860   0.543   2.659   0.888 -0.0845  0.3198  0.5798
 9972TIP3    H129861   0.604   2.594   0.922  0.6738  1.5292  1.6205
 9972TIP3    H229862   0.496   2.691   0.966 -0.8097  0.6529  0.0222
 9973TIP3   OH229863   8.249   4.174   1.187 -0.2735 -0.2208 -0.2754
 9973TIP3    H129864   8.282   4.193   1.274 -0.3159 -0.4748 -0.2024
 9973TIP3    H229865   8.298   4.232   1.129 -0.8587  0.5639  0.0091
 9974TIP3   OH229866   8.044   7.484   4.502  0.1807  0.0382  0.4094
 9974TIP3    H129867   8.132   7.485   4.465 -0.2788  1.3042 -0.7118
 9974TIP3    H229868   8.001   7.561   4.465 -1.1920 -0.1820  1.4614
 9975TIP3   OH229869   0.626   0.695   4.391 -0.1080  0.3790 -0.4628
 9975TIP3    H129870   0.568   0.631   4.350  2.2357 -1.4765 -1.1060
 9975TIP3    H229871   0.588   0.710   4.478 -1.7716 -0.3901 -1.0258
 9976TIP3   OH229872   1.973   6.072   2.006  0.0942  0.0927  0.0991
 9976TIP3    H129873   2.046   6.032   1.958  0.9060  0.9113  0.6331
 9976TIP3    H229874   1.976   6.164   1.981 -0.2777  0.2780  0.7233
 9977TIP3   OH229875   3.246   2.428   2.564  0.3402  0.1805 -0.2430
 9977TIP3    H129876   3.225   2.445   2.472  0.8700 -3.3713 -1.2027
 9977TIP3    H229877   3.331   2.471   2.577 -0.1251  1.4310 -1.1226
 9978TIP3   OH229878   4.969   6.573   5.098  0.9197  0.6112 -0.2226
 9978TIP3    H129879   5.006   6.640   5.040  1.7401 -0.3239 -0.8235
 9978TIP3    H229880   4.941   6.503   5.039 -1.0901  0.9259  0.2933
 9979TIP3   OH229881   1.114   4.469   1.585  0.2152 -0.1402 -0.2531
 9979TIP3    H129882   1.141   4.536   1.649  0.7739  1.2782 -1.8986
 9979TIP3    H229883   1.193   4.451   1.535  0.3970 -2.9579  0.8418
 9980TIP3   OH229884   7.905   6.643   4.372  0.1947  0.0002  0.0317
 9980TIP3    H129885   7.992   6.606   4.386 -0.3062 -0.6386  1.6233
 9980TIP3    H229886   7.893   6.642   4.277  1.9043  0.0806 -0.2063
 9981TIP3   OH229887   2.511   1.547   4.681  0.5388 -0.4195  0.4804
 9981TIP3    H129888   2.582   1.501   4.725  1.5626 -0.5842 -1.2389
 9981TIP3    H229889   2.510   1.511   4.592 -1.7310 -0.4378  0.4467
 9982TIP3   OH229890   2.559   4.739   1.463 -0.0598 -0.2175 -0.0900
 9982TIP3    H129891   2.494   4.769   1.527  1.8936 -0.6438  2.2430
 9982TIP3    H229892   2.518   4.756   1.378 -1.9073  2.4679  1.1803
 9983TIP3   OH229893   7.103   2.481   4.368  0.2935  0.3155 -0.4188
 9983TIP3    H129894   7.038   2.551   4.369  0.2095  0.2465 -0.6915
 9983TIP3    H229895   7.087   2.432   4.449 -0.7498 -0.3741 -1.0051
 9984TIP3   OH229896   8.004   5.587   2.850 -0.3435  0.4548 -0.0531
 9984TIP3    H129897   7.914   5.557   2.864 -1.1611  2.6726 -0.0878
 9984TIP3    H229898   8.036   5.606   2.938 -0.7169  1.6792 -0.1521
 9985TIP3   OH229899   5.907   4.133   6.648 -0.2222  0.0906 -0.1687
 9985TIP3    H129900   5.982   4.073   6.651  0.6647  1.1630  0.0894
 9985TIP3    H229901   5.929   4.195   6.578 -0.3823  1.0139  0.5723
 9986TIP3   OH229902   5.767   6.948   0.703  0.3457  0.2054 -0.1353
 9986TIP3    H129903   5.797   7.023   0.753 -2.6863 -0.0861  2.4451
 9986TIP3    H229904   5.699   6.983   0.645 -1.3990 -0.4586  1.3922
 9987TIP3   OH229905   1.262   2.765   0.186 -0.4137  0.2264 -0.2835
 9987TIP3    H129906   1.351   2.800   0.195 -1.2272  2.0517  1.3984
 9987TIP3    H229907   1.251   2.709   0.263 -0.4181 -0.7192 -0.9694
 9988TIP3   OH229908   5.262   7.629   5.683 -0.0479  0.2627  0.0926
 9988TIP3    H129909   5.317   7.552   5.668  1.0627  0.6271  1.9952
 9988TIP3    H229910   5.215   7.641   5.600  0.4269 -1.8973 -0.5544
 9989TIP3   OH229911   6.410   1.931   0.730 -0.4562  0.2089 -0.2888
 9989TIP3    H129912   6.325   1.972   0.745 -1.1719 -1.2657 -0.0954
 9989TIP3    H229913   6.427   1.881   0.810  0.3288  0.0303 -0.5528
 9990TIP3   OH229914   4.088   1.182   3.233 -1.0100  0.0633 -0.3755
 9990TIP3    H129915   4.101   1.146   3.145 -0.6271 -1.0264  0.1235
 9990TIP3    H229916   4.018   1.247   3.221 -0.2511  0.7073 -1.6819
 9991TIP3   OH229917   1.026   6.703   3.850  0.1928  0.8320 -0.3072
 9991TIP3    H129918   1.067   6.778   3.808 -1.0206  0.8871 -1.4707
 9991TIP3    H229919   0.939   6.735   3.876  0.0173  0.1004  0.0366
 9992TIP3   OH229920   7.872   0.369   5.888 -0.3082  0.2244  0.1517
 9992TIP3    H129921   7.878   0.339   5.797  1.7780  0.9809 -0.0216
 9992TIP3    H229922   7.953   0.337   5.929  0.3863  2.6781  0.8381
 9993TIP3   OH229923   2.955   5.029   0.401 -0.1418  0.4053 -0.4946
 9993TIP3    H129924   2.910   5.084   0.466 -0.7463  0.5799 -1.0526
 9993TIP3    H229925   3.041   5.011   0.440 -0.4494  0.6131  0.2959
 9994TIP3   OH229926   7.162   3.435   1.898  0.5125 -0.1917  0.8050
 9994TIP3    H129927   7.148   3.473   1.985 -1.0529 -0.7295  0.8180
 9994TIP3    H229928   7.180   3.342   1.915  1.7714 -0.0016  0.6226
 9995TIP3   OH229929   0.161   6.514   1.100 -0.1805 -0.4070  0.3953
 9995TIP3    H129930   0.152   6.466   1.018 -0.8742 -0.8632  0.7257
 9995TIP3    H229931   0.163   6.606   1.074  0.5972 -0.5826 -0.2012
 9996TIP3   OH229932   0.775   4.112   6.160 -0.4324  0.3185 -0.5391
 9996TIP3    H129933   0.831   4.034   6.159 -1.4505 -0.4179 -1.3495
 9996TIP3    H229934   0.833   4.182   6.192  0.3711 -0.8467  0.6820
 9997TIP3   OH229935   4.625   4.357   3.431  0.0271 -0.3963  0.2485
 9997TIP3    H129936   4.709   4.367   3.386  0.2217 -0.4389  0.5936
 9997TIP3    H229937   4.632   4.414   3.508 -0.7592  0.5848 -0.3930
 9998TIP3   OH229938   0.654   3.145   3.263  0.0963  0.3364  0.1074
 9998TIP3    H129939   0.563   3.123   3.283 -0.2090 -0.0310 -1.5276
 9998TIP3    H229940   0.704   3.069   3.291 -0.1876  0.2170  0.2949
 9999TIP3   OH229941   5.061   5.889   5.221  0.2746 -0.0351 -0.3488
 9999TIP3    H129942   5.126   5.940   5.174  1.2558 -0.9931 -0.0945
 9999TIP3    H229943   5.094   5.886   5.311 -0.2510 -0.3223 -0.1605
10000TIP3   OH229944   4.978   3.573   1.553  0.4493 -0.0741  0.2855
10000TIP3    H129945   4.901   3.594   1.605  0.0430 -1.2636  0.1879
10000TIP3    H229946   4.979   3.639   1.484 -0.9795 -0.5742 -0.2325
10001TIP3   OH229947   0.503   5.676   1.819  0.5164 -1.0286 -0.4275
10001TIP3    H129948   0.576   5.733   1.846  0.4779 -0.3262 -1.7123
10001TIP3    H229949   0.539   5.587   1.824  1.2426 -0.7423 -0.3837
10002TIP3   OH229950   4.936   7.276   0.697 -0.0531  0.0422 -0.4990
10002TIP3    H129951   5.024   7.248   0.723 -0.2096  0.1341  0.1613
10002TIP3    H229952   4.941   7.372   0.693 -0.5266  0.1720  1.1673
10003TIP3   OH229953   4.922   1.771   3.246 -0.0159 -0.2458 -0.1231
10003TIP3    H129954   4.959   1.859   3.252 -0.1159 -0.1498 -0.8168
10003TIP3    H229955   4.905   1.759   3.153 -0.6502 -0.7311  0.0510
10004TIP3   OH229956   8.301   7.737   3.604  0.4007  0.0640  0.1459
10004TIP3    H129957   8.316   7.669   3.538 -1.2757  1.6537 -2.0309
10004TIP3    H229958   8.228   7.703   3.656 -0.2603  0.0399 -0.7626
10005TIP3   OH229959   7.309   2.324   0.106  0.0634  0.4115  0.4242
10005TIP3    H129960   7.386   2.311   0.050 -0.3750 -0.2917 -0.0366
10005TIP3    H229961   7.293   2.418   0.103  1.1282  0.6258  0.8344
10006TIP3   OH229962   3.972   7.359   0.015 -0.5330 -0.1821  0.8385
10006TIP3    H129963   4.000   7.353   0.107 -0.4909 -1.4467  0.7525
10006TIP3    H229964   4.046   7.325  -0.035 -0.0647  1.6288  0.2239
10007TIP3   OH229965   1.025   6.548   0.795  0.4566 -0.1535  0.0488
10007TIP3    H129966   1.050   6.520   0.882 -1.2177 -1.1182  0.2573
10007TIP3    H229967   1.039   6.643   0.796 -1.3737  0.1797  2.0701
10008TIP3   OH229968   5.345   5.195   3.195  0.5246 -0.5231 -0.2448
10008TIP3    H129969   5.250   5.192   3.212  0.5593 -0.8466 -0.1068
10008TIP3    H229970   5.352   5.187   3.100  0.5296 -4.0136 -0.0926
10009TIP3   OH229971   0.882   2.018   0.330 -0.2312 -0.1822  0.1076
10009TIP3    H129972   0.958   1.968   0.302  1.4145  1.7318  0.9297
10009TIP3    H229973   0.847   1.970   0.405  1.5618  0.0413  1.1465
10010TIP3   OH229974   6.080   4.198   0.467  0.8407 -0.3836 -0.2077
10010TIP3    H129975   6.008   4.261   0.457  0.2665 -1.0423 -0.2923
10010TIP3    H229976   6.049   4.137   0.534  1.0585 -1.0464 -0.7050
10011TIP3   OH229977   1.787   5.043   6.682  0.5387  0.6186 -0.1641
10011TIP3    H129978   1.747   5.037   6.595  1.0963  0.2591 -0.4049
10011TIP3    H229979   1.866   4.988   6.676  0.8512  0.9897  0.4158
10012TIP3   OH229980   1.634   0.065   5.972 -0.5881  0.2621  0.1027
10012TIP3    H129981   1.666   0.006   5.903 -0.7015  0.9644 -0.5685
10012TIP3    H229982   1.709   0.122   5.990 -1.4160  1.9927 -1.5574
10013TIP3   OH229983   8.155   6.561   2.339  0.0759 -0.1814  0.1318
10013TIP3    H129984   8.237   6.611   2.337 -1.3978  2.4428  0.5747
10013TIP3    H229985   8.117   6.574   2.252  0.3086 -1.7489 -0.2204
10014TIP3   OH229986   1.179   7.068   4.555  0.0600  0.6618  0.1158
10014TIP3    H129987   1.148   7.073   4.645 -0.3942  0.5345 -0.0334
10014TIP3    H229988   1.238   6.993   4.554 -0.9283 -0.1386  0.0191
10015TIP3   OH229989   0.828   5.668   2.465  0.4032  0.3267 -0.0245
10015TIP3    H129990   0.793   5.581   2.482 -1.2876  0.5747 -1.8881
10015TIP3    H229991   0.923   5.657   2.473  0.1416 -0.6288  4.0308
10016TIP3   OH229992   7.099   5.599   3.373 -0.4920  0.2083  0.6594
10016TIP3    H129993   7.188   5.564   3.359 -0.5638  0.2821 -0.0028
10016TIP3    H229994   7.058   5.536   3.432 -0.5456 -0.7231 -0.3508
10017TIP3   OH229995   3.432   0.203   6.694 -0.1154  0.0763 -0.5069
10017TIP3    H129996   3.406   0.192   6.786  1.8126 -2.4432 -0.1540
10017TIP3    H229997   3.446   0.114   6.663  1.2566  0.9698 -2.6474
10018TIP3   OH229998   5.286   2.818   5.390 -0.1169  0.2684  0.2192
10018TIP3    H129999   5.334   2.874   5.329 -2.3477  0.8503 -1.0910
10018TIP3    H230000   5.347   2.747   5.410  1.8707  1.7938 -0.0578
10019TIP3   OH230001   6.843   5.422   2.176  0.2852  0.0492 -0.6212
10019TIP3    H130002   6.861   5.514   2.195  0.1219  0.1951 -1.1571
10019TIP3    H230003   6.773   5.424   2.111 -0.2359 -0.4683 -0.0875
10020TIP3   OH230004   6.477   5.005   2.533 -0.1965 -0.1086  0.5188
10020TIP3    H130005   6.454   4.953   2.610  1.6372 -0.3101  0.9857
10020TIP3    H230006   6.516   5.085   2.569  0.5117 -0.1248 -0.1770
10021TIP3   OH230007   6.697   7.614   2.217 -0.6589  0.2441 -0.2673
10021TIP3    H130008   6.644   7.692   2.201 -0.4349  0.2015 -1.2962
10021TIP3    H230009   6.781   7.632   2.173 -0.8071 -0.7886 -1.0183
10022TIP3   OH230010   3.058   0.675   6.716  0.1917  0.5389  0.0959
10022TIP3    H130011   2.972   0.635   6.728  0.9164 -1.1120  0.0411
10022TIP3    H230012   3.042   0.748   6.656 -1.3397  0.9889  0.9802
10023TIP3   OH230013   0.942   4.293   4.974  0.4021 -0.3817  0.8897
10023TIP3    H130014   0.863   4.343   4.998 -1.1814 -3.0199  1.6057
10023TIP3    H230015   1.000   4.301   5.050 -0.3444 -0.6015  1.4967
10024TIP3   OH230016   7.354   0.422   5.889  0.0751  0.5213  0.0438
10024TIP3    H130017   7.361   0.364   5.965  0.1623  0.4390 -0.0259
10024TIP3    H230018   7.278   0.476   5.907 -1.9923 -1.7338 -1.3108
10025TIP3   OH230019   4.436   1.132   2.427 -0.3765 -0.2203  0.3794
10025TIP3    H130020   4.482   1.216   2.437  1.0724 -0.9139 -0.2703
10025TIP3    H230021   4.355   1.155   2.381 -0.0731  0.8486  0.3533
10026TIP3   OH230022   0.398   5.442   0.883 -0.0279 -0.5238  0.0952
10026TIP3    H130023   0.427   5.376   0.820  0.0982  0.8540 -1.3304
10026TIP3    H230024   0.310   5.413   0.909  0.1687 -1.4366 -0.2035
10027TIP3   OH230025   7.000   5.264   0.462  0.2467  0.3269 -0.5466
10027TIP3    H130026   6.926   5.205   0.479  0.2725 -0.0600 -1.7007
10027TIP3    H230027   6.986   5.337   0.522 -2.0424  1.1045 -1.8952
10028TIP3   OH230028   6.519   7.409   3.157  0.1365  0.3127  0.4859
10028TIP3    H130029   6.601   7.361   3.145 -0.0794  0.2216 -0.7990
10028TIP3    H230030   6.511   7.420   3.251  2.5444  1.9142  0.5816
10029TIP3   OH230031   5.830   6.382   0.509  0.6787 -0.1428 -0.1361
10029TIP3    H130032   5.760   6.335   0.554  1.5937 -1.5809 -0.1520
10029TIP3    H230033   5.785   6.455   0.465 -0.7114 -0.6671  0.3493
10030TIP3   OH230034   2.051   0.548   2.227 -0.2986 -0.1155 -0.4922
10030TIP3    H130035   2.012   0.473   2.271  1.1502 -0.6232 -0.0048
10030TIP3    H230036   2.097   0.510   2.152  2.5028 -0.1263  1.0819
10031TIP3   OH230037   3.059   6.771   4.978 -0.2066  0.7036  0.2158
10031TIP3    H130038   3.124   6.768   4.909 -0.4079  0.8777  0.0154
10031TIP3    H230039   3.010   6.690   4.969  1.7253 -0.7883  2.1088
10032TIP3   OH230040   4.349   7.148   6.743  0.0066 -0.3849 -0.3653
10032TIP3    H130041   4.294   7.070   6.733  0.8780 -1.3165  1.5713
10032TIP3    H230042   4.398   7.154   6.661 -0.8435 -1.2421 -0.9536
10033TIP3   OH230043   0.405   7.355   2.110 -0.4837 -0.1697  0.9310
10033TIP3    H130044   0.435   7.265   2.114 -2.1955 -0.8359 -0.0722
10033TIP3    H230045   0.341   7.356   2.038 -0.7190  1.7685  1.1114
10034TIP3   OH230046   8.103   1.018   6.242  0.1586 -0.0896 -0.3958
10034TIP3    H130047   8.198   1.019   6.256  0.1348 -0.8950 -0.0932
10034TIP3    H230048   8.092   1.047   6.151  0.8552 -1.8491 -1.1041
10035TIP3   OH230049   4.711   7.413   3.736 -0.2766 -0.5711  0.4042
10035TIP3    H130050   4.655   7.336   3.742  0.3685 -1.1004 -0.0894
10035TIP3    H230051   4.787   7.383   3.685  1.3290 -0.4091  2.5573
10036TIP3   OH230052   5.454   3.978   0.063 -0.1802 -0.3425 -0.7913
10036TIP3    H130053   5.489   3.893   0.038  0.4489 -0.7945  1.4707
10036TIP3    H230054   5.516   4.012   0.128 -2.8217 -0.3028  1.8933
10037TIP3   OH230055   1.426   2.145   1.309 -0.1664 -0.1330  0.3038
10037TIP3    H130056   1.330   2.151   1.313 -0.1692 -0.4393  0.6397
10037TIP3    H230057   1.456   2.179   1.393 -0.1229 -3.4401  1.7520
10038TIP3   OH230058   7.848   5.272   4.146 -0.5539 -0.0333  0.3466
10038TIP3    H130059   7.841   5.366   4.160  1.0445  0.0885  0.4278
10038TIP3    H230060   7.774   5.252   4.088 -0.3571  1.4279 -0.4649
10039TIP3   OH230061   1.358   7.102   3.996  0.4301  0.1211 -0.0307
10039TIP3    H130062   1.301   7.027   4.009  1.5617 -0.5034  1.7392
10039TIP3    H230063   1.447   7.065   3.992  1.0551  1.3589  1.4100
10040TIP3   OH230064   2.310   7.688   6.734  0.0060  0.9086 -0.0659
10040TIP3    H130065   2.303   7.686   6.639  0.7618 -1.0863 -0.1169
10040TIP3    H230066   2.239   7.746   6.762 -0.5560  1.1037 -1.8010
10041TIP3   OH230067   5.618   0.307   2.498 -0.4454  0.1966 -0.6252
10041TIP3    H130068   5.635   0.386   2.550 -1.2686 -0.5146  0.7962
10041TIP3    H230069   5.585   0.244   2.561  1.7780 -1.8934 -1.3932
10042TIP3   OH230070   0.847   7.377   3.230 -0.1972  0.2139 -0.1456
10042TIP3    H130071   0.849   7.386   3.134  0.9604 -0.2348 -0.1847
10042TIP3    H230072   0.761   7.342   3.249  0.0876 -1.1594 -1.1842
10043TIP3   OH230073   6.281   5.875   2.896 -0.4597  0.2838  0.5864
10043TIP3    H130074   6.357   5.923   2.864 -0.5781 -0.1137 -0.3406
10043TIP3    H230075   6.211   5.898   2.836 -0.4890 -1.1091  0.0402
10044TIP3   OH230076   5.037   5.852   2.720  0.3892 -0.3348 -0.6909
10044TIP3    H130077   5.058   5.928   2.774  0.8765 -1.0053  0.0918
10044TIP3    H230078   5.020   5.782   2.783 -2.3834 -0.3247 -1.3286
10045TIP3   OH230079   6.939   7.388   4.661 -0.3880 -0.3281 -0.0305
10045TIP3    H130080   7.013   7.364   4.718 -0.9376 -5.6173 -1.0727
10045TIP3    H230081   6.978   7.446   4.595  1.5338  1.2124  2.2811
10046TIP3   OH230082   2.913   4.907   4.283  0.2822  0.0461 -0.0470
10046TIP3    H130083   2.834   4.954   4.258 -0.6513 -2.6712 -2.7553
10046TIP3    H230084   2.984   4.960   4.247 -0.5385  0.7352 -0.6966
10047TIP3   OH230085   0.034   7.229   1.327  0.1138 -0.8318  0.6044
10047TIP3    H130086   0.071   7.171   1.261 -1.9935 -0.8808 -0.6284
10047TIP3    H230087   0.061   7.191   1.410  0.6701 -2.2806 -0.1977
10048TIP3   OH230088   2.889   7.279   2.613  0.3989 -0.0579 -0.5423
10048TIP3    H130089   2.978   7.262   2.585  0.6639  0.3119  0.0524
10048TIP3    H230090   2.898   7.341   2.687 -0.4260  1.5740 -1.7360
10049TIP3   OH230091   6.450   5.471   5.142 -0.4185  0.0921 -0.8853
10049TIP3    H130092   6.426   5.529   5.213  1.2384  2.1045 -1.8674
10049TIP3    H230093   6.440   5.524   5.063  2.6086 -0.3819 -1.6976
10050TIP3   OH230094   7.138   6.504   5.291  0.2320  0.0770  0.3166
10050TIP3    H130095   7.046   6.509   5.266  0.2934  0.3113  0.1374
10050TIP3    H230096   7.159   6.592   5.322  0.7416  0.3840 -0.8469
10051TIP3   OH230097   7.725   2.017   5.353  0.7464 -0.3353  0.0041
10051TIP3    H130098   7.725   2.004   5.258  2.7108 -1.6221  0.1083
10051TIP3    H230099   7.640   1.984   5.382  0.6912 -1.3309 -1.1754
10052TIP3   OH230100   3.712   0.091   3.120 -0.3723 -0.1140  0.5637
10052TIP3    H130101   3.726   0.049   3.205 -0.8750 -1.2388  0.1078
10052TIP3    H230102   3.654   0.031   3.072 -0.9381  1.0027 -0.1977
10053TIP3   OH230103   5.787   5.607   4.006  0.7178 -0.2233 -0.0392
10053TIP3    H130104   5.729   5.674   4.042  0.3865 -0.1981 -0.6142
10053TIP3    H230105   5.874   5.630   4.039  0.3501 -0.4958  1.1626
10054TIP3   OH230106   0.139   0.700   0.669  0.3411  0.0743  0.3067
10054TIP3    H130107   0.073   0.712   0.600  0.1943 -0.6848  0.3097
10054TIP3    H230108   0.116   0.765   0.736 -1.1780 -1.0146  0.8829
10055TIP3   OH230109   1.486   0.333   2.070  0.6916 -0.4885  0.1672
10055TIP3    H130110   1.547   0.371   2.132 -0.0519  0.7104  0.1980
10055TIP3    H230111   1.541   0.300   1.999  1.3947  0.3014  0.3311
10056TIP3   OH230112   6.198   7.090   4.194  0.0201 -0.1740 -0.0580
10056TIP3    H130113   6.261   7.159   4.218 -0.6734 -0.1184  1.7435
10056TIP3    H230114   6.251   7.023   4.152  1.3291 -0.1760  1.5113
10057TIP3   OH230115   1.741   4.951   6.068 -0.2284  0.1878 -0.2647
10057TIP3    H130116   1.775   5.034   6.102 -0.0988  0.1444 -0.2886
10057TIP3    H230117   1.740   4.962   5.973  0.7074 -0.1883 -0.3255
10058TIP3   OH230118   5.954   5.989   3.134  0.4946  0.1944  0.0632
10058TIP3    H130119   6.033   6.018   3.089 -1.0561  1.2895 -2.1538
10058TIP3    H230120   5.897   6.066   3.135 -0.2376 -0.2987  2.4538
10059TIP3   OH230121   5.382   6.369   3.443 -0.0622 -0.3758  0.0097
10059TIP3    H130122   5.306   6.338   3.394  0.9408 -0.8693 -1.3042
10059TIP3    H230123   5.386   6.463   3.425  1.6679 -0.8872 -3.0000
10060TIP3   OH230124   1.575   4.205   0.898 -0.5485 -0.0805 -0.1218
10060TIP3    H130125   1.572   4.132   0.960  0.6675 -0.3035 -0.3170
10060TIP3    H230126   1.662   4.200   0.859 -1.0942  0.4175 -1.4252
10061TIP3   OH230127   7.594   1.023   4.683 -0.0372 -0.3740  0.1364
10061TIP3    H130128   7.577   0.972   4.604  0.7638 -1.0542  0.3823
10061TIP3    H230129   7.658   0.971   4.732 -0.1658  0.2594  1.0129
10062TIP3   OH230130   5.155   0.783   6.222  0.9260 -0.6723  0.1515
10062TIP3    H130131   5.205   0.825   6.152  0.0219  0.7516  0.3150
10062TIP3    H230132   5.134   0.854   6.283  0.7187 -1.6706  1.2841
10063TIP3   OH230133   0.643   6.026   3.974  0.1371  0.6777  0.3048
10063TIP3    H130134   0.584   5.952   3.957 -1.9498  2.0987  0.8730
10063TIP3    H230135   0.701   6.029   3.898 -0.1024 -1.1713  0.0089
10064TIP3   OH230136   1.140   0.245   2.687 -0.1385 -0.0756  0.0421
10064TIP3    H130137   1.141   0.340   2.702  0.0881 -0.2971  1.5468
10064TIP3    H230138   1.229   0.224   2.658 -0.2722  0.2020 -0.5879
10065TIP3   OH230139   2.640   5.413   3.355 -0.3505 -0.3237  0.4829
10065TIP3    H130140   2.654   5.365   3.274  0.1100 -0.2070  0.4924
10065TIP3    H230141   2.623   5.503   3.327  0.4603 -0.1457  0.5414
10066TIP3   OH230142   6.159   3.218   1.509 -0.1332  0.5431  0.3166
10066TIP3    H130143   6.239   3.271   1.502 -0.2575  0.5663 -1.3185
10066TIP3    H230144   6.184   3.131   1.479 -0.3077  0.0596  1.5213
10067TIP3   OH230145   1.972   5.764   0.076  0.1702  0.0894  0.0070
10067TIP3    H130146   2.033   5.832   0.106  0.4620 -0.4058  0.5553
10067TIP3    H230147   1.896   5.813   0.045 -0.1497  0.6436  1.5503
10068TIP3   OH230148   7.481   4.452   3.760 -0.2290 -0.0890 -0.4452
10068TIP3    H130149   7.446   4.476   3.846  1.0385  0.8083 -0.1551
10068TIP3    H230150   7.420   4.493   3.698  1.1739  3.0304  0.0437
10069TIP3   OH230151   4.961   7.042   4.016  0.1864 -0.6837 -0.1217
10069TIP3    H130152   4.881   7.004   4.052 -0.3127 -0.5684 -1.0912
10069TIP3    H230153   5.029   6.978   4.038 -0.1463 -0.7644  0.7430
10070TIP3   OH230154   0.741   7.733   3.010 -0.0412 -0.4708 -0.4885
10070TIP3    H130155   0.766   7.641   3.011 -0.7665 -0.6718  0.8139
10070TIP3    H230156   0.685   7.744   3.087  1.7338  1.5168  0.6466
10071TIP3   OH230157   1.701   4.080   3.097  1.0718 -0.0544 -0.3483
10071TIP3    H130158   1.718   4.080   3.003  0.0706 -2.1233 -0.5945
10071TIP3    H230159   1.735   4.164   3.128 -0.3935  1.6081 -2.8846
10072TIP3   OH230160   5.011   4.583   3.534 -0.1923 -0.5184 -0.2209
10072TIP3    H130161   5.096   4.549   3.560  0.1947 -0.1132 -0.9455
10072TIP3    H230162   5.002   4.559   3.442 -1.5776 -1.9782  0.2446
10073TIP3   OH230163   1.306   1.381   1.235  0.2148  0.3967 -0.3397
10073TIP3    H130164   1.380   1.321   1.238  0.6808  0.9947  0.9003
10073TIP3    H230165   1.232   1.331   1.269  0.5742  0.4678  0.5732
10074TIP3   OH230166   4.371   6.928  -0.001  0.0071  0.1899 -0.1832
10074TIP3    H130167   4.443   6.937   0.062 -0.2158  1.0313 -0.0336
10074TIP3    H230168   4.301   6.981   0.036 -0.8313 -0.9034 -0.1469
10075TIP3   OH230169   7.874   5.877   2.199 -0.0190 -0.2741  0.3038
10075TIP3    H130170   7.950   5.882   2.256 -0.2265 -0.5922  0.6132
10075TIP3    H230171   7.840   5.788   2.211 -0.4538 -0.1277  0.1907
10076TIP3   OH230172   1.781   2.826   6.129  0.2932  0.0920  0.2520
10076TIP3    H130173   1.758   2.865   6.045 -0.4083  0.2013  0.4894
10076TIP3    H230174   1.841   2.755   6.106  0.6989  0.5913 -0.2714
10077TIP3   OH230175   7.667   2.150   2.803 -0.1887  0.1262  0.4198
10077TIP3    H130176   7.746   2.117   2.845 -0.1199 -0.5288 -0.2038
10077TIP3    H230177   7.678   2.245   2.801 -0.8942  0.3662  3.2839
10078TIP3   OH230178   4.283   0.707   2.080  0.7211  0.2859 -0.3964
10078TIP3    H130179   4.287   0.639   2.013  0.6199 -0.0124 -0.0969
10078TIP3    H230180   4.365   0.697   2.129  1.3067  1.1966 -1.1458
10079TIP3   OH230181   7.867   2.476   4.977  0.3473  0.1086  0.6501
10079TIP3    H130182   7.871   2.510   5.067 -1.5361  0.5079  0.6283
10079TIP3    H230183   7.793   2.522   4.938 -0.0892 -1.4940 -0.4996
10080TIP3   OH230184   2.298   6.788   5.654  0.6986  0.1801  0.9322
10080TIP3    H130185   2.273   6.873   5.690 -0.5489 -0.1075  0.7855
10080TIP3    H230186   2.300   6.801   5.560  2.1633  0.4591  0.9764
10081TIP3   OH230187   5.299   1.984   3.284 -0.5464  0.1833 -0.1747
10081TIP3    H130188   5.307   2.062   3.338 -0.3977 -0.5237  0.8557
10081TIP3    H230189   5.206   1.961   3.289 -0.6369  0.4264 -0.6773
10082TIP3   OH230190   6.697   1.808   0.917  0.2494  0.4458  0.5370
10082TIP3    H130191   6.730   1.786   0.830  1.6718 -0.5530  1.2675
10082TIP3    H230192   6.671   1.900   0.911 -0.4744  0.1711 -1.1407
10083TIP3   OH230193   2.638   2.107   0.052  0.1324  0.2017  0.6517
10083TIP3    H130194   2.595   2.151  -0.021  0.5847 -0.5854 -0.1105
10083TIP3    H230195   2.731   2.114   0.034  0.3837  2.0371  2.3843
10084TIP3   OH230196   1.855   4.192   1.121  0.3193  0.5886 -0.0352
10084TIP3    H130197   1.780   4.227   1.169  0.9975  0.2465  1.3188
10084TIP3    H230198   1.920   4.173   1.189  1.1123 -0.4161 -1.0509
10085TIP3   OH230199   3.730   2.520   6.285 -0.2203  0.0895 -0.0606
10085TIP3    H130200   3.803   2.469   6.249  1.6457  0.9376  2.2133
10085TIP3    H230201   3.711   2.478   6.369 -2.3278 -0.0160 -0.5386
10086TIP3   OH230202   4.672   4.583   6.628  0.2530  0.0569 -0.0991
10086TIP3    H130203   4.636   4.529   6.559 -0.6491 -0.6020  0.8646
10086TIP3    H230204   4.601   4.592   6.692  1.0900  0.5604  0.7935
10087TIP3   OH230205   4.363   1.232   6.511 -0.0006  0.0057  0.0886
10087TIP3    H130206   4.434   1.200   6.567  0.0615  0.3802  0.2219
10087TIP3    H230207   4.318   1.297   6.565 -0.1026  0.1721 -0.1996
10088TIP3   OH230208   7.591   1.500   6.673 -0.4894  0.1225  0.8330
10088TIP3    H130209   7.555   1.528   6.758  1.5988 -1.3822  2.3211
10088TIP3    H230210   7.682   1.530   6.674 -0.9558  2.0252 -1.9243
10089TIP3   OH230211   5.565   7.477   3.984 -0.1740  0.2887 -0.0664
10089TIP3    H130212   5.652   7.510   3.957  1.0669 -1.9868  0.8950
10089TIP3    H230213   5.556   7.505   4.075 -0.1551 -0.0212  0.0315
10090TIP3   OH230214   2.469   1.398   3.785  0.0551  0.7549 -0.0573
10090TIP3    H130215   2.542   1.338   3.773  0.0397  0.4026  1.4328
10090TIP3    H230216   2.494   1.452   3.860 -1.9676 -0.6282  1.7388
10091TIP3   OH230217   0.470   1.564   1.405  0.0251 -0.8855  0.7608
10091TIP3    H130218   0.465   1.471   1.429  1.1974 -1.0625  0.3991
10091TIP3    H230219   0.556   1.573   1.364 -0.7426  0.0074 -0.7311
10092TIP3   OH230220   4.223   3.568   3.458 -0.7796 -0.4137  0.6516
10092TIP3    H130221   4.248   3.479   3.484 -1.9640 -1.2888 -0.9925
10092TIP3    H230222   4.287   3.593   3.392 -1.2236 -0.6239  0.1265
10093TIP3   OH230223   1.350   3.715   4.153 -0.0550  0.6035 -0.9803
10093TIP3    H130224   1.421   3.664   4.191  0.0181  0.6490 -1.0567
10093TIP3    H230225   1.335   3.785   4.216  1.2417  1.7065 -1.8558
10094TIP3   OH230226   6.837   7.526   1.818  0.1776  0.1596  0.0916
10094TIP3    H130227   6.758   7.491   1.861 -0.3182  0.1058 -0.8185
10094TIP3    H230228   6.883   7.573   1.886  0.0165 -0.8965  0.9645
10095TIP3   OH230229   2.778   3.269   0.986  0.5749  0.5652 -0.0409
10095TIP3    H130230   2.762   3.300   1.075  0.9184  0.1094  0.1862
10095TIP3    H230231   2.871   3.249   0.983  0.5134  0.3109 -0.4169
10096TIP3   OH230232   7.334   5.670   6.467 -0.3977 -0.3367 -0.1640
10096TIP3    H130233   7.427   5.674   6.444  0.2719 -1.4784  2.0128
10096TIP3    H230234   7.304   5.586   6.432 -0.4177 -0.2633 -0.3193
10097TIP3   OH230235   5.148   0.634   4.780 -0.2374 -0.1279  0.2348
10097TIP3    H130236   5.186   0.617   4.694  2.6853 -0.7728  1.4972
10097TIP3    H230237   5.086   0.563   4.794 -0.0790 -0.5182 -0.9875
10098TIP3   OH230238   6.875   7.516   4.035  0.8200  0.1202  0.0921
10098TIP3    H130239   6.873   7.443   4.096  0.1706 -1.0281 -1.2602
10098TIP3    H230240   6.853   7.478   3.950 -1.0930  2.1432 -0.4133
10099TIP3   OH230241   7.796   1.002   2.175  0.3097  0.3866  0.0046
10099TIP3    H130242   7.700   1.010   2.174  0.3795  1.3844 -0.8105
10099TIP3    H230243   7.826   1.077   2.124  1.4779 -0.7554 -1.0506
10100TIP3   OH230244   2.510   6.287   5.517 -0.0282 -0.0989  0.2136
10100TIP3    H130245   2.427   6.291   5.469 -0.0123 -0.5214  0.1508
10100TIP3    H230246   2.574   6.328   5.458  0.0481 -0.8638 -0.2497
10101TIP3   OH230247   2.636   4.488   2.740  0.7608 -0.7658  0.4511
10101TIP3    H130248   2.681   4.525   2.816 -0.8818 -1.2943  1.7284
10101TIP3    H230249   2.631   4.561   2.678  0.5116  0.2106  1.5836
10102TIP3   OH230250   3.748   2.680   1.838  0.0934 -0.1895  0.5398
10102TIP3    H130251   3.701   2.639   1.765 -0.9070  0.9326  0.5259
10102TIP3    H230252   3.801   2.749   1.796 -1.2800  1.1555  0.9445
10103TIP3   OH230253   7.478   4.184   3.710 -0.8407 -0.1280 -0.2097
10103TIP3    H130254   7.535   4.184   3.633  1.3521  0.5391  1.3182
10103TIP3    H230255   7.485   4.273   3.745 -3.2736  0.1327 -0.2228
10104TIP3   OH230256   4.189   5.603   4.966  0.2311 -0.0953  0.2665
10104TIP3    H130257   4.158   5.557   5.044 -1.3448  0.3571 -0.0494
10104TIP3    H230258   4.123   5.672   4.952  0.8570  0.2580 -1.0693
10105TIP3   OH230259   4.390   0.039   2.205 -0.3724 -0.9227 -0.5034
10105TIP3    H130260   4.338  -0.036   2.236 -0.0180 -1.2860 -0.7740
10105TIP3    H230261   4.383   0.034   2.110 -1.6202  0.3035 -0.5057
10106TIP3   OH230262   5.690   0.095   6.227 -0.0858 -0.3440 -0.4219
10106TIP3    H130263   5.759   0.039   6.192 -0.2708 -0.4449 -0.6318
10106TIP3    H230264   5.622   0.034   6.256  0.0596 -0.2573  0.0953
10107TIP3   OH230265   6.258   0.828   4.672 -0.0668  0.1308 -0.4763
10107TIP3    H130266   6.176   0.860   4.710 -1.2717 -3.2193  0.0636
10107TIP3    H230267   6.253   0.852   4.579 -1.2808  0.6087 -0.3035
10108TIP3   OH230268   2.023   4.873   6.600  0.2733  0.1129 -0.8761
10108TIP3    H130269   2.026   4.939   6.531  0.9259  0.1570 -0.8061
10108TIP3    H230270   2.114   4.856   6.621  0.0874  0.7030  0.5378
10109TIP3   OH230271   0.927   4.727   4.506 -0.6002 -0.1002 -0.2240
10109TIP3    H130272   0.983   4.802   4.486  0.1960 -0.6189  0.0407
10109TIP3    H230273   0.838   4.763   4.505 -0.1779  1.0400  0.7237
10110TIP3   OH230274   1.865   3.386   4.767  0.4857  0.0116  0.1604
10110TIP3    H130275   1.826   3.397   4.680  0.0925  0.7206  0.4162
10110TIP3    H230276   1.791   3.383   4.827  0.7807  1.6656  0.6811
10111TIP3   OH230277   6.301   7.359   2.350  0.1655 -0.0380  0.2421
10111TIP3    H130278   6.356   7.327   2.278 -1.8782 -0.6063 -1.1375
10111TIP3    H230279   6.265   7.441   2.318  0.8475  0.7908  1.4996
10112TIP3   OH230280   7.915   4.647   6.016 -0.2977 -0.3481  0.1453
10112TIP3    H130281   7.832   4.635   6.062  0.1583 -0.6167  0.9195
10112TIP3    H230282   7.928   4.742   6.012 -0.4017 -0.3179  0.4765
10113TIP3   OH230283   5.590   6.788   5.873 -0.8163  0.3282  0.4120
10113TIP3    H130284   5.611   6.852   5.941  0.5947  0.8677 -0.4986
10113TIP3    H230285   5.496   6.770   5.885 -0.6480  0.5412  2.3576
10114TIP3   OH230286   6.712   7.757   5.464 -0.3604  0.0478 -0.0990
10114TIP3    H130287   6.655   7.826   5.431 -1.3648 -0.5571  0.3122
10114TIP3    H230288   6.781   7.749   5.398 -0.4086  1.2062 -0.3076
10115TIP3   OH230289   4.900   1.797   5.056 -0.1974  0.0730 -0.1714
10115TIP3    H130290   4.880   1.874   5.109 -5.0604 -0.2679 -1.0468
10115TIP3    H230291   4.848   1.727   5.094 -0.1943 -1.3635 -2.6126
10116TIP3   OH230292   3.821   5.126   1.254 -0.0190  0.1992 -0.0375
10116TIP3    H130293   3.773   5.124   1.337 -1.5417  0.3750 -0.8756
10116TIP3    H230294   3.910   5.151   1.278  0.1137 -1.7745  1.7737
10117TIP3   OH230295   6.431   7.287   4.990  0.4841  0.3957  0.5564
10117TIP3    H130296   6.518   7.270   4.954 -0.6483 -0.4176 -2.0794
10117TIP3    H230297   6.402   7.203   5.024 -0.3093 -0.0866 -1.1838
10118TIP3   OH230298   2.003   7.268   4.185  0.0761 -0.1212  0.0773
10118TIP3    H130299   2.042   7.184   4.164  0.9611  0.2794  0.0876
10118TIP3    H230300   1.946   7.250   4.260  0.8715 -0.5632  0.5910
10119TIP3   OH230301   3.128   3.656   1.096  0.6242 -0.3254  0.4954
10119TIP3    H130302   3.156   3.615   1.014 -0.2610  0.6902 -0.3409
10119TIP3    H230303   3.162   3.745   1.091  0.2719 -0.1541  1.0763
10120TIP3   OH230304   6.413   3.166   0.955 -0.3129  0.5581  0.3811
10120TIP3    H130305   6.494   3.136   0.998 -1.1040 -0.1401  1.4375
10120TIP3    H230306   6.378   3.233   1.013 -0.4015  1.0064 -0.1780
10121TIP3   OH230307   5.530   3.477   2.007 -0.4091 -0.2873  0.9596
10121TIP3    H130308   5.510   3.547   1.946 -1.5959 -1.9347 -0.6534
10121TIP3    H230309   5.591   3.516   2.070  0.2749  1.6974 -0.8266
10122TIP3   OH230310   0.231   0.076   0.822  0.3751 -0.8633  0.4915
10122TIP3    H130311   0.198   0.034   0.901 -2.0795  1.5675  0.9103
10122TIP3    H230312   0.167   0.054   0.755 -1.4563  2.5393  0.8958
10123TIP3   OH230313   0.283   1.308   3.684  0.3449 -0.0220  0.0282
10123TIP3    H130314   0.200   1.260   3.683  1.0465 -1.5467  2.7742
10123TIP3    H230315   0.323   1.289   3.599 -0.3314 -2.7821  0.2167
10124TIP3   OH230316   4.623   1.005   1.668  0.3685  0.5521 -0.1124
10124TIP3    H130317   4.682   0.941   1.707  0.0450  0.0060 -0.5031
10124TIP3    H230318   4.610   0.974   1.578 -2.6266 -0.8726  0.6913
10125TIP3   OH230319   2.204   1.826   1.837  0.0317  0.4641  0.3232
10125TIP3    H130320   2.210   1.858   1.927  0.3703 -0.8803  0.8049
10125TIP3    H230321   2.121   1.862   1.804 -0.6443  0.0790  1.5390
10126TIP3   OH230322   3.798   0.097   1.283  0.6498 -0.2144 -0.0185
10126TIP3    H130323   3.746   0.041   1.341  0.9382 -0.0778  0.3792
10126TIP3    H230324   3.744   0.107   1.205  0.4001 -0.6774  0.0895
10127TIP3   OH230325   2.547   6.455   5.153  0.6881  0.2116  0.0807
10127TIP3    H130326   2.630   6.497   5.179  0.4614 -0.1971  1.5122
10127TIP3    H230327   2.483   6.487   5.217 -0.0840 -0.1507 -0.5012
10128TIP3   OH230328   3.574   1.609   3.819 -0.5024 -0.4996  0.1385
10128TIP3    H130329   3.633   1.576   3.887  0.1237  0.8226  0.2689
10128TIP3    H230330   3.614   1.579   3.737  0.3487  0.3269  0.2265
10129TIP3   OH230331   6.471   6.473   0.370 -0.6073  0.3893 -0.0886
10129TIP3    H130332   6.395   6.530   0.359 -0.2699  0.3488 -3.4202
10129TIP3    H230333   6.434   6.384   0.371 -0.7002  0.4187 -0.6456
10130TIP3   OH230334   5.188   6.064   5.051  0.3115  0.5570  0.6822
10130TIP3    H130335   5.184   6.158   5.036 -0.7445  0.7637  2.1053
10130TIP3    H230336   5.146   6.025   4.975  1.6460  1.1504 -0.4080
10131TIP3   OH230337   1.447   1.148   1.867  0.6788  0.6403  0.3434
10131TIP3    H130338   1.360   1.182   1.884  0.5506 -0.6408  2.5189
10131TIP3    H230339   1.434   1.055   1.849  1.6216  0.3667  1.0093
10132TIP3   OH230340   2.580   2.857   0.516 -0.2055  0.0919 -0.4885
10132TIP3    H130341   2.535   2.924   0.567  0.9061  1.9557 -1.8194
10132TIP3    H230342   2.650   2.826   0.573 -0.3640  0.4839 -0.0770
10133TIP3   OH230343   0.863   4.179   3.764  0.0963 -0.2088 -0.3798
10133TIP3    H130344   0.931   4.225   3.813 -0.3720 -0.9884  1.0624
10133TIP3    H230345   0.781   4.204   3.808 -0.4681  0.0218 -1.5342
10134TIP3   OH230346   2.916   1.932   0.898 -0.2867  0.0960  0.5787
10134TIP3    H130347   2.901   1.860   0.837  1.3059  0.3523 -0.1701
10134TIP3    H230348   2.988   1.902   0.953 -1.3039  0.1208  1.9592
10135TIP3   OH230349   3.944   2.516   1.208  0.5673  0.3413 -0.5234
10135TIP3    H130350   3.951   2.604   1.247 -1.1478 -0.0822  0.9020
10135TIP3    H230351   3.850   2.500   1.203  0.7569 -2.5135  1.9544
10136TIP3   OH230352   5.520   6.492   0.631  1.1498 -0.3000 -0.7436
10136TIP3    H130353   5.449   6.539   0.674  2.8842 -0.4330  2.6125
10136TIP3    H230354   5.562   6.558   0.575  0.4523  0.6999 -0.1070
10137TIP3   OH230355   0.792   2.319   1.250 -0.3080  0.2217  0.2666
10137TIP3    H130356   0.887   2.333   1.249 -0.3358  0.3711 -0.3652
10137TIP3    H230357   0.782   2.224   1.247 -0.1651  0.1241  1.8019
10138TIP3   OH230358   2.507   0.697   3.219 -0.1507 -0.5669 -0.2336
10138TIP3    H130359   2.488   0.790   3.207 -1.6033 -0.6809  0.8952
10138TIP3    H230360   2.425   0.660   3.252  0.2321 -2.3588 -1.1701
10139TIP3   OH230361   0.591   6.196   5.485 -0.2155  0.3205 -0.0992
10139TIP3    H130362   0.530   6.223   5.554 -1.3905  1.0082 -1.3587
10139TIP3    H230363   0.537   6.144   5.425  1.2801 -2.1895  0.5851
10140TIP3   OH230364   7.062   4.997   6.669 -0.0579  0.0090  0.1140
10140TIP3    H130365   7.023   5.047   6.741 -1.1199  0.2437 -0.6005
10140TIP3    H230366   7.152   4.981   6.697  0.0808  1.6482  0.6997
10141TIP3   OH230367   0.625   7.187   2.277 -0.9107  0.6001 -0.2229
10141TIP3    H130368   0.680   7.113   2.301 -0.8040  0.5231 -0.6958
10141TIP3    H230369   0.554   7.186   2.341 -0.6634  0.3640  0.0470
10142TIP3   OH230370   4.396   7.299   2.184 -0.4653  0.2504  0.3205
10142TIP3    H130371   4.476   7.249   2.202  0.2779  1.1149 -0.4906
10142TIP3    H230372   4.372   7.275   2.095 -1.5557 -0.5585  0.7976
10143TIP3   OH230373   2.863   7.699   6.724  0.3561 -0.6972 -0.7181
10143TIP3    H130374   2.788   7.752   6.695  1.5157  4.3466  3.8573
10143TIP3    H230375   2.826   7.642   6.792  0.1254 -0.6223 -0.7779
10144TIP3   OH230376   1.987   5.838   1.222  0.0633 -1.0368  0.3107
10144TIP3    H130377   1.923   5.783   1.267 -0.4194 -0.4039  0.3998
10144TIP3    H230378   2.056   5.777   1.195  0.4965 -1.4070  2.1077
10145TIP3   OH230379   6.049   2.848   0.723 -0.1334 -0.0595  0.5912
10145TIP3    H130380   5.961   2.885   0.722  0.6488  1.9839  1.1287
10145TIP3    H230381   6.084   2.867   0.636 -1.2864 -3.9439 -0.9372
10146TIP3   OH230382   6.741   4.877   5.151  0.0247 -0.1153  0.4819
10146TIP3    H130383   6.684   4.804   5.175  0.0114 -0.3479 -0.2558
10146TIP3    H230384   6.787   4.848   5.072 -0.2430  0.8013 -0.0283
10147TIP3   OH230385   1.810   1.121   5.627 -0.5101  0.4398  0.0221
10147TIP3    H130386   1.833   1.030   5.647 -2.2547  0.1185  0.7496
10147TIP3    H230387   1.729   1.114   5.576 -0.0138  1.5648 -0.9702
10148TIP3   OH230388   4.529   7.233   4.426 -0.0314 -0.3770 -0.3093
10148TIP3    H130389   4.568   7.286   4.356 -0.0057 -0.3672 -0.2870
10148TIP3    H230390   4.501   7.297   4.492 -0.0604 -0.3860 -0.3129
10149TIP3   OH230391   1.476   5.359   5.520  0.7146 -0.0548 -0.6384
10149TIP3    H130392   1.458   5.424   5.452  1.2564 -0.2687 -0.9936
10149TIP3    H230393   1.571   5.360   5.530  0.6626 -0.2112 -0.0611
10150TIP3   OH230394   0.401   3.518   2.666 -0.1762 -0.0710 -0.2582
10150TIP3    H130395   0.323   3.482   2.623 -1.7268  1.4625  1.1044
10150TIP3    H230396   0.406   3.608   2.635  0.3606  0.1974  0.5746
10151TIP3   OH230397   0.055   3.470   6.341 -0.2451 -0.2756  0.1632
10151TIP3    H130398   0.017   3.473   6.429  0.0192 -1.9189  0.3651
10151TIP3    H230399   0.003   3.406   6.294 -0.9585  1.2325 -1.2188
10152TIP3   OH230400   5.851   2.448   6.022 -0.2123  0.2901 -0.4220
10152TIP3    H130401   5.833   2.363   6.062  0.8082  0.5877  0.7239
10152TIP3    H230402   5.942   2.468   6.046 -0.9670  2.5428  0.9654
10153TIP3   OH230403   1.986   6.353   5.794 -0.0276 -0.5806 -0.2534
10153TIP3    H130404   2.051   6.422   5.780 -1.5170  0.5866 -1.7296
10153TIP3    H230405   1.957   6.329   5.706 -0.4483 -2.2430  0.2972
10154TIP3   OH230406   3.992   1.249   6.573  0.0038  0.1063 -0.1957
10154TIP3    H130407   3.902   1.218   6.587 -0.4716  1.5376  0.0183
10154TIP3    H230408   4.007   1.235   6.479 -1.3999  2.1946 -0.7967
10155TIP3   OH230409   6.339   3.818   5.152  0.0664 -0.0570  0.4869
10155TIP3    H130410   6.308   3.789   5.067  0.9316  0.7368 -0.1220
10155TIP3    H230411   6.294   3.762   5.215 -0.8032 -0.4575 -0.4711
10156TIP3   OH230412   3.251   6.108   4.144 -0.4925  0.2513  0.3417
10156TIP3    H130413   3.345   6.114   4.130 -0.8273  1.7027 -1.7485
10156TIP3    H230414   3.242   6.086   4.237  1.8928  1.4244  0.9358
10157TIP3   OH230415   5.455   0.204   4.988 -0.3193  0.0192 -0.1341
10157TIP3    H130416   5.545   0.225   4.963  0.2375 -2.1127 -0.1720
10157TIP3    H230417   5.402   0.235   4.915  0.6613 -0.8328 -1.2578
10158TIP3   OH230418   4.969   0.078   0.946 -0.8961  0.5531  0.3315
10158TIP3    H130419   4.941  -0.000   0.994 -0.8473 -0.1461 -0.7323
10158TIP3    H230420   5.004   0.044   0.864  0.0629  1.6426  0.2712
10159TIP3   OH230421   0.179   1.654   2.088 -0.1336 -0.6034  0.2304
10159TIP3    H130422   0.267   1.631   2.058  0.0638  0.1186  0.2454
10159TIP3    H230423   0.139   1.700   2.015  0.0200  0.3413  0.7213
10160TIP3   OH230424   1.744   7.159   5.042 -0.2671  0.0321 -0.5126
10160TIP3    H130425   1.692   7.097   5.094  1.2894 -1.9767 -1.1979
10160TIP3    H230426   1.834   7.128   5.051  0.4399  1.5871 -1.7803
10161TIP3   OH230427   1.805   7.710   0.896  0.2545  0.5625 -0.3811
10161TIP3    H130428   1.896   7.689   0.872  0.9719 -0.7789  2.9003
10161TIP3    H230429   1.812   7.789   0.949 -0.3408 -0.0549  0.6440
10162TIP3   OH230430   5.889   6.327   0.912 -0.2467  0.2772  0.2365
10162TIP3    H130431   5.838   6.406   0.896  0.6527  1.3907  2.3592
10162TIP3    H230432   5.946   6.351   0.986  0.6891 -2.0747  0.3441
10163TIP3   OH230433   5.704   6.341   5.586 -0.7115 -0.8066  0.4130
10163TIP3    H130434   5.787   6.313   5.624 -0.0333  0.1384 -0.3168
10163TIP3    H230435   5.647   6.356   5.661 -0.2197 -1.4520  0.9221
10164TIP3   OH230436   7.888   5.306   1.528  0.0863  0.2235 -0.2742
10164TIP3    H130437   7.884   5.211   1.522  0.5756  0.2313 -0.7655
10164TIP3    H230438   7.942   5.323   1.606  1.6842  0.0764 -1.2968
10165TIP3   OH230439   6.369   6.589   4.201 -0.4382 -0.1207  0.6789
10165TIP3    H130440   6.348   6.537   4.123 -1.7224 -0.9357  1.5109
10165TIP3    H230441   6.410   6.668   4.168  1.1655 -1.4637 -0.6766
10166TIP3   OH230442   0.673   6.831   2.986  0.0548 -0.1551  0.2680
10166TIP3    H130443   0.580   6.831   3.009 -0.2012 -0.2017 -0.7391
10166TIP3    H230444   0.675   6.818   2.891  1.1362 -1.8541  0.4822
10167TIP3   OH230445   4.217   3.442   0.713 -0.0160 -0.0867 -0.5295
10167TIP3    H130446   4.144   3.385   0.688  0.1229  0.1325 -1.5009
10167TIP3    H230447   4.264   3.393   0.780 -0.9242 -0.3314 -0.0528
10168TIP3   OH230448   3.520   0.886   1.174 -0.1649 -0.5371 -0.2562
10168TIP3    H130449   3.465   0.811   1.193  0.4571 -0.8809  0.2439
10168TIP3    H230450   3.468   0.962   1.202  0.3855 -0.9721  2.2090
10169TIP3   OH230451   2.243   5.493   1.482  0.1247  0.8410  0.1839
10169TIP3    H130452   2.212   5.475   1.393 -0.6239  2.4319  0.0803
10169TIP3    H230453   2.168   5.471   1.538  0.6486 -0.3097  0.4523
10170TIP3   OH230454   4.730   3.710   0.802 -0.4944 -0.0474  0.4825
10170TIP3    H130455   4.636   3.729   0.800 -0.3519  0.7941  1.1930
10170TIP3    H230456   4.736   3.616   0.789 -1.3785  0.0249 -0.6035
10171TIP3   OH230457   1.386   1.700   0.139  0.4157 -0.8345  0.3700
10171TIP3    H130458   1.419   1.653   0.063  1.3765  1.2243 -0.5744
10171TIP3    H230459   1.464   1.737   0.180 -0.3495  3.1664 -1.2376
10172TIP3   OH230460   4.557   5.894   3.723  0.3884 -0.1166  0.4636
10172TIP3    H130461   4.618   5.945   3.777  0.5835 -0.5891  0.6948
10172TIP3    H230462   4.470   5.921   3.752  0.4252  1.6924 -0.8970
10173TIP3   OH230463   7.735   4.033   3.212  0.5991  0.8080  0.0579
10173TIP3    H130464   7.760   4.054   3.122 -1.0915  1.4352 -0.3209
10173TIP3    H230465   7.802   3.973   3.243  0.9425  0.1704 -1.7993
10174TIP3   OH230466   7.268   6.816   3.486 -0.5495  0.3639  0.7244
10174TIP3    H130467   7.193   6.852   3.439  0.6721  1.3314 -0.5609
10174TIP3    H230468   7.238   6.731   3.518 -2.2082  0.7652  0.3102
10175TIP3   OH230469   0.711   0.362   1.603  0.3160 -0.0396 -0.6388
10175TIP3    H130470   0.766   0.408   1.666 -0.4383 -0.2032  0.1523
10175TIP3    H230471   0.623   0.396   1.618  0.2094  0.3453 -2.0027
10176TIP3   OH230472   8.011   2.331   1.956 -0.0164  0.5846  0.7601
10176TIP3    H130473   8.073   2.343   1.885 -0.3352 -1.1521  0.1314
10176TIP3    H230474   7.948   2.402   1.946 -0.8536 -0.3795 -1.6113
10177TIP3   OH230475   0.881   2.343   4.850  0.2346 -0.6031  0.4706
10177TIP3    H130476   0.826   2.312   4.922  0.6908  0.0749  1.1357
10177TIP3    H230477   0.838   2.312   4.771 -0.5909 -0.8764  1.0156
10178TIP3   OH230478   6.455   0.245   5.648  0.0673  0.6902  0.1511
10178TIP3    H130479   6.496   0.315   5.699  0.6444 -0.1344  0.8368
10178TIP3    H230480   6.427   0.181   5.714  1.0547 -0.5123 -0.5788
10179TIP3   OH230481   2.283   1.612   1.140  0.3541 -0.0743 -0.3917
10179TIP3    H130482   2.230   1.533   1.133 -0.0086  0.1413 -0.0947
10179TIP3    H230483   2.224   1.678   1.178 -0.1812  1.0948 -3.0220
10180TIP3   OH230484   2.664   5.247   2.456  0.0457 -0.3034 -0.1235
10180TIP3    H130485   2.584   5.194   2.456 -0.4044  0.3423  0.7812
10180TIP3    H230486   2.634   5.335   2.436  0.4105  0.0933  0.9770
10181TIP3   OH230487   6.002   1.428   3.653 -0.2493 -0.4190  0.3745
10181TIP3    H130488   6.034   1.432   3.563  0.4533 -0.8078  0.5936
10181TIP3    H230489   6.033   1.509   3.693 -0.8508 -0.0879  0.1829
10182TIP3   OH230490   0.215   2.984   0.112  0.3705  0.2330  0.3557
10182TIP3    H130491   0.153   3.020   0.176  0.0025  0.9001 -0.3636
10182TIP3    H230492   0.179   2.898   0.089 -0.3363  0.6551 -0.1233
10183TIP3   OH230493   5.477   5.873   5.864 -0.6585  0.2724 -0.5152
10183TIP3    H130494   5.459   5.864   5.770 -0.0656 -0.0714 -0.5961
10183TIP3    H230495   5.433   5.798   5.904 -1.0777  0.5271 -0.4939
10184TIP3   OH230496   0.880   5.739   6.454  0.3220 -0.1375  0.0272
10184TIP3    H130497   0.791   5.774   6.452  0.6538  0.7178 -0.1992
10184TIP3    H230498   0.935   5.812   6.426  0.9595 -1.1142 -1.3919
10185TIP3   OH230499   4.331   1.136   1.492  0.4145  0.0112 -0.3078
10185TIP3    H130500   4.409   1.087   1.520  0.7587  0.6980 -0.0143
10185TIP3    H230501   4.364   1.225   1.479 -0.0419  0.0032 -1.5718
10186TIP3   OH230502   5.945   4.125   1.881  0.0347  0.0521  0.0450
10186TIP3    H130503   5.868   4.177   1.902  0.5938  0.7985  0.2803
10186TIP3    H230504   5.998   4.127   1.961  0.2669 -0.5099 -0.0905
10187TIP3   OH230505   7.469   0.161   2.701 -0.1660 -0.4961  0.2898
10187TIP3    H130506   7.425   0.178   2.617  1.1753  1.8198 -0.0335
10187TIP3    H230507   7.439   0.232   2.758  1.7421  0.1128  0.5992
10188TIP3   OH230508   4.799   5.013   1.238 -0.1063  0.4340  0.1501
10188TIP3    H130509   4.793   5.105   1.264  0.1357  0.8240 -1.0794
10188TIP3    H230510   4.789   5.015   1.142  0.0994 -0.7946  0.0904
10189TIP3   OH230511   0.824   7.272   1.264  0.3013 -0.4234  0.2986
10189TIP3    H130512   0.763   7.315   1.323 -1.9734 -3.3212  0.2783
10189TIP3    H230513   0.877   7.216   1.322  0.7557 -0.3517 -0.0385
10190TIP3   OH230514   6.224   4.969   0.851 -0.4954  0.3301 -0.5855
10190TIP3    H130515   6.187   4.883   0.872  0.9190 -0.1381  0.0861
10190TIP3    H230516   6.203   4.981   0.758 -0.6374 -0.7770 -0.7130
10191TIP3   OH230517   1.330   3.742   4.968  0.3037  0.0332 -0.0678
10191TIP3    H130518   1.257   3.744   5.031  0.0147 -1.5323 -0.3079
10191TIP3    H230519   1.349   3.834   4.950 -2.1360  0.4944 -0.5890
10192TIP3   OH230520   0.178   6.556   4.883 -0.4841 -0.1324  0.0593
10192TIP3    H130521   0.134   6.641   4.879  1.5185  0.9603 -0.8273
10192TIP3    H230522   0.170   6.528   4.974 -0.5553  1.3859  0.5393
10193TIP3   OH230523   4.694   3.685   5.781 -0.6365  0.4959  0.1720
10193TIP3    H130524   4.662   3.702   5.693  1.0367 -0.3978 -0.6443
10193TIP3    H230525   4.751   3.609   5.772  0.2714  0.9284  1.8710
10194TIP3   OH230526   3.173   5.345   1.772  0.6883 -0.1784  0.5648
10194TIP3    H130527   3.159   5.373   1.681  2.7256  0.3725  0.3776
10194TIP3    H230528   3.110   5.397   1.822 -0.1867 -0.1866 -0.4785
10195TIP3   OH230529   5.197   7.840   1.498 -0.0193  0.5637  0.1899
10195TIP3    H130530   5.234   7.782   1.564  0.1802 -0.1382 -0.5196
10195TIP3    H230531   5.173   7.783   1.426  0.2178  1.3626 -0.5474
10196TIP3   OH230532   1.073   4.368   5.205 -0.1271 -0.1726 -0.5380
10196TIP3    H130533   1.120   4.329   5.278 -0.3601 -1.4904 -1.0762
10196TIP3    H230534   0.984   4.382   5.238 -0.5046 -1.6824 -0.8433
10197TIP3   OH230535   6.121   1.074   6.577  0.1719 -0.2266 -0.0247
10197TIP3    H130536   6.035   1.031   6.572 -0.5147  1.1420 -0.3411
10197TIP3    H230537   6.121   1.115   6.664 -0.9366  2.6225 -1.2624
10198TIP3   OH230538   2.634   4.601   4.746 -0.3609  0.2160 -0.1623
10198TIP3    H130539   2.551   4.581   4.789 -0.6719 -1.6920 -1.5222
10198TIP3    H230540   2.696   4.538   4.782  0.6687  1.8815  1.1381
10199TIP3   OH230541   0.612   5.425   1.799  0.1757  0.3922 -0.6054
10199TIP3    H130542   0.576   5.402   1.713 -0.1707 -1.9074  0.0935
10199TIP3    H230543   0.677   5.356   1.816  0.4835  1.0180  0.8259
10200TIP3   OH230544   8.203   1.443   5.378  0.4325  0.8378 -0.4755
10200TIP3    H130545   8.287   1.463   5.420  1.6763 -0.4200 -2.2010
10200TIP3    H230546   8.215   1.355   5.342 -2.2853 -0.1331  0.7315
10201TIP3   OH230547   7.959   1.014   4.670 -0.2532 -0.2328 -0.1008
10201TIP3    H130548   7.955   1.083   4.736  0.3916 -0.7374  0.4900
10201TIP3    H230549   8.034   0.960   4.697 -0.2748 -0.7234 -0.9777
10202TIP3   OH230550   0.982   2.742   6.402 -0.4866  0.9738  0.0205
10202TIP3    H130551   0.921   2.816   6.403  1.6491  2.8367 -0.1879
10202TIP3    H230552   1.018   2.742   6.314 -1.1696 -1.0383 -0.3202
10203TIP3   OH230553   5.227   1.421   4.823  0.0680  0.0975 -0.6433
10203TIP3    H130554   5.196   1.445   4.910  0.8005 -1.1254 -0.0102
10203TIP3    H230555   5.154   1.375   4.782 -0.0955  0.2011 -0.4638
10204TIP3   OH230556   7.564   3.685   1.334 -0.1295  0.0389 -0.0695
10204TIP3    H130557   7.475   3.683   1.369 -0.7290 -3.0668 -1.4164
10204TIP3    H230558   7.565   3.618   1.265  3.5498 -0.9246  0.6618
10205TIP3   OH230559   0.042   3.940   5.083 -0.0384 -0.2622  0.0714
10205TIP3    H130560   0.117   3.912   5.135 -1.2130 -2.2286  0.7943
10205TIP3    H230561   0.013   3.861   5.039 -1.2189  0.6416 -0.8168
10206TIP3   OH230562   6.751   4.708   4.009 -0.0281 -0.1375  0.3563
10206TIP3    H130563   6.762   4.725   3.916  0.9391 -0.6644  0.3590
10206TIP3    H230564   6.747   4.794   4.050 -2.4953  0.1649 -0.3473
10207TIP3   OH230565   1.821   3.231   5.206  0.1992 -0.0785 -0.2708
10207TIP3    H130566   1.872   3.296   5.158 -0.4156  1.0376  0.5506
10207TIP3    H230567   1.731   3.241   5.174 -0.0875  0.1878  0.5844
10208TIP3   OH230568   1.629   6.675   0.814 -0.2243 -0.3109  0.1004
10208TIP3    H130569   1.549   6.626   0.794  0.3357 -1.0053 -0.4719
10208TIP3    H230570   1.653   6.716   0.731 -0.3726  0.4848  0.4411
10209TIP3   OH230571   0.407   6.784   6.453  0.2614  0.1453 -0.4971
10209TIP3    H130572   0.354   6.714   6.415  0.2778  1.3147 -2.8820
10209TIP3    H230573   0.483   6.739   6.491 -0.4943 -1.2304 -0.5474
10210TIP3   OH230574   1.981   6.295   6.286 -0.0553  0.3193  0.7596
10210TIP3    H130575   1.920   6.226   6.311  0.3251 -0.6432 -0.8117
10210TIP3    H230576   1.930   6.351   6.228  1.1419 -2.1479 -3.0788
10211TIP3   OH230577   4.894   0.357   2.150 -0.0049  0.3733 -0.3192
10211TIP3    H130578   4.982   0.378   2.183 -0.0601  0.1187 -0.0059
10211TIP3    H230579   4.865   0.437   2.107  0.3531  0.4839 -0.3570
10212TIP3   OH230580   2.446   5.945   6.360 -0.4994 -0.0926  0.4458
10212TIP3    H130581   2.541   5.948   6.367 -0.3699 -1.3735 -0.4359
10212TIP3    H230582   2.416   6.015   6.417  1.0451  2.1425 -1.2758
10213TIP3   OH230583   3.152   1.301   6.612  0.1794  0.0277 -0.4381
10213TIP3    H130584   3.092   1.227   6.603  2.9857 -2.3371 -1.2480
10213TIP3    H230585   3.150   1.343   6.526 -0.5188  0.1341 -0.3727
10214TIP3   OH230586   7.645   7.051   2.894 -0.3628  0.5128  0.2225
10214TIP3    H130587   7.669   7.006   2.975  2.0314  0.2941 -0.5416
10214TIP3    H230588   7.645   6.983   2.827 -0.4022  1.0188 -0.3023
10215TIP3   OH230589   2.513   7.021   5.599  0.1432  0.4809  0.2260
10215TIP3    H130590   2.422   6.993   5.614 -0.1569  1.3016  0.0296
10215TIP3    H230591   2.525   7.094   5.660  0.4993  0.7116 -0.1197
10216TIP3   OH230592   0.220   1.157   5.505 -0.5142  0.2714  0.1837
10216TIP3    H130593   0.205   1.130   5.414  0.0710  0.0099  0.1562
10216TIP3    H230594   0.221   1.253   5.502 -0.4141  0.2623 -0.1016
10217TIP3   OH230595   2.641   5.589   1.808  0.4635  0.8886 -0.5596
10217TIP3    H130596   2.610   5.505   1.843 -0.2305  1.9142  1.4781
10217TIP3    H230597   2.603   5.593   1.720 -0.3270 -0.4949 -0.3243
10218TIP3   OH230598   0.359   2.689   0.402  0.2694  0.2019 -0.2562
10218TIP3    H130599   0.418   2.713   0.473  0.1482 -0.9518  0.2688
10218TIP3    H230600   0.407   2.624   0.352  0.1018  0.5353 -0.8508
10219TIP3   OH230601   0.222   2.457   4.449  0.1931 -0.0612  0.1599
10219TIP3    H130602   0.225   2.387   4.514 -1.3308  0.4677  0.8351
10219TIP3    H230603   0.130   2.463   4.425  0.3988  1.2934 -0.3593
10220TIP3   OH230604   4.576   7.571   2.330  0.1209 -0.2798  0.8712
10220TIP3    H130605   4.590   7.626   2.253 -0.5481 -0.1793  0.8146
10220TIP3    H230606   4.488   7.593   2.360 -0.1270 -1.2490  0.9058
10221TIP3   OH230607   0.514   6.824   0.126  0.1780 -0.5635 -0.0528
10221TIP3    H130608   0.536   6.850   0.036  0.1899  2.8598  0.8332
10221TIP3    H230609   0.521   6.904   0.177 -0.8868 -2.1859  2.8668
10222TIP3   OH230610   0.343   0.251   0.625  0.2026  0.2206 -0.2286
10222TIP3    H130611   0.437   0.263   0.637 -0.1442  2.7705  0.5293
10222TIP3    H230612   0.318   0.188   0.694  1.1985  0.2484  0.1696
10223TIP3   OH230613   1.443   5.206   3.405  0.3768  0.6417  0.0989
10223TIP3    H130614   1.521   5.222   3.457 -0.6045  0.3706  1.7020
10223TIP3    H230615   1.376   5.262   3.443 -0.5382 -0.0203 -0.4801
10224TIP3   OH230616   0.227   5.713   6.011  0.3961 -0.3435  0.0506
10224TIP3    H130617   0.192   5.699   5.923  0.7287  0.7803 -0.2807
10224TIP3    H230618   0.265   5.628   6.036  2.9699  0.0369 -2.1321
10225TIP3   OH230619   6.299   5.335   3.587  0.4087  0.0870  0.2415
10225TIP3    H130620   6.376   5.303   3.633  0.0868  0.2129  0.8899
10225TIP3    H230621   6.273   5.263   3.529  1.1669  0.1504 -0.1821
10226TIP3   OH230622   2.031   0.869   0.745  0.5621  0.3565  0.2104
10226TIP3    H130623   2.057   0.814   0.671 -0.2002 -2.0732  1.6485
10226TIP3    H230624   2.025   0.809   0.819 -0.4226  2.3839  1.8799
10227TIP3   OH230625   7.065   1.222   1.333 -0.1418  0.5197 -0.2172
10227TIP3    H130626   7.007   1.259   1.266  1.0400 -1.0041 -2.1655
10227TIP3    H230627   7.153   1.235   1.299  0.4703 -0.7300  0.8094
10228TIP3   OH230628   7.650   1.875   3.700  0.0686 -0.4722  0.1115
10228TIP3    H130629   7.654   1.949   3.761 -0.6393 -0.3296  0.0013
10228TIP3    H230630   7.563   1.882   3.660  0.0171 -1.3266  0.0529
10229TIP3   OH230631   5.004   1.471   2.915  0.5095 -0.2114  0.5032
10229TIP3    H130632   4.920   1.505   2.945  0.7120 -0.8565  1.8563
10229TIP3    H230633   4.982   1.395   2.862  0.2574 -0.5884  1.1486
10230TIP3   OH230634   2.962   1.689   5.092 -0.1852  0.1226  0.2431
10230TIP3    H130635   2.897   1.689   5.022  0.8715  0.1444 -0.7786
10230TIP3    H230636   3.041   1.723   5.051  0.0508  1.6705  1.8730
10231TIP3   OH230637   3.714   5.865   0.081 -0.1962  0.2952 -0.4485
10231TIP3    H130638   3.798   5.910   0.074  0.3959 -0.6626  0.1836
10231TIP3    H230639   3.694   5.839  -0.009  0.8777 -0.6455 -0.4447
10232TIP3   OH230640   8.242   3.684   3.007  0.2560 -0.7980  0.3491
10232TIP3    H130641   8.321   3.666   2.956  1.1934  0.1518  1.3883
10232TIP3    H230642   8.274   3.693   3.097 -1.2543 -1.8751  1.0322
10233TIP3   OH230643   0.877   6.219   0.891  0.1796 -0.0963 -0.3909
10233TIP3    H130644   0.816   6.292   0.878  1.3053  0.6957 -1.4399
10233TIP3    H230645   0.935   6.222   0.815  1.4662 -0.8769  0.5161
10234TIP3   OH230646   8.079   4.247   5.578 -0.2478 -0.1487  0.0321
10234TIP3    H130647   8.132   4.230   5.500 -0.2025  0.8348 -0.1637
10234TIP3    H230648   7.990   4.225   5.552 -0.2763  0.4553 -0.3921
10235TIP3   OH230649   0.982   3.305   0.470 -0.4931 -0.3415  0.4129
10235TIP3    H130650   1.036   3.381   0.448  0.5514 -1.0318  0.5853
10235TIP3    H230651   0.898   3.323   0.427 -1.4007  2.4496  2.9906
10236TIP3   OH230652   3.855   3.334   6.599 -0.3956  0.1040 -0.0981
10236TIP3    H130653   3.818   3.265   6.654 -1.6133 -1.0555 -2.2345
10236TIP3    H230654   3.801   3.411   6.616 -1.2406 -0.4575 -0.2059
10237TIP3   OH230655   5.948   0.904   4.566 -0.3364  0.0333 -0.0252
10237TIP3    H130656   5.871   0.933   4.616 -0.7461  1.3845 -1.3765
10237TIP3    H230657   5.958   0.970   4.498  0.7149 -1.3162 -1.2179
10238TIP3   OH230658   7.718   6.136   4.349  0.0467 -0.0056 -0.3464
10238TIP3    H130659   7.787   6.099   4.404 -0.0357  1.3595  0.7115
10238TIP3    H230660   7.696   6.065   4.288  1.9420 -0.6752 -0.3167
10239TIP3   OH230661   0.297   0.609   5.688 -0.3668 -0.7875  0.0489
10239TIP3    H130662   0.288   0.549   5.614  0.6370 -0.4894 -0.3399
10239TIP3    H230663   0.269   0.559   5.764 -0.6282 -1.3668 -0.4205
10240TIP3   OH230664   5.325   6.289   6.387  0.0878 -0.3058  0.0839
10240TIP3    H130665   5.314   6.251   6.474  0.5726 -0.4045  0.1028
10240TIP3    H230666   5.420   6.287   6.371  0.1435  1.0034  0.1362
10241TIP3   OH230667   7.857   4.796   3.847 -0.2315  0.4614  0.5346
10241TIP3    H130668   7.889   4.841   3.769  0.7214 -1.3805 -0.2109
10241TIP3    H230669   7.929   4.798   3.909  0.4229 -1.2773 -0.0931
10242TIP3   OH230670   6.021   0.509   1.626 -0.1213 -0.2963  0.4072
10242TIP3    H130671   6.070   0.428   1.640  0.2538  0.1402  1.8109
10242TIP3    H230672   5.947   0.504   1.687  0.8921  1.1597  1.8571
10243TIP3   OH230673   1.962   5.304   0.436  0.0911  0.3765  0.1843
10243TIP3    H130674   1.980   5.284   0.344 -0.7263 -0.8033  0.2540
10243TIP3    H230675   1.968   5.399   0.442  2.0734  0.3477 -0.6517
10244TIP3   OH230676   5.879   7.173   1.347  0.0925  0.0274  0.0142
10244TIP3    H130677   5.958   7.181   1.400  0.6545  0.8640 -0.9198
10244TIP3    H230678   5.809   7.162   1.411  0.8469  0.2803  0.9073
10245TIP3   OH230679   6.972   0.006   4.349 -0.8109 -0.0425  0.2082
10245TIP3    H130680   6.973  -0.046   4.429  0.4105 -1.7526 -0.8285
10245TIP3    H230681   6.970   0.097   4.378 -0.2121 -0.6170  2.1604
10246TIP3   OH230682   1.056   2.780   1.622 -0.0546 -0.3503 -0.6640
10246TIP3    H130683   1.026   2.752   1.709  1.0306 -1.1756 -0.5420
10246TIP3    H230684   0.993   2.741   1.562  0.1505 -1.1818 -0.3502
10247TIP3   OH230685   3.022   3.234   3.625  0.0772  0.0104  0.3714
10247TIP3    H130686   3.107   3.192   3.636 -0.9597 -2.3279  0.0652
10247TIP3    H230687   3.028   3.281   3.542  0.3173 -2.2897 -0.9925
10248TIP3   OH230688   8.125   7.816   1.894 -0.1727 -0.5834 -0.6906
10248TIP3    H130689   8.108   7.790   1.985  0.5540 -0.7207 -0.5924
10248TIP3    H230690   8.062   7.765   1.843 -1.2229  0.1798 -0.1942
10249TIP3   OH230691   3.271   4.176   4.910 -0.2533  0.3137 -0.6311
10249TIP3    H130692   3.333   4.149   4.978 -3.3139 -0.3591  2.1707
10249TIP3    H230693   3.325   4.190   4.832  3.5247  1.1060  1.8639
10250TIP3   OH230694   6.111   7.139   3.918 -0.5032 -0.7690 -0.0379
10250TIP3    H130695   6.143   7.130   4.008  1.2993 -1.1391 -0.6679
10250TIP3    H230696   6.097   7.233   3.908  3.0916 -0.1435 -0.4959
10251TIP3   OH230697   3.448   2.851   3.545 -0.1493 -0.4845 -0.0833
10251TIP3    H130698   3.395   2.792   3.598  0.2167 -0.6708  0.0779
10251TIP3    H230699   3.387   2.887   3.480 -0.0590 -2.2674 -1.2437
10252TIP3   OH230700   5.676   0.890   3.826 -0.1570 -0.0026 -0.5486
10252TIP3    H130701   5.606   0.955   3.837  0.7493  1.3322 -2.1332
10252TIP3    H230702   5.717   0.913   3.743  1.5537 -1.3477 -0.1395
10253TIP3   OH230703   5.348   5.278   1.921  0.1116  0.5182  0.2462
10253TIP3    H130704   5.443   5.293   1.915  0.3439 -0.9538 -0.1630
10253TIP3    H230705   5.325   5.234   1.840 -0.2546 -2.3030  1.7462
10254TIP3   OH230706   6.719   7.359   1.491  0.0751 -0.1715 -0.2299
10254TIP3    H130707   6.686   7.449   1.496  2.0210  0.5471  1.1195
10254TIP3    H230708   6.735   7.345   1.397 -1.0733  0.5611 -0.5512
10255TIP3   OH230709   4.264   2.979   4.288 -0.0874 -0.2229  0.0318
10255TIP3    H130710   4.294   2.903   4.238 -0.6446 -0.0548 -0.5810
10255TIP3    H230711   4.219   2.941   4.363 -0.7926 -0.5226 -0.5267
10256TIP3   OH230712   0.073   3.926   4.660  0.2057 -0.1779 -0.0408
10256TIP3    H130713   0.129   3.971   4.723 -1.0259  0.4498  0.6324
10256TIP3    H230714  -0.002   3.984   4.648  0.0206 -0.6739 -1.4631
10257TIP3   OH230715   0.503   1.089   0.016 -0.2067  0.1745 -0.6053
10257TIP3    H130716   0.502   1.151  -0.057  1.2027  0.8905 -0.0418
10257TIP3    H230717   0.517   1.143   0.094  0.0700 -0.7482  0.0050
10258TIP3   OH230718   0.289   3.307   2.978  0.2562 -0.2510 -0.1253
10258TIP3    H130719   0.268   3.388   3.025  0.3010  0.0070 -0.5458
10258TIP3    H230720   0.222   3.300   2.910  0.5101 -0.3318 -0.3717
10259TIP3   OH230721   5.772   4.457   5.331 -0.1507 -0.0449  0.1626
10259TIP3    H130722   5.792   4.520   5.401  0.3383 -1.3737  1.2737
10259TIP3    H230723   5.858   4.423   5.306 -0.4745 -0.9461  0.2541
10260TIP3   OH230724   7.572   6.715   3.478  0.2248  0.4568 -0.3305
10260TIP3    H130725   7.478   6.714   3.498  0.1619  0.5208 -0.6302
10260TIP3    H230726   7.578   6.747   3.388  0.4704 -0.4997 -0.6684
10261TIP3   OH230727   2.447   6.170   5.133  0.4851  0.6671  0.1547
10261TIP3    H130728   2.503   6.232   5.181  0.2025  0.5314  0.6684
10261TIP3    H230729   2.370   6.221   5.109 -0.0001  0.3947  1.0571
10262TIP3   OH230730   4.873   5.917   2.052 -0.2061  0.0984  0.0385
10262TIP3    H130731   4.943   5.869   2.007 -0.7777  0.7794 -1.6439
10262TIP3    H230732   4.829   5.850   2.105 -0.6249 -1.1858 -1.8153
10263TIP3   OH230733   7.171   2.819   3.571  0.2807  0.2798 -0.4419
10263TIP3    H130734   7.218   2.815   3.654  1.1674  0.3240 -0.9359
10263TIP3    H230735   7.117   2.740   3.570 -0.3412  0.6641  0.5166
10264TIP3   OH230736   0.747   2.531   6.230 -0.2378 -0.0903 -0.5358
10264TIP3    H130737   0.777   2.528   6.139  0.9180  0.4073 -0.1942
10264TIP3    H230738   0.795   2.460   6.273  0.0197  0.3367 -0.1029
10265TIP3   OH230739   6.754   2.149   0.512 -0.4575  0.4217 -0.0823
10265TIP3    H130740   6.715   2.181   0.431 -4.2982 -0.6469  1.1255
10265TIP3    H230741   6.712   2.201   0.581  0.5140 -0.6423  1.3664
10266TIP3   OH230742   8.102   4.205   4.443  0.3255  0.3366  0.1767
10266TIP3    H130743   8.071   4.145   4.510 -1.4733 -0.9644 -1.6762
10266TIP3    H230744   8.172   4.254   4.485 -1.7115  0.7269  3.4811
10267TIP3   OH230745   2.964   0.571   0.357 -0.6656 -0.2110  0.0778
10267TIP3    H130746   3.017   0.571   0.436 -1.1144 -1.3104  0.4046
10267TIP3    H230747   2.928   0.659   0.351 -1.4584 -0.3987  1.6823
10268TIP3   OH230748   8.002   5.675   4.789  0.1435 -0.5311  0.0488
10268TIP3    H130749   8.031   5.694   4.878  2.5054  0.7117 -0.8973
10268TIP3    H230750   8.027   5.584   4.775 -4.2912 -2.3657  2.0095
10269TIP3   OH230751   6.462   4.317   2.867  0.4088  0.2111  0.1866
10269TIP3    H130752   6.481   4.261   2.942 -0.0541  0.3730  0.4335
10269TIP3    H230753   6.367   4.327   2.869  0.1668 -1.2119 -1.4388
10270TIP3   OH230754   5.709   0.571   6.661  0.1667  0.0893  0.6745
10270TIP3    H130755   5.677   0.642   6.606  0.1473 -0.9014 -0.6336
10270TIP3    H230756   5.657   0.578   6.742 -2.0235 -0.3112 -0.6325
10271TIP3   OH230757   1.061   5.396   0.244  0.7818 -0.0590 -0.2737
10271TIP3    H130758   1.014   5.348   0.312 -0.7850  0.4735 -0.9368
10271TIP3    H230759   1.050   5.488   0.266  1.0600  0.0898 -0.7349
10272TIP3   OH230760   1.142   2.793   3.789  0.0918  0.3397 -0.6350
10272TIP3    H130761   1.193   2.846   3.850 -0.6776  0.9726 -0.5201
10272TIP3    H230762   1.169   2.822   3.702 -0.8492  1.4779 -0.5763
10273TIP3   OH230763   0.385   2.620   1.912 -0.5579 -0.1921 -0.2688
10273TIP3    H130764   0.441   2.552   1.950 -0.0298  0.7652  0.6875
10273TIP3    H230765   0.298   2.604   1.951 -0.9188 -1.4635 -1.4953
10274TIP3   OH230766   4.637   1.468   4.707  0.0944 -0.5275 -0.0836
10274TIP3    H130767   4.593   1.392   4.745  2.1981 -0.6844  2.2023
10274TIP3    H230768   4.599   1.543   4.753 -0.2944 -0.3649 -0.6575
10275TIP3   OH230769   0.993   7.656   1.412 -0.0533  0.1611  0.1865
10275TIP3    H130770   1.042   7.576   1.393 -1.4605 -0.4486 -1.0438
10275TIP3    H230771   0.944   7.635   1.492  0.2299  0.1158  0.3515
10276TIP3   OH230772   3.205   5.284   2.414 -0.6771  0.3662  0.7268
10276TIP3    H130773   3.110   5.285   2.419 -0.7514 -1.0387  0.0382
10276TIP3    H230774   3.225   5.242   2.330  0.5416  0.4082  0.9724
10277TIP3   OH230775   3.785   5.733   2.603  0.1795 -0.0243 -0.0457
10277TIP3    H130776   3.856   5.669   2.614 -0.2811 -0.2708  1.7350
10277TIP3    H230777   3.718   5.686   2.554 -0.1031 -0.9194  1.1450
10278TIP3   OH230778   3.830   7.082   5.822 -0.0024 -0.2509 -0.2957
10278TIP3    H130779   3.843   7.108   5.731  1.7886  1.3025  0.3580
10278TIP3    H230780   3.877   6.999   5.830 -1.9049 -1.5173 -1.2291
10279TIP3   OH230781   7.542   6.245   5.680  0.1754 -0.3728  0.1511
10279TIP3    H130782   7.527   6.214   5.591  1.7746  0.6023 -0.4861
10279TIP3    H230783   7.531   6.339   5.676 -1.1649 -0.4358  1.3304
10280TIP3   OH230784   2.928   2.903   1.269  0.4343  0.5949 -0.3916
10280TIP3    H130785   2.876   2.983   1.257  1.3228  1.1653 -0.5205
10280TIP3    H230786   3.017   2.935   1.281  0.6069 -0.3054  0.9007
10281TIP3   OH230787   7.968   4.656   3.428  0.4218  0.4208  0.4255
10281TIP3    H130788   7.942   4.600   3.355  0.6918  0.9650 -0.0971
10281TIP3    H230789   8.026   4.601   3.481 -1.1013 -0.5458  1.1730
10282TIP3   OH230790   8.017   1.857   1.260  0.0297 -0.0529 -0.1191
10282TIP3    H130791   7.967   1.893   1.333 -0.9156 -0.4575 -0.5520
10282TIP3    H230792   7.967   1.882   1.182  0.8151  0.0370 -0.6071
10283TIP3   OH230793   6.879   6.090   3.737  0.9141  0.1569  0.0793
10283TIP3    H130794   6.965   6.082   3.778  1.5615  0.6829 -1.1414
10283TIP3    H230795   6.896   6.134   3.654 -0.2323 -1.6356 -1.1771
10284TIP3   OH230796   4.364   3.271   2.240 -0.0054 -0.6722 -0.7297
10284TIP3    H130797   4.350   3.232   2.326 -1.5342  1.3848  0.0453
10284TIP3    H230798   4.429   3.339   2.255 -2.6453  1.9682 -0.3393
10285TIP3   OH230799   0.114   2.090   2.469  0.4888 -0.1185 -0.0989
10285TIP3    H130800   0.103   2.132   2.555 -1.3867 -1.3507  0.3274
10285TIP3    H230801   0.064   2.144   2.409 -2.8379 -2.1164  0.6386
10286TIP3   OH230802   0.591   3.240   2.050  0.9769 -0.2056 -0.3723
10286TIP3    H130803   0.643   3.204   2.122 -1.3441 -2.7452  0.1861
10286TIP3    H230804   0.500   3.230   2.078  0.0570  1.7200 -2.3584
10287TIP3   OH230805   7.340   0.643   1.779  0.2045 -0.0273 -0.9002
10287TIP3    H130806   7.352   0.708   1.710  1.1177 -0.4866 -1.1931
10287TIP3    H230807   7.344   0.693   1.861  0.6272  0.3201 -1.1338
10288TIP3   OH230808   7.895   4.366   4.034  0.0873  0.0648  0.1372
10288TIP3    H130809   7.918   4.412   4.115 -1.0098  4.4173 -1.7283
10288TIP3    H230810   7.800   4.375   4.029  0.2437  0.9729 -2.1147
10289TIP3   OH230811   1.997   1.891   4.179  0.3665  0.1811 -0.4768
10289TIP3    H130812   2.088   1.881   4.208  0.6340  0.9983 -1.0023
10289TIP3    H230813   1.960   1.958   4.237  0.3901  0.5514 -0.8827
10290TIP3   OH230814   0.362   4.545   1.303  0.0153  0.5369  0.5757
10290TIP3    H130815   0.450   4.553   1.339  1.7622  1.0982 -3.4082
10290TIP3    H230816   0.338   4.634   1.278 -0.5520  0.0275 -0.7808
10291TIP3   OH230817   1.308   2.401   3.753  0.9652  0.1769  0.2778
10291TIP3    H130818   1.312   2.494   3.731 -0.1232  0.4575  1.1770
10291TIP3    H230819   1.295   2.399   3.848 -0.0774 -0.8544  0.1414
10292TIP3   OH230820   4.897   5.562   4.196  0.5259  0.1378  0.2841
10292TIP3    H130821   4.954   5.582   4.122  0.9807 -1.5161  0.1380
10292TIP3    H230822   4.808   5.578   4.163  0.7226 -0.5816 -0.6349
10293TIP3   OH230823   2.577   5.770   2.468 -0.2162  0.3327 -0.3004
10293TIP3    H130824   2.597   5.683   2.503 -0.3243 -0.0970 -1.2749
10293TIP3    H230825   2.527   5.813   2.538 -0.3693 -0.4754  0.1016
10294TIP3   OH230826   7.940   4.332   0.084  0.0789 -0.3466  0.3419
10294TIP3    H130827   7.889   4.358   0.161  1.9355  1.6064  0.9964
10294TIP3    H230828   7.998   4.263   0.116  2.0434  1.6078  1.2476
10295TIP3   OH230829   4.623   4.308   6.484  0.3994  0.0933  0.3975
10295TIP3    H130830   4.544   4.254   6.490  1.3259 -1.1892  1.9427
10295TIP3    H230831   4.693   4.246   6.464  1.6838  0.4690  3.2920
10296TIP3   OH230832   2.995   4.085   0.626 -0.3448 -0.1113 -0.4846
10296TIP3    H130833   2.927   4.153   0.625 -0.3899 -0.0359  1.7575
10296TIP3    H230834   2.960   4.016   0.569 -1.7058  0.4845 -0.4250
10297TIP3   OH230835   7.017   1.483   6.550  0.4870 -0.8919  0.3099
10297TIP3    H130836   6.936   1.434   6.536  0.3567 -0.0949 -2.1252
10297TIP3    H230837   6.992   1.575   6.541  1.4799 -0.5834  0.5032
10298TIP3   OH230838   7.117   0.776   1.926  0.1366 -0.3081 -0.3487
10298TIP3    H130839   7.058   0.739   1.861  3.4513 -2.4872 -2.4338
10298TIP3    H230840   7.166   0.843   1.879  0.3796  0.4003  0.8660
10299TIP3   OH230841   0.587   5.102   6.650  0.1796  0.2957  0.2260
10299TIP3    H130842   0.518   5.103   6.583  0.9479  1.8444 -0.5888
10299TIP3    H230843   0.605   5.195   6.667  3.0149 -0.0074 -0.6026
10300TIP3   OH230844   2.865   5.401   6.478 -0.0051  0.0664  0.1563
10300TIP3    H130845   2.795   5.450   6.436  0.0360 -1.1353 -1.3982
10300TIP3    H230846   2.823   5.320   6.507  0.7603 -0.7606 -0.9889
10301TIP3   OH230847   4.153   2.688   5.694 -0.0272 -0.0729 -0.4280
10301TIP3    H130848   4.165   2.619   5.629 -0.3934 -0.2015 -0.3625
10301TIP3    H230849   4.059   2.689   5.710 -0.0547  0.5798 -0.5834
10302TIP3   OH230850   4.022   5.052   3.372 -1.2657 -0.0584 -0.2381
10302TIP3    H130851   3.961   5.122   3.349 -0.5645  1.1360  1.3938
10302TIP3    H230852   4.088   5.054   3.303 -0.6906  1.5938  0.3268
10303TIP3   OH230853   7.421   0.457   2.448 -0.0514 -0.0931 -0.0876
10303TIP3    H130854   7.507   0.454   2.406 -0.3689 -2.2115 -0.7555
10303TIP3    H230855   7.394   0.365   2.452 -1.8290  0.4299  1.0822
10304TIP3   OH230856   3.065   6.199   2.448  0.1311 -0.4607  0.3600
10304TIP3    H130857   3.103   6.286   2.435  0.5312 -0.3664  2.0056
10304TIP3    H230858   2.973   6.215   2.466  0.5705 -0.1523  2.6956
10305TIP3   OH230859   7.276   6.835   2.924  0.3771 -0.4444 -0.3289
10305TIP3    H130860   7.262   6.826   2.830 -1.0332  0.6152 -0.2570
10305TIP3    H230861   7.193   6.807   2.963  0.5025  0.3113  0.5113
10306TIP3   OH230862   3.901   6.022   5.575 -0.3012 -0.4479  0.5613
10306TIP3    H130863   3.881   5.971   5.653 -1.2130 -0.9222  0.0375
10306TIP3    H230864   3.850   6.103   5.584 -0.7938 -0.7163  0.2375
10307TIP3   OH230865   7.059   2.654   3.052  0.4023 -0.1299  0.4987
10307TIP3    H130866   7.139   2.606   3.076  0.3547 -0.0611  0.7934
10307TIP3    H230867   6.999   2.637   3.124 -0.6779 -2.0967 -0.7765
10308TIP3   OH230868   0.489   3.908   3.897  0.3141 -0.6564 -0.0895
10308TIP3    H130869   0.423   3.968   3.863  1.8824  0.6994 -0.9185
10308TIP3    H230870   0.486   3.920   3.992 -0.9102 -0.9449 -0.0792
10309TIP3   OH230871   0.532   7.414   6.622 -0.7399 -0.8675  0.0254
10309TIP3    H130872   0.602   7.387   6.563 -1.4311 -2.2384 -0.2017
10309TIP3    H230873   0.568   7.402   6.710 -0.0819  0.1770 -0.0748
10310TIP3   OH230874   5.120   4.575   1.851 -1.1545  0.3950  0.1896
10310TIP3    H130875   5.088   4.501   1.799 -1.4864  0.3910  0.3984
10310TIP3    H230876   5.067   4.649   1.823 -0.4631  0.6730 -0.4013
10311TIP3   OH230877   3.147   1.190   2.053 -0.7589  0.3178  0.0755
10311TIP3    H130878   3.135   1.284   2.066 -0.9338  0.3073 -0.0025
10311TIP3    H230879   3.086   1.150   2.113  1.5601  0.1804  2.5045
10312TIP3   OH230880   2.624   2.189   4.038  0.0290 -1.0388  0.1400
10312TIP3    H130881   2.687   2.260   4.027 -0.8693 -0.1295  0.7909
10312TIP3    H230882   2.676   2.109   4.024  1.0928 -0.2780 -0.3726
10313TIP3   OH230883   3.132   2.702   5.063  0.2071 -0.0877 -0.0880
10313TIP3    H130884   3.063   2.641   5.087  0.5007  0.0108  1.0690
10313TIP3    H230885   3.170   2.666   4.983  0.2900 -1.3393  0.5043
10314TIP3   OH230886   0.743   4.250   1.083 -0.0256 -0.1530  0.1462
10314TIP3    H130887   0.797   4.329   1.093 -0.5256  0.0939  1.0526
10314TIP3    H230888   0.771   4.212   1.001  0.4551  0.8082 -0.1527
10315TIP3   OH230889   2.652   2.233   6.365 -0.0953 -0.2792  0.6599
10315TIP3    H130890   2.679   2.315   6.323 -0.2783 -1.4152 -1.8590
10315TIP3    H230891   2.726   2.174   6.352 -1.0510 -1.3498 -0.1214
10316TIP3   OH230892   0.379   7.701   3.406 -0.3818 -0.2067  0.0009
10316TIP3    H130893   0.356   7.762   3.476 -0.2617 -1.3853  1.1014
10316TIP3    H230894   0.309   7.635   3.408  1.2704 -2.0499  1.2487
10317TIP3   OH230895   2.049   5.492   0.145  0.2813 -0.2979  0.4214
10317TIP3    H130896   2.107   5.481   0.220  0.5384 -0.4084  0.2054
10317TIP3    H230897   2.033   5.586   0.141 -0.7827 -0.4202  1.4042
10318TIP3   OH230898   3.491   5.555   1.124 -0.1532  0.8302 -0.2379
10318TIP3    H130899   3.471   5.462   1.121 -0.1579  0.8092  0.3709
10318TIP3    H230900   3.586   5.559   1.136 -0.2379  0.8919  0.4467
10319TIP3   OH230901   0.569   7.349   2.545 -0.0086 -0.3049 -0.1279
10319TIP3    H130902   0.552   7.382   2.456  2.4280 -0.4262 -0.6884
10319TIP3    H230903   0.510   7.401   2.600  0.3737  1.7345 -1.5206
10320TIP3   OH230904   6.312   4.767   0.199  0.5643 -0.0559  0.5898
10320TIP3    H130905   6.292   4.685   0.243  1.9390 -0.6073  0.2230
10320TIP3    H230906   6.314   4.745   0.106  3.5372 -0.2529  0.6135
10321TIP3   OH230907   7.961   1.094   2.892 -0.4656  0.0753 -0.6937
10321TIP3    H130908   7.877   1.129   2.864 -0.5950  0.9609  0.6879
10321TIP3    H230909   8.022   1.116   2.821 -0.4890  3.4264  0.1529
10322TIP3   OH230910   5.944   4.195   2.154 -0.2753 -0.5482 -0.0154
10322TIP3    H130911   5.985   4.221   2.236  0.6505 -0.7195 -0.4037
10322TIP3    H230912   5.868   4.252   2.145  0.2603  0.2401  0.4005
10323TIP3   OH230913   1.149   6.440   3.781 -0.1591 -0.5078  0.0834
10323TIP3    H130914   1.163   6.422   3.874  1.9189  1.2520  0.1980
10323TIP3    H230915   1.085   6.511   3.779  0.7067  0.2937  0.2634
10324TIP3   OH230916   5.201   2.393   0.249 -0.3109 -0.4339 -0.0105
10324TIP3    H130917   5.123   2.351   0.284  0.7712 -0.7182  2.2203
10324TIP3    H230918   5.273   2.358   0.302  1.0185  1.8091 -0.2090
10325TIP3   OH230919   5.940   4.713   4.424 -1.0410 -0.0794 -0.1625
10325TIP3    H130920   5.882   4.725   4.499 -1.9073  0.2159 -0.8580
10325TIP3    H230921   5.931   4.793   4.373  0.1357  0.0574 -0.2002
10326TIP3   OH230922   2.938   2.586   2.616  0.5106  0.6384  0.4579
10326TIP3    H130923   2.957   2.493   2.622  0.6275  0.4606 -1.8578
10326TIP3    H230924   2.842   2.591   2.624  0.3619  0.1477 -0.8744
10327TIP3   OH230925   7.373   3.810   2.855 -0.2174 -0.2958 -0.0193
10327TIP3    H130926   7.344   3.736   2.908  2.3459 -0.7055  0.9423
10327TIP3    H230927   7.333   3.795   2.769 -1.8306 -1.3553  0.8640
10328TIP3   OH230928   6.340   0.043   3.233  0.0863  0.1986 -0.5097
10328TIP3    H130929   6.277   0.113   3.217  0.6311  0.4349 -1.7037
10328TIP3    H230930   6.408   0.084   3.286 -0.0621  0.3136 -0.4073
10329TIP3   OH230931   2.129   2.356   2.098  0.0123 -0.1739  0.0791
10329TIP3    H130932   2.052   2.307   2.124 -1.2742  2.2366  1.2208
10329TIP3    H230933   2.185   2.356   2.176  0.7377 -1.0835 -0.4234
10330TIP3   OH230934   3.844   6.627   0.786 -0.8999 -0.3039 -0.2452
10330TIP3    H130935   3.848   6.611   0.691 -0.3528 -1.3593 -0.0598
10330TIP3    H230936   3.758   6.668   0.800 -0.5523  0.8519 -1.3259
10331TIP3   OH230937   4.691   1.209   4.942  0.2098  0.3265  0.0202
10331TIP3    H130938   4.733   1.273   5.000  0.4276  0.6235 -0.4649
10331TIP3    H230939   4.608   1.250   4.918 -0.0899  0.0039  0.4848
10332TIP3   OH230940   6.863   5.289   3.990  0.0563  1.0613 -0.0125
10332TIP3    H130941   6.810   5.219   4.028  0.8506  0.7313  0.5345
10332TIP3    H230942   6.827   5.370   4.027  0.9677  0.7390  1.7299
10333TIP3   OH230943   3.405   5.338   6.200 -0.3079 -0.0427  0.3745
10333TIP3    H130944   3.342   5.307   6.135  0.8031  1.2864 -1.4081
10333TIP3    H230945   3.429   5.426   6.170  1.3241  0.0410  1.8001
10334TIP3   OH230946   0.932   5.748   5.015  0.2149  0.1464  0.7181
10334TIP3    H130947   0.846   5.713   5.040  0.1413  1.0040  1.7558
10334TIP3    H230948   0.976   5.675   4.972 -1.4747  0.0389 -0.9482
10335TIP3   OH230949   2.080   3.883   4.274 -0.5503 -0.0568  0.4941
10335TIP3    H130950   2.057   3.873   4.367 -1.1224  0.9834  0.4817
10335TIP3    H230951   2.175   3.891   4.274 -0.6091  0.7176  1.0754
10336TIP3   OH230952   1.598   6.948   6.038 -0.0961  0.0205  0.2394
10336TIP3    H130953   1.675   6.963   6.092 -0.2487 -2.1005  1.1244
10336TIP3    H230954   1.523   6.965   6.096 -0.2964  0.3005 -0.0920
10337TIP3   OH230955   1.204   4.841   4.990 -0.7439 -0.4341 -0.4976
10337TIP3    H130956   1.228   4.815   4.901 -0.3093  0.1863 -0.5677
10337TIP3    H230957   1.225   4.765   5.044  1.2035  0.0014 -0.5864
10338TIP3   OH230958   2.197   2.749   1.040 -0.5825  0.3768 -0.5401
10338TIP3    H130959   2.188   2.722   1.131 -1.1005 -0.2161 -0.7560
10338TIP3    H230960   2.113   2.792   1.020 -1.1958 -1.0647 -1.2342
10339TIP3   OH230961   7.167   3.260   3.167 -0.0301  0.5961 -0.4906
10339TIP3    H130962   7.105   3.252   3.095  1.9098  2.2799 -2.4792
10339TIP3    H230963   7.253   3.261   3.126  1.3096 -0.2903  2.0432
10340TIP3   OH230964   8.202   4.311   2.978  0.1247  0.1118 -0.2293
10340TIP3    H130965   8.182   4.402   2.957  1.0241  0.1906 -0.7983
10340TIP3    H230966   8.172   4.262   2.902 -1.0185 -0.1621  0.3820
10341TIP3   OH230967   5.269   7.379   3.276  0.7457  0.6679  0.9171
10341TIP3    H130968   5.226   7.328   3.208  3.0249  0.3318 -0.3567
10341TIP3    H230969   5.280   7.318   3.349  0.5824  0.2864  0.6226
10342TIP3   OH230970   5.940   5.917   3.939  0.1360 -0.6977  0.4834
10342TIP3    H130971   5.965   6.010   3.934 -1.1755 -0.3900 -1.8092
10342TIP3    H230972   6.006   5.871   3.887 -0.4173 -0.7327 -0.2033
10343TIP3   OH230973   0.982   6.856   6.376  0.3123 -0.2009  0.3670
10343TIP3    H130974   0.955   6.870   6.466  0.5885  2.4957  0.1165
10343TIP3    H230975   1.078   6.859   6.378  0.3108  0.3325 -0.0496
10344TIP3   OH230976   0.118   6.634   2.339 -0.2733 -0.2848  0.2895
10344TIP3    H130977   0.146   6.551   2.300  2.3749  0.5221  0.2711
10344TIP3    H230978   0.162   6.701   2.287 -2.9203  1.2535 -0.1432
10345TIP3   OH230979   6.975   0.538   2.443 -0.3317  0.2311 -0.3801
10345TIP3    H130980   6.930   0.454   2.449 -1.2048  0.6729 -0.5614
10345TIP3    H230981   6.910   0.603   2.468  0.8947  0.7420  1.7685
10346TIP3   OH230982   1.309   6.890   2.939 -0.1177 -0.6467  0.3203
10346TIP3    H130983   1.372   6.960   2.955  0.2359 -0.5410 -1.3869
10346TIP3    H230984   1.329   6.824   3.005  0.1410  0.4282  1.3744
10347TIP3   OH230985   4.406   2.375   2.262 -0.0276 -0.6890 -0.0967
10347TIP3    H130986   4.461   2.415   2.329 -1.7404 -0.8625  1.4978
10347TIP3    H230987   4.438   2.285   2.256  0.2239 -0.6350  0.4082
10348TIP3   OH230988   3.741   1.023   1.818 -0.7007 -0.4700 -0.4091
10348TIP3    H130989   3.783   1.079   1.883 -2.3644  2.2135 -1.4748
10348TIP3    H230990   3.648   1.027   1.839 -1.0905 -1.0159 -1.8686
10349TIP3   OH230991   5.900   6.657   2.184  0.4984  0.0259  0.2429
10349TIP3    H130992   5.867   6.568   2.170 -0.0524  0.1491  0.7415
10349TIP3    H230993   5.992   6.644   2.206  0.5263 -0.3922 -0.0907
10350TIP3   OH230994   4.495   6.196   3.926  0.4366  0.1738  0.0033
10350TIP3    H130995   4.566   6.254   3.899  0.1870  0.8615  0.7642
10350TIP3    H230996   4.517   6.172   4.016  0.2226 -0.4245 -0.1041
10351TIP3   OH230997   8.062   1.128   6.681  0.4008 -0.0498  0.7277
10351TIP3    H130998   8.098   1.213   6.703  3.7190 -1.2665  0.6273
10351TIP3    H230999   8.110   1.066   6.736 -1.7512 -1.9265  0.6674
10352TIP3   OH231000   8.184   7.130   0.014  0.7463  0.3939  0.0159
10352TIP3    H131001   8.265   7.087   0.044  0.0167 -1.6149 -0.7227
10352TIP3    H231002   8.123   7.119   0.087  0.3893 -0.3553 -0.3848
10353TIP3   OH231003   2.551   6.621   2.082 -0.0770 -0.0505  0.4603
10353TIP3    H131004   2.567   6.625   2.176 -0.0622  0.0419  0.4541
10353TIP3    H231005   2.626   6.574   2.047  0.5389  0.9874  0.3461
10354TIP3   OH231006   5.547   5.563   0.971  0.6947 -0.0337 -0.1707
10354TIP3    H131007   5.506   5.555   1.057  0.2364  0.3932 -0.3507
10354TIP3    H231008   5.581   5.475   0.953  0.2069 -0.2947  0.1531
10355TIP3   OH231009   0.002   2.753   3.554  0.3897 -0.4091  0.7665
10355TIP3    H131010  -0.013   2.770   3.647 -1.4726  3.4243 -0.0483
10355TIP3    H231011   0.084   2.798   3.534  0.7312 -1.1332  0.4972
10356TIP3   OH231012   6.991   6.966   3.859 -0.0241 -0.1799 -0.2253
10356TIP3    H131013   6.937   6.972   3.938  0.0710  0.5836 -0.2137
10356TIP3    H231014   7.038   6.884   3.869 -0.7854 -0.5995  0.0222
10357TIP3   OH231015   3.588   4.939   6.083 -0.1300  0.3693 -0.7737
10357TIP3    H131016   3.607   4.863   6.138  1.1684  0.4599 -1.0705
10357TIP3    H231017   3.538   4.998   6.140  1.5612  0.6524  0.4808
10358TIP3   OH231018   6.526   5.782   0.077 -0.1126  0.0991 -0.0750
10358TIP3    H131019   6.593   5.737   0.128  0.7885  0.7118 -0.6859
10358TIP3    H231020   6.465   5.713   0.051  0.8272 -0.6486 -0.3430
10359TIP3   OH231021   2.078   4.679   1.464  0.5051 -0.2554  0.1008
10359TIP3    H131022   2.031   4.602   1.431  0.7211  0.1454 -1.2087
10359TIP3    H231023   2.170   4.663   1.440  0.2648  1.4355 -2.4210
10360TIP3   OH231024   5.275   2.176   5.352 -0.1483  0.1621  0.1565
10360TIP3    H131025   5.308   2.101   5.303  1.6520  1.2948 -0.4720
10360TIP3    H231026   5.353   2.213   5.394 -1.2175  0.8863  1.5903
10361TIP3   OH231027   7.417   7.507   1.304  0.0631 -0.1524 -0.0041
10361TIP3    H131028   7.507   7.537   1.290  0.6760 -1.9274 -0.1057
10361TIP3    H231029   7.363   7.572   1.259  1.3302  0.5584 -0.5571
10362TIP3   OH231030   2.726   4.943   4.927  0.5919  0.5464 -0.3835
10362TIP3    H131031   2.786   4.874   4.956  1.4372  0.0885 -3.0123
10362TIP3    H231032   2.775   5.024   4.938 -0.6018  0.9822  3.2641
10363TIP3   OH231033   4.268   3.955   4.744 -0.4133 -0.5571 -0.2057
10363TIP3    H131034   4.324   3.882   4.718  0.0189  0.0801 -1.1029
10363TIP3    H231035   4.193   3.951   4.685 -0.8954 -0.8853  0.4203
10364TIP3   OH231036   7.976   2.204   6.243 -0.0571 -0.0834 -0.1291
10364TIP3    H131037   7.894   2.224   6.287  0.9821 -0.0370  1.8687
10364TIP3    H231038   7.993   2.113   6.265  0.5718 -0.0066 -0.2854
10365TIP3   OH231039   1.891   2.677   5.192  1.0067 -0.0235 -0.2658
10365TIP3    H131040   1.804   2.644   5.211  1.2600  0.2891  1.6936
10365TIP3    H231041   1.886   2.771   5.211  2.2837 -0.3571  2.2100
10366TIP3   OH231042   3.124   0.474   1.230  0.1123 -0.3076 -0.0265
10366TIP3    H131043   3.154   0.496   1.318 -1.9113  1.6059  0.2681
10366TIP3    H231044   3.175   0.397   1.206  2.3301  0.4333  1.9094
10367TIP3   OH231045   7.129   2.635   4.789  0.1450  0.1536 -0.2452
10367TIP3    H131046   7.145   2.615   4.881 -2.1475 -3.1541 -0.3703
10367TIP3    H231047   7.041   2.673   4.788 -1.1903 -2.6892 -1.1818
10368TIP3   OH231048   4.560   0.524   3.547 -0.3606  0.1643 -0.5431
10368TIP3    H131049   4.632   0.585   3.536 -0.0744  0.2845  1.5532
10368TIP3    H231050   4.602   0.439   3.564 -0.7233 -0.0308 -0.5917
10369TIP3   OH231051   1.462   4.049   3.254 -0.7460  0.1816 -0.0373
10369TIP3    H131052   1.532   4.091   3.204 -0.0426 -0.4429  0.4071
10369TIP3    H231053   1.506   3.985   3.309 -1.8135 -1.3542 -0.8999
10370TIP3   OH231054   1.156   0.049   3.905  0.0015  0.1781 -0.5144
10370TIP3    H131055   1.194   0.129   3.941 -1.9524  1.4843 -1.1547
10370TIP3    H231056   1.231  -0.005   3.880  1.3854  2.0714 -0.6391
10371TIP3   OH231057   1.318   5.141   1.673  0.1040  0.2483  0.1678
10371TIP3    H131058   1.398   5.172   1.716  1.2430 -0.6158 -1.2738
10371TIP3    H231059   1.341   5.056   1.637 -0.8408  0.8493 -2.0116
10372TIP3   OH231060   1.152   3.087   6.600 -0.3039  0.0492  0.0012
10372TIP3    H131061   1.137   3.099   6.694 -1.1330 -0.8488 -0.0061
10372TIP3    H231062   1.085   3.141   6.559 -1.1730 -1.0257 -0.0467
10373TIP3   OH231063   1.302   3.270   0.630  0.5191  0.2476 -0.0957
10373TIP3    H131064   1.272   3.204   0.568  0.7251 -0.1818  0.2582
10373TIP3    H231065   1.222   3.314   0.659  0.0580 -1.6784  1.7472
10374TIP3   OH231066   6.007   7.556   1.943 -0.2411  0.1373  0.0671
10374TIP3    H131067   5.983   7.636   1.896 -2.9974 -0.0366  0.9869
10374TIP3    H231068   5.974   7.570   2.032  2.3821 -0.6512  1.2592
10375TIP3   OH231069   3.010   2.538   3.134 -0.1374  0.7664  0.7005
10375TIP3    H131070   2.948   2.552   3.063 -1.5128  1.3974  1.9865
10375TIP3    H231071   3.000   2.614   3.191 -0.0411 -0.3366  2.2691
10376TIP3   OH231072   5.704   0.651   5.663 -0.5557  0.0198 -0.4170
10376TIP3    H131073   5.790   0.688   5.681 -0.9589  0.5902  0.4409
10376TIP3    H231074   5.722   0.567   5.621  0.4244  0.0531 -0.0959
10377TIP3   OH231075   6.440   2.845   4.751 -0.3681 -0.4661 -0.6626
10377TIP3    H131076   6.478   2.869   4.666  2.5074  1.1114  0.9179
10377TIP3    H231077   6.367   2.905   4.763 -0.0221  0.1325 -1.4862
10378TIP3   OH231078   4.652   1.222   6.339  0.7149  0.3304  0.0364
10378TIP3    H131079   4.675   1.314   6.355  2.1424 -0.4282  3.1709
10378TIP3    H231080   4.568   1.210   6.382  0.4224  0.2115 -0.5631
10379TIP3   OH231081   6.431   3.238   4.431 -0.1170  0.0914 -0.1066
10379TIP3    H131082   6.342   3.273   4.437 -0.6827 -1.4599  1.9612
10379TIP3    H231083   6.419   3.149   4.396  0.6082 -0.0887  0.0921
10380TIP3   OH231084   2.032   2.063   4.747  0.0333 -0.0206 -0.1142
10380TIP3    H131085   1.957   2.056   4.806  0.7633 -0.6771  0.7721
10380TIP3    H231086   2.004   2.125   4.679 -0.5339  1.4521  1.3839
10381TIP3   OH231087   3.269   5.232   5.744  0.5506  0.0755  0.3163
10381TIP3    H131088   3.344   5.212   5.687 -0.4911 -0.7837 -0.8098
10381TIP3    H231089   3.297   5.205   5.832  1.3897 -0.7143 -0.1753
10382TIP3   OH231090   0.354   4.215   2.593  0.3349 -0.1821  0.3866
10382TIP3    H131091   0.336   4.142   2.652  1.0270 -0.0160  0.8280
10382TIP3    H231092   0.278   4.220   2.536 -0.7047  0.1158  1.7431
10383TIP3   OH231093   5.623   4.778   3.519  0.2524 -0.4758 -0.0689
10383TIP3    H131094   5.674   4.713   3.470 -0.1293 -0.7886 -0.0573
10383TIP3    H231095   5.533   4.766   3.489  0.2716  0.5324 -0.5902
10384TIP3   OH231096   2.175   7.416   4.941 -0.2213 -0.5824  0.2722
10384TIP3    H131097   2.185   7.322   4.932  0.8573 -0.4897  0.3379
10384TIP3    H231098   2.261   7.447   4.970 -0.3259  0.5004 -0.4875
10385TIP3   OH231099   6.161   0.059   6.351 -0.6575  0.0912  0.1603
10385TIP3    H131100   6.131  -0.031   6.363 -1.5290 -0.1085 -2.7383
10385TIP3    H231101   6.081   0.110   6.345 -0.1810  0.9705  1.0018
10386TIP3   OH231102   3.836   0.751   4.999  0.4657  0.6837 -0.3200
10386TIP3    H131103   3.844   0.806   5.077  1.1347  0.9950 -0.6041
10386TIP3    H231104   3.896   0.790   4.936  0.6295 -0.1218 -0.6717
10387TIP3   OH231105   2.715   2.401   3.021  0.2497  0.3591 -0.1437
10387TIP3    H131106   2.628   2.390   2.982 -0.0165  2.4912 -0.2786
10387TIP3    H231107   2.751   2.478   2.976  1.4436  0.6389  1.2378
10388TIP3   OH231108   1.725   1.395   1.933  0.0976  0.0911  0.3228
10388TIP3    H131109   1.688   1.358   1.853 -0.0624  1.9229 -0.4977
10388TIP3    H231110   1.819   1.377   1.927 -0.0007 -0.3300  0.0354
10389TIP3   OH231111   6.413  -0.014   1.642  0.7890  0.6036  0.0020
10389TIP3    H131112   6.433   0.069   1.599  0.6192  0.7745  0.2521
10389TIP3    H231113   6.476  -0.019   1.715  2.8963 -0.9135 -1.7570
10390TIP3   OH231114   8.166   1.465   3.480 -0.6536  0.5031 -0.2948
10390TIP3    H131115   8.225   1.516   3.425 -1.4973  2.4636  0.5078
10390TIP3    H231116   8.173   1.506   3.566 -0.8600 -1.2255  0.5858
10391TIP3   OH231117   1.352   1.423   2.140  0.1632  0.5996  0.1356
10391TIP3    H131118   1.361   1.472   2.058  0.8746  1.0361  0.4605
10391TIP3    H231119   1.260   1.397   2.143  0.0133  1.0336 -0.5439
10392TIP3   OH231120   0.563   6.980   5.405 -0.3459  0.0793  0.0062
10392TIP3    H131121   0.534   6.919   5.472  0.4930 -0.7486 -0.3518
10392TIP3    H231122   0.576   7.063   5.451 -0.2436 -0.3503  0.7618
10393TIP3   OH231123   1.839   7.067   3.416  0.6711 -0.1543  0.0022
10393TIP3    H131124   1.892   6.988   3.405  0.7615 -0.1227  0.1975
10393TIP3    H231125   1.811   7.064   3.508  0.5229 -0.0525 -0.0386
10394TIP3   OH231126   5.404   4.270   4.769 -0.2725  0.6296 -0.2964
10394TIP3    H131127   5.360   4.354   4.759 -0.6042  0.6666  1.2114
10394TIP3    H231128   5.497   4.293   4.779 -0.0335  0.6331 -2.2281
10395TIP3   OH231129   1.481   6.770   1.047 -0.0091 -0.1257  0.2403
10395TIP3    H131130   1.519   6.750   0.961 -2.3586  1.1442 -1.1820
10395TIP3    H231131   1.537   6.723   1.109  1.3163 -1.7314 -2.0222
10396TIP3   OH231132   6.234   2.372   5.806  0.6031 -0.1751 -0.0464
10396TIP3    H131133   6.311   2.416   5.843  0.7270  0.3994 -0.9303
10396TIP3    H231134   6.254   2.279   5.812  2.6604 -0.0470 -2.7015
10397TIP3   OH231135   0.686   7.138   1.576  0.3149  0.6142 -0.9661
10397TIP3    H131136   0.750   7.113   1.509 -0.5540  1.1763 -2.0408
10397TIP3    H231137   0.724   7.216   1.616  0.9267  0.1728 -0.6702
10398TIP3   OH231138   8.248   3.101   5.557  0.1552  0.5989 -0.4298
10398TIP3    H131139   8.306   3.069   5.488 -0.0557  1.1260 -0.8527
10398TIP3    H231140   8.307   3.122   5.629  0.2818 -0.9610 -0.0461
10399TIP3   OH231141   7.016   0.499   0.290  1.0023 -0.5442 -0.3590
10399TIP3    H131142   7.004   0.570   0.228  1.3879  0.1603  0.3546
10399TIP3    H231143   7.004   0.419   0.238 -0.5078  0.0392 -0.9500
10400TIP3   OH231144   5.629   4.134   1.404  0.3141  0.2820  0.0318
10400TIP3    H131145   5.558   4.186   1.365  1.2670  1.5824 -0.0184
10400TIP3    H231146   5.691   4.199   1.438  0.9796 -0.8334  1.0185
10401TIP3   OH231147   8.213   3.059   3.275 -0.9909 -0.1441  0.1620
10401TIP3    H131148   8.232   3.062   3.181  0.9759 -0.4193  0.5091
10401TIP3    H231149   8.229   3.149   3.305  2.5460 -0.8941  0.8962
10402TIP3   OH231150   0.250   6.880   5.788 -0.0385 -0.0433 -0.7174
10402TIP3    H131151   0.192   6.915   5.856 -0.2796 -0.2774 -0.8020
10402TIP3    H231152   0.192   6.860   5.715 -0.1360 -2.0543 -0.1306
10403TIP3   OH231153   7.816   4.607   5.005  0.1574  0.3889 -0.0283
10403TIP3    H131154   7.838   4.627   5.097 -1.7877  0.7229  0.4173
10403TIP3    H231155   7.865   4.528   4.986 -0.3633 -0.4314  1.7523
10404TIP3   OH231156   1.039   7.110   3.034 -0.2679 -0.3086 -0.1163
10404TIP3    H131157   1.007   7.128   2.946 -0.6181 -0.1079  0.0504
10404TIP3    H231158   1.090   7.188   3.057  1.7134 -1.2548 -0.9898
10405TIP3   OH231159   4.948   3.412   3.606  0.3828  0.1875 -0.2144
10405TIP3    H131160   5.016   3.456   3.554  0.3056 -0.4935 -0.9232
10405TIP3    H231161   4.961   3.444   3.695  0.4042  1.5389 -0.6778
10406TIP3   OH231162   3.152   7.223   2.762  0.0894 -0.0838 -0.2756
10406TIP3    H131163   3.215   7.284   2.723 -0.5208  0.9607  0.3249
10406TIP3    H231164   3.191   7.197   2.845  0.1998 -0.2472 -0.3792
10407TIP3   OH231165   2.018   5.538   2.922 -0.2767 -0.1261  0.1309
10407TIP3    H131166   1.926   5.516   2.908 -0.1054 -0.7414 -0.0488
10407TIP3    H231167   2.037   5.604   2.855 -0.2264 -0.9945 -0.7299
10408TIP3   OH231168   6.340   0.626   1.909  0.0234  0.1397  0.2583
10408TIP3    H131169   6.368   0.652   1.996  1.2937  0.3426 -0.1793
10408TIP3    H231170   6.250   0.657   1.901  0.2510  1.0452  1.1116
10409TIP3   OH231171   3.917   7.704   2.280 -0.2483  0.0411 -0.5505
10409TIP3    H131172   3.922   7.721   2.373  0.0056 -0.8723 -0.3811
10409TIP3    H231173   3.932   7.609   2.272 -0.2988  0.0990 -1.5078
10410TIP3   OH231174   6.577   7.552   3.692 -0.1541 -0.1574  0.3510
10410TIP3    H131175   6.576   7.646   3.675  0.6932 -0.1620  0.2502
10410TIP3    H231176   6.668   7.532   3.713 -0.2057 -1.0566 -0.2193
10411TIP3   OH231177   2.167   2.270   1.054  0.1107  0.1814 -0.3867
10411TIP3    H131178   2.188   2.335   1.120 -0.8112  0.3855 -0.2866
10411TIP3    H231179   2.247   2.219   1.044  0.7820  1.2010 -0.3255
10412TIP3   OH231180   5.433   4.327   6.583 -0.7122 -0.4168  0.0794
10412TIP3    H131181   5.395   4.351   6.668  0.4397  0.7432  0.2852
10412TIP3    H231182   5.472   4.407   6.550 -0.4144 -1.0548 -1.1822
10413TIP3   OH231183   6.871   6.480   5.209 -0.1787 -0.0178 -0.3473
10413TIP3    H131184   6.840   6.544   5.272  1.0916  0.8183 -0.5345
10413TIP3    H231185   6.844   6.514   5.124  1.6521  1.0347 -0.5661
10414TIP3   OH231186   5.842   4.854   0.548  0.1420 -0.2390 -0.3235
10414TIP3    H131187   5.888   4.870   0.466  0.5954 -0.3400 -0.0902
10414TIP3    H231188   5.878   4.772   0.581 -0.3678 -0.4411 -0.2498
10415TIP3   OH231189   7.262   6.652   0.468 -0.4000 -0.4776 -0.4465
10415TIP3    H131190   7.258   6.714   0.395  1.0474  1.5154  1.0569
10415TIP3    H231191   7.317   6.695   0.533  0.1259 -3.0998  0.9874
10416TIP3   OH231192   5.575   2.002   2.258 -0.3021 -0.2356 -0.0159
10416TIP3    H131193   5.543   2.007   2.348  1.4540 -1.0423  0.6953
10416TIP3    H231194   5.585   2.094   2.232  2.1687  0.1260  1.8029
10417TIP3   OH231195   3.025   3.274   6.008  0.3633  0.0805 -0.6728
10417TIP3    H131196   3.066   3.194   5.976  0.2737 -0.5791  0.8113
10417TIP3    H231197   2.934   3.251   6.022  0.1256  0.7144 -1.0972
10418TIP3   OH231198   0.093   6.535   3.348 -0.9948 -0.1716 -0.3333
10418TIP3    H131199   0.038   6.609   3.371  0.0119  0.0959  1.3849
10418TIP3    H231200   0.147   6.520   3.426  2.6875  0.7805 -2.4673
10419TIP3   OH231201   0.233   6.497   1.389  0.2281 -0.3050  0.3673
10419TIP3    H131202   0.284   6.560   1.440 -0.1636  0.8002 -0.5541
10419TIP3    H231203   0.252   6.520   1.298  1.9808 -3.0675 -0.0915
10420TIP3   OH231204   6.462   3.106   6.088  0.2894 -0.1771 -0.1480
10420TIP3    H131205   6.516   3.055   6.027  2.1228  0.9641  0.4107
10420TIP3    H231206   6.526   3.144   6.149 -0.9350  2.7761 -0.5606
10421TIP3   OH231207   2.979   2.039   2.891 -0.3409  0.0123  0.1508
10421TIP3    H131208   2.917   2.111   2.884  1.3687  2.0730  3.5647
10421TIP3    H231209   3.058   2.079   2.927  0.5429 -3.5917  2.8033
10422TIP3   OH231210   0.949   2.505   0.213 -0.2309  1.0123  0.1859
10422TIP3    H131211   0.999   2.578   0.250 -0.0935  1.1959 -0.3513
10422TIP3    H231212   0.976   2.501   0.122  0.4227 -0.2960  0.4193
10423TIP3   OH231213   3.379   2.755   2.388  0.4384  0.0530  0.8638
10423TIP3    H131214   3.453   2.709   2.347  0.2311  0.2066  0.3026
10423TIP3    H231215   3.397   2.751   2.482 -0.1559 -2.2145  0.9293
10424TIP3   OH231216   5.071   6.432   2.030 -0.2241  0.0399 -0.0915
10424TIP3    H131217   5.032   6.517   2.009  0.6463  0.9848  1.8397
10424TIP3    H231218   4.998   6.379   2.062 -0.5472  0.5707  0.0666
10425TIP3   OH231219   4.490   1.602   5.832 -0.5711  0.2920  0.2567
10425TIP3    H131220   4.528   1.555   5.906 -0.3178 -0.2615 -0.2164
10425TIP3    H231221   4.476   1.691   5.864 -0.7393 -0.0162  1.0588
10426TIP3   OH231222   1.530   6.210   6.701 -0.8022 -0.5242 -1.0361
10426TIP3    H131223   1.502   6.135   6.649 -0.1362 -1.7677  0.3334
10426TIP3    H231224   1.592   6.174   6.765  0.9651  1.4904 -1.4978
10427TIP3   OH231225   8.258   6.582   0.826  0.4923 -0.2419 -0.1760
10427TIP3    H131226   8.255   6.503   0.771 -0.6191  0.0291 -0.5360
10427TIP3    H231227   8.295   6.649   0.768 -0.1270 -0.1013 -0.4205
10428TIP3   OH231228   0.673   5.864   5.813 -0.6163 -0.4289 -0.2926
10428TIP3    H131229   0.603   5.922   5.842  0.9187  1.7634 -0.7237
10428TIP3    H231230   0.676   5.876   5.718  1.1175  0.5307 -0.1597
10429TIP3   OH231231   4.916   0.465   0.916  0.0202 -0.7364 -0.2050
10429TIP3    H131232   4.861   0.428   0.848  1.0712  0.8091 -1.9950
10429TIP3    H231233   4.979   0.396   0.937  1.3529 -0.4352 -2.7917
10430TIP3   OH231234   2.433   2.280   1.286 -0.0175  0.3344 -0.1317
10430TIP3    H131235   2.449   2.352   1.224 -2.1604  0.5665 -0.5064
10430TIP3    H231236   2.416   2.204   1.230 -0.7139  0.2513  0.1804
10431TIP3   OH231237   5.415   1.920   6.663  0.0940 -0.0997  0.1662
10431TIP3    H131238   5.496   1.952   6.703  0.9266 -0.5410 -1.1176
10431TIP3    H231239   5.443   1.876   6.583 -1.3806 -0.6755 -0.0671
10432TIP3   OH231240   6.778   1.313   5.046 -0.1434 -0.1765 -1.0912
10432TIP3    H131241   6.803   1.244   4.984  0.0145  0.0402 -1.2706
10432TIP3    H231242   6.857   1.367   5.054 -0.6318  0.6728 -1.8619
10433TIP3   OH231243   4.498   0.202   1.747  0.2153 -0.1182  0.7692
10433TIP3    H131244   4.521   0.265   1.815 -0.6949  0.8251  0.2377
10433TIP3    H231245   4.483   0.256   1.669  0.3806 -1.0910  0.0518
10434TIP3   OH231246   7.727   2.388   0.816 -0.0259 -0.2814 -0.1714
10434TIP3    H131247   7.691   2.476   0.821  0.2243 -0.1873  0.0071
10434TIP3    H231248   7.684   2.348   0.740 -1.2498 -0.5129  0.6249
10435TIP3   OH231249   5.455   7.655   3.808  0.1433  0.2912  0.2845
10435TIP3    H131250   5.477   7.583   3.867 -3.3143 -0.8294  0.3998
10435TIP3    H231251   5.374   7.691   3.842  1.3451  3.9074 -0.1985
10436TIP3   OH231252   3.520   6.507   5.729 -0.4453 -0.1071 -0.1825
10436TIP3    H131253   3.526   6.485   5.636 -1.7260 -2.8465  0.2832
10436TIP3    H231254   3.564   6.592   5.737  2.0221 -0.9702 -2.8413
10437TIP3   OH231255   1.520   1.193   1.231  0.0773  0.2088 -0.9458
10437TIP3    H131256   1.512   1.205   1.325  0.1449 -0.6177 -0.8340
10437TIP3    H231257   1.614   1.189   1.215  0.0494 -0.9292 -0.8788
10438TIP3   OH231258   7.538   1.609   6.171 -0.0553  0.1588  0.5472
10438TIP3    H131259   7.524   1.653   6.087 -2.2631  0.2819  0.9358
10438TIP3    H231260   7.476   1.650   6.230 -1.2186 -2.5058  1.3092
10439TIP3   OH231261   3.869   1.603   4.321  0.1237 -0.4168  0.1676
10439TIP3    H131262   3.859   1.637   4.410  0.1100 -0.6798  0.2685
10439TIP3    H231263   3.812   1.659   4.268  1.4646  0.8649  0.0264
10440TIP3   OH231264   2.029   3.259   1.421 -0.0579  0.1003  0.4925
10440TIP3    H131265   2.074   3.179   1.448  0.8774  0.1296 -0.8857
10440TIP3    H231266   1.937   3.233   1.413  0.4394 -1.3051 -1.4401
10441TIP3   OH231267   7.755   2.924   0.905  0.0356 -0.3925  0.0635
10441TIP3    H131268   7.700   3.000   0.886  2.4041  1.1825 -0.9810
10441TIP3    H231269   7.698   2.849   0.886 -1.4235  1.1146 -2.0725
10442TIP3   OH231270   8.234   6.241   5.003  0.3637 -0.9004  0.0587
10442TIP3    H131271   8.289   6.232   4.925  0.2958  1.1069 -0.2704
10442TIP3    H231272   8.268   6.319   5.048 -0.4037 -1.2861  1.3739
10443TIP3   OH231273   5.154   0.192   1.984 -0.1702  0.2558  0.3958
10443TIP3    H131274   5.142   0.279   2.022 -0.8500 -0.7562  2.6953
10443TIP3    H231275   5.240   0.163   2.016 -0.5707 -0.4518  0.8862
10444TIP3   OH231276   7.249   3.190   0.424  0.1179  0.4042 -0.0559
10444TIP3    H131277   7.238   3.131   0.499  1.1101 -1.2116 -1.1233
10444TIP3    H231278   7.161   3.201   0.389 -0.0392 -0.8021 -0.0814
10445TIP3   OH231279   2.961   5.137   1.986 -0.0884 -0.0796 -0.2483
10445TIP3    H131280   2.932   5.227   1.972 -0.1247 -0.1555 -0.6733
10445TIP3    H231281   3.039   5.145   2.042  0.0694  0.2330 -0.5099
10446TIP3   OH231282   6.886   4.530   4.697 -0.2325  0.5805 -0.8473
10446TIP3    H131283   6.952   4.530   4.767  0.8555 -0.5598 -1.8198
10446TIP3    H231284   6.909   4.606   4.643 -1.2077  1.5955  0.0959
10447TIP3   OH231285   0.140   7.283   0.401 -0.0601  0.3883 -0.0564
10447TIP3    H131286   0.087   7.304   0.324  0.3827  1.2197 -0.1442
10447TIP3    H231287   0.120   7.191   0.419 -2.2206  0.8968  0.4547
10448TIP3   OH231288   7.420   0.288   5.087 -0.6945  0.1659 -0.2044
10448TIP3    H131289   7.441   0.270   5.178  0.8723  0.8898 -0.3788
10448TIP3    H231290   7.377   0.209   5.056 -0.6316 -0.3510  0.9795
10449TIP3   OH231291   6.624   5.856   5.424  0.9066  0.0107 -0.2992
10449TIP3    H131292   6.533   5.874   5.399  0.4226 -0.6634  0.9093
10449TIP3    H231293   6.660   5.807   5.350  0.3979  0.5815 -0.9384
10450TIP3   OH231294   7.592   0.994   1.041 -1.0319  0.4889 -0.1534
10450TIP3    H131295   7.592   1.082   1.079  0.9194  0.0081  1.0779
10450TIP3    H231296   7.501   0.965   1.051 -0.9507  0.9268  3.0655
10451TIP3   OH231297   6.429   7.181   4.468 -0.1167  0.2136 -0.0982
10451TIP3    H131298   6.356   7.132   4.506  1.0440 -0.8079  0.9354
10451TIP3    H231299   6.452   7.245   4.536  1.2024 -0.8120  0.4581
10452TIP3   OH231300   3.301   5.291   5.096 -0.2286 -0.1183 -0.5858
10452TIP3    H131301   3.325   5.228   5.165  1.4830 -0.3435 -1.3289
10452TIP3    H231302   3.322   5.247   5.014 -0.6802  0.7668 -1.1965
10453TIP3   OH231303   6.620   2.814   0.112  0.7289  0.6654 -0.1614
10453TIP3    H131304   6.551   2.866   0.070 -1.3065  0.9897  3.1764
10453TIP3    H231305   6.694   2.873   0.120  0.3353  1.3084 -1.1225
10454TIP3   OH231306   6.083   2.373   1.142 -0.5701  0.5468 -0.2746
10454TIP3    H131307   6.104   2.286   1.176 -0.2743  1.2763  1.5156
10454TIP3    H231308   6.152   2.429   1.176 -2.2844  1.9891  1.0431
10455TIP3   OH231309   0.335   3.006   5.612 -0.0248 -0.6548  0.0736
10455TIP3    H131310   0.413   3.058   5.627 -0.6618 -0.0154  1.3315
10455TIP3    H231311   0.275   3.031   5.682 -1.1152 -1.6085 -0.4726
10456TIP3   OH231312   2.526   6.162   2.513 -0.0531  0.0702 -0.4789
10456TIP3    H131313   2.466   6.099   2.552  0.7670 -0.1740  0.4301
10456TIP3    H231314   2.613   6.127   2.530  0.4148  1.3192 -0.1675
10457TIP3   OH231315   6.101   4.784   4.741  0.2737  0.0074  0.2208
10457TIP3    H131316   6.103   4.767   4.835  0.4858 -0.1928  0.1815
10457TIP3    H231317   6.009   4.794   4.719  0.1787 -0.6031  0.3313
10458TIP3   OH231318   5.871   1.285   4.195  0.5339  0.3873 -0.0601
10458TIP3    H131319   5.796   1.240   4.155  1.7318 -0.4628 -1.4293
10458TIP3    H231320   5.943   1.269   4.135  1.2762  3.3333 -0.0693
10459TIP3   OH231321   3.470   3.361   3.764 -0.1527  0.4247  0.3346
10459TIP3    H131322   3.562   3.337   3.774 -0.8141 -2.0897  1.0029
10459TIP3    H231323   3.438   3.374   3.853 -0.5931  0.7008  0.1414
10460TIP3   OH231324   5.519   3.254   3.045  0.4150 -0.1453  0.0922
10460TIP3    H131325   5.583   3.205   2.995  0.4287  0.4792 -0.5048
10460TIP3    H231326   5.438   3.203   3.038  0.2904  0.1876 -0.9760
10461TIP3   OH231327   5.535   7.110   2.244 -0.0993  0.6705  0.1328
10461TIP3    H131328   5.594   7.036   2.228 -1.5961 -0.2453 -1.4696
10461TIP3    H231329   5.537   7.122   2.339  1.0085 -0.7096  0.3209
10462TIP3   OH231330   0.833   5.462   5.656 -0.3011  0.1862 -0.3800
10462TIP3    H131331   0.830   5.380   5.607 -2.1713 -0.6798  1.0312
10462TIP3    H231332   0.892   5.444   5.729 -0.3001  0.2753 -0.3592
10463TIP3   OH231333   5.877   5.853   4.189  0.1937 -0.5465  0.2613
10463TIP3    H131334   5.915   5.885   4.107 -1.4479 -0.4122 -0.4949
10463TIP3    H231335   5.803   5.912   4.206 -1.1757 -2.1854  0.3258
10464TIP3   OH231336   1.903   6.402   1.799  0.7052 -0.4242 -0.1401
10464TIP3    H131337   1.948   6.456   1.733  0.5900 -1.3615 -1.0116
10464TIP3    H231338   1.828   6.456   1.826  0.2404 -0.3712 -1.4430
10465TIP3   OH231339   1.298   6.254   2.405 -0.3335 -0.3562  0.3402
10465TIP3    H131340   1.369   6.213   2.356 -1.2624 -0.0742 -1.3198
10465TIP3    H231341   1.342   6.300   2.477  1.2053  0.0526 -0.7988
10466TIP3   OH231342   5.453   3.215   1.183  1.0304  0.2500 -0.4658
10466TIP3    H131343   5.542   3.242   1.207  1.9016 -0.8281 -2.2828
10466TIP3    H231344   5.465   3.137   1.129 -1.1001 -0.5214  0.0900
10467TIP3   OH231345   7.804   7.500   0.438 -0.0975 -0.5646  0.1633
10467TIP3    H131346   7.726   7.539   0.398 -0.5769 -2.2738 -0.6693
10467TIP3    H231347   7.872   7.567   0.428 -1.5385  1.1263  1.3058
10468TIP3   OH231348   1.533   1.871   5.030 -0.2416  0.0764  0.1858
10468TIP3    H131349   1.513   1.945   4.973  0.7813 -0.4068 -0.8563
10468TIP3    H231350   1.483   1.798   4.992 -0.1897 -0.0644  0.3851
10469TIP3   OH231351   0.273   4.725   5.376 -0.2229 -0.3457 -0.3844
10469TIP3    H131352   0.368   4.726   5.374 -0.2093  0.2209  0.5087
10469TIP3    H231353   0.250   4.635   5.398  0.1476 -0.1357  0.9320
10470TIP3   OH231354   1.876   7.050   5.409 -0.2616  0.2136 -0.2160
10470TIP3    H131355   1.817   7.112   5.453 -0.7768  0.1222 -0.7569
10470TIP3    H231356   1.859   6.966   5.451 -0.0621  0.3069  0.0518
10471TIP3   OH231357   2.334   6.734   0.328  0.4653 -0.6994  0.5383
10471TIP3    H131358   2.262   6.766   0.274  0.8010  1.1249  1.1080
10471TIP3    H231359   2.373   6.663   0.277 -0.2520 -0.1203 -0.8613
10472TIP3   OH231360   3.914   3.872   4.698  0.0427 -0.1443 -0.0713
10472TIP3    H131361   3.832   3.831   4.724  0.5132 -0.4695  0.9477
10472TIP3    H231362   3.980   3.833   4.756  0.6448  1.3746  0.3100
10473TIP3   OH231363   7.429   2.617   2.778  0.5271 -0.3446 -0.5732
10473TIP3    H131364   7.455   2.616   2.870 -1.4182 -0.8659  0.0135
10473TIP3    H231365   7.344   2.573   2.776  0.8693 -1.0643 -2.7434
10474TIP3   OH231366   8.188   3.783   1.694  0.0725 -0.2174 -0.1858
10474TIP3    H131367   8.211   3.874   1.675 -1.8916  0.2897 -0.3980
10474TIP3    H231368   8.173   3.744   1.608 -1.1862 -0.1125 -0.0305
10475TIP3   OH231369   3.278   0.487   2.983 -0.6240 -0.0653 -0.1912
10475TIP3    H131370   3.306   0.481   2.892  0.6626  0.3708  0.1672
10475TIP3    H231371   3.182   0.490   2.978 -0.5621  0.1816 -1.5398
10476TIP3   OH231372   0.298   0.279   2.909 -0.4975 -0.2806  0.2996
10476TIP3    H131373   0.385   0.295   2.945 -0.5905  1.2296 -0.0809
10476TIP3    H231374   0.312   0.217   2.837  0.0093 -1.3757  1.3178
10477TIP3   OH231375   6.485   1.476   3.472 -0.2432 -0.6254  0.4416
10477TIP3    H131376   6.462   1.524   3.552 -0.4844 -0.0024  0.0018
10477TIP3    H231377   6.580   1.485   3.466 -0.0337 -1.8928  1.4226
10478TIP3   OH231378   0.149   6.249   2.301  0.2063  0.0122  0.0707
10478TIP3    H131379   0.189   6.243   2.388  1.3405 -0.3830 -0.4526
10478TIP3    H231380   0.189   6.177   2.252 -0.1662  0.4409 -0.8825
10479TIP3   OH231381   3.656   5.660   5.368 -0.2561 -0.1933 -0.0888
10479TIP3    H131382   3.609   5.665   5.284  0.2906  0.4531 -0.3665
10479TIP3    H231383   3.743   5.692   5.348 -0.2794  0.4853  0.8597
10480TIP3   OH231384   1.476   4.466   5.449 -0.0519  0.4394  0.1092
10480TIP3    H131385   1.511   4.543   5.493 -0.1541 -0.8188  2.5665
10480TIP3    H231386   1.523   4.462   5.366  0.8700  2.4167  0.4802
10481TIP3   OH231387   2.553   0.718   2.670  0.2416 -0.0688  0.6774
10481TIP3    H131388   2.582   0.776   2.599 -1.6862 -0.8879 -0.8599
10481TIP3    H231389   2.458   0.729   2.672  0.0110 -1.9482  1.4724
10482TIP3   OH231390   6.952   4.976   2.309  0.1267  0.2538 -0.0412
10482TIP3    H131391   7.034   4.934   2.334 -0.6675 -1.4635 -0.1475
10482TIP3    H231392   6.892   4.954   2.380 -0.7679 -0.2316 -0.9304
10483TIP3   OH231393   7.252   4.778   1.755 -0.5899  0.3955 -0.0616
10483TIP3    H131394   7.297   4.824   1.826  0.8530 -1.0601  0.0167
10483TIP3    H231395   7.214   4.848   1.701  1.3727  1.6879  0.1387
10484TIP3   OH231396   8.026   5.869   6.698 -0.3759 -0.0102  0.2997
10484TIP3    H131397   8.068   5.784   6.712  1.9067  0.7646 -1.2931
10484TIP3    H231398   8.037   5.915   6.782  2.2262  0.2106 -0.0774
10485TIP3   OH231399   0.062   1.051   5.815  0.0713  0.6447 -0.2036
10485TIP3    H131400   0.035   0.959   5.816  1.1799  0.3008  1.3582
10485TIP3    H231401   0.031   1.084   5.731 -1.1887 -0.8962 -0.3897
10486TIP3   OH231402   8.235   2.732   2.696 -0.1350 -0.0169 -0.1840
10486TIP3    H131403   8.274   2.645   2.707  1.6908  0.9003  0.9384
10486TIP3    H231404   8.165   2.718   2.631  0.2182 -2.2665 -0.1743
10487TIP3   OH231405   1.550   2.508   4.042 -0.1197  0.2195 -0.6410
10487TIP3    H131406   1.477   2.460   4.082 -0.4909  0.6092 -0.8308
10487TIP3    H231407   1.533   2.600   4.064  0.5495  0.2716 -0.3282
10488TIP3   OH231408   5.979   5.342   0.146 -0.3468 -0.5295  0.0827
10488TIP3    H131409   6.031   5.299   0.078  0.7191  0.7761  0.0147
10488TIP3    H231410   5.894   5.358   0.106 -0.8384 -2.6486  0.1647
10489TIP3   OH231411   5.517   7.280   1.813  0.3643 -0.1941  0.2734
10489TIP3    H131412   5.466   7.298   1.892  0.2886 -0.5620  0.3110
10489TIP3    H231413   5.597   7.331   1.824  0.1650  0.0934  0.3884
10490TIP3   OH231414   5.550   4.151   5.110  0.4780 -0.1059  0.8352
10490TIP3    H131415   5.482   4.096   5.072  0.5907 -0.9524  1.8018
10490TIP3    H231416   5.552   4.229   5.055  0.6599 -1.2833 -0.9040
10491TIP3   OH231417   3.424   4.902   0.386  0.7362  0.1562 -0.3557
10491TIP3    H131418   3.492   4.839   0.364  0.2394 -0.6972  0.4631
10491TIP3    H231419   3.418   4.898   0.482  0.8626  1.6326 -0.2634
10492TIP3   OH231420   5.610   7.167   2.525  0.4456  0.8606 -0.0978
10492TIP3    H131421   5.702   7.154   2.501  0.5597 -1.1942  1.2325
10492TIP3    H231422   5.613   7.196   2.616 -0.2259  0.1483  0.1640
10493TIP3   OH231423   1.652   4.848   2.656 -0.3095 -0.0212 -0.2137
10493TIP3    H131424   1.649   4.942   2.638 -0.4355  0.0528  0.1888
10493TIP3    H231425   1.710   4.840   2.732  0.2917 -0.3390 -0.6972
10494TIP3   OH231426   0.531   2.847   4.433  0.4077 -0.3648 -0.6870
10494TIP3    H131427   0.537   2.760   4.395  0.7939 -0.5103 -0.3006
10494TIP3    H231428   0.440   2.872   4.422  0.2021 -0.9846 -0.4350
10495TIP3   OH231429   8.070   1.791   3.421  0.4737  0.1066  0.5037
10495TIP3    H131430   8.102   1.851   3.354  1.2677 -0.8326  0.0106
10495TIP3    H231431   8.149   1.750   3.456 -0.1110 -1.4648  0.0499
10496TIP3   OH231432   5.266   3.140   3.655  0.0383 -0.0412  0.1305
10496TIP3    H131433   5.355   3.175   3.660  0.2061 -0.5349  0.6731
10496TIP3    H231434   5.226   3.166   3.738  0.1403 -1.0634  0.5108
10497TIP3   OH231435   4.015   4.924   1.425 -0.2056  0.2366 -0.0489
10497TIP3    H131436   3.980   4.889   1.343  0.1142  2.3717 -1.1791
10497TIP3    H231437   3.949   4.902   1.491 -0.3772 -1.7059 -0.7990
10498TIP3   OH231438   4.220   0.328   6.036 -0.7277 -0.0802 -0.1803
10498TIP3    H131439   4.201   0.271   5.961 -0.2150 -0.3593 -0.1069
10498TIP3    H231440   4.145   0.317   6.095 -0.9921 -0.0884 -0.5169
10499TIP3   OH231441   8.214   1.760   4.653 -0.4791  0.4546 -0.2249
10499TIP3    H131442   8.196   1.749   4.560 -1.8090  0.8695 -0.0351
10499TIP3    H231443   8.245   1.851   4.661  1.4744 -0.1394 -0.4952
10500TIP3   OH231444   4.475   3.086   3.349 -0.2981 -0.3166  0.0980
10500TIP3    H131445   4.390   3.128   3.333  0.5790  1.1802 -0.9690
10500TIP3    H231446   4.484   3.085   3.444 -0.2364  2.3498  0.2074
10501TIP3   OH231447   6.748   4.516   3.730  0.3443 -0.0852  0.4643
10501TIP3    H131448   6.768   4.609   3.744  0.8472 -0.4996  3.1968
10501TIP3    H231449   6.762   4.501   3.637  0.5365  2.5040  0.0135
10502TIP3   OH231450   1.654   6.880   2.912  0.1604 -0.0561  0.4709
10502TIP3    H131451   1.633   6.912   3.000 -1.0661  0.9662 -0.1570
10502TIP3    H231452   1.745   6.907   2.898 -0.2816  1.6752  0.6552
10503TIP3   OH231453   6.344   2.189   2.030 -0.1712  0.4479 -0.1096
10503TIP3    H131454   6.306   2.254   2.090 -0.1841  0.1302  0.2305
10503TIP3    H231455   6.280   2.181   1.960 -0.1838  0.7835 -0.1394
10504TIP3   OH231456   5.607   1.966   0.717 -0.5661  0.3338  0.4155
10504TIP3    H131457   5.652   1.893   0.760 -0.3566  0.3151  0.1714
10504TIP3    H231458   5.545   1.997   0.782 -0.2259  0.3325  0.7475
10505TIP3   OH231459   0.690   6.938   4.958  0.8021 -0.2472 -0.1440
10505TIP3    H131460   0.671   6.887   5.037  2.0871 -0.2854  0.1721
10505TIP3    H231461   0.682   7.029   4.986 -0.0910 -0.2626 -0.3354
10506TIP3   OH231462   4.412   3.270   1.567 -1.1835 -0.4235  0.1327
10506TIP3    H131463   4.451   3.227   1.643 -0.3568 -1.2119 -0.7234
10506TIP3    H231464   4.415   3.205   1.497 -0.6710  0.7380 -0.9620
10507TIP3   OH231465   7.889   2.508   4.652  0.1096  0.0570 -0.2352
10507TIP3    H131466   7.857   2.597   4.638  0.2154  0.3446  1.1752
10507TIP3    H231467   7.922   2.508   4.742  1.5719 -0.9793 -0.7340
10508TIP3   OH231468   2.803   7.700   6.371 -0.4884 -0.4989 -0.2612
10508TIP3    H131469   2.784   7.622   6.318  1.5998 -2.0967  1.1677
10508TIP3    H231470   2.875   7.673   6.428 -2.2865  1.1978  3.1300
10509TIP3   OH231471   7.787   7.185   2.312 -0.3756 -0.0890  0.4848
10509TIP3    H131472   7.735   7.148   2.383 -0.5638 -0.6156  0.0788
10509TIP3    H231473   7.831   7.110   2.272 -1.8295 -0.1002 -1.2252
10510TIP3   OH231474   4.831   1.897   1.511  0.8677  0.4103 -0.3517
10510TIP3    H131475   4.840   1.984   1.470  3.1701  0.6829  0.5798
10510TIP3    H231476   4.781   1.914   1.591  0.7310  0.7675 -0.5083
10511TIP3   OH231477   7.640   1.972   3.068  0.4063  0.0245 -0.2616
10511TIP3    H131478   7.670   2.030   3.138  0.0430 -1.1554  0.8851
10511TIP3    H231479   7.661   2.021   2.987  1.6796  0.9904  0.6085
10512TIP3   OH231480   4.858   0.964   1.324  0.8749 -0.4277  0.0271
10512TIP3    H131481   4.887   1.046   1.364 -0.3161  0.3685 -0.6940
10512TIP3    H231482   4.843   0.987   1.232  0.2316 -1.3755 -0.1128
10513TIP3   OH231483   2.759   3.813   2.731 -0.4185  0.4630 -0.0259
10513TIP3    H131484   2.830   3.763   2.770  0.6304  0.9019 -1.3148
10513TIP3    H231485   2.790   3.837   2.644 -1.1370  2.7581  0.2639
10514TIP3   OH231486   2.653   2.053   3.198 -0.0098 -0.0117  0.2763
10514TIP3    H131487   2.722   1.990   3.222  1.0382 -0.5242 -3.3870
10514TIP3    H231488   2.695   2.139   3.207  0.4199 -0.1993  0.1060
10515TIP3   OH231489   6.128   0.854   4.174  0.1515 -0.8176  0.2495
10515TIP3    H131490   6.044   0.898   4.159 -0.1680 -1.2766  0.6848
10515TIP3    H231491   6.106   0.761   4.178  1.0007 -1.1872 -2.0219
10516TIP3   OH231492   3.790   7.047   3.352 -0.0334  0.2754 -0.6179
10516TIP3    H131493   3.741   7.080   3.428  1.2984  2.6646 -0.7049
10516TIP3    H231494   3.748   7.090   3.277 -0.3792 -0.8935 -1.1078
10517TIP3   OH231495   2.782   6.358   0.230  0.0266  0.3033 -0.4320
10517TIP3    H131496   2.818   6.280   0.272 -1.0639  0.3557  0.6834
10517TIP3    H231497   2.858   6.411   0.208  0.9418 -1.8203 -2.8883
10518TIP3   OH231498   3.560   6.393   6.081  0.0396  0.0135  0.0131
10518TIP3    H131499   3.502   6.352   6.018  0.2083  0.3511 -0.3682
10518TIP3    H231500   3.506   6.460   6.123  0.1926  0.4447 -0.4634
10519TIP3   OH231501   2.751   2.800   3.421 -0.3504  0.3755  0.2439
10519TIP3    H131502   2.735   2.758   3.337  0.5994 -0.0894  0.2850
10519TIP3    H231503   2.783   2.730   3.478  2.5555  1.2991 -0.0670
10520TIP3   OH231504   6.360   0.805   6.631  0.4919 -0.9980  0.0214
10520TIP3    H131505   6.406   0.782   6.551 -1.8422 -0.9997 -1.4269
10520TIP3    H231506   6.313   0.726   6.656  2.4427 -1.5025  2.3929
10521TIP3   OH231507   2.124   6.333   1.271 -0.1573  0.6498  0.2849
10521TIP3    H131508   2.099   6.255   1.221  1.7251 -0.0478  0.3499
10521TIP3    H231509   2.154   6.396   1.204 -0.7972  0.9811  0.3030
10522TIP3   OH231510   0.261   2.481   3.297  0.5343  0.1344 -0.0015
10522TIP3    H131511   0.317   2.501   3.221  2.6064 -0.7233  1.2100
10522TIP3    H231512   0.319   2.491   3.372 -0.4639 -2.4407  1.2349
10523TIP3   OH231513   1.173   7.356   6.584 -0.1290 -0.7166 -0.2545
10523TIP3    H131514   1.179   7.263   6.565  0.8402 -0.5807 -0.6653
10523TIP3    H231515   1.264   7.387   6.580 -0.3441  0.0801  0.7034
10524TIP3   OH231516   1.827   2.454   4.832 -0.0805 -0.1801 -0.0092
10524TIP3    H131517   1.802   2.542   4.860  0.4817  0.3619 -1.1164
10524TIP3    H231518   1.885   2.469   4.757 -0.0008 -1.4973 -0.2325
10525TIP3   OH231519   0.032   3.097   3.675  0.1347 -0.2739  0.1483
10525TIP3    H131520   0.062   3.041   3.746  2.1081  2.8280  2.0254
10525TIP3    H231521  -0.064   3.100   3.685  0.3167 -0.3289  2.4458
10526TIP3   OH231522   4.327   5.082   0.812  0.3252 -0.2674 -0.4336
10526TIP3    H131523   4.344   4.988   0.817  2.5591 -0.0309 -2.0408
10526TIP3    H231524   4.330   5.102   0.719 -0.3653  1.3785 -0.1377
10527TIP3   OH231525   1.239   0.765   3.909 -0.3123  0.2240 -0.4620
10527TIP3    H131526   1.183   0.706   3.959  1.4563 -0.3737  0.9343
10527TIP3    H231527   1.184   0.842   3.891 -2.4318 -1.4714 -1.6849
10528TIP3   OH231528   3.498   6.416   3.180 -0.1311 -0.7013  0.3266
10528TIP3    H131529   3.484   6.417   3.085 -0.1493  1.2915  0.3098
10528TIP3    H231530   3.419   6.455   3.217  0.5632  0.0886  1.0271
10529TIP3   OH231531   5.900   5.137   5.031  0.1399  0.0449  0.2722
10529TIP3    H131532   5.968   5.094   4.980 -0.1662 -0.9626  0.6888
10529TIP3    H231533   5.943   5.215   5.067  0.4779  0.5324 -1.1297
10530TIP3   OH231534   6.067   2.355   0.519  0.7302 -0.0436  0.2549
10530TIP3    H131535   6.107   2.398   0.594 -0.2343  0.0671  0.7212
10530TIP3    H231536   6.120   2.276   0.505  0.4424 -0.4933  1.5669
10531TIP3   OH231537   5.291   7.120   1.120 -0.7842  0.6608  0.1587
10531TIP3    H131538   5.285   7.080   1.206 -1.9459  0.7500  0.1370
10531TIP3    H231539   5.366   7.180   1.126 -1.1342  1.0005  1.2441
10532TIP3   OH231540   5.967   6.360   5.930  0.2509  0.0010 -0.3371
10532TIP3    H131541   6.005   6.299   5.993  0.7590 -1.4727 -2.0063
10532TIP3    H231542   5.900   6.310   5.884 -1.3961  1.5848  0.2216
10533TIP3   OH231543   5.410   1.204   4.722  0.6185  0.1061  0.1650
10533TIP3    H131544   5.354   1.277   4.750  1.2913  1.0416 -0.8485
10533TIP3    H231545   5.399   1.138   4.790 -0.6901  0.7991  0.6637
10534TIP3   OH231546   3.805   7.409   3.065  0.4472  0.2507 -0.7397
10534TIP3    H131547   3.755   7.428   3.145  0.1394 -1.0854 -0.5942
10534TIP3    H231548   3.806   7.314   3.059  1.0392  0.3124 -1.9863
10535TIP3   OH231549   6.802   1.693   2.060 -0.0658  0.4003 -0.3231
10535TIP3    H131550   6.894   1.694   2.086 -0.0118  1.0903 -0.5352
10535TIP3    H231551   6.755   1.675   2.142  0.2880 -0.8115 -0.3555
10536TIP3   OH231552   0.989   6.451   0.082  0.4236 -0.5040 -0.0927
10536TIP3    H131553   0.999   6.357   0.065 -1.2652 -0.4852 -1.5565
10536TIP3    H231554   0.909   6.458   0.134  1.1318  0.0804  0.9584
10537TIP3   OH231555   6.144   4.446   0.865  0.0450 -0.2445 -0.0172
10537TIP3    H131556   6.222   4.426   0.813  1.0704  0.2972  1.2355
10537TIP3    H231557   6.123   4.363   0.909 -0.1931 -0.4321 -0.4789
10538TIP3   OH231558   2.541   1.173   4.802  0.4978 -0.6890 -0.1556
10538TIP3    H131559   2.585   1.093   4.774  0.2216 -0.6524 -0.7222
10538TIP3    H231560   2.601   1.243   4.777 -0.8932 -0.4455 -3.2542
10539TIP3   OH231561   5.847   1.753   5.121 -0.2701 -0.3824 -0.6326
10539TIP3    H131562   5.889   1.741   5.206 -0.3920  0.2208 -0.4830
10539TIP3    H231563   5.919   1.745   5.058  0.0414  0.3901 -0.3929
10540TIP3   OH231564   6.103   4.132   0.204  1.0171 -0.1389 -0.2537
10540TIP3    H131565   6.117   4.181   0.285 -0.6811  1.0592 -0.6232
10540TIP3    H231566   6.101   4.040   0.231 -0.4111  0.2893  1.2215
10541TIP3   OH231567   1.788   3.849   1.747  0.1707  0.2640  0.2354
10541TIP3    H131568   1.767   3.774   1.692 -0.0690  0.2386  0.3576
10541TIP3    H231569   1.865   3.822   1.796 -0.0669 -0.0037  0.4678
10542TIP3   OH231570   0.387   2.906   1.331 -0.2207  0.0335 -0.1374
10542TIP3    H131571   0.459   2.937   1.386 -1.2207 -0.2702  1.3972
10542TIP3    H231572   0.309   2.945   1.369 -0.9914 -0.4956 -1.1238
10543TIP3   OH231573   5.837   3.636   2.574 -0.4493 -0.0072 -0.2381
10543TIP3    H131574   5.818   3.600   2.661 -0.6251 -1.1573 -0.7314
10543TIP3    H231575   5.834   3.561   2.516  1.5175  0.4371 -0.9950
10544TIP3   OH231576   5.771   5.819   2.121 -0.6499  0.3724 -0.2898
10544TIP3    H131577   5.745   5.832   2.212  0.7968  1.7090 -0.0262
10544TIP3    H231578   5.794   5.906   2.089  0.8702 -0.3325 -1.2908
10545TIP3   OH231579   3.753   3.795   1.380  0.4544 -0.3070  0.1828
10545TIP3    H131580   3.759   3.856   1.453  1.3146 -0.1300 -0.0161
10545TIP3    H231581   3.718   3.848   1.308  1.6314  0.1041 -0.1194
10546TIP3   OH231582   2.986   5.835   5.951 -0.6200 -0.0822 -0.1375
10546TIP3    H131583   2.969   5.743   5.930 -0.7657 -0.3067  0.8744
10546TIP3    H231584   2.915   5.883   5.908 -0.0067 -0.3354 -1.4631
10547TIP3   OH231585   5.900   6.620   1.069  0.2952 -0.2732 -0.3472
10547TIP3    H131586   5.954   6.541   1.080  0.5862 -0.1697 -0.9827
10547TIP3    H231587   5.817   6.587   1.034 -0.0229 -0.4178  0.5092
10548TIP3   OH231588   5.112   6.324   5.997  0.4623  0.1591  0.2111
10548TIP3    H131589   5.202   6.314   6.027  0.1631  0.5942  1.3053
10548TIP3    H231590   5.113   6.404   5.943  0.3529  1.3286  1.8779
10549TIP3   OH231591   0.013   4.076   3.806 -0.2352 -0.3749 -0.3070
10549TIP3    H131592  -0.001   3.998   3.752  0.4434 -0.5579 -0.2266
10549TIP3    H231593   0.098   4.109   3.778 -0.1493 -0.1343  0.2374
10550TIP3   OH231594   7.477   0.386   1.789  0.3591  0.4372 -0.3237
10550TIP3    H131595   7.554   0.407   1.736  0.4538  0.0793 -0.3307
10550TIP3    H231596   7.427   0.467   1.793  1.4238  1.0749  0.8232
10551TIP3   OH231597   5.121   1.241   3.815  0.3807 -0.2118  0.1637
10551TIP3    H131598   5.195   1.302   3.812  1.8591 -1.8201  1.6795
10551TIP3    H231599   5.095   1.240   3.908 -1.3498  0.0608 -0.2801
10552TIP3   OH231600   1.506   3.789   1.399 -0.2047  0.2575  0.4077
10552TIP3    H131601   1.416   3.819   1.384 -1.4303 -2.1794  2.1178
10552TIP3    H231602   1.550   3.865   1.436 -1.1505  1.8763 -1.5490
10553TIP3   OH231603   6.367   2.004   1.556  0.2820 -0.8637  0.1211
10553TIP3    H131604   6.338   2.040   1.473 -0.4088 -2.2757 -0.2690
10553TIP3    H231605   6.443   1.950   1.534  0.0526 -1.3013  0.3871
10554TIP3   OH231606   6.542   3.245   3.408 -0.2947  0.3495  0.1068
10554TIP3    H131607   6.526   3.154   3.384  0.1203  0.6966 -1.5903
10554TIP3    H231608   6.590   3.240   3.491  1.4024 -1.0698 -0.8996
10555TIP3   OH231609   6.499   1.200   4.858  0.1323 -0.2793 -0.4124
10555TIP3    H131610   6.498   1.113   4.897 -0.0815  0.4478  1.2988
10555TIP3    H231611   6.463   1.257   4.925  1.4834  1.3433 -0.9862
10556TIP3   OH231612   7.793   0.367   0.204 -0.7465  0.2182  0.8986
10556TIP3    H131613   7.879   0.400   0.176 -1.2187 -0.0316 -0.9968
10556TIP3    H231614   7.808   0.273   0.218 -1.3665 -0.6700 -3.0567
10557TIP3   OH231615   7.305   3.062   1.709 -0.1831 -0.3646 -0.0596
10557TIP3    H131616   7.227   3.112   1.685  0.5905  1.0437  0.2420
10557TIP3    H231617   7.322   3.007   1.632  0.6862  2.0916 -1.7542
10558TIP3   OH231618   7.371   4.355   6.618  0.3131 -0.2999  0.2384
10558TIP3    H131619   7.311   4.417   6.660  1.3195  1.0451 -0.2308
10558TIP3    H231620   7.338   4.346   6.529 -0.4669 -1.3229  0.6156
10559TIP3   OH231621   5.144   0.080   4.973  0.4105  0.4825  0.5362
10559TIP3    H131622   5.119   0.140   5.043 -0.2217  1.0584 -0.1632
10559TIP3    H231623   5.236   0.101   4.955  0.4809  0.5555  0.9608
10560TIP3   OH231624   1.096   4.002   3.078  0.6200 -0.1365  0.0251
10560TIP3    H131625   1.049   4.074   3.036  1.1826 -0.0437 -0.4469
10560TIP3    H231626   1.028   3.955   3.128  0.1412  0.3517 -0.1623
10561TIP3   OH231627   1.467   0.461   3.354  0.3172 -0.1671  0.2016
10561TIP3    H131628   1.399   0.528   3.356  1.3524  0.8989  0.1142
10561TIP3    H231629   1.483   0.440   3.446 -0.5285 -0.8520  0.2049
10562TIP3   OH231630   3.334   4.342   5.237 -0.1219 -0.1549  0.0136
10562TIP3    H131631   3.260   4.284   5.251 -3.3612  3.3125 -1.1597
10562TIP3    H231632   3.373   4.352   5.324 -0.6354 -2.4365  0.5650
10563TIP3   OH231633   3.385   1.133   0.572 -0.4734  0.8281  0.1262
10563TIP3    H131634   3.383   1.223   0.606  0.4644  1.1902 -0.7179
10563TIP3    H231635   3.479   1.112   0.568 -0.6319  0.2807 -0.8576
10564TIP3   OH231636   5.318   3.307   1.784 -0.1091  0.0563  0.1150
10564TIP3    H131637   5.304   3.360   1.705  0.6932  0.7618  0.4236
10564TIP3    H231638   5.393   3.349   1.827 -1.1600  0.3191  1.7777
10565TIP3   OH231639   2.696   1.708   5.339  0.2300 -0.1813  0.1915
10565TIP3    H131640   2.716   1.801   5.350 -2.3125  0.3524  1.1389
10565TIP3    H231641   2.606   1.707   5.305  0.0524 -2.2740  0.5877
10566TIP3   OH231642   6.455   1.848   3.281 -0.4805  0.3826 -0.2551
10566TIP3    H131643   6.526   1.816   3.226 -0.8762 -0.7772 -0.1223
10566TIP3    H231644   6.397   1.772   3.292 -0.3759  0.5398  1.8130
10567TIP3   OH231645   7.233   2.174   3.973 -0.3647 -0.7962 -0.7834
10567TIP3    H131646   7.267   2.094   4.013 -1.1862 -1.2858 -1.0330
10567TIP3    H231647   7.187   2.218   4.044  1.5905  0.3882 -0.1723
10568TIP3   OH231648   0.283   4.898   4.526 -0.5038 -0.0503  0.8950
10568TIP3    H131649   0.205   4.858   4.564 -0.0741  0.1567  2.0383
10568TIP3    H231650   0.341   4.913   4.601  0.4894  0.1242  0.1173
10569TIP3   OH231651   2.081   5.316   0.903  0.0881  0.5877 -0.2662
10569TIP3    H131652   1.990   5.291   0.920  0.9406 -1.8097  1.2111
10569TIP3    H231653   2.123   5.314   0.989  1.2786  3.0948 -0.6952
10570TIP3   OH231654   4.581   6.504   2.470 -0.0760 -0.7169 -0.1820
10570TIP3    H131655   4.647   6.493   2.539  1.0490 -1.5603 -1.3581
10570TIP3    H231656   4.631   6.508   2.389 -1.1656  2.6690 -0.8719
10571TIP3   OH231657   7.696   1.120   2.832 -0.6016 -0.3155 -0.3391
10571TIP3    H131658   7.645   1.119   2.751 -1.0745 -0.1934 -0.0515
10571TIP3    H231659   7.727   1.030   2.843  0.5016 -0.0674 -1.2891
10572TIP3   OH231660   7.232   5.531   4.834 -0.3684 -0.1370  0.3146
10572TIP3    H131661   7.230   5.622   4.863  0.2608 -0.1811  0.5111
10572TIP3    H231662   7.255   5.481   4.912  1.1554 -0.2729 -0.1758
10573TIP3   OH231663   7.421   0.366   2.862  0.2413 -0.2734 -0.6040
10573TIP3    H131664   7.360   0.438   2.880 -0.2635 -0.6823 -0.6497
10573TIP3    H231665   7.501   0.409   2.832  0.4479  0.3436  0.7495
10574TIP3   OH231666   1.664   1.335   3.210 -0.2542 -0.0704 -0.8519
10574TIP3    H131667   1.725   1.270   3.246 -1.3318 -0.1760  0.8855
10574TIP3    H231668   1.647   1.395   3.283 -0.8600  0.9912 -1.8291
10575TIP3   OH231669   7.658   0.889   4.153  0.1009 -0.5060  0.4704
10575TIP3    H131670   7.676   0.982   4.168 -3.1295 -0.0583  2.5348
10575TIP3    H231671   7.591   0.887   4.085 -1.0643 -1.1424  1.5850
10576TIP3   OH231672   3.203   0.051   4.188 -0.0134 -0.0467 -0.4078
10576TIP3    H131673   3.111   0.076   4.189 -0.0764 -0.2559 -0.7692
10576TIP3    H231674   3.208  -0.020   4.124  0.0134 -1.5306  1.1774
10577TIP3   OH231675   5.191   7.613   5.423  0.1016  0.0689  0.6405
10577TIP3    H131676   5.279   7.602   5.387 -0.4037 -0.5593 -0.4246
10577TIP3    H231677   5.149   7.528   5.413 -0.5448  0.2829  1.3935
10578TIP3   OH231678   6.724   1.626   1.503 -0.0539  0.2534 -0.2468
10578TIP3    H131679   6.746   1.712   1.540  0.0936  0.3026 -0.4494
10578TIP3    H231680   6.808   1.585   1.486 -0.1030 -0.6860  1.5667
10579TIP3   OH231681   6.306   2.111   5.835 -0.4230  0.2406  0.1464
10579TIP3    H131682   6.349   2.087   5.917 -0.0272  1.5509  0.3541
10579TIP3    H231683   6.359   2.069   5.767  1.5716  2.1682  0.3628
10580TIP3   OH231684   7.559   3.440   3.466 -0.6115 -0.3017  0.0884
10580TIP3    H131685   7.633   3.434   3.405 -1.2077  1.2916 -0.8469
10580TIP3    H231686   7.598   3.470   3.548 -0.1504  0.0144 -0.2416
10581TIP3   OH231687   0.763   4.832   0.273 -0.4753  0.0236  0.6034
10581TIP3    H131688   0.766   4.740   0.299  0.5318  0.3503  1.7668
10581TIP3    H231689   0.736   4.878   0.352  1.6157  0.9635  0.8622
10582TIP3   OH231690   7.681   1.969   6.298  0.2851  0.8997  0.1997
10582TIP3    H131691   7.713   1.884   6.327 -0.6988 -0.1044 -1.5028
10582TIP3    H231692   7.608   1.988   6.356 -0.3670 -0.1057 -0.2608
10583TIP3   OH231693   7.930   5.459   0.168 -0.0685 -0.2384 -0.4076
10583TIP3    H131694   7.941   5.479   0.076  1.2591  1.1733  0.0284
10583TIP3    H231695   7.971   5.373   0.180  0.4901 -0.0517 -0.9758
10584TIP3   OH231696   2.889   2.254   0.745 -0.3258 -0.4670 -0.1405
10584TIP3    H131697   2.811   2.200   0.756 -1.2900  1.1453  1.5279
10584TIP3    H231698   2.944   2.233   0.821  1.1280 -1.8895 -1.5046
10585TIP3   OH231699   6.341   6.050   5.888 -0.4785  0.9181 -0.3711
10585TIP3    H131700   6.367   6.016   5.803 -3.2843  1.4297 -1.5391
10585TIP3    H231701   6.349   6.145   5.880 -1.3975  1.0121 -0.3441
10586TIP3   OH231702   0.313   5.347   1.540  0.0388 -0.3131  0.2042
10586TIP3    H131703   0.318   5.330   1.634  1.3999  3.5441  0.9885
10586TIP3    H231704   0.224   5.322   1.516 -0.5036 -0.9260  2.6278
10587TIP3   OH231705   1.103   5.970   3.983 -0.1184  0.3074  0.0565
10587TIP3    H131706   1.127   5.884   3.947  1.1401  0.4482  0.5119
10587TIP3    H231707   1.033   5.952   4.045  0.6608 -0.5191  0.7264
10588TIP3   OH231708   1.107   1.880   1.296 -0.3458 -0.0353  0.0348
10588TIP3    H131709   1.049   1.851   1.226  1.2693 -0.3436 -1.2287
10588TIP3    H231710   1.166   1.806   1.310  0.7212  0.8231  0.1988
10589TIP3   OH231711   7.082   4.706   6.644 -0.4807  0.0932  0.2366
10589TIP3    H131712   6.994   4.718   6.681 -0.7773  1.7452 -0.9090
10589TIP3    H231713   7.129   4.786   6.666 -0.2376  0.5208 -1.7111
10590TIP3   OH231714   2.923   5.289   2.355 -1.2827  0.3663  0.4888
10590TIP3    H131715   2.840   5.268   2.397 -0.6621  1.4792  2.4365
10590TIP3    H231716   2.929   5.384   2.363  1.3026  0.1283  2.8109
10591TIP3   OH231717   2.853   5.283   2.681 -0.1061  0.9031  0.0914
10591TIP3    H131718   2.858   5.204   2.627  0.0054  0.4385  0.7668
10591TIP3    H231719   2.771   5.325   2.655 -0.6814  0.0255  0.4388
10592TIP3   OH231720   0.911   6.488   5.430  0.5985 -0.5333 -0.0830
10592TIP3    H131721   0.920   6.496   5.525 -2.4588 -0.0308  0.2578
10592TIP3    H231722   0.928   6.576   5.397  2.7636 -0.9391 -0.1882
10593TIP3   OH231723   7.021   2.803   1.987 -0.5381  0.1989  0.3562
10593TIP3    H131724   7.093   2.819   1.926  0.3888  1.3952  1.6788
10593TIP3    H231725   7.030   2.711   2.011  0.3400  0.2416  0.2356
10594TIP3   OH231726   0.479   0.786   2.165 -0.0024  0.2002 -0.5770
10594TIP3    H131727   0.431   0.711   2.201 -0.3514  0.5080 -0.4018
10594TIP3    H231728   0.411   0.849   2.142  0.2605  0.2388 -1.2428
10595TIP3   OH231729   4.149   3.320   1.062  0.1942  0.0949 -0.0536
10595TIP3    H131730   4.135   3.383   0.992  0.3220  1.4045  1.0530
10595TIP3    H231731   4.151   3.373   1.142  0.6303 -1.2818  0.8890
10596TIP3   OH231732   3.332   3.927   2.616  0.1501  0.3699 -0.5105
10596TIP3    H131733   3.266   3.898   2.553 -1.0699  1.3511  0.2662
10596TIP3    H231734   3.314   4.020   2.629  1.8198  0.7080 -0.4024
10597TIP3   OH231735   6.867   3.357   6.294 -0.7395  0.3440 -0.0656
10597TIP3    H131736   6.899   3.408   6.368  0.8815 -1.3527  0.4720
10597TIP3    H231737   6.940   3.358   6.232 -1.7391  0.9732 -1.2774
10598TIP3   OH231738   3.025   3.843   0.198 -0.2643 -0.1035  0.2194
10598TIP3    H131739   3.026   3.751   0.169 -0.3484  0.0436 -0.2657
10598TIP3    H231740   3.117   3.864   0.213 -0.2967 -0.4424  0.9070
10599TIP3   OH231741   2.169   4.283   4.102  0.0229 -0.0731 -0.2456
10599TIP3    H131742   2.145   4.352   4.041 -2.7775  0.9362  1.7814
10599TIP3    H231743   2.127   4.204   4.068 -0.7967  0.2868 -0.0651
10600TIP3   OH231744   1.992   6.735   2.092  0.1620 -0.2113 -0.0428
10600TIP3    H131745   1.988   6.824   2.127 -0.5107 -0.2166 -0.0817
10600TIP3    H231746   1.900   6.713   2.075  0.3639 -0.7495 -0.4416
10601TIP3   OH231747   7.796   3.943   3.521 -0.6394  0.1871 -0.3835
10601TIP3    H131748   7.884   3.976   3.503 -1.0219  1.0215 -0.8071
10601TIP3    H231749   7.802   3.907   3.610  0.0235  0.6323 -0.2358
10602TIP3   OH231750   1.986   2.807   5.483  0.1796 -0.4498  0.2550
10602TIP3    H131751   1.937   2.872   5.534  0.8323 -1.4242  2.2172
10602TIP3    H231752   1.939   2.803   5.400 -1.7139  0.3139  1.2144
10603TIP3   OH231753   1.911   5.043   2.917 -0.3212  0.2056  0.1638
10603TIP3    H131754   1.881   5.087   2.996  0.3334  0.0254  0.5165
10603TIP3    H231755   1.855   5.079   2.847 -0.3353  0.9896  0.5704
10604TIP3   OH231756   2.423   3.555   0.307  0.2057  0.1868  0.0805
10604TIP3    H131757   2.360   3.615   0.267  0.2597  0.7155  0.7691
10604TIP3    H231758   2.503   3.568   0.257 -0.1486 -0.2693 -0.6091
10605TIP3   OH231759   1.018   3.474   5.273  0.0744 -0.6207  0.3698
10605TIP3    H131760   0.937   3.435   5.239  0.4639  1.2337 -3.0363
10605TIP3    H231761   0.988   3.533   5.342 -1.4281 -0.4942 -0.3480
10606TIP3   OH231762   0.075   7.710   2.823  0.5196  0.0426  0.3998
10606TIP3    H131763  -0.003   7.661   2.799  0.6964  0.3429 -0.8863
10606TIP3    H231764   0.077   7.784   2.762  1.7886  0.0395  0.3940
10607TIP3   OH231765   5.224   4.495   4.652 -0.0968  0.5973 -0.7658
10607TIP3    H131766   5.162   4.489   4.725  1.1292 -0.3881  0.2447
10607TIP3    H231767   5.175   4.463   4.576 -1.7890  2.8274 -0.6928
10608TIP3   OH231768   6.763   4.261   3.818 -0.3930 -0.0157  0.4329
10608TIP3    H131769   6.693   4.233   3.877  0.1264 -1.6008  0.3403
10608TIP3    H231770   6.732   4.344   3.782 -1.9987 -0.4482  0.7529
10609TIP3   OH231771   4.878   1.382   3.192  0.1810 -0.2758  0.0040
10609TIP3    H131772   4.892   1.293   3.160 -0.5226 -0.9327  1.4468
10609TIP3    H231773   4.931   1.388   3.272  0.8178  0.8710 -0.4729
10610TIP3   OH231774   6.492   3.853   6.741  0.1004 -0.4162 -0.1972
10610TIP3    H131775   6.475   3.907   6.664  2.0085  0.7383  0.1097
10610TIP3    H231776   6.487   3.914   6.815  3.7013 -0.1504  0.0406
10611TIP3   OH231777   5.062   5.365   0.783 -0.2450 -0.0473  0.2834
10611TIP3    H131778   4.982   5.394   0.739  0.9286  0.6931 -1.4696
10611TIP3    H231779   5.113   5.445   0.795  1.0443 -0.7409 -0.3806
10612TIP3   OH231780   0.128   5.678   5.738  0.4562  0.2507  0.2519
10612TIP3    H131781   0.052   5.678   5.680  0.1019  0.4127  0.7103
10612TIP3    H231782   0.153   5.586   5.746 -0.1173  0.1317  0.6563
10613TIP3   OH231783   3.795   5.102   6.008  0.2965  0.1614 -0.6090
10613TIP3    H131784   3.806   5.088   5.914  0.8680 -0.2908 -0.4859
10613TIP3    H231785   3.754   5.021   6.039  0.7784  0.0116 -0.3586
10614TIP3   OH231786   7.320   5.567   0.511 -0.0704 -0.5243  0.0188
10614TIP3    H131787   7.384   5.503   0.481 -0.3405 -0.4714 -0.6748
10614TIP3    H231788   7.307   5.625   0.436 -0.4924 -0.1882  0.3512
10615TIP3   OH231789   4.062   3.324   0.009  0.3909 -0.4414  0.0147
10615TIP3    H131790   4.110   3.258   0.059 -0.5635 -1.0070  0.2028
10615TIP3    H231791   4.029   3.385   0.075  0.8895 -0.0240 -0.1180
10616TIP3   OH231792   7.202   2.724   1.442  0.4553 -0.1716  0.0860
10616TIP3    H131793   7.200   2.628   1.445  1.9771 -0.2311 -0.2790
10616TIP3    H231794   7.201   2.745   1.348 -1.7700  0.2640  0.1445
10617TIP3   OH231795   4.570   7.008   0.462  0.0706 -0.6923 -0.0822
10617TIP3    H131796   4.541   7.091   0.425  1.3416 -0.4068 -0.4767
10617TIP3    H231797   4.600   7.030   0.550 -0.2060 -0.8658  0.0600
10618TIP3   OH231798   2.714   7.080   5.016 -0.3616 -0.2520 -0.0990
10618TIP3    H131799   2.736   7.164   5.056 -0.9258  1.1475 -2.5279
10618TIP3    H231800   2.799   7.038   5.002 -0.1034 -0.4434  1.7046
10619TIP3   OH231801   6.266   5.592   1.633  0.8876 -0.1062  0.0158
10619TIP3    H131802   6.212   5.591   1.713  0.7962  0.1590 -0.0398
10619TIP3    H231803   6.218   5.535   1.572 -0.0087  1.1163 -0.4602
10620TIP3   OH231804   5.220   2.298   6.364  0.5041  0.4691 -0.6012
10620TIP3    H131805   5.162   2.225   6.386 -1.3953  2.1388  0.3009
10620TIP3    H231806   5.297   2.286   6.419  0.4520 -1.1046 -0.8356
10621TIP3   OH231807   2.643   0.736   6.383 -1.0343 -0.0402 -0.4586
10621TIP3    H131808   2.608   0.780   6.460 -0.9325 -0.1365 -0.3570
10621TIP3    H231809   2.729   0.703   6.411 -0.7239  0.4721 -0.8011
10622TIP3   OH231810   1.755   6.220   1.589 -0.4250 -0.0998  0.1068
10622TIP3    H131811   1.796   6.267   1.661 -0.0687 -0.4617  0.1394
10622TIP3    H231812   1.754   6.128   1.617  3.0888 -0.8949 -1.8423
10623TIP3   OH231813   2.254   4.300   5.408 -0.4638 -0.6023 -0.1008
10623TIP3    H131814   2.314   4.231   5.382 -2.7146 -1.8642 -2.3435
10623TIP3    H231815   2.167   4.260   5.404 -1.7770  2.0221 -0.3465
10624TIP3   OH231816   1.984   7.401   1.585  0.6146 -0.0338  0.7953
10624TIP3    H131817   1.986   7.495   1.569 -0.7486 -0.0244  0.5520
10624TIP3    H231818   1.923   7.367   1.520  1.7908 -1.2305  0.2673
10625TIP3   OH231819   8.027   2.282   4.541 -0.5820 -0.2512  0.1936
10625TIP3    H131820   8.106   2.331   4.516 -1.3127  0.4679 -0.8354
10625TIP3    H231821   7.964   2.350   4.565 -1.4802 -0.6896 -0.8333
10626TIP3   OH231822   2.172   3.864   2.620  0.5369  0.0073 -0.0886
10626TIP3    H131823   2.266   3.869   2.607  0.7171 -0.3255  0.9538
10626TIP3    H231824   2.153   3.929   2.688  0.2714 -1.0019  0.8382
10627TIP3   OH231825   6.790   6.970   2.221  0.3197  0.0894  0.6055
10627TIP3    H131826   6.761   6.908   2.154  1.1484  1.5237 -1.1689
10627TIP3    H231827   6.881   6.945   2.238 -0.0349 -0.5780  1.5997
10628TIP3   OH231828   7.406   2.623   5.807  0.2733  0.2205 -0.1171
10628TIP3    H131829   7.466   2.652   5.738  0.8875 -1.1876 -0.2007
10628TIP3    H231830   7.438   2.666   5.886  0.5555  0.5660 -0.4166
10629TIP3   OH231831   6.214   7.606   5.813  0.4354 -0.1478  0.2918
10629TIP3    H131832   6.176   7.531   5.859  1.3692 -0.7555  0.0992
10629TIP3    H231833   6.143   7.670   5.808 -0.8679 -1.6090 -0.9256
10630TIP3   OH231834   2.074   6.371   0.652  0.3341  0.4957  0.5484
10630TIP3    H131835   2.054   6.400   0.741 -2.9130 -0.5545  0.3023
10630TIP3    H231836   2.143   6.306   0.664  2.2055  2.5813  1.8847
10631TIP3   OH231837   0.881   7.569   0.567 -0.2524 -0.9978 -0.1911
10631TIP3    H131838   0.968   7.598   0.539 -0.5324  0.4024  0.3078
10631TIP3    H231839   0.876   7.594   0.660 -1.2312 -0.9300 -0.2465
10632TIP3   OH231840   0.646   2.921   5.477 -0.5045 -0.2168 -0.5522
10632TIP3    H131841   0.632   2.902   5.384 -2.6390  1.5705 -0.6696
10632TIP3    H231842   0.740   2.935   5.484 -0.0446 -2.0653 -2.0644
10633TIP3   OH231843   3.586   4.483   5.726 -0.5037 -0.0476  0.3093
10633TIP3    H131844   3.528   4.542   5.775 -1.4190 -0.1864 -0.5941
10633TIP3    H231845   3.672   4.496   5.767 -1.5369 -1.6096  3.2998
10634TIP3   OH231846   1.551   7.267   2.459  0.4533  0.0982  0.3114
10634TIP3    H131847   1.483   7.293   2.521 -0.1739 -0.3853 -0.1688
10634TIP3    H231848   1.633   7.299   2.499 -0.1265  1.4748  0.4655
10635TIP3   OH231849   2.944   4.893   0.168 -0.1420  0.3410  0.0946
10635TIP3    H131850   2.943   4.953   0.242 -2.6015  0.6016 -0.0657
10635TIP3    H231851   3.031   4.904   0.129  0.6030  1.3995  1.9536
10636TIP3   OH231852   6.438   7.279   0.601  0.4842 -0.6896  0.2306
10636TIP3    H131853   6.489   7.343   0.651  1.1474 -0.8812 -0.1805
10636TIP3    H231854   6.358   7.267   0.651  0.2290  0.6649  0.1824
10637TIP3   OH231855   1.969   7.248   1.813  0.0288  0.4740 -0.2911
10637TIP3    H131856   2.011   7.248   1.899 -0.4912  0.5729 -0.0360
10637TIP3    H231857   1.993   7.332   1.775  1.3311 -0.0856 -0.7794
10638TIP3   OH231858   6.461   7.189   6.201  0.3885  0.1532 -0.0822
10638TIP3    H131859   6.382   7.198   6.148 -0.2956  1.2697  1.0543
10638TIP3    H231860   6.435   7.222   6.287  1.7443 -0.6629  0.6696
10639TIP3   OH231861   1.274   4.235   3.854  0.5759 -0.5836  0.3177
10639TIP3    H131862   1.194   4.213   3.902  1.5026 -3.5546  0.6692
10639TIP3    H231863   1.250   4.227   3.762  0.1068  0.0880  0.3706
10640TIP3   OH231864   5.794   2.374   3.407  0.3289 -0.0204  0.0492
10640TIP3    H131865   5.818   2.407   3.493  0.3373 -0.3094  0.1577
10640TIP3    H231866   5.723   2.431   3.377  1.6495  1.3573 -0.6050
10641TIP3   OH231867   7.858   4.766   2.549 -0.1665 -0.4371 -0.0907
10641TIP3    H131868   7.899   4.852   2.550 -0.7626 -0.1143 -1.2612
10641TIP3    H231869   7.764   4.784   2.560 -0.3326 -0.8967 -0.7217
10642TIP3   OH231870   6.426   3.867   0.087 -0.1825  0.6134  0.4358
10642TIP3    H131871   6.374   3.846   0.164  1.4341 -0.0334  1.4071
10642TIP3    H231872   6.456   3.957   0.101 -0.6645  0.8308  0.0919
10643TIP3   OH231873   7.611   0.055   2.268  0.0750 -0.3259 -0.1629
10643TIP3    H131874   7.633   0.134   2.218  1.5052 -1.0567 -0.7355
10643TIP3    H231875   7.631   0.078   2.359  1.9690 -0.4883 -0.5028
10644TIP3   OH231876   5.662   2.248   2.490  0.6779 -0.1151  0.4769
10644TIP3    H131877   5.626   2.202   2.566  1.5471  0.1584  1.0817
10644TIP3    H231878   5.744   2.202   2.472  1.6090  1.2013  1.1456
10645TIP3   OH231879   2.018   3.608   1.697 -0.3975  0.1558 -0.5904
10645TIP3    H131880   1.978   3.533   1.653  2.4787 -0.1232 -3.0548
10645TIP3    H231881   2.053   3.662   1.626  2.4725  0.9338  1.2259
10646TIP3   OH231882   3.199   6.407   1.818  0.8118  0.5454  0.4976
10646TIP3    H131883   3.134   6.473   1.839  1.5245  1.3358  0.2867
10646TIP3    H231884   3.153   6.344   1.763 -0.4846 -0.3752  2.5503
10647TIP3   OH231885   6.133   4.489   2.080  0.4565  0.2219 -0.3970
10647TIP3    H131886   6.063   4.546   2.111  1.0842  1.4290 -1.1043
10647TIP3    H231887   6.145   4.425   2.149  2.1193  3.0553  2.2042
10648TIP3   OH231888   6.323   1.106   3.072  0.8580  0.4188 -0.0450
10648TIP3    H131889   6.298   1.112   3.164 -0.6047 -2.7886 -0.1239
10648TIP3    H231890   6.290   1.187   3.033 -0.0561  1.0487  1.8978
10649TIP3   OH231891   2.076   1.169   1.320  0.0411 -0.1027  0.0287
10649TIP3    H131892   2.139   1.238   1.343  2.1452 -1.4538 -1.3012
10649TIP3    H231893   2.104   1.139   1.234 -2.2564 -1.0592 -0.4508
10650TIP3   OH231894   7.727   1.263   6.625 -0.1469  0.9426 -0.5726
10650TIP3    H131895   7.764   1.348   6.600 -1.1428  1.3535 -0.6878
10650TIP3    H231896   7.632   1.276   6.619 -0.3518  0.2852  0.8711
10651TIP3   OH231897   7.940   3.473   2.831  0.2675 -0.0899 -0.5448
10651TIP3    H131898   7.924   3.543   2.895  0.9492  1.4126 -1.9372
10651TIP3    H231899   7.968   3.398   2.883 -0.9963  0.5009  1.0445
10652TIP3   OH231900   1.810   3.610   5.431 -0.0409 -0.2405  0.2230
10652TIP3    H131901   1.737   3.669   5.414 -0.2895 -0.1861  1.4004
10652TIP3    H231902   1.876   3.634   5.366 -0.7687  0.2308 -0.3510
10653TIP3   OH231903   3.777   7.116   5.321 -0.0817  0.2999 -0.6797
10653TIP3    H131904   3.805   7.132   5.231  0.4945 -1.4301 -0.8401
10653TIP3    H231905   3.685   7.141   5.323 -0.0805  0.4146 -1.7316
10654TIP3   OH231906   7.019   7.779   0.981 -0.4015 -0.1789 -0.2028
10654TIP3    H131907   7.000   7.731   1.062  1.8893 -0.1318  0.4336
10654TIP3    H231908   7.095   7.734   0.944 -0.1579  1.0460 -1.2441
10655TIP3   OH231909   1.383   4.319   6.208 -0.2265  0.0605  0.4688
10655TIP3    H131910   1.409   4.387   6.269 -0.8599 -1.1820  2.1877
10655TIP3    H231911   1.288   4.314   6.217 -0.3113 -0.2659 -0.5084
10656TIP3   OH231912   7.322   5.948   1.534 -0.1387 -0.0638  0.4021
10656TIP3    H131913   7.270   5.987   1.605  0.6168  0.1991  0.8270
10656TIP3    H231914   7.411   5.979   1.551 -0.2116  1.5314 -1.6979
10657TIP3   OH231915   8.186   0.406   0.915 -0.7699 -0.1888 -0.6572
10657TIP3    H131916   8.268   0.415   0.867 -0.4776 -0.0821 -0.1393
10657TIP3    H231917   8.144   0.492   0.909 -0.0595  0.2600  0.4945
10658TIP3   OH231918   0.712   5.088   4.897 -0.4547 -0.1088  0.0810
10658TIP3    H131919   0.662   5.109   4.976 -0.4352  0.6748 -0.1054
10658TIP3    H231920   0.793   5.049   4.930  1.3964  3.7628  0.7653
10659TIP3   OH231921   0.383   5.855   3.015 -0.3278  0.0813 -0.7317
10659TIP3    H131922   0.407   5.902   2.935  0.7361  0.5389 -0.1647
10659TIP3    H231923   0.467   5.827   3.053 -0.8634 -1.0071 -0.2896
10660TIP3   OH231924   4.594   6.664   2.029 -0.0101 -0.0708 -0.6311
10660TIP3    H131925   4.568   6.737   2.085  1.8439  0.2576 -0.1529
10660TIP3    H231926   4.582   6.696   1.940  2.1081  1.3701 -0.4510
10661TIP3   OH231927   0.122   7.125   6.502  0.3578  0.1791 -0.5047
10661TIP3    H131928   0.066   7.122   6.424  0.5524 -0.5543 -0.6241
10661TIP3    H231929   0.063   7.111   6.575  0.3787 -0.6607 -0.6349
10662TIP3   OH231930   5.205   1.390   0.641 -0.2496 -0.5545  0.0771
10662TIP3    H131931   5.140   1.321   0.629  1.9929 -2.7640 -0.0864
10662TIP3    H231932   5.220   1.392   0.736 -0.7638  0.2012  0.1533
10663TIP3   OH231933   1.954   2.181   2.249  1.1211 -0.0880 -0.0482
10663TIP3    H131934   1.982   2.225   2.329  0.4317  0.7544 -0.2584
10663TIP3    H231935   1.861   2.200   2.242  0.7289 -1.7881 -0.0308
10664TIP3   OH231936   2.824   4.462   4.877 -0.1093 -0.1170 -0.4898
10664TIP3    H131937   2.854   4.464   4.968  0.0546  0.2892 -0.5488
10664TIP3    H231938   2.884   4.403   4.832 -0.8835 -1.2384 -0.1001
10665TIP3   OH231939   3.788   6.869   1.880 -0.1401  0.0363  0.6450
10665TIP3    H131940   3.817   6.955   1.910 -2.2063  0.6069  1.2148
10665TIP3    H231941   3.700   6.884   1.845 -0.3756 -1.7584  0.3275
10666TIP3   OH231942   5.368   3.170   0.822 -0.3962  0.0959 -0.4801
10666TIP3    H131943   5.305   3.158   0.893  1.0481 -1.4222  0.6004
10666TIP3    H231944   5.328   3.237   0.767 -2.4169  0.0075  0.7646
10667TIP3   OH231945   3.942   1.195   2.686 -0.7530 -0.2077 -0.8215
10667TIP3    H131946   3.984   1.210   2.602  0.7878 -2.4415 -0.5220
10667TIP3    H231947   3.913   1.104   2.682  1.1956 -1.0366  1.7768
10668TIP3   OH231948   6.461   4.336   1.709 -0.5926 -0.5872  0.3680
10668TIP3    H131949   6.534   4.292   1.752  0.5062  0.3171 -0.5326
10668TIP3    H231950   6.452   4.419   1.755 -0.1113 -0.0820 -0.4334
10669TIP3   OH231951   6.108   6.598   5.376  0.1398 -0.4853  0.1642
10669TIP3    H131952   6.113   6.694   5.382  0.2512 -0.4371 -0.5595
10669TIP3    H231953   6.063   6.571   5.456 -0.4997  0.2252  0.0534
10670TIP3   OH231954   4.662   7.588   3.277  0.1677 -0.1916  0.1428
10670TIP3    H131955   4.602   7.556   3.210  1.2084 -0.1667 -0.8454
10670TIP3    H231956   4.640   7.681   3.285 -0.5599 -0.3874  0.5027
10671TIP3   OH231957   4.471   3.464   4.913 -0.2168  0.0938  0.2359
10671TIP3    H131958   4.463   3.468   4.818 -1.3797  0.9114  0.3441
10671TIP3    H231959   4.518   3.383   4.930  0.8073  0.3783 -1.0758
10672TIP3   OH231960   3.893   7.476   1.435  0.2337  0.6077 -0.1326
10672TIP3    H131961   3.893   7.555   1.380 -2.4970  0.5634 -0.3555
10672TIP3    H231962   3.877   7.404   1.374  3.1217 -0.2817  0.0106
10673TIP3   OH231963   1.643   3.857   4.080 -0.0186  0.1282  0.2864
10673TIP3    H131964   1.614   3.796   4.148 -0.1706  0.8197  0.8551
10673TIP3    H231965   1.730   3.827   4.056  0.5286  0.5514  1.6307
10674TIP3   OH231966   6.858   0.246   2.859  0.2231 -0.0979 -0.2951
10674TIP3    H131967   6.799   0.321   2.850 -1.7917 -1.6488 -0.8140
10674TIP3    H231968   6.946   0.284   2.853 -0.7004  1.9496 -3.0673
10675TIP3   OH231969   5.244   4.203   0.037  0.2895 -0.4075 -0.4014
10675TIP3    H131970   5.300   4.204  -0.041  1.2875 -0.0281  0.3133
10675TIP3    H231971   5.304   4.213   0.110 -0.7856  0.9456  0.3379
10676TIP3   OH231972   6.008   3.955   3.819 -0.3692 -0.0263  0.1434
10676TIP3    H131973   6.083   4.012   3.839 -1.3693  0.9001  1.4263
10676TIP3    H231974   6.028   3.920   3.732  1.2298  0.7210  0.1569
10677TIP3   OH231975   1.317   1.130   0.070 -0.3893 -0.3060  0.1479
10677TIP3    H131976   1.299   1.128   0.164 -1.2902 -0.3697 -0.0141
10677TIP3    H231977   1.355   1.045   0.051  2.6109  0.7469  0.9596
10678TIP3   OH231978   6.237   1.758   1.642 -0.5997 -0.3642 -0.2388
10678TIP3    H131979   6.287   1.830   1.603 -1.6563  0.6514  0.2017
10678TIP3    H231980   6.255   1.682   1.586  0.0158  0.4032 -1.1112
10679TIP3   OH231981   1.097   7.721   5.580  0.2078 -0.6014 -0.3528
10679TIP3    H131982   1.046   7.654   5.535  1.1278 -1.2775 -0.4176
10679TIP3    H231983   1.127   7.678   5.661  2.2139 -0.8652 -1.1754
10680TIP3   OH231984   7.669   2.502   5.456  0.1386  0.2273  0.2960
10680TIP3    H131985   7.605   2.434   5.478  0.6466 -0.0904  0.8062
10680TIP3    H231986   7.633   2.582   5.493  0.2928 -0.0476  1.0525
10681TIP3   OH231987   7.842   7.528   5.879 -0.3106 -0.2379 -0.1917
10681TIP3    H131988   7.788   7.495   5.808 -1.4564  0.4191  0.3506
10681TIP3    H231989   7.920   7.472   5.878 -1.4750 -1.9141 -0.3003
10682TIP3   OH231990   1.814   7.572   2.718  0.3007  0.0515  0.6207
10682TIP3    H131991   1.899   7.562   2.675  0.2597 -0.7348  0.7058
10682TIP3    H231992   1.828   7.641   2.783  0.3822  1.2054 -0.5785
10683TIP3   OH231993   2.279   6.483   3.352  0.1271  0.1432 -0.0683
10683TIP3    H131994   2.336   6.456   3.280  1.4037  2.2233  0.0698
10683TIP3    H231995   2.332   6.544   3.403 -1.7879  1.1044  0.8866
10684TIP3   OH231996   6.346   2.263   6.578 -0.1200 -0.5885 -0.2331
10684TIP3    H131997   6.355   2.209   6.656  0.3847 -0.2295 -0.0384
10684TIP3    H231998   6.286   2.333   6.604 -1.5042 -1.5478 -0.7583
10685TIP3   OH231999   2.297   0.852   1.538  0.7075  0.3791  0.2965
10685TIP3    H132000   2.321   0.778   1.482  0.1073  1.2182 -1.1422
10685TIP3    H232001   2.262   0.813   1.617  0.2523 -0.8785 -0.5016
10686TIP3   OH232002   5.518   3.594   2.624 -0.0845  0.4542 -0.5828
10686TIP3    H132003   5.589   3.542   2.662 -0.3013  0.8182  0.3506
10686TIP3    H232004   5.442   3.574   2.679 -0.1558  1.7987 -0.1612
10687TIP3   OH232005   0.697   3.282   1.198  0.2406 -0.2159  0.2291
10687TIP3    H132006   0.755   3.299   1.272 -1.7526  0.3011  1.7836
10687TIP3    H232007   0.708   3.358   1.141 -0.2776  0.8229  1.4582
10688TIP3   OH232008   7.690   0.196   3.696 -0.2325 -0.1180  0.7017
10688TIP3    H132009   7.620   0.209   3.760 -0.9569  0.7339 -0.2342
10688TIP3    H232010   7.759   0.257   3.724 -1.2174  1.5059 -0.2336
10689TIP3   OH232011   1.614   0.545   0.289 -0.4139  0.0129 -0.3538
10689TIP3    H132012   1.614   0.486   0.214  0.6118  1.7658 -1.8353
10689TIP3    H232013   1.581   0.628   0.254  0.9869  1.1395  0.8699
10690TIP3   OH232014   1.272   1.869   3.454  0.1425  0.2540  0.4981
10690TIP3    H132015   1.211   1.898   3.522 -0.5881 -0.1535  0.0170
10690TIP3    H232016   1.243   1.912   3.374  0.6371  0.2507  0.3102
10691TIP3   OH232017   6.098   2.728   0.975  0.2698  0.2680 -0.4667
10691TIP3    H132018   6.074   2.787   0.903 -0.7979 -0.2655 -0.5740
10691TIP3    H232019   6.015   2.692   1.004  0.8340 -0.5878  0.1179
10692TIP3   OH232020   5.090   4.967   1.324  0.0028  0.1165  0.2861
10692TIP3    H132021   5.002   5.002   1.309 -0.6580 -1.5926 -0.0397
10692TIP3    H232022   5.138   4.989   1.244 -0.4995 -0.0194 -0.0597
10693TIP3   OH232023   5.754   1.877   2.819  0.4742 -0.3286 -0.4072
10693TIP3    H132024   5.795   1.897   2.735 -0.2241  1.4949 -0.3542
10693TIP3    H232025   5.765   1.782   2.829 -0.8095 -0.8693 -3.2901
10694TIP3   OH232026   3.032   3.509   1.299 -0.0753 -0.0053  0.0189
10694TIP3    H132027   3.048   3.553   1.383  0.2466  0.8694 -0.4855
10694TIP3    H232028   3.076   3.564   1.235  1.4763 -1.7606 -0.5115
10695TIP3   OH232029   4.364   0.997   2.089 -0.5373  0.0362  0.0028
10695TIP3    H132030   4.346   0.910   2.053 -0.3906  0.3748 -0.9071
10695TIP3    H232031   4.429   0.981   2.158 -0.6187 -0.5888 -0.0581
10696TIP3   OH232032   6.645   4.268   1.197 -0.4366 -0.0178 -0.2406
10696TIP3    H132033   6.685   4.347   1.231  0.2616 -0.7571  0.7126
10696TIP3    H232034   6.680   4.197   1.252 -3.0911 -0.7093  0.7024
10697TIP3   OH232035   0.742   0.368   2.482 -0.0667  0.0807 -0.3608
10697TIP3    H132036   0.805   0.299   2.460  0.5765  0.5826 -0.1175
10697TIP3    H232037   0.775   0.445   2.436 -0.2274  0.4686  0.1760
10698TIP3   OH232038   2.467   7.678   0.664  0.4656 -0.3717 -0.1529
10698TIP3    H132039   2.443   7.763   0.702  0.0911 -0.6211  0.1710
10698TIP3    H232040   2.541   7.698   0.606  0.6490  0.1107  0.2383
10699TIP3   OH232041   0.247   6.783   3.729 -0.5068  0.0716 -0.0743
10699TIP3    H132042   0.277   6.822   3.812 -0.6965 -1.2111  0.6265
10699TIP3    H232043   0.230   6.858   3.672 -0.9475  1.0104  1.2465
10700TIP3   OH232044   2.604   7.736   0.166  0.2325  0.2579  0.3898
10700TIP3    H132045   2.526   7.688   0.137  1.5194 -2.1875  0.7383
10700TIP3    H232046   2.568   7.807   0.220 -1.7802 -0.6029  0.3004
10701TIP3   OH232047   1.694   2.423   5.731  0.0265 -0.2160  0.7727
10701TIP3    H132048   1.617   2.366   5.724  0.7881 -1.0561 -2.3629
10701TIP3    H232049   1.744   2.387   5.804 -1.6066 -0.8022  1.6753
10702TIP3   OH232050   7.487   3.511   5.691  0.1560  0.1624  0.1486
10702TIP3    H132051   7.443   3.507   5.606  1.2850 -1.6362 -0.4076
10702TIP3    H232052   7.532   3.427   5.699  2.3059  1.3366  1.3228
10703TIP3   OH232053   4.299   6.573   1.678  0.3143  0.7099 -0.6246
10703TIP3    H132054   4.233   6.635   1.645 -1.5304 -1.3923 -1.1297
10703TIP3    H232055   4.314   6.513   1.606  0.9855 -0.2606  0.2882
10704TIP3   OH232056   3.831   1.555   5.968 -0.1947 -0.2450 -0.2355
10704TIP3    H132057   3.882   1.636   5.966 -1.6893  0.7567  0.3958
10704TIP3    H232058   3.744   1.582   5.997 -0.5400 -2.2037  0.7244
10705TIP3   OH232059   3.959   5.749   1.331  0.0034  0.6066  0.6847
10705TIP3    H132060   3.934   5.841   1.340  0.2977  0.8820 -0.9543
10705TIP3    H232061   4.021   5.748   1.258 -0.0075 -0.9005  0.6556
10706TIP3   OH232062   5.837   2.643   1.449 -0.2523 -0.3053 -1.0256
10706TIP3    H132063   5.876   2.572   1.500 -0.3122  0.3448 -0.0370
10706TIP3    H232064   5.767   2.601   1.399  0.3740 -1.1176 -1.2455
10707TIP3   OH232065   2.891   4.229   3.917  0.3715  0.2377 -0.7374
10707TIP3    H132066   2.975   4.222   3.962 -0.2564 -0.7768  0.3556
10707TIP3    H232067   2.903   4.179   3.836  0.2757 -1.6535  0.3417
10708TIP3   OH232068   3.107   0.665   4.527  0.5536 -0.8398  1.0743
10708TIP3    H132069   3.198   0.693   4.534  0.4170  0.4972 -1.2707
10708TIP3    H232070   3.056   0.742   4.551  0.0927 -0.8917  0.3008
10709TIP3   OH232071   6.965   5.652   2.254 -0.3471  0.2196  0.1484
10709TIP3    H132072   6.983   5.626   2.344  3.2330  0.6305 -0.3067
10709TIP3    H232073   7.003   5.739   2.245 -2.9713  1.3537 -1.1528
10710TIP3   OH232074   5.241   0.625   1.630 -0.4427  0.0046 -0.3691
10710TIP3    H132075   5.227   0.581   1.714  2.1324  2.1875  1.3808
10710TIP3    H232076   5.312   0.576   1.588 -2.1586 -1.4722 -1.6589
10711TIP3   OH232077   1.933   4.100   1.625  0.4295  0.2756  1.0826
10711TIP3    H132078   1.880   4.029   1.661 -0.3464 -0.4614 -1.3384
10711TIP3    H232079   1.945   4.076   1.533  0.2746  3.2086  0.2251
10712TIP3   OH232080   4.456   6.307   2.030  0.9735 -0.3322  0.0917
10712TIP3    H132081   4.513   6.381   2.051  0.9746  0.1203 -1.3891
10712TIP3    H232082   4.367   6.339   2.047  0.9445  0.1712 -0.9341
10713TIP3   OH232083   2.962   7.283   6.339 -0.0045  0.0509  1.2223
10713TIP3    H132084   2.886   7.255   6.289 -0.1912 -0.7845  1.9542
10713TIP3    H232085   3.035   7.232   6.302  0.3171  1.1660  0.2239
10714TIP3   OH232086   7.432   3.910   4.063 -0.0608  0.0014 -0.4656
10714TIP3    H132087   7.485   3.970   4.011  0.1361 -0.6240 -1.0044
10714TIP3    H232088   7.353   3.897   4.011 -1.2052  1.6794  0.7721
10715TIP3   OH232089   2.315   2.950   1.364  0.3747 -0.6689 -0.2569
10715TIP3    H132090   2.237   2.905   1.332 -0.4898  0.3597  0.3543
10715TIP3    H232091   2.285   2.998   1.441  1.4097  0.4218 -0.5088
10716TIP3   OH232092   1.403   0.184   6.182  0.0676  0.1337  0.0247
10716TIP3    H132093   1.327   0.179   6.240 -0.3899 -2.7442 -0.6808
10716TIP3    H232094   1.471   0.226   6.234 -0.9950 -0.3293  1.8506
10717TIP3   OH232095   6.211   0.747   5.842 -0.4597  0.1321 -0.8107
10717TIP3    H132096   6.304   0.726   5.850 -0.3838  0.0200 -1.8547
10717TIP3    H232097   6.183   0.766   5.931  0.1798 -1.4028 -0.2551
10718TIP3   OH232098   3.213   1.856   0.205 -0.1371 -0.4653  0.2921
10718TIP3    H132099   3.286   1.904   0.245  1.0889 -0.6545 -1.5762
10718TIP3    H232100   3.138   1.916   0.214  0.2577 -0.1615  2.0296
10719TIP3   OH232101   7.685   3.966   0.323  0.0434  0.0413  0.8827
10719TIP3    H132102   7.646   3.905   0.386 -2.1338 -0.4165 -0.7749
10719TIP3    H232103   7.672   4.053   0.363 -0.3009 -0.3112  1.5675
10720TIP3   OH232104   0.857   4.213   0.353 -0.2740 -0.5364  0.1343
10720TIP3    H132105   0.890   4.123   0.350  1.2012 -0.0123 -0.2824
10720TIP3    H232106   0.849   4.238   0.261  2.2681  0.7506  0.1950
10721TIP3   OH232107   3.013   4.276   0.197  0.0520  0.3786  0.3735
10721TIP3    H132108   3.055   4.262   0.112  0.0961  0.1770  0.4273
10721TIP3    H232109   3.083   4.266   0.261  0.0111  0.4892  0.4366
10722TIP3   OH232110   1.593   4.322   5.946  0.2143  0.0846 -0.2412
10722TIP3    H132111   1.558   4.251   6.000  0.0488 -0.3322 -0.8787
10722TIP3    H232112   1.687   4.304   5.941  0.1055 -0.3618 -0.7811
10723TIP3   OH232113   0.902   6.990   1.696  0.0072 -0.4979 -0.3469
10723TIP3    H132114   0.828   6.969   1.753 -0.3569  0.6829 -0.3701
10723TIP3    H232115   0.975   6.941   1.732 -0.6770 -1.3322 -0.0579
10724TIP3   OH232116   7.098   1.721   5.023 -0.6969 -0.3404  0.3408
10724TIP3    H132117   7.163   1.692   4.959 -0.9047  0.5819 -0.3145
10724TIP3    H232118   7.121   1.813   5.039 -0.0303 -0.8062  2.3730
10725TIP3   OH232119   4.893   0.540   5.525 -0.3114 -0.5290 -0.2866
10725TIP3    H132120   4.882   0.538   5.620 -0.6157  0.6495 -0.2907
10725TIP3    H232121   4.895   0.447   5.499  1.1726 -0.8999  1.0083
10726TIP3   OH232122   6.954   0.697   2.787  0.4752 -0.1618  0.4711
10726TIP3    H132123   6.948   0.770   2.725  2.1360 -1.2828 -1.1099
10726TIP3    H232124   6.869   0.654   2.782  1.4202 -2.0811 -3.6030
10727TIP3   OH232125   0.894   0.869   4.626  0.7506  0.3247 -0.1211
10727TIP3    H132126   0.924   0.849   4.537  0.5425  2.6774 -0.7780
10727TIP3    H232127   0.944   0.947   4.651 -0.8286  1.0589  0.8968
10728TIP3   OH232128   4.399   6.530   5.899  0.8292 -0.0122  0.0963
10728TIP3    H132129   4.311   6.509   5.931  1.4576 -2.7203  0.3287
10728TIP3    H232130   4.388   6.611   5.850 -2.0912 -0.9662 -1.0489
10729TIP3   OH232131   0.704   7.613   2.384  0.0553 -0.0293 -0.5211
10729TIP3    H132132   0.627   7.590   2.331 -0.7233 -0.9956  0.9325
10729TIP3    H232133   0.667   7.662   2.458  0.6559 -1.3753  0.7291
10730TIP3   OH232134   4.347   6.235   1.769  0.4561 -0.3398 -0.8571
10730TIP3    H132135   4.271   6.181   1.792 -0.6458  1.2668 -0.5983
10730TIP3    H232136   4.399   6.240   1.849 -0.0316 -0.0724 -0.5575
10731TIP3   OH232137   2.326   5.880   4.560 -0.3941  0.1035  0.2031
10731TIP3    H132138   2.342   5.800   4.510  0.0781  0.2827  0.0663
10731TIP3    H232139   2.350   5.951   4.501 -0.1931  0.3263  0.5484
10732TIP3   OH232140   3.238   3.157   5.284  0.2555  0.1516  0.1942
10732TIP3    H132141   3.220   3.106   5.363 -0.1951 -1.3225 -0.8019
10732TIP3    H232142   3.246   3.091   5.215  0.8941  1.3786 -0.9462
10733TIP3   OH232143   0.166   5.015   1.987 -0.1560 -0.3691  0.6953
10733TIP3    H132144   0.177   5.107   2.009  2.2805 -0.8929  1.9742
10733TIP3    H232145   0.102   4.983   2.052 -1.8071  0.5691 -0.3917
10734TIP3   OH232146   6.862   4.066   5.045  0.8881 -0.6704 -0.2855
10734TIP3    H132147   6.768   4.053   5.055  0.8189  0.3653  0.5829
10734TIP3    H232148   6.870   4.125   4.970  0.8051 -0.3251 -0.0252
10735TIP3   OH232149   2.725   6.990   3.464  0.6197 -0.1264  0.0664
10735TIP3    H132150   2.737   6.900   3.433  1.1145 -0.5186  1.3542
10735TIP3    H232151   2.674   7.032   3.394  2.6259 -0.6477 -1.8240
10736TIP3   OH232152   0.757   6.823   4.177 -0.5095  0.1653 -0.4997
10736TIP3    H132153   0.788   6.899   4.127 -2.0192  1.2225  0.0991
10736TIP3    H232154   0.743   6.755   4.110  1.2585  0.2318 -0.9927
10737TIP3   OH232155   0.532   4.296   6.054 -0.0745 -0.3168 -0.0237
10737TIP3    H132156   0.558   4.328   6.140 -0.9408 -1.2756  0.6142
10737TIP3    H232157   0.514   4.203   6.067  0.7588 -0.7140 -1.4681
10738TIP3   OH232158   6.114   0.685   2.516 -0.1483 -0.4041  0.4634
10738TIP3    H132159   6.026   0.709   2.488  0.2599 -0.0884 -0.6218
10738TIP3    H232160   6.118   0.590   2.504 -0.6853 -0.5756  1.5646
10739TIP3   OH232161   7.014   3.491   1.075 -0.1372  0.1077 -0.3181
10739TIP3    H132162   6.931   3.528   1.044 -0.0800 -0.0808 -0.7138
10739TIP3    H232163   7.069   3.568   1.091  0.4175  0.2101 -2.3657
10740TIP3   OH232164   6.970   4.086   0.378 -0.2722 -0.1142 -0.4697
10740TIP3    H132165   6.975   4.138   0.298  1.6869 -2.0697 -1.7547
10740TIP3    H232166   6.877   4.067   0.389 -0.5956  0.2310 -2.2973
10741TIP3   OH232167   1.396   3.581   3.870 -0.3010 -0.3782 -0.0327
10741TIP3    H132168   1.431   3.668   3.851 -0.6101 -0.1679  0.3388
10741TIP3    H232169   1.303   3.596   3.887 -0.0105 -0.5050  1.8887
10742TIP3   OH232170   2.148   4.906   3.113  0.2598  0.0338 -0.0767
10742TIP3    H132171   2.191   4.958   3.046 -0.1589  2.5079  1.4605
10742TIP3    H232172   2.058   4.940   3.116 -0.9362 -2.7244 -0.8903
10743TIP3   OH232173   7.179   1.136   6.695 -0.3518 -0.2042 -0.1405
10743TIP3    H132174   7.258   1.094   6.728  0.7588  0.4676 -1.8106
10743TIP3    H232175   7.156   1.087   6.616 -0.2798  0.9665 -0.9146
10744TIP3   OH232176   2.981   5.118   6.515 -0.4321 -0.4826  0.1044
10744TIP3    H132177   2.982   5.097   6.422  0.6720  0.4350 -0.1040
10744TIP3    H232178   2.888   5.125   6.537 -0.7043  1.2538 -1.3940
10745TIP3   OH232179   2.675   5.963   6.598  0.1238 -0.5959  0.5727
10745TIP3    H132180   2.730   5.983   6.522 -1.7090 -1.4445 -1.0635
10745TIP3    H232181   2.677   6.043   6.650 -0.5487  0.9709 -1.6599
10746TIP3   OH232182   3.795   5.729   3.360 -0.0240  0.7733 -0.1096
10746TIP3    H132183   3.804   5.782   3.439  0.4475  0.3085  0.1541
10746TIP3    H232184   3.735   5.658   3.385  1.8011 -0.6326  0.5253
10747TIP3   OH232185   0.437   4.320   0.431  0.1480  0.0718 -0.0984
10747TIP3    H132186   0.507   4.385   0.433  1.7143 -1.4368 -1.9586
10747TIP3    H232187   0.482   4.236   0.434 -1.5520 -0.9561 -1.3962
10748TIP3   OH232188   7.253   5.457   1.581 -0.5585  0.4289 -0.2991
10748TIP3    H132189   7.324   5.412   1.628 -0.9970 -0.3559 -0.3690
10748TIP3    H232190   7.173   5.412   1.609 -0.9606  0.8306 -0.7759
10749TIP3   OH232191   4.137   2.383   3.114 -0.3525 -0.6620 -0.0873
10749TIP3    H132192   4.152   2.324   3.188 -0.2160  1.0218  1.2817
10749TIP3    H232193   4.208   2.446   3.119 -2.1642  1.4461  0.3875
10750TIP3   OH232194   7.731   5.816   3.209  0.0696  0.0427  0.0600
10750TIP3    H132195   7.772   5.735   3.241  0.6899  0.1469 -0.4660
10750TIP3    H232196   7.756   5.882   3.273  1.3184  0.2537 -0.6148
10751TIP3   OH232197   1.657   4.525   0.909 -0.0382  0.7219  0.3827
10751TIP3    H132198   1.744   4.546   0.877  0.0452  1.2017  0.9027
10751TIP3    H232199   1.649   4.430   0.897  0.6104  0.6499  0.4711
10752TIP3   OH232200   6.505   6.510   2.826  0.0806 -0.8453 -0.1847
10752TIP3    H132201   6.502   6.595   2.781  1.4640 -1.0557 -0.7086
10752TIP3    H232202   6.416   6.498   2.860 -0.9511 -0.5255 -2.5901
10753TIP3   OH232203   8.028   5.063   5.206 -0.1200 -0.3468 -0.2557
10753TIP3    H132204   8.108   5.114   5.218 -0.0331 -0.3095 -0.9429
10753TIP3    H232205   8.010   5.026   5.292  0.3216  0.1053  0.0369
10754TIP3   OH232206   1.851   6.219   4.361 -0.5173  0.5452 -0.2470
10754TIP3    H132207   1.934   6.181   4.391 -0.7933  1.2313  1.4422
10754TIP3    H232208   1.875   6.271   4.284  0.2909 -0.7774 -0.9369
10755TIP3   OH232209   6.315   5.218   0.343 -0.0918  0.4994 -0.0835
10755TIP3    H132210   6.346   5.266   0.266  0.1218 -0.1819 -0.4287
10755TIP3    H232211   6.290   5.132   0.310 -0.7117  0.4528  0.4901
10756TIP3   OH232212   5.132   5.010   1.938  0.2939 -0.1731 -0.1964
10756TIP3    H132213   5.037   5.024   1.932  0.3657  0.1252 -0.7688
10756TIP3    H232214   5.164   5.031   1.850  0.9117 -0.1007  0.0423
10757TIP3   OH232215   6.032   0.437   6.081 -0.0869  0.3453  0.3319
10757TIP3    H132216   5.963   0.443   6.014  0.7413 -0.2055 -0.5906
10757TIP3    H232217   5.990   0.393   6.155 -0.6610 -0.2137 -0.3182
10758TIP3   OH232218   6.937   0.691   6.346 -0.0338 -0.1001  0.3041
10758TIP3    H132219   6.953   0.629   6.417  1.8009  0.5017  0.4701
10758TIP3    H232220   6.966   0.646   6.267 -0.4027 -0.1168  0.1772
10759TIP3   OH232221   2.467   6.343   0.516 -0.0828  0.5863 -0.8421
10759TIP3    H132222   2.518   6.277   0.468 -0.3395 -0.2687  0.0287
10759TIP3    H232223   2.533   6.401   0.554  0.5511 -2.0865  2.6064
10760TIP3   OH232224   2.841   5.848   2.865 -0.4014 -0.2260  0.5363
10760TIP3    H132225   2.864   5.789   2.937 -3.4996 -2.3973 -0.0672
10760TIP3    H232226   2.763   5.894   2.896 -0.8191  0.0034 -0.7999
10761TIP3   OH232227   8.290   2.532   2.462  0.1273 -0.0797  0.6689
10761TIP3    H132228   8.276   2.484   2.544 -0.6244  0.3792  0.8255
10761TIP3    H232229   8.220   2.503   2.404  0.6344 -0.3739  0.1936
10762TIP3   OH232230   6.642   5.060   2.303 -0.9030  0.2557  0.2806
10762TIP3    H132231   6.589   5.038   2.380  0.6280 -0.4033  1.2013
10762TIP3    H232232   6.712   5.115   2.338 -0.8704  0.9854 -0.8761
10763TIP3   OH232233   0.258   2.714   1.672 -0.1725 -0.1434 -0.0821
10763TIP3    H132234   0.328   2.776   1.648 -0.3239 -0.2470 -0.8108
10763TIP3    H232235   0.293   2.667   1.748  0.4625 -0.0408 -0.3054
10764TIP3   OH232236   1.799   7.136   4.004  0.0557  0.0066  0.2096
10764TIP3    H132237   1.764   7.225   4.013 -2.4532 -0.9353  0.6375
10764TIP3    H232238   1.801   7.120   3.910 -3.1166 -0.6811  0.1296
10765TIP3   OH232239   2.053   7.083   1.582  0.0949 -0.1996 -0.5632
10765TIP3    H132240   1.988   7.121   1.642 -0.7473  0.0229 -1.5972
10765TIP3    H232241   2.040   7.130   1.500  1.9413  0.2188 -0.6601
10766TIP3   OH232242   1.612   4.553   6.089 -0.4717 -0.1293  0.2234
10766TIP3    H132243   1.530   4.588   6.054  0.3808  1.0346 -0.6876
10766TIP3    H232244   1.618   4.465   6.052 -2.1989 -0.9943  1.8164
10767TIP3   OH232245   4.249   3.306   3.601 -0.0645  0.0786  0.0637
10767TIP3    H132246   4.164   3.263   3.593 -1.1998  2.3875 -1.2398
10767TIP3    H232247   4.277   3.288   3.690 -1.2854 -1.8082  0.1160
10768TIP3   OH232248   5.796   1.836   4.025 -0.3004  0.2070 -0.0897
10768TIP3    H132249   5.881   1.873   4.046  1.5519 -2.0925 -2.8592
10768TIP3    H232250   5.775   1.872   3.938  0.3053 -2.8979 -1.6520
10769TIP3   OH232251   6.840   4.531   2.224  0.3394  0.6585  0.3480
10769TIP3    H132252   6.856   4.595   2.155 -0.1237  2.1792  1.6113
10769TIP3    H232253   6.828   4.583   2.303 -0.6918 -0.9569  1.3082
10770TIP3   OH232254   6.882   6.190   5.370  0.4810 -0.3657  0.0517
10770TIP3    H132255   6.961   6.225   5.328 -0.0500 -1.1513 -1.7068
10770TIP3    H232256   6.818   6.183   5.299 -1.8528  2.0136  1.7437
10771TIP3   OH232257   4.152   0.608   1.097 -0.6782 -0.0696 -0.2434
10771TIP3    H132258   4.226   0.634   1.153 -0.1301  1.1276 -1.4561
10771TIP3    H232259   4.095   0.685   1.096 -0.7292 -0.1066 -1.2215
10772TIP3   OH232260   6.821   6.637   2.171  0.1153 -0.1496  0.2367
10772TIP3    H132261   6.881   6.571   2.208 -0.1521 -0.4428  0.1505
10772TIP3    H232262   6.811   6.611   2.080  2.6765  1.9360 -0.7516
10773TIP3   OH232263   4.322   1.452   2.670 -0.3865  0.2141  0.2044
10773TIP3    H132264   4.318   1.456   2.574  0.3650 -1.4581  0.0765
10773TIP3    H232265   4.399   1.505   2.692  0.7280 -1.1375 -0.3034
10774TIP3   OH232266   2.483   0.833   4.799 -0.2292 -0.0982  0.1237
10774TIP3    H132267   2.494   0.768   4.867  1.3664 -0.4292 -0.4072
10774TIP3    H232268   2.572   0.854   4.770 -0.7665  1.2833 -0.6867
10775TIP3   OH232269   1.221   2.137   6.419 -0.0413 -0.3547  0.0541
10775TIP3    H132270   1.307   2.105   6.393  0.0525 -0.3026  0.3001
10775TIP3    H232271   1.239   2.213   6.474 -0.2255 -0.6661  0.5573
10776TIP3   OH232272   7.001   2.977   0.504  0.2272 -0.3969 -0.8770
10776TIP3    H132273   6.938   2.936   0.445 -1.6052 -0.9112  1.2657
10776TIP3    H232274   7.078   2.921   0.500 -0.9252 -2.0597 -0.6695
10777TIP3   OH232275   1.423   3.325   6.656 -0.0558 -0.6480  0.4476
10777TIP3    H132276   1.487   3.387   6.619 -1.1916  0.1513 -0.2438
10777TIP3    H232277   1.415   3.257   6.590 -1.4372  0.3329 -0.4534
10778TIP3   OH232278   3.128   4.525   1.692 -0.1023 -0.4384 -0.3367
10778TIP3    H132279   3.175   4.577   1.758 -1.1179  0.7302 -0.4972
10778TIP3    H232280   3.062   4.477   1.743 -0.6255  0.1629 -0.4235
10779TIP3   OH232281   3.598   6.702   0.882 -0.2371  0.1862 -0.1588
10779TIP3    H132282   3.595   6.776   0.942  0.3954  0.0060  0.1062
10779TIP3    H232283   3.540   6.637   0.922 -2.2333  1.1735 -1.3063
10780TIP3   OH232284   3.944   1.503   3.963 -0.6590 -0.1425 -0.2259
10780TIP3    H132285   4.026   1.542   3.934 -1.1010  1.5125  0.5615
10780TIP3    H232286   3.969   1.442   4.032 -0.0117 -0.5912 -0.8408
10781TIP3   OH232287   3.866   4.358   0.084  0.9539  0.8197 -0.2303
10781TIP3    H132288   3.864   4.274   0.130  0.9324  2.3259  2.8022
10781TIP3    H232289   3.777   4.369   0.049  0.5311  0.1937  0.6146
10782TIP3   OH232290   3.738   7.309   6.657  0.4725  0.1650  0.5227
10782TIP3    H132291   3.762   7.235   6.601  0.1353 -0.0298  0.6323
10782TIP3    H232292   3.652   7.286   6.693  0.9532 -0.0065  1.6220
10783TIP3   OH232293   6.915   3.950   1.271 -0.4736  0.5228 -0.7678
10783TIP3    H132294   6.938   3.944   1.363 -0.1069  0.0786 -0.8831
10783TIP3    H232295   6.822   3.928   1.267  0.0989 -2.2687 -0.8006
10784TIP3   OH232296   1.338   0.842   4.696  0.8629 -0.1092  0.2649
10784TIP3    H132297   1.371   0.796   4.619 -1.0707 -0.9823 -0.1151
10784TIP3    H232298   1.268   0.786   4.728  0.3457  1.2013  1.5335
10785TIP3   OH232299   5.703   4.989   1.813 -0.2834  0.0493 -0.0010
10785TIP3    H132300   5.687   5.077   1.779  1.5562  0.4047 -0.0467
10785TIP3    H232301   5.754   5.003   1.893  2.7718 -0.9743 -1.6060
10786TIP3   OH232302   2.680   3.399   1.825 -0.2541 -0.0780  0.1284
10786TIP3    H132303   2.612   3.458   1.857  0.1531  0.0482  0.7789
10786TIP3    H232304   2.687   3.331   1.892 -2.0307 -1.9842 -1.4522
10787TIP3   OH232305   7.262   0.705   4.766  0.0119 -0.1618  0.5465
10787TIP3    H132306   7.194   0.638   4.760  0.2217 -0.2857 -1.1062
10787TIP3    H232307   7.342   0.659   4.741  0.1841  0.6546 -0.4658
10788TIP3   OH232308   7.363   1.322   4.477 -0.6259  0.4338  0.3378
10788TIP3    H132309   7.320   1.391   4.426 -0.3128  0.2675 -0.1637
10788TIP3    H232310   7.421   1.369   4.537 -1.9068  0.6926  1.4380
10789TIP3   OH232311   4.648   0.608   1.134 -0.1535  0.1029 -0.1189
10789TIP3    H132312   4.635   0.610   1.039 -1.7195  0.6371  0.0699
10789TIP3    H232313   4.741   0.626   1.147  0.2518 -0.7872 -1.5684
10790TIP3   OH232314   0.483   2.984   2.799 -0.2229  0.2460 -0.0372
10790TIP3    H132315   0.488   3.070   2.758 -1.3343 -0.7719 -2.5060
10790TIP3    H232316   0.437   2.999   2.882  2.4628  2.4564  1.2234
10791TIP3   OH232317   2.859   6.408   0.581  0.1815  0.2024  0.2157
10791TIP3    H132318   2.825   6.497   0.590  0.3054  0.3857 -0.9575
10791TIP3    H232319   2.837   6.365   0.664 -1.6715  0.7304  0.0473
10792TIP3   OH232320   0.814   2.748   0.626 -0.2019 -0.4389 -0.1814
10792TIP3    H132321   0.722   2.775   0.629 -0.0468  0.0487  2.5075
10792TIP3    H232322   0.811   2.655   0.604 -1.3111 -0.3244 -0.5735
10793TIP3   OH232323   1.517   4.250   4.858  0.1932  0.8081 -0.1324
10793TIP3    H132324   1.599   4.253   4.907 -0.4112  1.1554  0.8658
10793TIP3    H232325   1.463   4.319   4.896  0.4738  2.6300 -2.7045
10794TIP3   OH232326   6.002   7.009   0.252 -0.0246  0.7851  0.1896
10794TIP3    H132327   6.017   7.062   0.174  0.7508  0.6662  0.2430
10794TIP3    H232328   6.090   6.992   0.286 -0.0495 -2.1459 -0.9089
10795TIP3   OH232329   4.846   5.429   4.991 -0.4859 -0.5108 -0.3370
10795TIP3    H132330   4.819   5.512   5.030  0.0600 -0.8388  0.7744
10795TIP3    H232331   4.782   5.366   5.025 -0.3684 -0.6982 -0.4661
10796TIP3   OH232332   2.890   4.437   1.370  0.1149 -0.2600 -0.0305
10796TIP3    H132333   2.860   4.353   1.335 -0.2188 -0.2618  0.2570
10796TIP3    H232334   2.985   4.426   1.379  0.1408 -0.4301 -0.4630
10797TIP3   OH232335   0.474   4.537   5.515 -0.4194 -0.5603 -0.2300
10797TIP3    H132336   0.456   4.458   5.465  2.1284 -1.4188  0.0661
10797TIP3    H232337   0.556   4.518   5.561  0.4841  2.3827 -0.4224
10798TIP3   OH232338   0.340   4.996   5.843  0.2712  0.2154 -0.2505
10798TIP3    H132339   0.266   4.969   5.897  0.2646 -0.2521 -0.4951
10798TIP3    H232340   0.373   4.915   5.804  3.2254 -0.2048  2.6921
10799TIP3   OH232341   1.221   0.831   0.742 -0.0649  1.0373 -0.5799
10799TIP3    H132342   1.262   0.843   0.828  2.0143  1.6239 -1.5722
10799TIP3    H232343   1.249   0.745   0.713 -2.4324 -0.0492  0.1069
10800TIP3   OH232344   4.575   1.096   6.682 -0.0696 -0.0948 -0.5569
10800TIP3    H132345   4.559   1.062   6.770  0.1455 -1.7466 -1.1155
10800TIP3    H232346   4.657   1.143   6.689 -0.4006  0.3897  0.2670
10801TIP3   OH232347   6.551   4.924   2.998 -0.2817  0.2728  0.4340
10801TIP3    H132348   6.550   4.998   3.059  0.8737  0.5814  0.1170
10801TIP3    H232349   6.638   4.929   2.957  0.3769 -2.0742  1.4170
10802TIP3   OH232350   4.017   0.214   2.172  0.0791 -0.0348 -0.2602
10802TIP3    H132351   3.974   0.175   2.096  1.7764 -0.3672 -1.0837
10802TIP3    H232352   4.023   0.143   2.235  1.0140 -0.4798 -0.8360
10803TIP3   OH232353   4.077   7.718   4.938  0.0277  0.2250  0.0933
10803TIP3    H132354   4.135   7.767   4.996  1.7498 -1.7282  0.1324
10803TIP3    H232355   3.997   7.705   4.989  0.9297 -0.1253  1.4788
10804TIP3   OH232356   8.032   7.095   0.240  0.1309 -0.0991  0.2098
10804TIP3    H132357   7.942   7.067   0.221  0.2061  0.4877 -1.1178
10804TIP3    H232358   8.056   7.047   0.319 -1.8311  0.7385  1.4020
10805TIP3   OH232359   0.366   5.033   4.995  0.2158  0.2935 -0.1134
10805TIP3    H132360   0.423   5.076   5.060  0.4753 -0.2862  0.0432
10805TIP3    H232361   0.343   5.103   4.934  1.6428  0.3936 -0.5609
10806TIP3   OH232362   1.588   5.648   2.351  0.3806  0.0716 -0.1520
10806TIP3    H132363   1.581   5.593   2.273  2.1195 -0.7001  0.1754
10806TIP3    H232364   1.653   5.714   2.328  0.9036 -0.1556  0.6205
10807TIP3   OH232365   6.037   2.684   0.235 -0.4588 -0.1600 -0.0260
10807TIP3    H132366   6.041   2.747   0.307  1.6099  0.8068 -0.9070
10807TIP3    H232367   5.994   2.608   0.272  2.2299 -0.4567  2.8755
10808TIP3   OH232368   6.325   0.559   1.110 -0.7177  0.4946  0.2911
10808TIP3    H132369   6.392   0.507   1.155 -1.3674 -0.5201  0.1200
10808TIP3    H232370   6.343   0.649   1.136 -0.3577  0.0510  1.6380
10809TIP3   OH232371   2.901   0.966   3.278 -0.2441  0.0105 -0.4294
10809TIP3    H132372   2.868   1.032   3.218 -1.6650 -1.2245 -1.0570
10809TIP3    H232373   2.927   0.893   3.222 -1.9036 -1.2977  0.4319
10810TIP3   OH232374   5.616   2.429   0.527 -0.4455 -0.2673 -0.0261
10810TIP3    H132375   5.700   2.385   0.539 -0.7283 -1.0215 -0.6554
10810TIP3    H232376   5.627   2.515   0.566  0.4918 -0.5059  0.2488
10811TIP3   OH232377   0.544   0.041   2.676 -0.5018 -0.5069  0.3463
10811TIP3    H132378   0.578   0.093   2.750 -0.2483 -1.7304  1.1127
10811TIP3    H232379   0.620   0.031   2.619 -1.0745  1.8412 -0.9813
10812TIP3   OH232380   5.857   4.855   1.541 -0.1571  0.0012  0.3993
10812TIP3    H132381   5.838   4.896   1.625 -1.6836 -0.1459  0.1563
10812TIP3    H232382   5.812   4.771   1.544  0.8268 -0.5641 -0.0921
10813TIP3   OH232383   1.338   4.527   4.575 -0.0657 -0.1619  0.1779
10813TIP3    H132384   1.356   4.582   4.499  0.2971 -2.1020 -1.2350
10813TIP3    H232385   1.243   4.512   4.572 -0.1853  0.4564  0.6413
10814TIP3   OH232386   1.089   2.393   2.921 -0.5740 -0.9088 -0.2350
10814TIP3    H132387   1.054   2.469   2.875 -0.4178 -0.9176 -0.3715
10814TIP3    H232388   1.012   2.345   2.951 -0.6697 -0.5766  0.0484
10815TIP3   OH232389   7.673   4.957   4.387  0.1009  0.9526  0.1535
10815TIP3    H132390   7.653   4.972   4.295 -2.0687  0.0789  0.4200
10815TIP3    H232391   7.665   5.043   4.428  0.8203  1.2972 -0.4066
10816TIP3   OH232392   4.085   2.014   2.191 -0.5247  0.3161  0.6134
10816TIP3    H132393   4.028   2.085   2.163 -0.3382  0.9262  1.7016
10816TIP3    H232394   4.140   2.053   2.260 -0.8185 -1.0202  1.6538
10817TIP3   OH232395   3.302   2.391   6.007 -0.0580 -0.3855  0.1445
10817TIP3    H132396   3.307   2.297   6.023 -0.1284 -0.2503  1.0114
10817TIP3    H232397   3.216   2.416   6.040  0.2686  0.1080  0.6495
10818TIP3   OH232398   6.190   0.406   5.731 -0.1111 -0.4726 -0.1609
10818TIP3    H132399   6.225   0.346   5.797 -0.3496  0.0514  0.4503
10818TIP3    H232400   6.237   0.384   5.651  1.5602  0.1751  0.6156
10819TIP3   OH232401   1.275   2.154   6.094  0.3700 -0.5701  0.8515
10819TIP3    H132402   1.191   2.112   6.072 -0.3499 -0.4778  3.1594
10819TIP3    H232403   1.278   2.232   6.039 -0.0282 -1.6614 -0.8040
10820TIP3   OH232404   2.553   6.683   5.715  0.0751  0.0081  0.0858
10820TIP3    H132405   2.488   6.740   5.674 -1.1085  0.0944  1.9938
10820TIP3    H232406   2.502   6.609   5.749  1.2614 -0.9266 -0.0983
10821TIP3   OH232407   3.946   3.155   1.140 -0.5069  0.4274 -0.0524
10821TIP3    H132408   3.885   3.199   1.080  0.9618  2.7885  0.0681
10821TIP3    H232409   4.029   3.201   1.127  0.5411 -0.8414  1.8175
10822TIP3   OH232410   2.834   4.134   6.073  0.0934 -0.6899  0.6346
10822TIP3    H132411   2.792   4.054   6.040  0.9801 -0.8600 -0.1328
10822TIP3    H232412   2.928   4.115   6.070  0.4099  0.8134 -0.8111
10823TIP3   OH232413   6.071   2.290   4.169  0.0617 -0.1788 -0.3309
10823TIP3    H132414   6.147   2.312   4.115 -0.3625  1.5516 -0.2856
10823TIP3    H232415   6.000   2.278   4.105 -0.8331  3.4667 -0.2392
10824TIP3   OH232416   7.558   3.091   2.851 -0.3078  0.6234  0.0458
10824TIP3    H132417   7.488   3.034   2.817 -1.7728  3.1052 -1.3741
10824TIP3    H232418   7.639   3.049   2.822 -1.3239 -0.7652 -0.9136
10825TIP3   OH232419   4.270   4.630   0.277  0.3571 -0.2036 -0.5575
10825TIP3    H132420   4.200   4.651   0.215  1.2765 -1.9590 -2.3109
10825TIP3    H232421   4.224   4.602   0.356 -1.0799 -3.0844 -2.2619
10826TIP3   OH232422   5.606   6.387   6.343 -0.3784 -0.7872  0.2847
10826TIP3    H132423   5.700   6.397   6.327 -0.2981 -0.8891  0.6645
10826TIP3    H232424   5.580   6.468   6.386 -0.2571 -1.1402  1.0517
10827TIP3   OH232425   2.739   3.858   6.688 -0.2296 -0.1952  0.4832
10827TIP3    H132426   2.807   3.919   6.714 -1.2947  1.4674 -0.4102
10827TIP3    H232427   2.781   3.798   6.627  0.1409  1.7771 -1.2996
10828TIP3   OH232428   4.873   6.938   6.784 -0.2187  0.0186  0.2872
10828TIP3    H132429   4.818   6.902   6.715 -1.6648 -0.6156  1.7018
10828TIP3    H232430   4.959   6.897   6.771 -1.3125 -2.6551  0.7567
10829TIP3   OH232431   4.900   4.964   2.694  0.0177  0.3520  0.2179
10829TIP3    H132432   4.978   4.929   2.652 -0.5735  0.0205 -0.6149
10829TIP3    H232433   4.858   4.888   2.735 -0.6831  0.2650 -0.6537
10830TIP3   OH232434   1.563   7.455   0.011  0.2501 -0.1401 -0.1845
10830TIP3    H132435   1.543   7.483   0.101 -0.9462  0.4410 -0.6173
10830TIP3    H232436   1.582   7.361   0.019  0.2211 -0.0819  0.6779
10831TIP3   OH232437   6.464   6.026   4.103 -0.2058 -0.4220 -0.5219
10831TIP3    H132438   6.481   5.984   4.018  1.6397 -1.1726  0.1769
10831TIP3    H232439   6.377   5.994   4.128  0.0106 -1.6790 -1.2787
10832TIP3   OH232440   0.659   3.245   5.017 -0.5237 -0.0991 -0.3399
10832TIP3    H132441   0.692   3.155   5.010  2.1909  0.8055 -0.4707
10832TIP3    H232442   0.666   3.280   4.929  0.7710  0.9180  0.1293
10833TIP3   OH232443   2.380   7.086  -0.001  0.6778 -0.0907 -0.0123
10833TIP3    H132444   2.427   7.081   0.082  2.6041 -0.2062 -1.0571
10833TIP3    H232445   2.349   6.996  -0.017  1.6252 -0.4006 -0.1410
10834TIP3   OH232446   7.493   1.632   2.014 -0.2128  0.2733  0.1614
10834TIP3    H132447   7.524   1.709   1.966  3.1708 -0.5908  0.6548
10834TIP3    H232448   7.466   1.666   2.099 -3.5403  1.4302 -1.1766
10835TIP3   OH232449   4.269   0.210   3.126  0.0800 -0.0084 -0.0993
10835TIP3    H132450   4.307   0.170   3.048  1.0545  0.7539 -0.0383
10835TIP3    H232451   4.176   0.189   3.121  0.3098 -0.9252 -0.8753
10836TIP3   OH232452   1.890   6.078   2.567  0.5477 -0.0511 -0.0092
10836TIP3    H132453   1.926   6.036   2.489  0.0702 -1.1221  0.3243
10836TIP3    H232454   1.886   6.171   2.545  2.9538  0.0517 -0.2596
10837TIP3   OH232455   7.408   1.216   1.555 -0.4127  0.4956  0.2761
10837TIP3    H132456   7.322   1.174   1.552 -0.4917  0.7069 -0.9271
10837TIP3    H232457   7.448   1.184   1.636 -1.4615  0.0799  0.6400
10838TIP3   OH232458   2.876   7.150   1.311 -0.1234  0.6069 -0.2409
10838TIP3    H132459   2.894   7.059   1.288  0.6596  0.5252  0.6317
10838TIP3    H232460   2.891   7.154   1.406  2.5706  2.2464 -0.6230
10839TIP3   OH232461   2.629   7.535   5.190  0.1723 -0.2705 -0.1397
10839TIP3    H132462   2.609   7.577   5.274 -1.4950 -1.5841  0.1640
10839TIP3    H232463   2.677   7.602   5.141 -1.4763  1.6457  0.7066
10840TIP3   OH232464   0.018   7.604   3.132  0.6126 -0.0925 -0.0497
10840TIP3    H132465  -0.069   7.575   3.161 -0.6104  2.8101 -0.3762
10840TIP3    H232466   0.061   7.526   3.099 -1.5606 -1.7852  0.9104
10841TIP3   OH232467   3.693   7.303   1.091 -0.6070  0.0999  0.1956
10841TIP3    H132468   3.742   7.276   1.169 -1.2636 -1.8929 -0.0211
10841TIP3    H232469   3.746   7.272   1.017 -1.0494  0.0078 -0.0917
10842TIP3   OH232470   5.245   0.282   5.838  0.2421 -0.1838 -0.7143
10842TIP3    H132471   5.269   0.230   5.914  0.2001 -3.4122 -2.7175
10842TIP3    H232472   5.329   0.311   5.801  0.4167 -0.8712 -0.8694
10843TIP3   OH232473   4.300   4.256   2.607 -0.5463  0.6256  1.2533
10843TIP3    H132474   4.261   4.201   2.675 -1.7804  0.7658  0.6990
10843TIP3    H232475   4.243   4.244   2.531  0.8860  0.3649  0.1769
10844TIP3   OH232476   3.878   0.259   3.405  0.0412  0.1543 -0.0719
10844TIP3    H132477   3.860   0.253   3.499 -1.4751 -0.6481 -0.3836
10844TIP3    H232478   3.963   0.303   3.400  0.1694  0.1864  1.6694
10845TIP3   OH232479   4.099   7.822   6.669 -0.0936  0.0778  0.0652
10845TIP3    H132480   4.039   7.757   6.632  0.6529 -0.1377 -0.8154
10845TIP3    H232481   4.142   7.775   6.741 -0.0963 -0.1664 -0.0896
10846TIP3   OH232482   0.403   3.138   6.495  0.1858 -0.1644  0.0350
10846TIP3    H132483   0.375   3.222   6.530 -0.0932 -0.4773  0.5904
10846TIP3    H232484   0.495   3.131   6.519 -0.2137 -0.7524  1.5151
10847TIP3   OH232485   6.131   2.182   3.481  0.0363  0.1438 -0.6489
10847TIP3    H132486   6.082   2.239   3.541  0.9942 -1.7646  2.1681
10847TIP3    H232487   6.163   2.241   3.413  0.7848  2.9900  1.9179
10848TIP3   OH232488   2.404   0.228   6.410  0.4283  0.0668 -0.3089
10848TIP3    H132489   2.404   0.245   6.316  1.3340 -0.7315 -0.4654
10848TIP3    H232490   2.430   0.311   6.450  2.7120 -0.2929 -0.9308
10849TIP3   OH232491   0.391   5.187   4.097 -0.2075  0.2928  0.2693
10849TIP3    H132492   0.440   5.139   4.031 -1.9194 -1.5491  0.2375
10849TIP3    H232493   0.457   5.229   4.151  1.3537 -1.3493 -0.2744
10850TIP3   OH232494   2.124   5.999   6.638  0.3512 -0.1251  0.2376
10850TIP3    H132495   2.180   6.033   6.567 -1.4506  0.6900 -0.8669
10850TIP3    H232496   2.122   6.070   6.702  0.3313 -0.0267  0.1293
10851TIP3   OH232497   6.205   6.846   5.387  0.1494  0.2355  0.3045
10851TIP3    H132498   6.189   6.893   5.304 -2.1018  0.7495  0.9553
10851TIP3    H232499   6.243   6.912   5.445 -1.4034  0.8576  0.6750
10852TIP3   OH232500   3.479   4.505   0.093  0.0363  0.3092  0.0005
10852TIP3    H132501   3.513   4.437   0.035 -0.4948  0.3112 -0.3209
10852TIP3    H232502   3.468   4.581   0.037  1.4759  0.9492  0.5447
10853TIP3   OH232503   2.685   6.034   5.016 -0.3643 -0.0546  0.2658
10853TIP3    H132504   2.607   6.071   5.058 -0.3656  0.9134 -0.5662
10853TIP3    H232505   2.759   6.076   5.061 -0.3381  3.4147 -2.6139
10854TIP3   OH232506   0.209   4.680   6.670 -0.3913  0.0384  0.0027
10854TIP3    H132507   0.218   4.589   6.698 -0.0342  0.1564  0.2807
10854TIP3    H232508   0.236   4.731   6.746 -1.4423  0.3957  0.1506
10855TIP3   OH232509   3.316   7.169   0.503 -0.2727  0.3863 -0.0114
10855TIP3    H132510   3.309   7.154   0.597  0.4252  1.0428  0.1595
10855TIP3    H232511   3.310   7.082   0.464 -0.5492  0.1037  0.6382
10856TIP3   OH232512   2.728   7.736   4.484  0.1534  0.1530  0.1087
10856TIP3    H132513   2.821   7.752   4.500  0.0738  0.9071 -0.1406
10856TIP3    H232514   2.720   7.734   4.389 -0.1155  0.3079  0.1257
10857TIP3   OH232515   1.043   4.006   5.285  0.7932 -0.0583  0.2100
10857TIP3    H132516   0.978   3.938   5.305  0.5620  0.5524  1.7069
10857TIP3    H232517   1.002   4.058   5.216  0.8765 -1.2804 -0.7933
10858TIP3   OH232518   0.276   2.828   6.284 -0.5000  0.3882 -0.5117
10858TIP3    H132519   0.294   2.738   6.313 -2.4310 -0.3125 -1.3658
10858TIP3    H232520   0.313   2.833   6.196  1.7917  1.2662  0.4159
10859TIP3   OH232521   2.304   3.365   2.754  0.5141  0.5534  0.3783
10859TIP3    H132522   2.216   3.353   2.718  0.0524  2.9770  0.5075
10859TIP3    H232523   2.290   3.386   2.846  1.2857  0.4102  0.5357
10860TIP3   OH232524   1.333   4.131   4.654 -0.0130  0.2938  0.0917
10860TIP3    H132525   1.401   4.123   4.587  0.7755  0.6031  0.8372
10860TIP3    H232526   1.379   4.162   4.732 -0.6353 -1.4792  1.2310
10861TIP3   OH232527   5.737   7.246   5.677  0.1233 -0.5841 -0.0680
10861TIP3    H132528   5.701   7.278   5.759 -0.8947 -2.5503  0.3153
10861TIP3    H232529   5.824   7.213   5.701  0.3963  0.1153 -0.0801
10862TIP3   OH232530   4.938   1.192   4.049 -0.4590 -0.4401 -0.3132
10862TIP3    H132531   4.955   1.110   4.097 -1.5388 -0.7240 -0.4004
10862TIP3    H232532   4.856   1.225   4.085  0.1823  0.8470  0.0143
10863TIP3   OH232533   4.852   0.214   5.716 -0.5013  0.2392  0.0031
10863TIP3    H132534   4.856   0.174   5.803  1.9440  0.3922  0.0446
10863TIP3    H232535   4.903   0.294   5.725 -1.5376  1.0571 -1.2125
10864TIP3   OH232536  -0.018   5.146   4.505  0.0529 -0.0188  0.2015
10864TIP3    H132537   0.076   5.137   4.486 -0.5767 -0.8714 -3.3663
10864TIP3    H232538  -0.031   5.240   4.517  1.0466  0.4952 -2.0961
10865TIP3   OH232539   7.468   7.389   4.595  0.4350  0.4357 -0.0144
10865TIP3    H132540   7.460   7.462   4.534  0.3043  0.2385 -0.2391
10865TIP3    H232541   7.386   7.340   4.585 -0.0266  0.9569  1.0612
10866TIP3   OH232542   5.547   1.256   6.723 -0.2446  0.4074 -0.2275
10866TIP3    H132543   5.573   1.166   6.707  0.3879  0.6009 -0.3357
10866TIP3    H232544   5.621   1.294   6.772 -0.6180  0.7886  0.0504
10867TIP3   OH232545   2.061   3.714   3.737  0.0708  0.0741 -0.6886
10867TIP3    H132546   2.139   3.678   3.778  0.0590  1.6048  0.7902
10867TIP3    H232547   2.003   3.639   3.727  1.5994 -1.0455 -1.5747
10868TIP3   OH232548   7.927   4.620   2.308  0.1692 -0.1998  0.5142
10868TIP3    H132549   7.940   4.692   2.370 -1.0917  0.0714  0.4821
10868TIP3    H232550   7.875   4.556   2.356  0.1380 -0.4883  0.0977
10869TIP3   OH232551   8.246   7.493   6.462  0.0509  0.1477  0.3255
10869TIP3    H132552   8.208   7.519   6.378 -0.5179 -0.9185  0.2406
10869TIP3    H232553   8.314   7.559   6.479  1.2157 -0.4581 -1.6994
10870TIP3   OH232554   2.273   7.373   5.693  0.2596 -0.1805 -0.4905
10870TIP3    H132555   2.239   7.311   5.628 -0.7815 -1.0642  0.8329
10870TIP3    H232556   2.225   7.454   5.678 -0.3092 -0.5222 -0.5375
10871TIP3   OH232557   3.388   3.941   1.578 -0.6028  0.2245  0.4959
10871TIP3    H132558   3.411   3.887   1.653 -1.7124  0.0660  0.7448
10871TIP3    H232559   3.328   4.007   1.613 -1.7235 -0.2994 -0.3572
10872TIP3   OH232560   0.254   7.217   0.882 -0.5555 -0.6080  0.6715
10872TIP3    H132561   0.326   7.279   0.894 -0.3093 -0.9662  1.0489
10872TIP3    H232562   0.194   7.235   0.954  0.7674 -2.5379  2.3783
10873TIP3   OH232563   7.424   5.967   4.324 -0.1042 -0.4209 -0.0303
10873TIP3    H132564   7.469   5.884   4.340 -0.5170 -0.3401  1.8212
10873TIP3    H232565   7.458   5.997   4.240  3.0724 -0.5227  1.0644
10874TIP3   OH232566   2.965   6.799   6.078 -0.5041 -0.4223  0.1101
10874TIP3    H132567   2.992   6.762   5.994 -0.2640 -0.4679  0.2075
10874TIP3    H232568   3.039   6.853   6.106 -0.2506 -1.0400  0.6757
10875TIP3   OH232569   3.254   3.574   0.533 -0.6137 -0.2892  0.1701
10875TIP3    H132570   3.314   3.523   0.586  0.1270 -0.1858 -0.5562
10875TIP3    H232571   3.289   3.568   0.444 -0.5068  1.4506  0.0627
10876TIP3   OH232572   4.495   1.757   3.198  0.2995 -0.2476  0.4596
10876TIP3    H132573   4.525   1.791   3.114  0.5002  3.7273  1.9157
10876TIP3    H232574   4.575   1.726   3.241  0.4514 -0.7167 -0.1483
10877TIP3   OH232575   5.140   7.507   0.199  0.3101 -0.0423 -0.2346
10877TIP3    H132576   5.208   7.456   0.156 -0.1155 -0.2870 -0.6271
10877TIP3    H232577   5.137   7.589   0.150  1.3172  0.5666  0.6870
10878TIP3   OH232578   7.941   6.984   6.332  0.0205  0.2184  0.3926
10878TIP3    H132579   7.923   6.938   6.414 -0.1684  1.9943  1.4126
10878TIP3    H232580   7.872   6.955   6.273 -0.4573 -0.3300  1.1904
10879TIP3   OH232581   1.705   4.168   2.279 -0.0981  0.3959  0.1597
10879TIP3    H132582   1.682   4.082   2.244 -0.4588  0.2715  0.6836
10879TIP3    H232583   1.689   4.229   2.207  0.7421 -0.0410 -0.4162
10880TIP3   OH232584   5.792   1.629   0.480  0.1014  0.1684 -0.5328
10880TIP3    H132585   5.833   1.707   0.443  1.1522 -0.1992 -0.1902
10880TIP3    H232586   5.702   1.656   0.499  0.4269  1.2806 -0.4736
10881TIP3   OH232587   1.573   1.304   3.993 -0.6214  0.3031  0.5777
10881TIP3    H132588   1.536   1.382   3.953 -1.1541 -0.9905 -1.7148
10881TIP3    H232589   1.506   1.236   3.980  0.8371 -1.1255  0.0250
10882TIP3   OH232590   4.821   3.121   0.977 -0.2664 -0.2527  0.7044
10882TIP3    H132591   4.795   3.129   0.885 -0.2741  0.0765  0.7305
10882TIP3    H232592   4.893   3.058   0.978 -0.8673 -0.9418  0.5904
10883TIP3   OH232593   4.838   5.782   6.347 -0.5862  0.4289 -0.4062
10883TIP3    H132594   4.863   5.873   6.367  1.1881 -0.0618 -0.1698
10883TIP3    H232595   4.877   5.765   6.262 -0.0555 -0.4009 -0.0075
10884TIP3   OH232596   3.967   3.377   5.994 -0.3045  0.3483  0.3602
10884TIP3    H132597   4.043   3.334   5.956  0.5158  0.8293  1.4116
10884TIP3    H232598   3.991   3.392   6.086 -1.7491  0.3079  0.7715
10885TIP3   OH232599   4.687   7.073   0.011 -0.0743  0.2223 -0.2299
10885TIP3    H132600   4.657   7.003   0.069 -0.6734  1.5645  1.1523
10885TIP3    H232601   4.752   7.121   0.062  1.1336  0.0661 -1.5495
10886TIP3   OH232602   6.433   3.103   2.193 -0.1058 -0.2570  0.6012
10886TIP3    H132603   6.401   3.069   2.109  0.2660 -0.2014  0.4346
10886TIP3    H232604   6.406   3.194   2.194 -0.5170 -0.3776  0.7506
10887TIP3   OH232605   1.687   2.227   2.205 -0.0975  0.3599  0.4400
10887TIP3    H132606   1.652   2.221   2.115 -0.4490  1.1216  0.5213
10887TIP3    H232607   1.620   2.184   2.259 -0.0130  0.1420  0.3741
10888TIP3   OH232608   4.201   4.518   2.368 -0.6218 -0.1966 -0.1049
10888TIP3    H132609   4.264   4.579   2.330 -0.5937  0.0306  0.2950
10888TIP3    H232610   4.219   4.521   2.462 -0.0425 -1.4759 -0.1558
10889TIP3   OH232611   5.559   2.443   1.619  0.5279 -0.0930  0.0219
10889TIP3    H132612   5.633   2.389   1.591  1.1430  1.7310 -2.1837
10889TIP3    H232613   5.594   2.497   1.690  0.7911 -0.5181  0.2143
10890TIP3   OH232614   1.767   1.397   5.586  0.0041 -0.0346 -0.1652
10890TIP3    H132615   1.674   1.412   5.600  0.1756  0.7553  0.1628
10890TIP3    H232616   1.777   1.302   5.593 -0.7105 -0.0862  0.2346
10891TIP3   OH232617   1.765   5.720   5.601 -0.3468 -0.1280  0.1885
10891TIP3    H132618   1.745   5.651   5.538  0.1369 -0.7715  0.7228
10891TIP3    H232619   1.860   5.733   5.593 -0.7321  2.1742 -1.6046
10892TIP3   OH232620   3.667   0.405   5.121  0.3217  1.1658 -0.1521
10892TIP3    H132621   3.684   0.367   5.035  1.1306 -1.3618  1.0333
10892TIP3    H232622   3.589   0.359   5.153  2.8954 -1.8902  2.4728
10893TIP3   OH232623   0.536   0.547   0.247  0.2620  0.1598  0.1765
10893TIP3    H132624   0.458   0.601   0.255 -0.8465 -1.2181 -0.8096
10893TIP3    H232625   0.604   0.607   0.216 -0.1984  1.5179  1.6828
10894TIP3   OH232626   7.633   4.180   3.464  0.6727 -0.4036  0.1271
10894TIP3    H132627   7.697   4.115   3.494  0.7777 -1.5046 -2.2269
10894TIP3    H232628   7.607   4.149   3.377 -1.9578  0.8261  0.3804
10895TIP3   OH232629   1.946   0.939   4.380 -0.4569 -0.1409 -0.3407
10895TIP3    H132630   1.868   0.895   4.413 -0.8985 -0.3347 -1.5897
10895TIP3    H232631   2.016   0.875   4.390 -0.0535  0.6083  2.3421
10896TIP3   OH232632   5.047   3.439   4.040  0.1255  0.9544 -0.1000
10896TIP3    H132633   5.114   3.507   4.040  1.5890 -0.3404 -3.3343
10896TIP3    H232634   4.983   3.468   3.975  1.4341 -1.2114 -2.5215
10897TIP3   OH232635   6.703   2.022   3.640  0.4319  0.5105  0.3455
10897TIP3    H132636   6.760   2.086   3.599  1.3193  1.1115  2.4083
10897TIP3    H232637   6.719   2.031   3.734  1.5377 -3.5505  0.7674
10898TIP3   OH232638   5.825   7.418   3.238  0.0864 -0.1942 -0.1766
10898TIP3    H132639   5.738   7.451   3.261  1.2979  1.8168  1.9437
10898TIP3    H232640   5.824   7.410   3.143 -1.6130  2.2981 -0.4509
10899TIP3   OH232641   4.281   0.739   3.620 -0.1602  0.3964 -0.0243
10899TIP3    H132642   4.200   0.724   3.571 -0.7712  0.9470  0.7974
10899TIP3    H232643   4.254   0.734   3.712  0.3128  2.7034  0.2849
10900TIP3   OH232644   1.375   0.076   0.389 -0.0187  0.0177  0.3349
10900TIP3    H132645   1.311   0.005   0.390  0.3841 -0.4620 -2.1594
10900TIP3    H232646   1.403   0.084   0.481 -1.2369 -1.9409  0.9425
10901TIP3   OH232647   2.517   0.335   2.635  0.0011  0.0755  0.0918
10901TIP3    H132648   2.541   0.284   2.712  3.0659  1.4966  0.1956
10901TIP3    H232649   2.599   0.351   2.589 -1.7912 -2.6561 -4.9100
10902TIP3   OH232650   3.692   7.801   0.729 -0.7212 -0.3133 -0.1255
10902TIP3    H132651   3.624   7.734   0.729 -2.3175  1.1941  0.9993
10902TIP3    H232652   3.684   7.843   0.815 -0.2687  1.7510 -1.0253
10903TIP3   OH232653   4.157   3.700   0.597 -0.5843  0.9481 -0.5378
10903TIP3    H132654   4.218   3.761   0.555 -1.1654  1.7299 -0.2630
10903TIP3    H232655   4.198   3.615   0.586  0.7285  1.4957 -0.0783
10904TIP3   OH232656   3.326   5.428   3.277  0.4081 -0.1212  0.1348
10904TIP3    H132657   3.357   5.370   3.347 -1.0167 -0.4748  0.5069
10904TIP3    H232658   3.275   5.495   3.321 -2.0828 -1.3720 -0.6136
10905TIP3   OH232659   2.053   1.143   5.490 -0.0259 -0.4205 -0.3212
10905TIP3    H132660   2.117   1.076   5.514 -0.2646 -0.4791  0.1598
10905TIP3    H232661   1.975   1.122   5.542  0.0971  0.5686  0.2891
10906TIP3   OH232662   1.704   1.261   5.315  0.1760  0.0827 -0.2547
10906TIP3    H132663   1.617   1.254   5.275  2.2303 -0.5858 -5.5124
10906TIP3    H232664   1.709   1.187   5.375 -2.0411 -1.4530 -1.8016
10907TIP3   OH232665   3.367   5.047   4.011 -0.6196  0.0616  0.5448
10907TIP3    H132666   3.400   5.039   3.922 -0.0708  2.4908  0.4566
10907TIP3    H232667   3.381   4.961   4.050  0.6833 -0.5727 -1.1898
10908TIP3   OH232668   1.957   5.570   5.893 -0.1870  0.3616 -0.6838
10908TIP3    H132669   1.934   5.657   5.927  0.2118  1.0345 -2.0313
10908TIP3    H232670   2.015   5.589   5.819 -1.1617 -1.0022 -1.8382
10909TIP3   OH232671   6.333   6.049   4.397  0.0082 -0.4400  0.0534
10909TIP3    H132672   6.380   6.080   4.474  0.1260 -1.8338  0.5729
10909TIP3    H232673   6.386   5.976   4.364 -0.4577 -0.3734 -0.8750
10910TIP3   OH232674   4.790   5.092   2.484  0.3651 -0.2444  0.0597
10910TIP3    H132675   4.821   5.054   2.566  0.2612  0.3465  0.3854
10910TIP3    H232676   4.769   5.017   2.428  1.3218 -0.6467  0.2314
10911TIP3   OH232677   4.463   7.509   0.528 -0.5742 -0.4301  0.1128
10911TIP3    H132678   4.369   7.508   0.542 -0.4779 -0.7514  0.7637
10911TIP3    H232679   4.501   7.522   0.615 -0.0575  2.4466 -0.4420
10912TIP3   OH232680   4.209   3.427   0.428  0.3678  0.1517 -0.6086
10912TIP3    H132681   4.234   3.399   0.516  0.3315  0.4904 -0.4915
10912TIP3    H232682   4.291   3.428   0.379  0.2206 -1.3045 -0.9355
10913TIP3   OH232683   1.418   0.424   3.639  0.1846  0.2814 -0.1291
10913TIP3    H132684   1.334   0.460   3.665 -1.4735 -1.3955 -2.6094
10913TIP3    H232685   1.403   0.329   3.636  2.0801 -0.0418 -0.8999
10914TIP3   OH232686   1.507   1.514   3.003  0.3255 -0.4007  0.4403
10914TIP3    H132687   1.480   1.429   3.039  1.3106 -0.7283  0.4277
10914TIP3    H232688   1.506   1.501   2.908  2.0629 -0.9190  0.4699
10915TIP3   OH232689   6.914   4.008   3.713  0.1974 -0.3688  0.3126
10915TIP3    H132690   6.838   3.967   3.673  1.1588 -1.0893 -0.8669
10915TIP3    H232691   6.894   4.010   3.807 -1.9887  1.1091 -0.1189
10916TIP3   OH232692   7.291   2.830   1.920 -0.0875  0.0224  0.2340
10916TIP3    H132693   7.360   2.885   1.958 -0.6854  0.1951  1.1078
10916TIP3    H232694   7.332   2.744   1.911  0.2018  0.0756  0.9298
10917TIP3   OH232695   8.179   6.476   3.708 -0.2139  0.3114  0.2197
10917TIP3    H132696   8.168   6.445   3.618  0.4748 -1.7603  0.7948
10917TIP3    H232697   8.255   6.429   3.740  0.0648  1.6655  1.6363
10918TIP3   OH232698   5.376   1.762   2.816  0.1411  0.1625 -0.1245
10918TIP3    H132699   5.430   1.715   2.879 -0.9665  1.2755  1.7315
10918TIP3    H232700   5.378   1.853   2.845 -1.1966  0.5418 -1.1318
10919TIP3   OH232701   1.226   3.432   4.108  0.7991 -0.1502 -0.4494
10919TIP3    H132702   1.223   3.525   4.085  0.2880  0.1829  0.8451
10919TIP3    H232703   1.157   3.422   4.174  1.9057 -1.0988  0.6150
10920TIP3   OH232704   4.603   3.050   0.082 -0.5539  0.1969  0.3623
10920TIP3    H132705   4.587   2.978   0.143  1.2202 -1.2005 -0.6987
10920TIP3    H232706   4.686   3.088   0.111  0.3235 -0.4999 -1.1086
10921TIP3   OH232707   3.018   6.640   5.842 -0.6614 -0.7479 -0.3764
10921TIP3    H132708   2.992   6.708   5.781 -1.1741  0.6405  1.3108
10921TIP3    H232709   2.981   6.559   5.806 -1.7424  0.1692 -1.3794
10922TIP3   OH232710   2.315   4.977   0.048 -0.0513  0.1272  0.4682
10922TIP3    H132711   2.398   5.002   0.008  0.7606 -2.1029  0.6228
10922TIP3    H232712   2.260   5.055   0.040  0.8840  0.5907 -2.7613
10923TIP3   OH232713   5.385   2.671   1.579  0.3815 -0.4805 -0.1717
10923TIP3    H132714   5.448   2.737   1.608  0.6096  0.0952 -1.8733
10923TIP3    H232715   5.432   2.588   1.588  0.6941 -0.2507  0.3861
10924TIP3   OH232716   4.617   2.120   5.158 -0.3801  0.6661  0.6180
10924TIP3    H132717   4.687   2.073   5.203 -0.4869  0.7485  0.8772
10924TIP3    H232718   4.549   2.054   5.145 -0.5000  0.7305  0.9141
10925TIP3   OH232719   1.219   5.822   2.756  0.3873  0.2931  0.3350
10925TIP3    H132720   1.246   5.901   2.709  0.4265  0.6644  0.9708
10925TIP3    H232721   1.181   5.854   2.837  2.0426 -0.3777  1.4395
10926TIP3   OH232722   6.291   0.069   2.205  0.2990  0.5015 -0.0856
10926TIP3    H132723   6.241   0.021   2.272 -1.1303  2.0115  0.0035
10926TIP3    H232724   6.302   0.157   2.243  0.2933  1.0981 -1.4349
10927TIP3   OH232725   7.579   0.108   4.337  0.3264 -0.0053  0.4177
10927TIP3    H132726   7.649   0.058   4.294  1.2235 -1.0291  2.8904
10927TIP3    H232727   7.539   0.047   4.398  0.0894  1.7006  2.0782
10928TIP3   OH232728   1.357   7.054   6.089  0.2839 -0.6661  0.2767
10928TIP3    H132729   1.297   6.979   6.089  0.2024 -0.6134 -0.5014
10928TIP3    H232730   1.382   7.064   5.997 -0.1647  0.6307  0.2731
10929TIP3   OH232731   5.065   1.677   0.798 -0.0089  0.1884  0.4525
10929TIP3    H132732   5.029   1.685   0.710  0.2452 -0.1355  0.3163
10929TIP3    H232733   5.007   1.731   0.853 -0.0280  0.5860  0.0517
10930TIP3   OH232734   4.350   0.899   6.771  0.1919 -0.4601  0.6565
10930TIP3    H132735   4.292   0.974   6.780 -1.1135 -1.5223  1.6143
10930TIP3    H232736   4.407   0.921   6.698 -1.2636  0.7441 -0.1806
10931TIP3   OH232737   3.097   2.351   5.374 -0.3887  0.0112  0.0329
10931TIP3    H132738   3.033   2.340   5.444  0.3748  0.8427  0.8958
10931TIP3    H232739   3.153   2.274   5.380 -0.4343 -0.0070  0.2342
10932TIP3   OH232740   7.689   5.545   5.632 -0.1116  0.4796  0.0848
10932TIP3    H132741   7.684   5.492   5.711  1.5100  0.7125  0.3719
10932TIP3    H232742   7.682   5.635   5.663 -3.5763  0.5466 -0.4602
10933TIP3   OH232743   6.557   5.854   1.528 -0.4609 -0.0596 -0.5132
10933TIP3    H132744   6.486   5.806   1.571  0.2320 -0.6017  0.0613
10933TIP3    H232745   6.547   5.944   1.558 -1.0057 -0.1016 -0.5695
10934TIP3   OH232746   0.563   1.831   0.189  0.5220 -0.4023  0.1916
10934TIP3    H132747   0.509   1.832   0.268  2.1578  3.1498  1.4871
10934TIP3    H232748   0.639   1.777   0.212  0.2148 -0.7273  0.4440
10935TIP3   OH232749   2.886   4.157   2.366 -0.7444 -0.0017 -0.3285
10935TIP3    H132750   2.830   4.082   2.383 -1.3433  0.3043 -0.9203
10935TIP3    H232751   2.934   4.170   2.448 -0.2841 -1.3066 -0.3682
10936TIP3   OH232752   3.487   1.414   0.396  0.0723 -0.4465  0.2456
10936TIP3    H132753   3.564   1.361   0.420 -0.2069 -0.0825  2.1226
10936TIP3    H232754   3.420   1.388   0.459 -1.8353 -1.6936 -2.1192
10937TIP3   OH232755   6.216   3.220   2.931 -0.3350  0.3844  0.2763
10937TIP3    H132756   6.278   3.266   2.988  0.3150  0.0297 -0.1293
10937TIP3    H232757   6.271   3.164   2.877 -0.9710  0.4822 -0.4834
10938TIP3   OH232758   5.731   0.674   1.228 -0.0931 -0.0044  0.2665
10938TIP3    H132759   5.769   0.611   1.167  1.7006 -0.7108  1.9735
10938TIP3    H232760   5.640   0.645   1.239 -0.4596  0.1394 -1.9534
10939TIP3   OH232761   6.329   3.842   2.540  0.3460  0.1609 -0.7139
10939TIP3    H132762   6.238   3.848   2.511 -0.5373 -1.4225  1.4914
10939TIP3    H232763   6.334   3.900   2.617  1.2718  0.3691 -0.9154
10940TIP3   OH232764   4.188   4.889   1.171  0.1671 -0.2345  0.5127
10940TIP3    H132765   4.186   4.802   1.132  1.5733 -0.2406  0.3696
10940TIP3    H232766   4.138   4.881   1.252 -0.5629 -0.9041  0.0022
10941TIP3   OH232767   0.256   2.129   6.062 -0.4384 -0.1988 -0.3018
10941TIP3    H132768   0.214   2.043   6.072  2.2311 -1.7606 -1.2649
10941TIP3    H232769   0.296   2.146   6.147 -2.1184  0.8349  0.3247
10942TIP3   OH232770   3.641   7.424   6.088  0.0138 -0.1249  0.0332
10942TIP3    H132771   3.697   7.475   6.030  1.8705 -0.5504  1.3802
10942TIP3    H232772   3.667   7.333   6.072 -1.2411 -0.4541 -0.2598
10943TIP3   OH232773   0.283   2.296   2.647  0.2885  0.2166  0.2677
10943TIP3    H132774   0.292   2.243   2.726  0.8413 -0.2106 -0.0724
10943TIP3    H232775   0.366   2.343   2.640 -0.4338  1.6434  0.9131
10944TIP3   OH232776   2.609   2.452   3.413 -0.0512  0.3081  0.2737
10944TIP3    H132777   2.662   2.486   3.485 -1.2284  1.1742  0.7744
10944TIP3    H232778   2.667   2.391   3.367  1.3579  1.1849  0.8022
10945TIP3   OH232779   4.746   5.879   5.504 -0.2708  0.3492 -0.5102
10945TIP3    H132780   4.794   5.962   5.498  1.1150 -0.4269 -0.6164
10945TIP3    H232781   4.767   5.834   5.423  1.1086 -1.1804  0.6316
10946TIP3   OH232782   2.447   5.519   5.793  0.0748 -0.3712 -0.4184
10946TIP3    H132783   2.413   5.606   5.772 -0.0784 -0.5180 -0.7803
10946TIP3    H232784   2.430   5.509   5.887  1.0632  0.4213 -0.1308
10947TIP3   OH232785   6.128   5.447   3.779 -0.6157  0.1403  0.1725
10947TIP3    H132786   6.156   5.376   3.837  0.2044  0.9001  0.7313
10947TIP3    H232787   6.175   5.430   3.697  1.3327  1.2071  0.9900
10948TIP3   OH232788   2.282   5.176   0.711  0.7100 -0.1195  0.6920
10948TIP3    H132789   2.237   5.118   0.774 -1.2191  1.9213  1.3088
10948TIP3    H232790   2.234   5.259   0.717  2.2459  0.9931 -1.4852
10949TIP3   OH232791   4.431   5.000   1.171 -0.1496 -0.0043  0.4186
10949TIP3    H132792   4.345   4.960   1.155  0.4778 -1.0723 -0.4575
10949TIP3    H232793   4.494   4.935   1.140  0.9887  0.7741  1.0031
10950TIP3   OH232794   4.432   6.620   4.960  0.1148 -0.0466  0.0573
10950TIP3    H132795   4.349   6.663   4.983 -0.5849 -0.8216 -0.9688
10950TIP3    H232796   4.416   6.527   4.975  0.0612 -0.4465 -2.2274
10951TIP3   OH232797   2.517   0.262   3.553  0.0285 -0.1032 -0.6286
10951TIP3    H132798   2.451   0.202   3.588 -0.3998 -0.9082 -2.6617
10951TIP3    H232799   2.569   0.209   3.493  1.2546  0.9991 -0.5793
10952TIP3   OH232800   5.364   4.608   1.551 -0.3163  0.0107  0.1335
10952TIP3    H132801   5.391   4.537   1.609  0.7880  0.3027 -0.0023
10952TIP3    H232802   5.434   4.614   1.486 -0.3107  1.3146  0.2334
10953TIP3   OH232803   1.890   5.875   3.590  0.5134  0.4745  0.3791
10953TIP3    H132804   1.847   5.959   3.574 -0.0976  0.1390  0.2397
10953TIP3    H232805   1.954   5.894   3.659 -0.2001  0.8747  0.9400
10954TIP3   OH232806   6.180   4.464   4.190 -0.9818  0.2583 -0.7355
10954TIP3    H132807   6.252   4.435   4.246 -1.6478 -1.0456 -0.5065
10954TIP3    H232808   6.103   4.461   4.248 -1.6660 -1.0130 -1.6611
10955TIP3   OH232809   6.906   5.541   0.315 -0.4644 -0.6545  0.1328
10955TIP3    H132810   6.990   5.538   0.270  0.0317 -1.4892  1.0755
10955TIP3    H232811   6.864   5.458   0.294 -1.0090 -0.2879 -0.2443
10956TIP3   OH232812   6.677   7.609   0.513 -0.2968  0.4816 -0.3931
10956TIP3    H132813   6.758   7.562   0.533 -0.0100  1.0707 -0.1432
10956TIP3    H232814   6.629   7.609   0.596  0.5004  2.1593  0.1092
10957TIP3   OH232815   6.833   0.044   5.680  0.8687  0.7102 -0.0472
10957TIP3    H132816   6.822   0.079   5.769  3.2177 -0.4071  0.7586
10957TIP3    H232817   6.823   0.120   5.623  1.3286  1.8431  1.3302
10958TIP3   OH232818   1.277   1.761   2.284  0.4160  0.0007 -0.2775
10958TIP3    H132819   1.363   1.736   2.251  0.3169 -0.4008 -0.2307
10958TIP3    H232820   1.230   1.794   2.207  0.9275  1.0986 -0.1358
10959TIP3   OH232821   6.479   1.135   6.255 -0.2704 -0.2704 -0.0597
10959TIP3    H132822   6.448   1.134   6.346 -0.1997  0.2861 -0.0267
10959TIP3    H232823   6.401   1.116   6.203 -0.2868 -0.7064  0.1243
10960TIP3   OH232824   6.748   7.299   0.561  0.5673 -0.6050 -0.5263
10960TIP3    H132825   6.691   7.238   0.515 -0.0001  0.8591 -1.8511
10960TIP3    H232826   6.740   7.275   0.653  0.1242 -2.2953 -0.9752
10961TIP3   OH232827   4.898   7.467   2.070 -0.1451 -0.3347  0.1778
10961TIP3    H132828   4.810   7.449   2.039 -0.1901 -2.7697  1.4729
10961TIP3    H232829   4.948   7.388   2.047  0.4863 -1.0452  3.5129
10962TIP3   OH232830   3.653   0.213   4.703  0.5982 -0.2072  0.4013
10962TIP3    H132831   3.637   0.220   4.609 -0.2356 -0.7436  0.4965
10962TIP3    H232832   3.747   0.194   4.709  0.8567  0.7796 -0.2637
10963TIP3   OH232833   2.109   1.933   0.412  0.3873  0.1229 -0.0513
10963TIP3    H132834   2.137   1.867   0.475  1.9546  0.9570  0.1894
10963TIP3    H232835   2.150   1.907   0.329  2.0124  1.3366  0.2971
10964TIP3   OH232836   3.187   2.919   0.617 -0.2392  0.3894  0.0683
10964TIP3    H132837   3.203   2.894   0.708 -1.5398 -0.1521  0.1595
10964TIP3    H232838   3.118   2.985   0.622  0.7769  1.5391 -0.4310
10965TIP3   OH232839   4.146   4.352   0.385 -0.3115 -0.8732  0.5796
10965TIP3    H132840   4.168   4.267   0.347  1.4855 -0.3556  0.4044
10965TIP3    H232841   4.098   4.397   0.315 -2.0596 -2.0183  0.9756
10966TIP3   OH232842   6.591   0.774   1.036  0.2597 -0.1552  0.2968
10966TIP3    H132843   6.612   0.860   1.000  0.9821 -0.6032 -0.3791
10966TIP3    H232844   6.552   0.792   1.122  2.1917  0.7733  1.0221
10967TIP3   OH232845   1.744   5.031   4.342  0.6879  0.1077 -0.3926
10967TIP3    H132846   1.734   5.125   4.360 -0.1576 -0.3716  2.1659
10967TIP3    H232847   1.837   5.014   4.357  0.7675  0.4761 -0.4460
10968TIP3   OH232848   4.590   3.107   2.358 -0.5280 -0.0380  0.1930
10968TIP3    H132849   4.585   3.194   2.318  0.3534  0.5358  1.2834
10968TIP3    H232850   4.509   3.099   2.407 -0.2895  0.4847  0.6841
10969TIP3   OH232851   5.449   6.790   2.241 -0.4152 -0.3339  0.4073
10969TIP3    H132852   5.444   6.732   2.317  2.0572 -3.6596 -1.6678
10969TIP3    H232853   5.542   6.791   2.218 -0.9847  0.9707 -2.2835
10970TIP3   OH232854   1.522   3.127   4.276  0.2742 -0.4575 -0.4024
10970TIP3    H132855   1.547   3.115   4.184  2.4934 -0.5514  0.1584
10970TIP3    H232856   1.569   3.058   4.323  0.4595  0.5628  0.9707
10971TIP3   OH232857   7.624   0.761   2.633  0.0095  0.0886 -0.5202
10971TIP3    H132858   7.543   0.736   2.678  0.1442  1.2382  0.4031
10971TIP3    H232859   7.670   0.817   2.695  0.7484  0.7905 -1.6567
10972TIP3   OH232860   6.767   1.193   3.808 -0.3372  0.0444 -0.3929
10972TIP3    H132861   6.706   1.178   3.880  1.1953 -0.8345  0.7787
10972TIP3    H232862   6.777   1.288   3.805 -2.0016  0.2260 -0.8388
10973TIP3   OH232863   4.141   5.031   4.593  0.2283 -0.2694  0.2155
10973TIP3    H132864   4.217   5.014   4.537  0.2200  0.2527  0.0404
10973TIP3    H232865   4.066   5.002   4.541  0.3196 -0.9444  0.4572
10974TIP3   OH232866   3.606   4.107   3.289  0.1864  0.6952  0.1542
10974TIP3    H132867   3.519   4.108   3.250 -0.1805  0.3271  0.9715
10974TIP3    H232868   3.649   4.031   3.250 -0.6307 -0.4574  1.4276
10975TIP3   OH232869   7.181   2.982   2.173 -0.1370  0.0916  0.6425
10975TIP3    H132870   7.202   2.960   2.264  0.5957 -0.2284  0.4028
10975TIP3    H232871   7.130   2.907   2.142  0.2512 -0.1451  0.5689
10976TIP3   OH232872   7.045   5.341   1.684  0.1465 -0.2432 -0.1488
10976TIP3    H132873   7.047   5.320   1.777  0.3398 -1.6755 -0.4539
10976TIP3    H232874   6.952   5.344   1.662  0.1086 -0.2984  0.0063
10977TIP3   OH232875   0.498   6.692   5.135 -0.6011  0.2918 -0.8271
10977TIP3    H132876   0.500   6.712   5.042 -2.2827  1.2399 -0.6998
10977TIP3    H232877   0.462   6.603   5.140  0.1288 -0.0318 -1.0812
10978TIP3   OH232878   0.695   2.581   4.004 -0.0729 -0.0255 -0.4910
10978TIP3    H132879   0.690   2.660   3.950 -0.2017 -0.6521 -1.4131
10978TIP3    H232880   0.635   2.519   3.962  0.4152 -0.7932 -0.0822
10979TIP3   OH232881   1.427   4.019   4.078  0.0170 -0.3148 -0.2271
10979TIP3    H132882   1.502   3.959   4.077 -0.2195 -0.6274  0.2479
10979TIP3    H232883   1.452   4.089   4.018  0.8122 -0.2756  0.1269
10980TIP3   OH232884   3.929   6.232   3.829  0.1811  0.1198 -0.3004
10980TIP3    H132885   3.940   6.228   3.734 -0.4485 -1.8894 -0.3374
10980TIP3    H232886   3.973   6.313   3.855  0.9467  0.3734 -2.2234
10981TIP3   OH232887   4.113   4.382   2.900 -0.1330 -0.0927  0.3959
10981TIP3    H132888   4.147   4.293   2.902  0.5771  0.0648 -1.9098
10981TIP3    H232889   4.018   4.371   2.901 -0.1212 -1.0789 -2.2006
10982TIP3   OH232890   4.729   4.909   1.473 -0.8904  0.3720  0.0869
10982TIP3    H132891   4.639   4.877   1.475 -1.5297  2.0971  0.8260
10982TIP3    H232892   4.739   4.947   1.386 -1.7038  2.3063  0.7936
10983TIP3   OH232893   5.458   0.583   1.182  0.2861 -0.0806 -0.4327
10983TIP3    H132894   5.421   0.504   1.220 -1.3600  0.5742 -0.5936
10983TIP3    H232895   5.410   0.595   1.100  0.2311  1.2717 -0.2268
10984TIP3   OH232896   8.248   7.740   5.199 -0.0925 -0.1876 -0.2018
10984TIP3    H132897   8.251   7.738   5.104  1.5677 -2.6028 -0.1923
10984TIP3    H232898   8.296   7.819   5.224  0.3037 -0.0615 -1.3479
10985TIP3   OH232899   3.169   2.999   5.842  0.4717 -1.0638 -0.0537
10985TIP3    H132900   3.113   2.950   5.781 -0.5156 -0.7858  0.6047
10985TIP3    H232901   3.205   2.932   5.900 -0.8667 -1.0454  0.8388
10986TIP3   OH232902   0.591   5.684   6.638 -0.3944  0.4200  0.1057
10986TIP3    H132903   0.649   5.664   6.712  2.8079  2.5539 -1.5560
10986TIP3    H232904   0.540   5.760   6.667  0.6547  1.0786  0.2929
10987TIP3   OH232905   4.238   4.655   4.343  0.2624  0.3146  0.0117
10987TIP3    H132906   4.239   4.652   4.438  2.0923 -0.7294 -0.0021
10987TIP3    H232907   4.250   4.564   4.315  3.1777  0.9375 -1.1335
10988TIP3   OH232908   4.210   2.337   1.192 -0.7487 -0.2616  0.8892
10988TIP3    H132909   4.211   2.311   1.100  0.5630  1.1856  0.4444
10988TIP3    H232910   4.159   2.269   1.236  0.2861 -2.0641 -0.5695
10989TIP3   OH232911   2.392   7.586   2.745  0.2898  0.1234 -0.0526
10989TIP3    H132912   2.350   7.500   2.753 -0.0618  0.3063  0.1049
10989TIP3    H232913   2.395   7.619   2.835  1.8707 -0.3977  0.1144
10990TIP3   OH232914   2.567   1.608   3.969 -0.5138 -0.1568  0.5397
10990TIP3    H132915   2.654   1.619   3.931 -0.1457 -1.8640  0.8431
10990TIP3    H232916   2.579   1.629   4.061 -0.2501 -1.0553  0.7205
10991TIP3   OH232917   2.550   7.304   6.239 -0.9096 -0.3845 -0.1792
10991TIP3    H132918   2.565   7.240   6.308  1.3500  0.0444 -0.1936
10991TIP3    H232919   2.514   7.253   6.166 -1.1125 -1.2473  0.5143
10992TIP3   OH232920   3.742   6.663   4.258  0.1762  0.6853 -0.2678
10992TIP3    H132921   3.836   6.649   4.243  0.1041 -0.8998  0.5798
10992TIP3    H232922   3.699   6.624   4.182  0.0355 -3.2293  1.5632
10993TIP3   OH232923   7.548   0.297   0.599 -0.3406 -0.0187  0.0838
10993TIP3    H132924   7.484   0.361   0.570 -1.1564 -1.0776 -0.5306
10993TIP3    H232925   7.508   0.212   0.580  1.0893 -0.7171  0.0250
10994TIP3   OH232926   3.299   3.523   1.552 -0.4114 -0.1621  0.0837
10994TIP3    H132927   3.343   3.592   1.502 -0.7404  0.7241  0.9690
10994TIP3    H232928   3.211   3.559   1.568 -0.0511 -0.0496  1.9849
10995TIP3   OH232929   0.468   5.444   3.526 -1.4133  0.3158 -0.7634
10995TIP3    H132930   0.449   5.511   3.461  0.1018  0.0922 -1.4840
10995TIP3    H232931   0.476   5.363   3.476  0.3993  0.2425 -0.4271
10996TIP3   OH232932   6.344   4.725   6.177 -0.3716  0.9059  0.2084
10996TIP3    H132933   6.264   4.684   6.210  0.5278 -0.2462  1.0151
10996TIP3    H232934   6.375   4.780   6.249  0.3894  0.1447  0.4678
10997TIP3   OH232935   6.438   3.394   1.525  0.2438 -0.8931 -0.1585
10997TIP3    H132936   6.464   3.432   1.609 -1.8755 -3.7045  1.9575
10997TIP3    H232937   6.388   3.464   1.482 -0.0410  0.1169  1.7105
10998TIP3   OH232938   6.677   5.902   4.754  0.2771 -0.2247 -0.0049
10998TIP3    H132939   6.619   5.841   4.709  0.6047  0.3958 -1.3316
10998TIP3    H232940   6.672   5.983   4.702  0.8854  0.4311  0.9258
10999TIP3   OH232941   5.464   0.884   5.117 -0.5928  0.6334  0.2433
10999TIP3    H132942   5.505   0.903   5.201  2.4359 -1.9804 -0.4523
10999TIP3    H232943   5.441   0.791   5.122  0.6128  0.1342 -2.1143
11000TIP3   OH232944   3.091   7.665   0.139 -0.0765 -0.7410 -0.0822
11000TIP3    H132945   3.144   7.587   0.121 -1.3553 -1.6848  0.1120
11000TIP3    H232946   3.142   7.713   0.205  0.5369 -1.6138  0.1029
11001TIP3   OH232947   8.031   3.256   5.550 -0.2354 -0.2204  0.2343
11001TIP3    H132948   8.031   3.338   5.599  2.2887  0.6877 -1.0973
11001TIP3    H232949   8.105   3.206   5.585  0.0725 -0.6202 -0.9097
11002TIP3   OH232950   3.620   7.516   3.810 -0.7035  0.1677  0.0802
11002TIP3    H132951   3.631   7.446   3.874 -1.3345 -1.8940 -1.9395
11002TIP3    H232952   3.530   7.547   3.823 -1.3651 -1.3105 -0.7430
11003TIP3   OH232953   2.072   5.721   5.679 -0.3606 -0.1064  0.1893
11003TIP3    H132954   2.146   5.706   5.619  0.2463 -1.7565  1.2596
11003TIP3    H232955   2.083   5.811   5.709 -0.3182  0.5434 -1.6578
11004TIP3   OH232956   8.004   7.484   2.802  0.4775 -0.2247  0.2491
11004TIP3    H132957   8.060   7.407   2.794 -0.1247 -0.6123 -0.3224
11004TIP3    H232958   7.931   7.455   2.856  0.3834  0.0239  0.2559
11005TIP3   OH232959   2.536   6.358   0.956  0.4804  0.4120 -0.8051
11005TIP3    H132960   2.457   6.316   0.922  1.3536 -1.9592 -0.1353
11005TIP3    H232961   2.516   6.377   1.048  1.2943 -2.1359 -0.0223
11006TIP3   OH232962   7.361   6.439   4.535 -0.0742  0.2916  0.7207
11006TIP3    H132963   7.329   6.367   4.589  0.1893  1.3396  2.3540
11006TIP3    H232964   7.371   6.402   4.447 -1.4571 -1.2131  1.1658
11007TIP3   OH232965   7.170   3.036   1.036  0.0704 -0.0749 -0.2048
11007TIP3    H132966   7.120   3.058   1.114  0.2391 -0.9874  0.1717
11007TIP3    H232967   7.145   3.103   0.972 -1.3912 -0.3181  0.0708
11008TIP3   OH232968   7.910   2.635   6.487 -0.0825 -0.4285 -0.0114
11008TIP3    H132969   7.991   2.668   6.527  0.3330 -0.1134 -1.0972
11008TIP3    H232970   7.899   2.548   6.527  0.2577 -0.0870  0.8651
11009TIP3   OH232971   5.407   3.267   5.225  0.1440  0.1002  0.2265
11009TIP3    H132972   5.419   3.173   5.209 -0.9578 -0.3220  1.7041
11009TIP3    H232973   5.319   3.286   5.193 -0.1400  0.3254  1.1059
11010TIP3   OH232974   0.121   5.139   6.593  0.8846  0.4855  0.3816
11010TIP3    H132975   0.139   5.168   6.682 -0.4199  0.4006  0.6973
11010TIP3    H232976   0.074   5.056   6.604  0.6138  0.5335 -0.3770
11011TIP3   OH232977   6.508   0.711   5.901  0.1353 -0.6110 -0.1659
11011TIP3    H132978   6.563   0.682   5.974 -0.3211  0.2865  0.5521
11011TIP3    H232979   6.478   0.798   5.927 -2.0999 -1.2937 -0.2706
11012TIP3   OH232980   6.177   3.163   4.362  0.5708  0.3678  0.3550
11012TIP3    H132981   6.109   3.184   4.427 -0.6493 -0.9965 -0.4107
11012TIP3    H232982   6.163   3.226   4.292  0.5445  0.5476  0.5223
11013TIP3   OH232983   3.597   4.097   2.230 -0.1248  0.1556  0.5781
11013TIP3    H132984   3.576   4.008   2.260 -1.6142  0.0967 -0.5327
11013TIP3    H232985   3.517   4.127   2.187  0.2845  2.1297  1.1076
11014TIP3   OH232986   6.156   4.041   6.744 -0.0338 -0.0005 -0.1901
11014TIP3    H132987   6.227   4.090   6.702 -0.0426 -1.0163 -1.4605
11014TIP3    H232988   6.101   4.107   6.785  0.0039  1.0590 -1.7765
11015TIP3   OH232989   6.424   1.359   5.081  0.2735 -0.3199  0.5799
11015TIP3    H132990   6.476   1.295   5.128  0.8673  0.4141  0.9487
11015TIP3    H232991   6.348   1.376   5.138  0.4846 -0.1629  0.8150
11016TIP3   OH232992   6.149   2.504   2.251  0.6298  0.6116 -0.0114
11016TIP3    H132993   6.171   2.596   2.235  0.8933  0.7203  0.9077
11016TIP3    H232994   6.228   2.456   2.227  0.3300  0.5745 -0.9434
11017TIP3   OH232995   6.790   7.377   2.373 -0.3875  0.1852  0.2085
11017TIP3    H132996   6.737   7.367   2.453  1.2681  2.1970  1.6562
11017TIP3    H232997   6.743   7.443   2.322 -0.2615  0.6138  0.6337
11018TIP3   OH232998   4.193   7.427   1.515  0.3962 -0.0208  0.3176
11018TIP3    H132999   4.127   7.494   1.496 -0.8944 -1.1133  0.8480
11018TIP3    H233000   4.150   7.368   1.576  2.5968  0.4038  2.4078
11019TIP3   OH233001   5.733   3.396   0.200  0.3659  0.4419  0.0376
11019TIP3    H133002   5.732   3.319   0.143  0.1814  0.5489 -0.1056
11019TIP3    H233003   5.784   3.369   0.276  0.5419  0.2684 -0.1382
11020TIP3   OH233004   1.655   1.067   2.020 -0.2751  0.4713 -0.5965
11020TIP3    H133005   1.609   0.993   2.061 -0.6622  0.8148 -0.4050
11020TIP3    H233006   1.588   1.111   1.968  0.5805 -0.9876 -3.1019
11021TIP3   OH233007   4.063   6.147   0.902 -0.1256 -0.3782  0.4761
11021TIP3    H133008   4.058   6.191   0.987 -1.3292  0.2702  0.1003
11021TIP3    H233009   4.026   6.210   0.840  0.5986 -0.8967 -0.5116
11022TIP3   OH233010   2.618   4.961   0.501  0.3294  0.7736 -0.0390
11022TIP3    H133011   2.659   4.877   0.524  0.8558  1.5661  2.1914
11022TIP3    H233012   2.681   5.027   0.531 -0.7580  1.9908 -0.3422
11023TIP3   OH233013   2.023   6.993   2.165  0.8283  0.5492 -0.0469
11023TIP3    H133014   2.008   7.035   2.080  1.8111  0.8181 -0.0989
11023TIP3    H233015   2.004   7.061   2.229  1.6114  0.8438 -0.1093
11024TIP3   OH233016   6.342   2.138   0.066  0.0750  0.3554  0.3947
11024TIP3    H133017   6.274   2.127  -0.001 -0.5907  1.6429  0.8282
11024TIP3    H233018   6.374   2.049   0.082 -1.8562 -0.3756  0.5310
11025TIP3   OH233019   5.922   2.056   3.697  0.0118 -0.7297 -0.1343
11025TIP3    H133020   5.855   2.124   3.698  0.7977  0.0710  1.0801
11025TIP3    H233021   6.004   2.103   3.713  0.6509 -1.8940  0.1148
11026TIP3   OH233022   1.938   3.071   4.566  0.3968  0.1500  0.0658
11026TIP3    H133023   1.965   3.162   4.551  0.8958 -0.0086 -0.0259
11026TIP3    H233024   1.854   3.078   4.612  1.6482  0.7092  2.4708
11027TIP3   OH233025   6.809   4.296   1.483  0.4283  0.0608 -0.7437
11027TIP3    H133026   6.780   4.373   1.434  1.2944  1.9912  1.5966
11027TIP3    H233027   6.874   4.255   1.426  0.6715  1.6282 -1.6727
11028TIP3   OH233028   3.759   0.303   5.374  0.3059 -0.5138 -0.2277
11028TIP3    H133029   3.848   0.278   5.347  0.8390  1.1730 -0.1386
11028TIP3    H233030   3.717   0.331   5.293 -0.0938 -1.1133 -0.2348
11029TIP3   OH233031   5.934   5.792   0.786  0.7512  0.2265 -0.6818
11029TIP3    H133032   6.014   5.803   0.837  0.5637  1.8000 -0.6887
11029TIP3    H233033   5.869   5.847   0.830 -0.7628 -2.0356  0.1294
11030TIP3   OH233034   0.886   2.001   4.784  0.2932 -0.0599 -0.3800
11030TIP3    H133035   0.926   1.914   4.792 -1.7935 -1.1185 -0.7088
11030TIP3    H233036   0.881   2.034   4.873  2.4359  0.4174 -0.3875
11031TIP3   OH233037   0.874   1.489   5.825 -0.6824  0.2576  0.1565
11031TIP3    H133038   0.909   1.469   5.912  0.9250  0.0660 -0.5092
11031TIP3    H233039   0.949   1.482   5.766 -1.9704 -0.8287 -1.4405
11032TIP3   OH233040   7.697   7.749   5.268  0.0054 -0.1667 -0.1188
11032TIP3    H133041   7.719   7.839   5.291 -0.3603 -0.7155  2.6864
11032TIP3    H233042   7.781   7.709   5.247  0.0578  1.0410 -2.5548
11033TIP3   OH233043   2.949   4.535   2.708 -0.0557 -0.5879  0.2139
11033TIP3    H133044   2.890   4.532   2.632 -0.5178 -0.5706  0.5730
11033TIP3    H233045   3.021   4.477   2.684 -0.0996 -0.4279 -0.3266
11034TIP3   OH233046   3.028   1.343   1.400  0.1232  0.0876 -0.3566
11034TIP3    H133047   2.947   1.309   1.439 -1.1497 -0.2398 -3.0915
11034TIP3    H233048   3.019   1.438   1.405 -0.9065  0.0701 -1.4583
11035TIP3   OH233049   4.891   7.597   3.064  0.5919  0.7331 -0.1880
11035TIP3    H133050   4.843   7.589   2.982  0.8065 -0.3305 -0.2255
11035TIP3    H233051   4.909   7.691   3.073 -1.5200  1.1794 -0.1439
11036TIP3   OH233052   4.055   0.557   2.486 -0.3640 -0.0400  0.1669
11036TIP3    H133053   4.140   0.535   2.449 -0.2986 -0.1631  0.3848
11036TIP3    H233054   4.037   0.485   2.548 -0.8586 -0.2909 -0.2596
11037TIP3   OH233055   5.551   4.877   0.094 -0.1936  0.0345  0.1281
11037TIP3    H133056   5.608   4.824   0.151 -1.8225 -1.6145  0.3093
11037TIP3    H233057   5.470   4.887   0.144 -0.9659  0.2061 -1.1130
11038TIP3   OH233058   1.861   5.702   5.009 -0.2083  0.1019  0.3608
11038TIP3    H133059   1.832   5.654   4.932  0.5717  0.3330 -0.0904
11038TIP3    H233060   1.943   5.661   5.034 -0.9950 -0.6979  1.7626
11039TIP3   OH233061   4.464   3.385   3.052  0.1217  0.5410 -0.2176
11039TIP3    H133062   4.379   3.344   3.067  0.3928 -1.1342 -2.5531
11039TIP3    H233063   4.527   3.322   3.087  0.4422  0.6364 -0.6163
11040TIP3   OH233064   8.269   6.513   5.424 -1.1906 -0.0519  0.4470
11040TIP3    H133065   8.188   6.489   5.380 -0.3146 -0.7226 -0.8790
11040TIP3    H233066   8.308   6.429   5.449  0.2298  0.0795 -1.1178
11041TIP3   OH233067   7.000   2.114   2.110 -0.2068  0.7098 -0.0198
11041TIP3    H133068   7.029   2.090   2.022  0.1238  0.5695  0.1248
11041TIP3    H233069   7.052   2.191   2.132 -0.0986  0.5850  0.1591
11042TIP3   OH233070   4.249   0.140   2.863 -0.7162  0.2616  0.3722
11042TIP3    H133071   4.242   0.234   2.844 -1.3137 -0.1333 -1.6448
11042TIP3    H233072   4.341   0.120   2.845 -0.1873  0.7181  2.3528
11043TIP3   OH233073   0.351   1.661   2.486 -0.1081  0.3514 -0.6956
11043TIP3    H133074   0.272   1.614   2.513 -0.1024  0.9848  0.5073
11043TIP3    H233075   0.320   1.746   2.457 -0.0073  0.0303 -1.8071
11044TIP3   OH233076   2.842   7.001   2.672  0.1911 -0.6100  0.5341
11044TIP3    H133077   2.937   6.996   2.685  0.1267 -2.5107  0.4489
11044TIP3    H233078   2.827   7.092   2.646  2.0309 -0.3507  0.2397
11045TIP3   OH233079   4.077   6.824   4.741  0.1051 -0.2321  0.6340
11045TIP3    H133080   4.160   6.841   4.697 -0.9943  0.6511 -1.2157
11045TIP3    H233081   4.038   6.911   4.755 -0.2396 -0.5839  2.0928
11046TIP3   OH233082   6.983   3.770   6.299 -0.4332 -0.0811  0.4300
11046TIP3    H133083   6.992   3.765   6.395  1.1882  1.5877  0.4306
11046TIP3    H233084   7.066   3.735   6.266 -0.4467  0.5508 -0.3061
11047TIP3   OH233085   2.364   5.271   3.926 -0.1634  0.0247  0.0903
11047TIP3    H133086   2.341   5.336   3.992  1.3675  0.5120  0.1950
11047TIP3    H233087   2.428   5.215   3.970 -1.1115 -1.2722 -0.1576
11048TIP3   OH233088   0.347   5.735   3.524 -0.0897 -0.0878 -0.1039
11048TIP3    H133089   0.384   5.824   3.527  1.4544 -0.7075  0.1102
11048TIP3    H233090   0.342   5.709   3.616 -1.4526  0.1037 -0.0981
11049TIP3   OH233091   3.475   4.492   3.012  0.1983 -0.1216 -0.5045
11049TIP3    H133092   3.526   4.444   2.948  0.8791  1.7373 -1.4230
11049TIP3    H233093   3.385   4.464   2.997  0.2342  0.8519 -2.8460
11050TIP3   OH233094   4.883   1.988   0.077 -0.1039 -0.7082  0.2535
11050TIP3    H133095   4.960   2.026   0.034 -0.1317  0.8429  1.4436
11050TIP3    H233096   4.842   1.934   0.010  0.3815  0.8125 -1.3702
11051TIP3   OH233097   1.777   7.282   2.137 -0.3546  0.3295 -0.1557
11051TIP3    H133098   1.793   7.364   2.183 -0.4204  0.9108 -1.1314
11051TIP3    H233099   1.766   7.308   2.045  0.1672 -0.8286 -0.5684
11052TIP3   OH233100   0.173   2.567   2.750  0.1683  0.0444 -0.0313
11052TIP3    H133101   0.240   2.539   2.687 -0.5496  0.4565 -1.0168
11052TIP3    H233102   0.169   2.497   2.814  1.5442  0.0151  0.0508
11053TIP3   OH233103   7.416   2.148   5.729  0.4189  0.5977  0.3937
11053TIP3    H133104   7.438   2.081   5.793  1.0258 -0.8587 -1.2421
11053TIP3    H233105   7.341   2.194   5.767  0.1707 -0.8136  1.7122
11054TIP3   OH233106   1.576   0.915   0.964 -0.0477  0.5268 -0.3226
11054TIP3    H133107   1.513   0.907   1.036  1.5425  0.7404  1.1681
11054TIP3    H233108   1.579   1.009   0.946  0.6954  0.6647  0.4456
11055TIP3   OH233109   3.588   1.247   1.066 -0.3132  0.4336 -0.5006
11055TIP3    H133110   3.544   1.230   1.149 -0.4693  2.3319 -0.1614
11055TIP3    H233111   3.576   1.166   1.015 -3.0901  0.4201  0.0522
11056TIP3   OH233112   7.703   2.997   3.560  0.3296  0.0817 -0.1501
11056TIP3    H133113   7.687   3.038   3.475 -0.8942  0.9175  0.4599
11056TIP3    H233114   7.666   2.909   3.552 -0.9600  0.6041 -0.0773
11057TIP3   OH233115   7.237   0.931   2.587  0.4570  0.1108  0.0320
11057TIP3    H133116   7.150   0.944   2.624  0.0509 -0.3028 -0.7812
11057TIP3    H233117   7.223   0.890   2.502  1.4802 -0.8715  0.2967
11058TIP3   OH233118   1.757   4.131   2.581  0.1273 -0.1948 -0.6013
11058TIP3    H133119   1.747   4.145   2.487 -0.2121  0.3085 -0.4979
11058TIP3    H233120   1.779   4.218   2.615  1.0479 -0.5320 -0.3198
11059TIP3   OH233121   2.491   5.624   4.708  0.3591 -0.2932 -0.1322
11059TIP3    H133122   2.450   5.690   4.653  1.2858 -0.9403 -1.6646
11059TIP3    H233123   2.539   5.674   4.774 -0.3887  0.5107 -0.1896
11060TIP3   OH233124   3.720   0.565   5.530 -0.3784 -0.2108  0.0121
11060TIP3    H133125   3.743   0.626   5.460 -0.0276 -0.2237  0.1116
11060TIP3    H233126   3.726   0.478   5.489  0.2260 -0.2463  0.1516
11061TIP3   OH233127   6.981   1.356   6.116 -0.0681  0.1281  0.0048
11061TIP3    H133128   7.023   1.336   6.199 -0.9138 -1.0610  0.1619
11061TIP3    H233129   6.901   1.403   6.140 -0.1313  0.1082 -0.1645
11062TIP3   OH233130   4.131   2.342   2.291 -0.4842  0.0660 -0.3207
11062TIP3    H133131   4.212   2.389   2.312 -0.2549 -0.7826  0.7649
11062TIP3    H233132   4.110   2.370   2.202  0.4664  1.0499 -0.2568
11063TIP3   OH233133   1.258   0.595   2.238 -0.9248 -0.4067 -0.9965
11063TIP3    H133134   1.209   0.524   2.280 -1.7508  1.3563  1.2149
11063TIP3    H233135   1.212   0.675   2.264  0.7183  1.0414 -2.3132
11064TIP3   OH233136   3.206   3.229   1.724  0.0869 -0.2517  0.0238
11064TIP3    H133137   3.137   3.284   1.686 -2.4049 -1.6171  2.1988
11064TIP3    H233138   3.263   3.290   1.771 -0.6527  0.7578 -0.3447
11065TIP3   OH233139   6.879   5.861   1.133 -0.4110  0.2030 -0.2817
11065TIP3    H133140   6.923   5.853   1.048 -2.9928  0.6906 -1.7707
11065TIP3    H233141   6.893   5.777   1.175  1.3167  0.1118 -0.9558
11066TIP3   OH233142   0.825   5.872   1.920 -0.1945  0.7381 -0.0004
11066TIP3    H133143   0.861   5.960   1.920 -0.6945  0.9584  0.7840
11066TIP3    H233144   0.759   5.872   1.851 -0.8797  1.2911  0.6305
11067TIP3   OH233145   7.536   6.141   3.331  0.0066 -0.1381 -0.2661
11067TIP3    H133146   7.482   6.112   3.258  0.8250  0.0038 -0.9387
11067TIP3    H233147   7.480   6.202   3.379 -1.0840 -1.4237  0.1330
11068TIP3   OH233148   8.230   5.377   0.173  0.1670  0.0773 -0.0556
11068TIP3    H133149   8.201   5.467   0.187 -0.0380  0.0567 -0.3405
11068TIP3    H233150   8.259   5.374   0.082  2.4860  0.4741  0.6014
11069TIP3   OH233151   3.177   5.667   2.158  0.1426 -0.1596  0.1099
11069TIP3    H133152   3.261   5.626   2.177  0.0930 -0.0694  0.5334
11069TIP3    H233153   3.171   5.741   2.220 -0.3823 -0.3570  0.3057
11070TIP3   OH233154   7.378   7.680   2.976  0.1417 -0.4092  0.0431
11070TIP3    H133155   7.431   7.675   3.055 -2.4628 -1.8357  1.8712
11070TIP3    H233156   7.367   7.588   2.949 -0.5818 -0.0807 -0.8423
11071TIP3   OH233157   1.557   3.729   2.504  0.0448 -0.1073 -0.7140
11071TIP3    H133158   1.496   3.785   2.456  1.0082 -0.1192 -1.9906
11071TIP3    H233159   1.500   3.670   2.554 -1.0351 -0.4509 -2.2624
11072TIP3   OH233160   0.159   2.353   2.965 -0.5296 -0.4082 -0.6956
11072TIP3    H133161   0.145   2.394   3.050  0.6579 -0.9796 -0.2037
11072TIP3    H233162   0.080   2.301   2.950 -0.4796 -0.8025  0.3450
11073TIP3   OH233163   3.481   3.419   2.241 -0.6175 -0.1703  0.4555
11073TIP3    H133164   3.571   3.400   2.213 -1.1947 -0.1559 -1.5286
11073TIP3    H233165   3.427   3.357   2.192 -1.7878  0.5986  0.7393
11074TIP3   OH233166   6.583   3.485   5.494 -0.3319 -0.1868 -0.4956
11074TIP3    H133167   6.498   3.524   5.516 -0.3389 -0.0013 -0.8527
11074TIP3    H233168   6.593   3.501   5.401  0.4256  0.4384 -0.3118
11075TIP3   OH233169   5.423   4.580   6.390  0.0118  0.5195 -0.2272
11075TIP3    H133170   5.510   4.612   6.366  0.1499 -0.1279 -0.6115
11075TIP3    H233171   5.395   4.529   6.314 -0.8358  0.9714 -0.2324
11076TIP3   OH233172   2.473   7.765   5.368  0.2645 -0.1851 -1.0110
11076TIP3    H133173   2.427   7.741   5.449  1.4899  1.1181  0.1195
11076TIP3    H233174   2.406   7.758   5.300 -1.7355  1.8551  0.5829
11077TIP3   OH233175   0.714   0.801   2.354  0.5066 -0.3853 -0.3204
11077TIP3    H133176   0.693   0.828   2.443  0.4399 -0.1818 -0.3960
11077TIP3    H233177   0.634   0.818   2.304  1.0844  1.1845 -0.7788
11078TIP3   OH233178   5.901   2.177   4.543  0.0436  0.2204  0.6723
11078TIP3    H133179   5.931   2.097   4.500  0.3149  0.0522  1.1600
11078TIP3    H233180   5.866   2.231   4.473 -1.8340 -1.0655  0.5589
11079TIP3   OH233181   2.725   3.174   1.973 -0.0583  0.6866 -0.0233
11079TIP3    H133182   2.684   3.097   1.935 -1.0773  0.4277  1.5148
11079TIP3    H233183   2.818   3.166   1.952 -0.3516 -0.2458 -1.0255
11080TIP3   OH233184   1.813   6.368   2.772 -0.1545  0.2524 -0.5720
11080TIP3    H133185   1.735   6.314   2.774 -0.1737  0.3047  0.0777
11080TIP3    H233186   1.788   6.450   2.814  0.4799 -0.0456  0.4257
11081TIP3   OH233187   8.207   0.888   4.721  0.2792  0.4228 -1.1880
11081TIP3    H133188   8.207   0.907   4.815  0.5743 -1.3012 -0.8068
11081TIP3    H233189   8.255   0.961   4.682 -0.3597  1.4718 -0.0834
11082TIP3   OH233190   2.937   0.078   5.275  0.1317 -0.2807  0.1975
11082TIP3    H133191   3.014   0.040   5.233  0.0455 -0.6849  0.4023
11082TIP3    H233192   2.954   0.069   5.369  0.3172  0.6020  0.2586
11083TIP3   OH233193   5.546   1.572   4.339  0.4047 -0.4801 -0.1242
11083TIP3    H133194   5.633   1.609   4.328 -0.4532  1.4229 -0.8671
11083TIP3    H233195   5.557   1.504   4.406  2.8253 -1.7207 -1.6243
11084TIP3   OH233196   4.999   0.780   5.546 -0.2424 -0.4425  0.5308
11084TIP3    H133197   5.064   0.777   5.476  0.8545  1.6600  1.3873
11084TIP3    H233198   4.958   0.693   5.544 -0.8823 -0.2333 -3.2427
11085TIP3   OH233199   1.966   1.734   4.834 -0.2010  0.2596 -0.5480
11085TIP3    H133200   2.030   1.664   4.850  0.6888  0.9855 -0.8550
11085TIP3    H233201   1.881   1.689   4.835  0.3741 -0.9021 -1.1636
11086TIP3   OH233202   5.266   1.096   2.895  0.0312 -0.2887 -0.0290
11086TIP3    H133203   5.239   1.147   2.818  1.6061 -0.7832 -0.9592
11086TIP3    H233204   5.208   1.125   2.965  0.3495  2.2039 -0.7147
11087TIP3   OH233205   5.537   6.990   3.332 -0.3142  0.1732 -0.2970
11087TIP3    H133206   5.558   6.985   3.239 -1.5536 -0.6758 -0.5546
11087TIP3    H233207   5.614   6.952   3.376  0.3269  0.6953 -0.9465
11088TIP3   OH233208   0.432   6.540   3.011  0.8223 -0.0853  0.4193
11088TIP3    H133209   0.438   6.586   2.927 -1.1984  0.1066  0.3423
11088TIP3    H233210   0.411   6.450   2.988  1.2966 -0.2734  0.7010
11089TIP3   OH233211   5.732   3.600   1.205 -0.2890 -0.1070 -0.3021
11089TIP3    H133212   5.823   3.599   1.233  0.1523  0.7148 -1.6396
11089TIP3    H233213   5.701   3.688   1.227 -0.6922 -0.3022 -0.0759
11090TIP3   OH233214   6.572   6.640   0.912  0.2582  0.2987  0.0819
11090TIP3    H133215   6.661   6.607   0.924 -0.1736 -0.8257  0.3272
11090TIP3    H233216   6.522   6.600   0.983 -0.3892  1.1646  0.1256
11091TIP3   OH233217   0.406   3.551   1.819  0.0210 -0.3925  0.1383
11091TIP3    H133218   0.317   3.577   1.843 -0.5548 -1.4259 -0.8098
11091TIP3    H233219   0.396   3.502   1.737  1.6484  1.0526 -1.0168
11092TIP3   OH233220   0.653   5.078   0.878  0.0296  0.1268  0.2051
11092TIP3    H133221   0.714   5.151   0.872 -1.5629  1.5931  0.7768
11092TIP3    H233222   0.651   5.056   0.971 -0.0890 -0.1140  0.1471
11093TIP3   OH233223   6.529   1.227   3.914 -0.5345  0.0057 -0.1912
11093TIP3    H133224   6.558   1.314   3.885  0.3271  0.2687  1.3569
11093TIP3    H233225   6.437   1.224   3.890  0.1214  0.0795 -3.1090
11094TIP3   OH233226   7.016   5.321   5.537 -0.1835  0.2616  0.4582
11094TIP3    H133227   6.929   5.286   5.555  0.0845 -0.7937 -0.1511
11094TIP3    H233228   7.022   5.401   5.588 -2.0279  1.1056 -0.5548
11095TIP3   OH233229   4.258   4.326   6.309 -0.4486 -0.6451  0.1323
11095TIP3    H133230   4.287   4.288   6.391  0.6782 -0.1585 -0.0240
11095TIP3    H233231   4.241   4.418   6.331  0.6113 -0.3225 -0.3266
11096TIP3   OH233232   2.343   2.228   4.688 -0.0033  0.1008 -0.4886
11096TIP3    H133233   2.300   2.272   4.614 -1.4355  0.3792  0.4677
11096TIP3    H233234   2.273   2.178   4.730  0.3231  1.3913  1.7475
11097TIP3   OH233235   6.524   0.935   4.950  0.0412  0.5222  0.2838
11097TIP3    H133236   6.568   0.859   4.989 -1.5168 -1.2317 -1.1712
11097TIP3    H233237   6.432   0.923   4.972 -0.3583  1.5095 -0.7669
11098TIP3   OH233238   7.862   2.806   4.320  0.0073 -0.1566 -0.7260
11098TIP3    H133239   7.870   2.851   4.236 -0.6063  2.1290  0.3801
11098TIP3    H233240   7.848   2.875   4.384 -1.0940 -1.9247  1.0782
11099TIP3   OH233241   0.826   7.403   2.973 -0.2161  0.6897  0.1797
11099TIP3    H133242   0.902   7.387   2.917 -0.7599 -1.0468 -0.1228
11099TIP3    H233243   0.751   7.396   2.914 -0.8026 -1.1394  1.0771
11100TIP3   OH233244   8.270   3.753   0.216 -0.2930 -0.5265  0.7022
11100TIP3    H133245   8.203   3.699   0.258 -0.5485 -0.3383  0.5409
11100TIP3    H233246   8.222   3.804   0.151  0.2315 -1.5049 -0.5028
11101TIP3   OH233247   6.974   0.810   1.158 -0.0530  0.5313  0.8445
11101TIP3    H133248   6.951   0.877   1.094  1.6737  0.4422  0.0804
11101TIP3    H233249   6.921   0.832   1.235 -1.3782  1.2668 -0.2350
11102TIP3   OH233250   2.905   4.738   5.000 -0.6191  0.2545 -0.1561
11102TIP3    H133251   2.943   4.686   4.929  4.2415  2.4038  0.4648
11102TIP3    H233252   2.876   4.673   5.064  3.9277 -2.0236  0.0236
11103TIP3   OH233253   8.094   4.346   0.750 -0.4092 -0.4669  0.1316
11103TIP3    H133254   7.999   4.351   0.739 -0.4988  2.6547  1.4952
11103TIP3    H233255   8.129   4.372   0.665 -0.8297  0.7608  0.3176
11104TIP3   OH233256   2.885   0.104   2.465  0.5993 -0.3307  0.1695
11104TIP3    H133257   2.966   0.154   2.469  1.1200 -1.2054  1.3051
11104TIP3    H233258   2.860   0.091   2.557 -0.6991 -0.2871 -0.1565
11105TIP3   OH233259   7.440   2.072   1.560  0.8715  0.2388 -0.0449
11105TIP3    H133260   7.402   2.032   1.481  1.6636 -0.2411 -0.1923
11105TIP3    H233261   7.449   2.164   1.538  1.0107  0.1222 -0.4898
11106TIP3   OH233262   3.074   4.738   6.243 -0.3160 -0.1344  0.5440
11106TIP3    H133263   3.161   4.718   6.208 -0.4642 -1.8544  1.1060
11106TIP3    H233264   3.034   4.792   6.175  0.7293 -0.3595 -0.2825
11107TIP3   OH233265   1.927   5.736   1.579  0.0386 -0.1699  0.2594
11107TIP3    H133266   1.891   5.803   1.636  1.1462  0.3425  0.3938
11107TIP3    H233267   2.021   5.757   1.573  0.1288 -0.7746 -0.9607
11108TIP3   OH233268   1.998   3.009   6.140  0.4492  0.3772 -0.2100
11108TIP3    H133269   1.975   2.951   6.212 -0.5226  0.4981 -0.4058
11108TIP3    H233270   2.014   2.951   6.066 -2.6339  0.3600 -0.9976
11109TIP3   OH233271   4.846   7.792   6.154 -0.1510  0.2291  0.3080
11109TIP3    H133272   4.824   7.814   6.064 -2.9089 -0.4220  0.7263
11109TIP3    H233273   4.884   7.704   6.149  0.3206  0.4556 -0.2502
11110TIP3   OH233274   6.254   3.051   1.964 -0.9673  0.2764 -0.4310
11110TIP3    H133275   6.219   3.107   1.894  0.0419 -0.4462 -1.5530
11110TIP3    H233276   6.179   2.997   1.990 -1.0240 -0.4911 -2.0355
11111TIP3   OH233277   5.331   7.284   2.847  0.8661  0.0731  0.1259
11111TIP3    H133278   5.281   7.246   2.775  1.9333 -0.1265 -0.5291
11111TIP3    H233279   5.320   7.379   2.837  0.9368  0.0438 -0.2550
11112TIP3   OH233280   2.925   4.976   2.279 -0.3886 -0.1329  0.0206
11112TIP3    H133281   2.985   5.045   2.304 -0.3782  0.3173 -1.2077
11112TIP3    H233282   2.889   5.003   2.195 -2.8171 -0.0558  0.9800
11113TIP3   OH233283   2.370   3.054   1.114  0.1896 -0.1587 -0.8727
11113TIP3    H133284   2.368   3.149   1.118 -0.9611 -0.2133  0.9095
11113TIP3    H233285   2.392   3.025   1.203 -1.4780 -1.5400 -0.8401
11114TIP3   OH233286   6.136   7.759   6.295 -1.0409 -0.4264 -0.3327
11114TIP3    H133287   6.149   7.677   6.248  1.7465 -1.1475  1.4660
11114TIP3    H233288   6.074   7.736   6.365  0.5717 -1.3878  0.8504
11115TIP3   OH233289   0.655   3.363   0.523  0.8828  0.3277 -0.1622
11115TIP3    H133290   0.563   3.359   0.496  1.5074  1.7922 -2.9010
11115TIP3    H233291   0.663   3.446   0.570  0.9393  0.5653 -0.5865
11116TIP3   OH233292   5.981   0.713   5.685 -0.0938 -0.0736  0.8129
11116TIP3    H133293   6.050   0.689   5.748  0.4644  0.5288  0.4494
11116TIP3    H233294   6.006   0.800   5.655 -0.7479 -0.0608  0.2885
11117TIP3   OH233295   7.375   0.845   5.184  0.4072 -0.5568 -0.3712
11117TIP3    H133296   7.465   0.848   5.216 -0.1184  0.0633  1.1090
11117TIP3    H233297   7.378   0.889   5.099  1.4356 -0.2528 -0.1805
11118TIP3   OH233298   6.168   1.522   0.897 -0.5975  0.6078 -0.4829
11118TIP3    H133299   6.139   1.613   0.889  2.2736  1.7078  0.3560
11118TIP3    H233300   6.150   1.499   0.988  0.8618  1.2143 -0.0219
11119TIP3   OH233301   4.708   4.685   3.477  0.1010  0.0483  0.7806
11119TIP3    H133302   4.685   4.729   3.559  0.5281  1.2857  0.2607
11119TIP3    H233303   4.775   4.620   3.503  0.8712  1.0145  1.2963
11120TIP3   OH233304   4.672   1.701   0.486  0.2215  0.3901 -0.1837
11120TIP3    H133305   4.679   1.698   0.390 -1.1010  1.7242 -0.3503
11120TIP3    H233306   4.600   1.642   0.507  0.2764  0.3792 -0.0231
11121TIP3   OH233307   5.821   4.878   6.715 -0.2374 -0.1432  0.3280
11121TIP3    H133308   5.783   4.869   6.802 -1.2204 -0.6998 -0.1403
11121TIP3    H233309   5.805   4.969   6.691 -1.0831 -0.3017  0.2442
11122TIP3   OH233310   7.138   3.847   0.652  0.2589 -0.5095 -0.1023
11122TIP3    H133311   7.153   3.889   0.567  1.2644 -1.5979 -0.4822
11122TIP3    H233312   7.044   3.828   0.652  0.1470 -0.0078 -0.7338
11123TIP3   OH233313   5.273   2.220   1.214  0.5173 -0.1954  0.0228
11123TIP3    H133314   5.272   2.127   1.192 -1.0332 -0.3414  0.5839
11123TIP3    H233315   5.351   2.231   1.268  0.4548 -1.2805  0.3576
11124TIP3   OH233316   4.154   6.698   4.970  0.2372  0.2825 -0.5467
11124TIP3    H133317   4.114   6.725   4.888 -0.3143 -0.7238 -0.6236
11124TIP3    H233318   4.085   6.708   5.035  0.0979 -0.6908 -0.5383
11125TIP3   OH233319   6.244   2.732   3.550  0.2525 -0.0790  0.6350
11125TIP3    H133320   6.326   2.777   3.569  0.4882 -0.1361 -0.2320
11125TIP3    H233321   6.267   2.667   3.483 -0.3956 -0.4433  0.7554
11126TIP3   OH233322   5.210   7.041   0.079  0.0070 -0.5620 -0.1203
11126TIP3    H133323   5.189   6.949   0.059 -0.0436 -0.4703 -0.5105
11126TIP3    H233324   5.150   7.091   0.024 -0.0926 -0.2945  0.2362
11127TIP3   OH233325   6.051   6.328   1.481 -0.7387 -0.0594  1.0648
11127TIP3    H133326   6.057   6.417   1.448  0.0023 -0.7732 -0.8233
11127TIP3    H233327   5.990   6.284   1.422  0.3568 -1.2968  0.8172
11128TIP3   OH233328   2.165   5.925   0.150  0.5063  0.2798  0.0619
11128TIP3    H133329   2.217   6.003   0.130  4.3746 -1.9573  0.3949
11128TIP3    H233330   2.171   5.916   0.245  2.0099 -1.5132 -0.1545
11129TIP3   OH233331   1.938   5.776   6.600  0.3317  0.3615 -0.6024
11129TIP3    H133332   1.985   5.848   6.643  2.3006 -0.5758 -1.0636
11129TIP3    H233333   2.005   5.709   6.587 -1.4718 -1.6316 -0.0596
11130TIP3   OH233334   5.337   0.726   2.148 -0.1767 -0.1262  0.4018
11130TIP3    H133335   5.294   0.646   2.178 -2.0581  0.1168 -1.3775
11130TIP3    H233336   5.273   0.795   2.168 -0.5116  0.3116 -1.9326
11131TIP3   OH233337   5.565   4.483   5.573 -0.8452  0.1392 -0.2267
11131TIP3    H133338   5.545   4.419   5.505  0.6026 -1.8320  1.1025
11131TIP3    H233339   5.480   4.505   5.612 -1.4917 -0.0099 -1.5084
11132TIP3   OH233340   2.146   6.018   4.965 -0.2410 -0.0668 -1.0446
11132TIP3    H133341   2.085   6.010   4.892 -0.4005  2.6653 -1.3457
11132TIP3    H233342   2.232   6.026   4.923 -0.2081  0.4272 -0.8903
11133TIP3   OH233343   0.277   1.571   2.916  0.4825 -0.2534 -0.2943
11133TIP3    H133344   0.288   1.476   2.907 -0.6332 -0.7168  2.3033
11133TIP3    H233345   0.184   1.586   2.899  0.5255  0.2551 -0.0836
11134TIP3   OH233346   1.397   2.518   1.363 -0.2970 -0.3703 -0.1846
11134TIP3    H133347   1.406   2.445   1.423  0.6872 -0.1326 -0.0297
11134TIP3    H233348   1.483   2.559   1.361 -1.0735  1.3945  0.4964
11135TIP3   OH233349   3.362   5.996   5.378 -0.0772 -0.0901  0.1850
11135TIP3    H133350   3.446   5.988   5.425 -1.4254 -0.5393  2.6787
11135TIP3    H233351   3.363   5.924   5.315  0.2922 -1.9036  2.1403
11136TIP3   OH233352   1.791   5.070   1.687  0.0866  0.3573  0.1110
11136TIP3    H133353   1.852   5.104   1.622 -0.7282 -0.1962 -0.9813
11136TIP3    H233354   1.785   4.976   1.667  0.1985  0.0794  1.3150
11137TIP3   OH233355   1.633   5.175   2.361 -0.4948  0.5156  0.3188
11137TIP3    H133356   1.539   5.187   2.379 -0.7184 -0.2674 -0.2716
11137TIP3    H233357   1.642   5.193   2.268 -0.2947 -0.6618  0.0909
11138TIP3   OH233358   0.955   4.609   2.489 -0.0131  0.0168  0.5150
11138TIP3    H133359   0.987   4.555   2.417 -0.7459 -0.7299  0.7353
11138TIP3    H233360   1.031   4.619   2.547  0.1053 -0.8686  0.5247
11139TIP3   OH233361   1.305   3.330   0.284  0.1661 -0.4732 -0.3100
11139TIP3    H133362   1.232   3.366   0.233  0.2734 -0.2244 -0.2871
11139TIP3    H233363   1.263   3.267   0.343 -0.3455  1.3266  1.3164
11140TIP3   OH233364   1.730   0.329   1.381 -0.3067 -0.6099 -0.2891
11140TIP3    H133365   1.753   0.307   1.290 -1.3206 -1.4588 -0.3586
11140TIP3    H233366   1.768   0.416   1.395 -0.4804 -0.2961 -1.6556
11141TIP3   OH233367   0.869   4.837   1.904  0.2867  0.3962  0.3051
11141TIP3    H133368   0.845   4.760   1.956  1.2961  0.7065  1.2433
11141TIP3    H233369   0.791   4.893   1.907 -0.9904 -1.1378 -1.5230
11142TIP3   OH233370   2.205   6.036   2.384  0.2602 -0.8403  1.0491
11142TIP3    H133371   2.202   6.073   2.472  1.2291 -2.0423  1.6131
11142TIP3    H233372   2.260   6.097   2.334 -0.7531  0.1529  1.0851
11143TIP3   OH233373   2.474   2.082   2.374  0.0880  0.3869 -0.3886
11143TIP3    H133374   2.526   2.027   2.433  0.1076  0.0875 -0.6889
11143TIP3    H233375   2.443   2.023   2.306 -1.2373  0.4180  0.1606
11144TIP3   OH233376   2.781   2.283   3.268  0.1155  0.0485  0.2464
11144TIP3    H133377   2.872   2.299   3.294  0.0523 -1.1812  1.3233
11144TIP3    H233378   2.771   2.332   3.186  1.8677 -0.1139 -0.1120
11145TIP3   OH233379   4.018   2.532   2.486 -0.2808  0.0524 -0.8981
11145TIP3    H133380   4.044   2.447   2.450  0.4457  0.5221 -1.5246
11145TIP3    H233381   4.089   2.592   2.460 -0.8552  0.8845 -0.5992
11146TIP3   OH233382   7.104   7.711   6.475 -0.5064 -1.1108  0.5681
11146TIP3    H133383   7.079   7.619   6.486 -0.0729 -1.4009 -0.6388
11146TIP3    H233384   7.200   7.710   6.476 -0.4960 -0.4899  1.7475
11147TIP3   OH233385   4.365   5.631   3.304 -0.2148 -0.6029  0.5603
11147TIP3    H133386   4.301   5.594   3.365 -2.1395  1.5461 -0.0112
11147TIP3    H233387   4.422   5.685   3.359 -1.2735  0.4686  0.6423
11148TIP3   OH233388   2.679   2.456   2.406  0.2563 -0.5239 -0.0823
11148TIP3    H133389   2.735   2.523   2.367  0.5959 -1.3841 -1.0817
11148TIP3    H233390   2.658   2.397   2.335 -2.4843  0.1041  0.0822
11149TIP3   OH233391   7.656   2.834   2.170  0.6213  0.2892  0.3262
11149TIP3    H133392   7.619   2.908   2.122  0.6932  0.8604  1.1204
11149TIP3    H233393   7.751   2.845   2.163  0.7394 -1.3900 -2.0386
11150TIP3   OH233394   3.681   0.736   2.959  0.6273  0.3927  0.0152
11150TIP3    H133395   3.690   0.746   3.053  0.6190 -2.2025  0.3600
11150TIP3    H233396   3.603   0.788   2.937 -0.4045 -0.3165  1.7485
11151TIP3   OH233397   4.749   6.265   2.241  0.3241 -0.2525  0.6279
11151TIP3    H133398   4.748   6.360   2.252 -1.2292 -0.2497  0.7581
11151TIP3    H233399   4.768   6.231   2.329  0.4138 -0.0656  0.6819
11152TIP3   OH233400   7.596   5.178   1.430  0.3279  0.1016 -0.9764
11152TIP3    H133401   7.631   5.157   1.344  0.1984 -1.0130 -0.7753
11152TIP3    H233402   7.602   5.096   1.479 -0.2321  0.5419 -0.1449
11153TIP3   OH233403   2.988   1.448   0.334  0.4849 -0.0234 -0.0087
11153TIP3    H133404   2.893   1.452   0.323  0.2630  0.5723  1.6943
11153TIP3    H233405   3.007   1.355   0.350  0.2786 -0.2327 -0.9574
11154TIP3   OH233406   5.663   3.565   5.349  0.2324 -0.1199 -0.0698
11154TIP3    H133407   5.575   3.536   5.374  0.6624 -0.7546  0.7766
11154TIP3    H233408   5.709   3.578   5.433  1.2046 -0.6618 -0.4984
11155TIP3   OH233409   2.581   7.192   2.586 -0.1516  0.1881 -0.1889
11155TIP3    H133410   2.648   7.231   2.643 -0.9771  0.3209  0.7189
11155TIP3    H233411   2.630   7.161   2.510  0.6410  2.4510 -0.6965
11156TIP3   OH233412   0.021   3.058   3.013 -0.3007  0.1852  0.1034
11156TIP3    H133413  -0.015   2.974   2.985 -0.6041  0.6877 -1.0821
11156TIP3    H233414   0.115   3.051   2.997 -0.1688 -0.3011  1.0264
11157TIP3   OH233415   7.936   0.323   6.660  0.0027 -0.3596  0.0932
11157TIP3    H133416   7.987   0.285   6.732  0.7959 -0.3966 -0.4801
11157TIP3    H233417   7.872   0.256   6.638 -0.0440 -0.4712  0.5462
11158TIP3   OH233418   2.237   2.513   0.513  0.5121  0.6605 -0.1231
11158TIP3    H133419   2.217   2.534   0.605  1.3942 -2.6898  0.9850
11158TIP3    H233420   2.159   2.542   0.465 -1.0911  0.2746  2.0728
11159TIP3   OH233421   1.280   0.968   2.313  0.0818 -0.4050 -0.2068
11159TIP3    H133422   1.349   0.953   2.377  0.3163  0.6570 -0.2023
11159TIP3    H233423   1.200   0.970   2.364  0.0410 -1.5017 -0.1955
11160TIP3   OH233424   1.720   7.390   6.458 -0.1917 -0.6057  0.2557
11160TIP3    H133425   1.727   7.478   6.496 -0.3382 -0.3804 -0.2337
11160TIP3    H233426   1.793   7.385   6.395  0.5336 -1.2626  1.1211
11161TIP3   OH233427   8.277   1.406   5.913 -0.3303  0.0350 -0.0529
11161TIP3    H133428   8.215   1.348   5.868 -1.4953 -0.7501  2.3607
11161TIP3    H233429   8.301   1.358   5.993 -0.1434  2.2132  1.2949
11162TIP3   OH233430   1.125   7.242   4.105 -0.1771 -0.4102  0.5822
11162TIP3    H133431   1.203   7.189   4.122 -1.3269 -2.1942  0.5626
11162TIP3    H233432   1.128   7.259   4.011  0.5792  0.2216  0.7080
11163TIP3   OH233433   6.370   0.072   4.911  0.2936  0.1906  0.2193
11163TIP3    H133434   6.277   0.087   4.928  0.4140 -0.2798  1.3529
11163TIP3    H233435   6.388  -0.014   4.948  1.3539  0.6227  0.7649
11164TIP3   OH233436   6.551   7.096   0.956 -0.0355  0.1186  0.7084
11164TIP3    H133437   6.579   7.182   0.988  1.4100  0.1914 -0.6628
11164TIP3    H233438   6.548   7.105   0.861 -1.5987 -0.8655  0.6253
11165TIP3   OH233439   7.870   0.890   6.278 -0.2957 -0.1255 -0.0077
11165TIP3    H133440   7.830   0.926   6.356 -1.3917  2.9453 -1.8157
11165TIP3    H233441   7.959   0.925   6.277 -0.9146  1.5684 -1.0417
11166TIP3   OH233442   1.544   4.033   3.697 -0.1628  0.0771  0.1613
11166TIP3    H133443   1.574   3.998   3.614 -0.8437  0.4208 -0.2411
11166TIP3    H233444   1.478   3.970   3.727 -1.4223  0.9904 -0.5857
11167TIP3   OH233445   3.561   4.966   0.011 -0.0893  0.2822 -0.6477
11167TIP3    H133446   3.571   5.028   0.082 -0.0777  1.0275 -1.2885
11167TIP3    H233447   3.606   4.887   0.041  1.1831  1.0775 -0.4288
11168TIP3   OH233448   3.752   5.663   1.114  0.0255 -0.0471  0.3110
11168TIP3    H133449   3.828   5.621   1.154  0.5433  0.7282  0.1542
11168TIP3    H233450   3.764   5.756   1.133 -0.4195  0.1767 -0.5013
11169TIP3   OH233451   6.785   3.970   5.752  0.0061  0.2389 -0.0557
11169TIP3    H133452   6.868   3.965   5.801 -0.6698 -2.7133  1.0125
11169TIP3    H233453   6.719   3.937   5.813 -1.4955 -0.1989 -1.8236
11170TIP3   OH233454   5.750   0.295   5.629 -0.1989 -0.3620  0.1299
11170TIP3    H133455   5.783   0.365   5.573 -2.0483  0.2677 -0.2346
11170TIP3    H233456   5.798   0.217   5.601  0.4006  0.3550 -0.8929
11171TIP3   OH233457   1.895   7.634   0.583  0.7476  0.0114 -0.0957
11171TIP3    H133458   1.858   7.564   0.636  0.0877 -0.5030 -1.1893
11171TIP3    H233459   1.978   7.599   0.551  0.0409 -0.6230 -1.3039
11172TIP3   OH233460   6.129   2.749   5.672  0.4942 -0.6494 -0.6404
11172TIP3    H133461   6.076   2.735   5.751  1.1154  0.2894 -0.0143
11172TIP3    H233462   6.070   2.733   5.599  0.2134 -2.6996 -0.0066
11173TIP3   OH233463   6.779   2.047   6.011  0.2127  0.4351  0.4072
11173TIP3    H133464   6.823   1.990   5.949 -0.9267 -0.1555  0.1252
11173TIP3    H233465   6.848   2.074   6.072  0.6377 -1.8348  0.9971
11174TIP3   OH233466   1.885   6.330   5.203  0.1018 -0.4655 -0.0253
11174TIP3    H133467   1.948   6.319   5.273  1.7511 -2.9535 -1.7232
11174TIP3    H233468   1.815   6.268   5.224 -0.5312  0.4295  0.5452
11175TIP3   OH233469   0.447   7.781   0.500 -0.6436  0.2953 -0.3006
11175TIP3    H133470   0.379   7.739   0.446 -0.4889 -0.1662 -0.1444
11175TIP3    H233471   0.418   7.871   0.510 -0.9392  0.2509 -0.7258
11176TIP3   OH233472   2.439   5.019   1.292 -0.3403 -0.3275 -0.5592
11176TIP3    H133473   2.436   4.935   1.247 -0.6568 -0.1947 -0.7875
11176TIP3    H233474   2.501   5.072   1.242  1.7882 -1.2060  0.9536
11177TIP3   OH233475   7.466   0.995   3.726  0.6819  0.2081 -0.4099
11177TIP3    H133476   7.417   0.914   3.715  0.0632  0.5644 -0.3000
11177TIP3    H233477   7.485   0.999   3.820 -0.6855  0.9825 -0.1466
11178TIP3   OH233478   1.118   3.772   1.558 -0.1378 -0.1211  0.1699
11178TIP3    H133479   1.027   3.788   1.534  0.4474 -0.0419 -2.1951
11178TIP3    H233480   1.145   3.700   1.502  1.8857  1.3175 -0.8261
11179TIP3   OH233481   3.215   0.073   2.443  0.1906 -0.7852 -1.0327
11179TIP3    H133482   3.151   0.025   2.390  1.5120  0.2400 -3.7691
11179TIP3    H233483   3.178   0.160   2.454 -0.5807 -1.3054  0.8031
11180TIP3   OH233484   2.146   7.608   0.173 -0.0885 -0.0619  0.3196
11180TIP3    H133485   2.197   7.652   0.241  1.4161 -2.7937  1.1007
11180TIP3    H233486   2.128   7.676   0.108  1.1398  1.9000  1.9412
11181TIP3   OH233487   5.521   3.596   6.615  0.0444  0.3454 -0.2781
11181TIP3    H133488   5.545   3.671   6.560  1.0821  1.1750  1.2439
11181TIP3    H233489   5.539   3.625   6.704 -1.1086 -1.1502  0.4829
11182TIP3   OH233490   3.216   1.804   3.034  0.1472 -0.2921 -0.0171
11182TIP3    H133491   3.190   1.876   2.977 -1.4959  0.0436  1.0895
11182TIP3    H233492   3.137   1.751   3.044  0.0991  0.1366  2.5995
11183TIP3   OH233493   3.636   2.407   3.957 -0.5420  0.7433 -0.0986
11183TIP3    H133494   3.633   2.498   3.987 -0.4067  0.8745 -0.4711
11183TIP3    H233495   3.545   2.384   3.941 -0.5516  0.9238 -0.3180
11184TIP3   OH233496   7.799   5.884   1.861 -0.2602 -0.1823 -0.5795
11184TIP3    H133497   7.787   5.976   1.835  2.9258  0.8918  1.1619
11184TIP3    H233498   7.721   5.864   1.913 -0.2840  2.1545  0.4112
11185TIP3   OH233499   0.687   6.740   3.628  0.5446 -0.5026 -0.0713
11185TIP3    H133500   0.719   6.700   3.547  0.5682  1.3465 -1.0384
11185TIP3    H233501   0.597   6.765   3.607  0.4147 -0.3843  0.6261
11186TIP3   OH233502   0.236   6.516   3.973 -0.1165 -0.5395  0.4222
11186TIP3    H133503   0.183   6.587   3.938 -1.3425 -1.3410  0.5742
11186TIP3    H233504   0.201   6.500   4.060 -1.0834 -2.4642 -0.2555
11187TIP3   OH233505   2.019   3.820   4.541 -0.9815  0.5658  0.1852
11187TIP3    H133506   1.948   3.883   4.553 -0.8133  0.5882  1.1413
11187TIP3    H233507   2.014   3.763   4.618 -0.8962 -0.3630 -0.4795
11188TIP3   OH233508   6.654   5.481   6.262 -0.2108  0.1170 -0.2735
11188TIP3    H133509   6.642   5.551   6.197 -0.3019 -0.1826 -0.5809
11188TIP3    H233510   6.744   5.451   6.249 -0.2282  0.0585 -0.2584
11189TIP3   OH233511   2.182   3.740   6.647  0.2544  0.1021 -0.2532
11189TIP3    H133512   2.157   3.791   6.569 -1.9293 -0.7270 -0.1819
11189TIP3    H233513   2.255   3.686   6.618 -0.8121 -0.5276 -1.9314
11190TIP3   OH233514   3.456   2.332   0.394 -0.5386  0.0510  0.0702
11190TIP3    H133515   3.453   2.299   0.304 -2.9397 -1.0822  0.5104
11190TIP3    H233516   3.547   2.317   0.421 -0.1414 -0.9716 -1.6616
11191TIP3   OH233517   3.957   3.644   1.476 -0.0648  0.2591 -0.5165
11191TIP3    H133518   4.037   3.681   1.438  0.5372 -0.7857 -0.3011
11191TIP3    H233519   3.886   3.694   1.435  0.6101 -0.0591 -2.1466
11192TIP3   OH233520   1.960   0.318   3.019 -0.4809 -0.1282  0.4094
11192TIP3    H133521   1.902   0.244   3.000 -0.9098  0.0963  0.8345
11192TIP3    H233522   1.901   0.391   3.037 -0.0634  0.1384  0.7155
11193TIP3   OH233523   7.529   3.063   4.836  0.6316 -0.8161 -0.3427
11193TIP3    H133524   7.598   3.094   4.778  0.0837 -2.2098 -1.8011
11193TIP3    H233525   7.459   3.127   4.827  2.1798  1.5830  2.4235
11194TIP3   OH233526   2.212   6.423   2.935 -0.0335 -0.0891  0.3895
11194TIP3    H133527   2.254   6.408   2.851  0.5255  0.9480  0.4573
11194TIP3    H233528   2.138   6.363   2.937  0.4224 -0.6924 -0.4946
11195TIP3   OH233529   0.237   1.943   4.622 -0.4359  0.0047  0.2511
11195TIP3    H133530   0.157   1.965   4.667 -1.2877 -0.5155 -0.9423
11195TIP3    H233531   0.226   1.851   4.596  0.1584  0.1706 -0.6675
11196TIP3   OH233532   5.101   5.160   5.703  0.1676 -0.0027 -0.1215
11196TIP3    H133533   5.088   5.066   5.687 -0.9407 -0.0119  0.7117
11196TIP3    H233534   5.134   5.164   5.793 -1.2731  0.4716  0.4105
11197TIP3   OH233535   0.084   3.040   6.312 -0.1931  0.4416  0.5750
11197TIP3    H133536   0.084   3.054   6.406  2.0321  1.7678  0.4396
11197TIP3    H233537   0.145   2.968   6.298 -0.4474  0.3075  0.1129
11198TIP3   OH233538   3.415   4.182   2.665 -0.1182 -0.1649  0.0250
11198TIP3    H133539   3.444   4.209   2.579 -0.0514  0.4386  0.2349
11198TIP3    H233540   3.362   4.255   2.697  0.3623 -0.1182  0.7427
11199TIP3   OH233541   0.165   1.501   2.588 -0.4429  0.2862  0.0428
11199TIP3    H133542   0.201   1.413   2.596  0.3604  0.4736 -1.1813
11199TIP3    H233543   0.091   1.492   2.529 -0.0173  0.5000 -0.5375
11200TIP3   OH233544   5.143   2.523   1.893  0.8046  0.1988 -0.2722
11200TIP3    H133545   5.067   2.470   1.918  0.4792  0.3480 -0.9164
11200TIP3    H233546   5.106   2.596   1.844  1.3665  0.2367 -0.6484
11201TIP3   OH233547   2.471   6.199   4.749  0.2413 -0.0616 -0.3213
11201TIP3    H133548   2.422   6.119   4.771 -2.0876  1.4149  0.1783
11201TIP3    H233549   2.501   6.232   4.834 -0.7338  0.7377 -0.2727
11202TIP3   OH233550   2.855   7.539   2.752 -0.2161 -0.3159 -0.0387
11202TIP3    H133551   2.847   7.618   2.699  2.6167  0.2706  0.2579
11202TIP3    H233552   2.888   7.570   2.837 -0.3826 -1.6837  0.5573
11203TIP3   OH233553   7.197   3.702   6.588  0.3601 -0.2289  0.2876
11203TIP3    H133554   7.143   3.652   6.648 -0.3770 -0.3655 -0.4644
11203TIP3    H233555   7.237   3.636   6.532  0.6686 -0.0756  0.3253
11204TIP3   OH233556   7.722   1.800   6.063 -0.0084 -0.1054 -0.0837
11204TIP3    H133557   7.711   1.875   6.122  1.2409  0.3735 -0.4180
11204TIP3    H233558   7.740   1.726   6.122  1.5525  0.4274  0.1728
11205TIP3   OH233559   3.442   6.338   3.676 -0.8296 -0.3132  0.0934
11205TIP3    H133560   3.431   6.369   3.766  0.3434  0.0950  0.1156
11205TIP3    H233561   3.478   6.414   3.629 -1.2860 -0.5656 -0.6894
11206TIP3   OH233562   4.666   5.206   1.778 -0.4717 -0.0718 -0.4084
11206TIP3    H133563   4.652   5.296   1.746  2.8045 -0.1362 -2.4336
11206TIP3    H233564   4.746   5.177   1.735  2.0912 -1.8391  4.6828
11207TIP3   OH233565   5.510   0.640   1.963 -0.0235 -0.0062  0.2135
11207TIP3    H133566   5.429   0.672   2.002 -0.8932 -0.5794 -1.0303
11207TIP3    H233567   5.561   0.605   2.036 -0.6401  0.8712  1.0834
11208TIP3   OH233568   0.223   4.106   2.023  0.2949  0.2390 -0.2709
11208TIP3    H133569   0.161   4.033   2.014  1.5586 -1.1137  1.4526
11208TIP3    H233570   0.255   4.121   1.934 -1.1144 -0.2511 -0.8994
11209TIP3   OH233571   5.584   0.313   6.419  0.0916  0.1216 -0.5677
11209TIP3    H133572   5.629   0.238   6.381  1.6833  0.7808 -0.0857
11209TIP3    H233573   5.539   0.354   6.345  1.2224  0.0567 -1.3244
11210TIP3   OH233574   4.514   0.630   2.244  0.4616 -0.2269  0.5916
11210TIP3    H133575   4.576   0.702   2.238  0.5834 -0.4326 -1.2841
11210TIP3    H233576   4.564   0.553   2.217 -0.8486 -0.1827 -2.3684
11211TIP3   OH233577   4.579   6.118   5.403  0.1771 -0.0772 -0.1289
11211TIP3    H133578   4.588   6.189   5.340 -0.6706  0.8564  0.7496
11211TIP3    H233579   4.664   6.116   5.449 -0.1131  1.0741  0.5150
11212TIP3   OH233580   6.615   0.380   2.286 -0.6358  0.1074 -0.2865
11212TIP3    H133581   6.602   0.379   2.191 -1.0472  1.0702 -0.2521
11212TIP3    H233582   6.532   0.411   2.321 -0.6335 -0.6530  0.4302
11213TIP3   OH233583   4.709   5.450   2.209 -0.5296 -1.2025  0.5630
11213TIP3    H133584   4.626   5.407   2.230 -0.5840 -0.8213  1.1667
11213TIP3    H233585   4.767   5.427   2.281 -0.4889 -0.4684  0.7786
11214TIP3   OH233586   1.623   2.237   0.813 -0.2140  0.0424 -0.5833
11214TIP3    H133587   1.650   2.329   0.801  1.5620 -0.2875  0.5885
11214TIP3    H233588   1.590   2.234   0.902  1.2780 -0.7564 -0.0179
11215TIP3   OH233589   0.289   5.763   1.598 -0.2587 -0.0621 -0.0125
11215TIP3    H133590   0.356   5.770   1.667  0.1935 -0.1002 -0.4448
11215TIP3    H233591   0.295   5.846   1.550 -0.9751  0.2092  0.3473
11216TIP3   OH233592   3.134   2.002   3.587 -0.2165 -0.2521  0.6298
11216TIP3    H133593   3.089   2.008   3.503 -0.4498  1.2480  0.8434
11216TIP3    H233594   3.190   1.925   3.579  2.9908  2.1008 -2.5167
11217TIP3   OH233595   0.956   3.400   1.724 -1.0113 -0.4451 -0.6744
11217TIP3    H133596   0.886   3.344   1.758 -0.2740  0.4211  2.6168
11217TIP3    H233597   0.953   3.478   1.780  0.7196  0.9393 -2.3641
11218TIP3   OH233598   4.417   2.983   2.949  0.0592  0.0920 -0.1046
11218TIP3    H133599   4.412   2.986   3.044 -2.0520  0.4088 -0.1733
11218TIP3    H233600   4.359   3.053   2.920  0.4800 -0.1602 -1.6388
11219TIP3   OH233601   5.678   6.526   3.176  0.5510  0.0308  0.1516
11219TIP3    H133602   5.765   6.508   3.212  0.6127  1.2367  0.6471
11219TIP3    H233603   5.693   6.543   3.083  1.1896  2.3293  0.6105
11220TIP3   OH233604   3.317   3.837   0.246 -0.4540  0.2544 -0.3562
11220TIP3    H133605   3.358   3.760   0.286  0.7248 -0.3569 -2.6206
11220TIP3    H233606   3.375   3.862   0.175 -1.2544  2.7638 -0.2341
11221TIP3   OH233607   2.665   6.938   5.279  0.1709 -0.1721  0.1016
11221TIP3    H133608   2.735   6.942   5.345  1.1026 -0.8495 -0.8223
11221TIP3    H233609   2.654   7.029   5.250  1.9630 -0.2816 -1.0415
11222TIP3   OH233610   5.373   2.192   3.981 -0.0938 -0.0323 -0.0216
11222TIP3    H133611   5.327   2.110   3.997 -0.9715  0.2470 -1.0086
11222TIP3    H233612   5.466   2.170   3.993 -0.3822 -0.9277  0.6727
11223TIP3   OH233613   7.150   5.232   2.904 -0.6710  0.4423 -0.0290
11223TIP3    H133614   7.120   5.160   2.960 -0.6422  0.0128 -0.5584
11223TIP3    H233615   7.096   5.226   2.826  1.2259 -0.8275 -1.3431
11224TIP3   OH233616   3.161   4.146   3.395  0.5092 -0.0114 -0.2524
11224TIP3    H133617   3.247   4.186   3.382  0.9835 -0.4081  1.5113
11224TIP3    H233618   3.107   4.215   3.433 -0.4493  0.6990 -2.7107
11225TIP3   OH233619   7.711   6.855   3.709 -0.3671  0.1431 -0.3871
11225TIP3    H133620   7.725   6.834   3.801  0.4485  0.7176 -0.3775
11225TIP3    H233621   7.751   6.781   3.662 -0.5201 -0.0023 -0.2911
11226TIP3   OH233622   5.678   3.288   1.636  0.4079  0.0243 -0.7474
11226TIP3    H133623   5.628   3.369   1.626 -1.0171 -0.7406 -0.1176
11226TIP3    H233624   5.612   3.220   1.642  1.5400 -1.0189  0.3036
11227TIP3   OH233625   1.270   3.299   5.291 -0.7203 -0.3372  0.0215
11227TIP3    H133626   1.300   3.355   5.219 -0.4354 -0.5816 -0.0518
11227TIP3    H233627   1.183   3.333   5.313 -0.6867 -0.0757 -0.2415
11228TIP3   OH233628   2.112   6.510   6.386  0.0615  0.0495  0.5652
11228TIP3    H133629   2.073   6.427   6.359 -0.2495  0.0980  0.8682
11228TIP3    H233630   2.040   6.559   6.425  0.5001 -0.0182  1.4801
11229TIP3   OH233631   5.098   2.056   6.405  0.1618  0.5647 -0.4161
11229TIP3    H133632   5.126   2.037   6.494 -1.0960  0.4032 -0.0423
11229TIP3    H233633   5.130   1.981   6.354 -1.9287 -1.0410  0.4844
11230TIP3   OH233634   1.971   4.490   5.569  0.1814  0.2015 -0.2398
11230TIP3    H133635   1.928   4.484   5.484  0.6048  0.2509 -0.4630
11230TIP3    H233636   1.965   4.402   5.606 -1.9013  0.6690  0.6354
11231TIP3   OH233637   2.337   6.569   4.000 -0.1660 -0.0568  0.0575
11231TIP3    H133638   2.408   6.508   4.018 -0.6686 -0.2883  1.3587
11231TIP3    H233639   2.370   6.625   3.930  0.9979 -0.6340  0.1287
11232TIP3   OH233640   5.010   3.500   0.103  0.2941  0.0237  0.3552
11232TIP3    H133641   4.948   3.558   0.149  1.4030  0.9998  0.6685
11232TIP3    H233642   5.066   3.465   0.172  1.0971  0.4133 -0.0844
11233TIP3   OH233643   7.054   6.622   0.152  0.1344  0.3931  0.2563
11233TIP3    H133644   6.981   6.625   0.213  0.3110 -1.1132  0.5939
11233TIP3    H233645   7.110   6.696   0.178 -0.5714  0.7168  0.8930
11234TIP3   OH233646   3.997   5.188   6.180  0.0744  0.0683 -0.2630
11234TIP3    H133647   3.944   5.157   6.107 -0.1929 -0.5791  0.1943
11234TIP3    H233648   4.054   5.254   6.142 -0.0121 -0.3104 -1.0692
11235TIP3   OH233649   2.952   0.655   3.798 -0.2612  0.4827  0.2137
11235TIP3    H133650   2.972   0.693   3.884 -1.4691  2.9961 -0.5290
11235TIP3    H233651   3.030   0.606   3.775  0.3128  0.2046  2.4903
11236TIP3   OH233652   3.113   3.553   2.520  0.2925 -0.2860  0.1872
11236TIP3    H133653   3.198   3.510   2.517  0.2843 -0.2670 -0.7044
11236TIP3    H233654   3.131   3.644   2.543  0.8212  0.3890 -2.5394
11237TIP3   OH233655   6.174   2.386   0.021  0.0145 -0.2791  0.6337
11237TIP3    H133656   6.214   2.299   0.019 -0.2972 -0.5053  2.4517
11237TIP3    H233657   6.238   2.441   0.066 -0.1704  0.2444  0.2703
11238TIP3   OH233658   4.011   2.956   0.054  0.0833 -0.2353 -0.2823
11238TIP3    H133659   3.987   2.886   0.114  1.1195 -0.3858 -0.0341
11238TIP3    H233660   4.035   3.029   0.110  1.2819 -0.4502 -0.4912
11239TIP3   OH233661   3.889   7.692   4.225  0.3726  0.0203 -0.4923
11239TIP3    H133662   3.872   7.786   4.221  2.2720  0.3866 -0.9634
11239TIP3    H233663   3.960   7.677   4.162  2.3108 -1.1546  1.7953
11240TIP3   OH233664   3.105   5.367   4.789  0.0324  0.0297 -0.4357
11240TIP3    H133665   3.148   5.387   4.706 -0.3580 -0.3247 -0.7323
11240TIP3    H233666   3.016   5.401   4.779  0.6113  2.0415  0.7076
11241TIP3   OH233667   3.244   5.848   5.876 -0.2352  0.2039 -0.0141
11241TIP3    H133668   3.167   5.843   5.932  1.3559  0.4062  2.3589
11241TIP3    H233669   3.209   5.851   5.787 -3.0066  1.5799  0.9855
11242TIP3   OH233670   1.397   2.664   3.669  0.1072 -0.9105  0.3119
11242TIP3    H133671   1.432   2.750   3.691  0.4570 -1.1173  0.5749
11242TIP3    H233672   1.414   2.654   3.575 -0.7450 -0.3248  0.0762
11243TIP3   OH233673   3.425   5.079   2.942  0.3565  0.2230  0.1092
11243TIP3    H133674   3.335   5.106   2.957 -0.1197 -1.7804  1.2442
11243TIP3    H233675   3.427   5.051   2.850  0.5085  2.5709 -0.6527
11244TIP3   OH233676   3.499   5.047   1.151 -0.0854 -0.1241  0.2690
11244TIP3    H133677   3.567   5.029   1.217 -1.3847  2.0165  2.3456
11244TIP3    H233678   3.496   4.967   1.098  3.1672 -0.7620  0.8296
11245TIP3   OH233679   2.419   1.518   2.638 -0.0460 -0.4577 -0.0619
11245TIP3    H133680   2.367   1.542   2.562  2.5385  0.3242 -1.7250
11245TIP3    H233681   2.440   1.601   2.681  1.1872 -0.5544 -0.4243
11246TIP3   OH233682   4.837   4.394   0.314 -0.0104 -0.3479 -0.1897
11246TIP3    H133683   4.767   4.347   0.271  0.0516 -0.3148 -0.3266
11246TIP3    H233684   4.916   4.372   0.264  0.1882 -0.9057  0.3500
11247TIP3   OH233685   0.212   1.241   2.557  0.1915 -0.1715 -0.3616
11247TIP3    H133686   0.189   1.197   2.475  0.9575 -0.2400 -0.5386
11247TIP3    H233687   0.307   1.247   2.556  0.3408 -1.5438  1.2269
11248TIP3   OH233688   7.311   1.538   3.131  0.0227 -0.6411  0.1347
11248TIP3    H133689   7.353   1.490   3.060  1.0030 -2.0216  1.5769
11248TIP3    H233690   7.368   1.613   3.146 -0.7420  0.2526 -1.1640
11249TIP3   OH233691   6.386   0.531   0.563  0.0273 -0.2048  0.0218
11249TIP3    H133692   6.377   0.625   0.552 -3.1046 -0.2837  1.1487
11249TIP3    H233693   6.322   0.507   0.629 -0.2042 -3.3231 -1.1319
11250TIP3   OH233694  -0.003   0.036   1.602  0.1159  0.0061 -0.0572
11250TIP3    H133695  -0.050  -0.046   1.612 -1.1461  0.6575 -0.4633
11250TIP3    H233696   0.070   0.030   1.665 -0.5660 -0.9757  0.6645
11251TIP3   OH233697   7.410   4.746   4.999  0.7546  0.5728  0.1619
11251TIP3    H133698   7.442   4.673   5.051  1.0063  1.1710  0.8728
11251TIP3    H233699   7.488   4.784   4.959  0.4489 -0.6556 -1.7543
11252TIP3   OH233700   3.053   4.653   0.126  0.4445  0.1067  0.3196
11252TIP3    H133701   2.995   4.726   0.103 -1.9066 -1.6219  0.3477
11252TIP3    H233702   3.031   4.634   0.217 -0.4856 -1.8563 -0.2615
11253TIP3   OH233703   3.290   1.651   0.690  0.0084  0.4714  0.3138
11253TIP3    H133704   3.302   1.728   0.746 -0.9998  0.9020 -0.0383
11253TIP3    H233705   3.253   1.687   0.609  1.0238 -0.1954 -0.4626
11254TIP3   OH233706   0.702   3.052   0.479  0.0731 -0.7783 -0.5165
11254TIP3    H133707   0.639   3.021   0.544  0.8029 -0.6383  0.2636
11254TIP3    H233708   0.719   3.143   0.503  0.7176 -0.8699 -0.6156
11255TIP3   OH233709   4.661   7.293   6.354  0.1683 -0.4886 -0.4947
11255TIP3    H133710   4.701   7.247   6.280 -0.8204 -0.1099 -1.2895
11255TIP3    H233711   4.703   7.379   6.353 -0.0185 -0.3981 -0.7754
11256TIP3   OH233712   2.941   1.080   5.025 -0.0122  0.3319  0.0825
11256TIP3    H133713   2.919   1.004   4.972 -0.8291 -0.4570  1.5062
11256TIP3    H233714   2.972   1.044   5.108  0.6382  1.5404  0.3876
11257TIP3   OH233715   7.744   1.699   2.201 -0.2366  0.3532 -0.2999
11257TIP3    H133716   7.691   1.725   2.277 -2.8619  0.2205 -1.9444
11257TIP3    H233717   7.738   1.604   2.200  0.0255  0.3393 -0.5116
11258TIP3   OH233718   5.458   4.993   3.370 -0.0788  0.0493 -0.1936
11258TIP3    H133719   5.420   5.078   3.348 -0.1712  0.0188 -0.1567
11258TIP3    H233720   5.389   4.948   3.419 -0.0984 -0.1215 -0.3774
11259TIP3   OH233721   4.729   6.723   2.947  0.1480 -0.1012  0.8578
11259TIP3    H133722   4.656   6.785   2.952  1.9332  2.1136  0.4620
11259TIP3    H233723   4.747   6.715   2.854  0.4886 -0.5691  0.9612
11260TIP3   OH233724   1.908   6.078   2.288 -0.1238  0.1729 -0.6300
11260TIP3    H133725   1.959   6.058   2.210 -1.9675 -2.6626 -1.2577
11260TIP3    H233726   1.838   6.136   2.257  1.1751  2.0408 -0.2529
11261TIP3   OH233727   7.499   6.525   5.662 -0.0776  0.0708 -0.0660
11261TIP3    H133728   7.434   6.579   5.618  0.5541  1.4403  0.6266
11261TIP3    H233729   7.562   6.587   5.699  1.1337 -1.1717  0.0617
11262TIP3   OH233730   7.216   6.101   5.536  0.7422 -0.1865  0.1114
11262TIP3    H133731   7.169   6.184   5.527 -0.0954 -0.2917  2.6668
11262TIP3    H233732   7.301   6.116   5.494  1.1515  2.4534  1.6530
11263TIP3   OH233733   4.039   1.408   0.985  0.6244  0.0089 -0.1953
11263TIP3    H133734   4.064   1.329   1.033 -1.7757 -1.9231 -1.8577
11263TIP3    H233735   3.949   1.426   1.013  0.6813  1.3993 -0.8008
11264TIP3   OH233736   2.928   1.523   2.831 -0.2312  0.3903  0.0437
11264TIP3    H133737   2.861   1.590   2.818 -0.9663 -0.2634  0.3618
11264TIP3    H233738   2.895   1.470   2.904  1.2195  0.7808  1.0270
11265TIP3   OH233739   7.380   7.690   4.150  0.0452  0.3407  0.0558
11265TIP3    H133740   7.316   7.628   4.116 -0.7875  0.9616  0.4410
11265TIP3    H233741   7.402   7.745   4.075 -0.9309  0.9893  0.2232
11266TIP3   OH233742   5.734   3.654   4.578 -0.4097  0.2003 -0.2620
11266TIP3    H133743   5.759   3.726   4.520  0.3613  0.3257  0.2062
11266TIP3    H233744   5.706   3.698   4.659 -0.3959 -0.0063 -0.1453
11267TIP3   OH233745   6.424   2.328   3.553 -0.3128  0.1668 -0.2306
11267TIP3    H133746   6.406   2.281   3.634  0.6678 -0.9039 -0.5997
11267TIP3    H233747   6.459   2.261   3.494  1.0093  1.3408 -0.8329
11268TIP3   OH233748   2.258   0.706   2.643 -0.6925 -0.4892  0.1717
11268TIP3    H133749   2.207   0.697   2.562  1.6695 -1.2231 -1.3293
11268TIP3    H233750   2.252   0.620   2.684 -2.4786  0.0797  1.2406
11269TIP3   OH233751   3.338   1.589   2.213 -0.7840 -0.1308  0.1433
11269TIP3    H133752   3.277   1.522   2.243  0.6392 -0.6176  2.2163
11269TIP3    H233753   3.418   1.541   2.192 -0.4767  0.6895 -0.6277
11270TIP3   OH233754   3.526   2.789   3.861 -0.0957  0.5832  0.2668
11270TIP3    H133755   3.499   2.854   3.796 -3.0420 -0.6690  0.0919
11270TIP3    H233756   3.468   2.803   3.935  0.1116 -0.9929  0.7551
11271TIP3   OH233757   5.287   6.030   1.592 -0.2375  0.9984 -0.1728
11271TIP3    H133758   5.377   6.062   1.581 -0.4656  0.9369 -2.9076
11271TIP3    H233759   5.291   5.974   1.669  1.9224  1.4762  0.1412
11272TIP3   OH233760   1.739   6.465   0.962 -0.1522 -0.0118  0.4989
11272TIP3    H133761   1.705   6.469   1.052 -0.5547 -0.6708  0.3793
11272TIP3    H233762   1.732   6.555   0.931  2.0723  0.7133  1.8671
11273TIP3   OH233763   2.791   1.338   1.545 -0.7929 -0.3922 -0.2745
11273TIP3    H133764   2.764   1.275   1.612  0.4203 -0.2505  0.3668
11273TIP3    H233765   2.709   1.375   1.513 -1.3797  0.1354  1.7118
11274TIP3   OH233766   1.770   5.240   2.811  0.1144 -0.3282 -0.4567
11274TIP3    H133767   1.816   5.307   2.861 -1.4636  0.3260  0.1762
11274TIP3    H233768   1.711   5.198   2.874 -1.3973  0.0258 -1.5584
11275TIP3   OH233769   4.474   0.370   1.008 -0.4813  0.2603 -0.5279
11275TIP3    H133770   4.538   0.439   1.024 -1.1119  0.7515 -0.0932
11275TIP3    H233771   4.417   0.405   0.939  0.4144 -0.6479 -1.7621
11276TIP3   OH233772   6.601   2.529   2.336 -0.0048 -0.1713 -0.1246
11276TIP3    H133773   6.566   2.563   2.419 -0.4615 -1.1957  0.1307
11276TIP3    H233774   6.655   2.454   2.362  0.8004  0.2064 -0.6769
11277TIP3   OH233775   6.611   6.916   3.448 -0.3993  0.4747 -0.2027
11277TIP3    H133776   6.636   6.986   3.509 -1.9374  1.7985 -1.0251
11277TIP3    H233777   6.522   6.892   3.474 -0.0761 -0.8779 -0.2538
11278TIP3   OH233778   3.644   2.660   6.744  0.1246 -0.1216 -0.2658
11278TIP3    H133779   3.589   2.696   6.675 -1.5194  0.0653  1.0794
11278TIP3    H233780   3.599   2.580   6.772 -0.1857  0.6906  1.7172
11279TIP3   OH233781   0.350   3.684   3.053  0.0477 -0.5240  0.6789
11279TIP3    H133782   0.296   3.695   2.974  1.2901 -0.6026 -0.2133
11279TIP3    H233783   0.388   3.770   3.068  0.4958 -0.7224  0.6804
11280TIP3   OH233784   1.275   6.493   4.409  0.0025 -0.5313  0.0747
11280TIP3    H133785   1.313   6.463   4.492 -0.3257 -0.5622  0.2161
11280TIP3    H233786   1.186   6.457   4.410  0.1402 -0.9036 -0.4947
11281TIP3   OH233787   4.520   0.656   0.034  0.3362 -0.3917  0.0167
11281TIP3    H133788   4.490   0.690   0.118  1.3281  0.9180 -0.1405
11281TIP3    H233789   4.459   0.693  -0.030  0.8695  0.3890 -0.0549
11282TIP3   OH233790   6.229   5.856   4.635 -0.2207 -0.0397  0.1736
11282TIP3    H133791   6.278   5.933   4.666 -0.8688  0.5278 -0.1801
11282TIP3    H233792   6.296   5.798   4.599  0.4771 -0.3822  1.9060
11283TIP3   OH233793   4.473   0.393   2.576 -0.3667 -0.1087  0.4950
11283TIP3    H133794   4.523   0.336   2.518  1.8557  1.3586  0.8328
11283TIP3    H233795   4.425   0.452   2.518  0.3973  0.1599  0.1277
11284TIP3   OH233796   2.686   0.222   6.222  0.0218 -0.0925 -0.4638
11284TIP3    H133797   2.626   0.297   6.220 -0.8372 -0.7622 -0.3264
11284TIP3    H233798   2.733   0.231   6.305 -2.7215 -1.6780  1.4307
11285TIP3   OH233799   4.287   2.994   6.359  0.2719 -0.6964  0.5066
11285TIP3    H133800   4.273   2.978   6.452 -0.2023  1.8399  0.9351
11285TIP3    H233801   4.375   2.961   6.342  0.4682 -0.9544  1.9146
11286TIP3   OH233802   3.557   7.056   5.111  0.4021 -0.3279  0.5844
11286TIP3    H133803   3.527   6.972   5.076  2.1311 -0.9039  0.3748
11286TIP3    H233804   3.605   7.097   5.040  1.6229 -0.2691  1.4121
11287TIP3   OH233805   7.413   5.186   0.614 -0.0749 -0.0481  0.7572
11287TIP3    H133806   7.398   5.100   0.654 -2.7974 -1.4511 -2.8048
11287TIP3    H233807   7.486   5.172   0.554  1.3377  0.9933  2.1366
11288TIP3   OH233808   0.149   2.623   2.048 -0.1616 -0.2487 -0.2765
11288TIP3    H133809   0.075   2.582   2.004 -2.8464  3.0962  0.6851
11288TIP3    H233810   0.134   2.717   2.039  2.3032  0.6038  2.6279
11289TIP3   OH233811   8.112   2.132   3.743  0.3130  0.1415  0.1470
11289TIP3    H133812   8.167   2.054   3.748  0.1469 -0.0999 -1.2760
11289TIP3    H233813   8.171   2.201   3.712 -0.2082 -0.2221 -1.8255
11290TIP3   OH233814   0.604   1.846   6.279  0.1629 -0.0249  0.1249
11290TIP3    H133815   0.677   1.894   6.319  0.1669 -0.4408  0.6299
11290TIP3    H233816   0.596   1.883   6.191 -0.1929  1.2971  0.6830
11291TIP3   OH233817   0.687   7.516   3.718  0.0439 -0.3666 -0.5116
11291TIP3    H133818   0.725   7.505   3.631  0.9872  0.0368 -0.1660
11291TIP3    H233819   0.612   7.573   3.704  1.0978  1.0105 -0.8751
11292TIP3   OH233820   3.862   1.228   1.984  0.4746 -0.2535 -0.1654
11292TIP3    H133821   3.925   1.301   1.982  0.5765 -0.3270  0.2144
11292TIP3    H233822   3.797   1.255   2.048  0.7605 -0.6918  0.3220
11293TIP3   OH233823   0.278   4.107   0.585 -0.4617  0.1260  0.0155
11293TIP3    H133824   0.289   4.164   0.509 -0.7506 -0.6502 -0.6216
11293TIP3    H233825   0.321   4.155   0.657 -1.2880  1.4492 -0.3306
11294TIP3   OH233826   3.857   2.907   5.110 -0.0188 -0.3461  0.5568
11294TIP3    H133827   3.931   2.967   5.107  1.9300 -2.5347  1.5233
11294TIP3    H233828   3.804   2.938   5.184  0.0547  1.1010  0.0220
11295TIP3   OH233829   3.927   1.063   0.358  0.0618 -0.6233  0.4947
11295TIP3    H133830   3.871   0.992   0.387  0.8192 -0.5446  2.2831
11295TIP3    H233831   3.998   1.066   0.423  0.5385  1.1505 -0.0499
11296TIP3   OH233832   7.098   5.152   4.182  0.2297 -0.0084 -0.0607
11296TIP3    H133833   7.109   5.151   4.087 -0.3243  0.9970 -0.1488
11296TIP3    H233834   7.182   5.124   4.217  1.0697  1.4892 -0.8129
11297TIP3   OH233835   3.247   0.986   0.402 -0.4383  0.2372  0.3229
11297TIP3    H133836   3.254   1.027   0.316 -1.5535 -0.3007 -0.0426
11297TIP3    H233837   3.313   1.031   0.455  0.8876 -0.0027 -1.0249
11298TIP3   OH233838   1.622   6.406   2.523  0.4670 -0.0165  0.1405
11298TIP3    H133839   1.676   6.439   2.595 -0.2813 -0.3383  0.8655
11298TIP3    H233840   1.627   6.473   2.456  2.5416 -0.4572 -0.2124
11299TIP3   OH233841   1.344   5.165   4.415 -0.2603  0.3136 -0.4731
11299TIP3    H133842   1.306   5.094   4.363  2.4300 -1.9310  0.4289
11299TIP3    H233843   1.378   5.226   4.350 -0.5498 -0.3756 -1.2945
11300TIP3   OH233844   0.735   0.030   3.510 -0.8944 -0.8926  0.2367
11300TIP3    H133845   0.803  -0.025   3.473 -1.0859 -0.4718 -0.7756
11300TIP3    H233846   0.782   0.092   3.566 -0.3491 -0.1469 -1.0099
11301TIP3   OH233847   1.800   5.606   3.549 -1.0378  0.5014 -0.3729
11301TIP3    H133848   1.860   5.680   3.547  0.5274 -0.7465 -1.0100
11301TIP3    H233849   1.848   5.537   3.594 -2.3479 -0.2510 -0.0856
11302TIP3   OH233850   5.983   5.442   1.180 -0.5651  0.0427  0.0501
11302TIP3    H133851   6.076   5.442   1.204 -0.3641 -1.6100 -0.5694
11302TIP3    H233852   5.938   5.410   1.257 -0.4722 -0.3999 -0.0767
11303TIP3   OH233853   6.316   5.964   2.214 -0.2922  0.0076 -0.1014
11303TIP3    H133854   6.345   5.918   2.136 -2.1705  0.9475 -1.4181
11303TIP3    H233855   6.279   5.896   2.270 -0.4949 -0.4525 -0.7838
11304TIP3   OH233856   0.879   2.481   3.723 -0.3118 -0.1217  0.4079
11304TIP3    H133857   0.904   2.560   3.675 -1.0197  1.6706  2.7879
11304TIP3    H233858   0.927   2.487   3.806 -2.9392 -0.3850  2.0589
11305TIP3   OH233859   7.089   1.947   5.440  0.3498 -0.4779 -0.0487
11305TIP3    H133860   7.093   1.919   5.532  0.0220 -0.1974  0.0545
11305TIP3    H233861   7.093   1.865   5.390 -0.8968 -0.7496  0.2602
11306TIP3   OH233862   6.492   1.612   0.581 -0.6335 -0.7417 -0.5984
11306TIP3    H133863   6.542   1.592   0.502 -0.4248 -1.2111 -0.3501
11306TIP3    H233864   6.532   1.692   0.615 -0.1062 -1.0643 -0.4525
11307TIP3   OH233865   7.421   7.409   0.983 -0.7590 -0.0791 -0.1959
11307TIP3    H133866   7.517   7.403   0.976 -0.2647  2.1838  2.7722
11307TIP3    H233867   7.394   7.319   1.002  0.7845 -0.6963 -0.6743
11308TIP3   OH233868   3.360   2.047   3.786  0.0456 -0.3371  0.4432
11308TIP3    H133869   3.301   2.045   3.710 -0.1606 -0.7692  0.6064
11308TIP3    H233870   3.435   1.994   3.759 -0.8845 -2.1292  1.2021
11309TIP3   OH233871   7.257   5.130   2.008 -0.0746  0.3422  0.4228
11309TIP3    H133872   7.330   5.164   1.956  0.2966 -0.3831  0.4488
11309TIP3    H233873   7.190   5.197   2.002  0.3554  0.7355 -0.1398
11310TIP3   OH233874   2.310   4.437   6.297  0.4104  0.0910 -0.1782
11310TIP3    H133875   2.377   4.447   6.229  1.3153  1.0719  0.8125
11310TIP3    H233876   2.242   4.500   6.273 -0.6489 -1.5619 -1.7019
11311TIP3   OH233877   5.962   7.599   0.224 -0.5001 -0.0120  0.0459
11311TIP3    H133878   5.883   7.570   0.270 -0.8816  1.6554  0.5243
11311TIP3    H233879   6.025   7.617   0.294 -0.6429  1.2791 -0.1289
11312TIP3   OH233880   3.976   3.016   1.463  0.4260  0.4273 -0.0446
11312TIP3    H133881   3.997   3.094   1.515 -0.1316  0.5733 -0.0252
11312TIP3    H233882   3.937   3.051   1.383  0.4168  0.1739 -0.1500
11313TIP3   OH233883   2.060   5.028   1.225  0.4648 -0.3218  1.1332
11313TIP3    H133884   2.148   5.028   1.264  1.3386  0.6843 -0.6943
11313TIP3    H233885   2.047   5.118   1.195 -0.3865 -0.8975 -0.3278
11314TIP3   OH233886   7.877   5.863   1.584 -0.2338  0.2482  0.3458
11314TIP3    H133887   7.796   5.871   1.535 -0.4496  1.1360  0.8073
11314TIP3    H233888   7.849   5.850   1.675  0.1519 -2.5444  0.1305
11315TIP3   OH233889   0.359   7.719   6.011  0.1472 -0.2487  0.3381
11315TIP3    H133890   0.380   7.789   5.950 -1.0366 -0.9990 -0.9704
11315TIP3    H233891   0.264   7.723   6.021  0.2794 -0.3490  1.9052
11316TIP3   OH233892   4.601   0.144   5.963  0.4719  0.0981  0.0486
11316TIP3    H133893   4.673   0.087   5.989  0.6301 -0.1397 -0.8891
11316TIP3    H233894   4.522   0.097   5.990  0.6378  0.0805  0.5224
11317TIP3   OH233895   4.824   7.138   6.187 -0.3341 -0.0280 -0.1390
11317TIP3    H133896   4.896   7.080   6.160  0.3615  0.9292 -0.4097
11317TIP3    H233897   4.795   7.180   6.106  0.1705  1.0879  0.2316
11318TIP3   OH233898   0.599   7.275   3.842  0.0796 -0.1168 -0.3774
11318TIP3    H133899   0.681   7.231   3.823  0.7635  0.7387  0.4876
11318TIP3    H233900   0.600   7.352   3.785 -1.4085 -1.4632 -2.3702
11319TIP3   OH233901   1.450   3.701   6.762  0.3602 -0.2633  0.0336
11319TIP3    H133902   1.502   3.656   6.696 -1.8794 -1.7775 -0.8531
11319TIP3    H233903   1.376   3.738   6.714 -0.7706 -0.4730  1.4953
11320TIP3   OH233904   2.649   0.772   6.009 -0.4327 -0.8233  0.4306
11320TIP3    H133905   2.641   0.866   5.993 -1.4329 -1.0661 -0.6878
11320TIP3    H233906   2.586   0.732   5.949  2.6375 -2.4654 -2.0524
11321TIP3   OH233907   1.043   7.454   1.681 -0.3991 -0.3674 -0.1879
11321TIP3    H133908   1.014   7.531   1.731 -1.5760  0.1593 -1.5783
11321TIP3    H233909   1.016   7.379   1.734 -2.2692  0.1624 -0.3155
11322TIP3   OH233910   5.207   3.925   1.968 -0.4368 -0.1219  0.1806
11322TIP3    H133911   5.286   3.949   2.017 -0.4241  1.8065 -0.7154
11322TIP3    H233912   5.209   3.829   1.966  0.9315 -0.1799  1.6777
11323TIP3   OH233913   5.156   0.245   0.779  0.0648 -0.2753  0.2553
11323TIP3    H133914   5.104   0.259   0.857  0.5331 -0.6954  0.6477
11323TIP3    H233915   5.151   0.328   0.731  1.4595  0.7338  1.7446
11324TIP3   OH233916   2.750   3.458   0.810 -0.1170 -0.7954  0.2525
11324TIP3    H133917   2.762   3.383   0.868 -1.3661 -0.5451  0.8583
11324TIP3    H233918   2.689   3.515   0.856  0.2364  0.2494 -0.5311
11325TIP3   OH233919   4.332   4.029   2.261 -0.2500 -0.4121 -0.2969
11325TIP3    H133920   4.313   3.989   2.346  1.4651 -0.5710  0.0418
11325TIP3    H233921   4.262   4.093   2.249  0.0518  0.3763  1.7496
11326TIP3   OH233922   6.893   1.883   1.655  0.3597 -0.1068  0.2947
11326TIP3    H133923   6.848   1.910   1.735 -2.0688 -2.2004 -0.2337
11326TIP3    H233924   6.967   1.830   1.686 -0.0529 -0.1899  1.1684
11327TIP3   OH233925   5.795   1.258   4.641 -0.2451 -0.0160 -0.4327
11327TIP3    H133926   5.876   1.262   4.693 -0.2799 -1.0892 -0.2764
11327TIP3    H233927   5.756   1.174   4.664 -1.9942  0.9609  0.3295
11328TIP3   OH233928   2.471   3.118   1.582 -0.3290 -0.5643  0.2968
11328TIP3    H133929   2.416   3.159   1.650  0.3981 -0.5606  0.9010
11328TIP3    H233930   2.469   3.024   1.603  0.0822 -0.5369  0.4618
11329TIP3   OH233931   6.545   5.213   6.050 -0.0840 -0.1001  0.3033
11329TIP3    H133932   6.559   5.296   6.005  1.0824 -0.9565 -1.0077
11329TIP3    H233933   6.586   5.226   6.136 -1.8821  1.3801  1.0042
11330TIP3   OH233934   6.224   1.458   2.273 -0.7302  0.2781 -0.0380
11330TIP3    H133935   6.265   1.468   2.187 -0.3152  1.8216  0.3161
11330TIP3    H233936   6.214   1.547   2.306 -0.8433 -0.2843  1.5444
11331TIP3   OH233937   1.755   0.109   4.804  0.3802  0.0638  0.7297
11331TIP3    H133938   1.815   0.179   4.777 -0.0069  0.7167  1.5286
11331TIP3    H233939   1.763   0.043   4.735  0.7510  0.8932 -0.0411
11332TIP3   OH233940   6.435   1.101   5.656  0.0549  0.2461 -0.2290
11332TIP3    H133941   6.490   1.095   5.578  2.8072 -0.9414  1.6637
11332TIP3    H233942   6.460   1.183   5.697 -0.1667  0.0743  0.2498
11333TIP3   OH233943   3.812   0.852   0.780 -0.0413 -0.2348 -0.1899
11333TIP3    H133944   3.719   0.861   0.758 -0.1791 -0.6300  0.2080
11333TIP3    H233945   3.826   0.918   0.848 -0.0590 -0.2464 -0.1748
11334TIP3   OH233946   6.519   5.747   2.390 -0.6787 -0.2439 -0.4028
11334TIP3    H133947   6.503   5.777   2.479  0.8550 -2.0525  0.5368
11334TIP3    H233948   6.561   5.822   2.347 -1.8188  0.7961  0.2263
11335TIP3   OH233949   1.257   3.857   3.282 -0.0380 -0.4905  0.6141
11335TIP3    H133950   1.318   3.920   3.243 -0.8419 -0.9481 -1.5622
11335TIP3    H233951   1.170   3.893   3.262 -0.5198 -0.4158  2.6748
11336TIP3   OH233952   4.402   0.148   6.573  0.0679  0.6823  0.1416
11336TIP3    H133953   4.466   0.145   6.644  1.7788  3.2586 -1.1135
11336TIP3    H233954   4.455   0.158   6.494 -1.8449  0.8128 -1.1884
11337TIP3   OH233955   5.599   0.994   3.132 -0.4065 -0.1164 -0.5563
11337TIP3    H133956   5.588   1.038   3.048 -0.6768 -0.3080 -0.6218
11337TIP3    H233957   5.676   1.036   3.171  0.1222 -0.4914 -1.1942
11338TIP3   OH233958   2.332   1.398   5.220 -0.2472 -0.5283 -0.1613
11338TIP3    H133959   2.402   1.371   5.280  0.5209  0.9527 -0.3530
11338TIP3    H233960   2.289   1.316   5.196  2.0600 -1.6477 -0.8351
11339TIP3   OH233961   1.477   2.279   5.188  0.1631 -0.1618  0.1730
11339TIP3    H133962   1.536   2.203   5.183 -2.1666 -2.0280 -0.4273
11339TIP3    H233963   1.519   2.337   5.252  1.9582 -2.0037  0.7807
11340TIP3   OH233964   4.912   3.123   3.715  0.4077  0.3575  0.0160
11340TIP3    H133965   4.973   3.195   3.703 -1.4228  2.1282  0.8407
11340TIP3    H233966   4.846   3.156   3.775 -1.5921 -1.3107 -1.1099
11341TIP3   OH233967   1.854   6.668   2.567  0.2182  0.1552  0.7174
11341TIP3    H133968   1.947   6.649   2.583  0.3083  0.2918  0.3694
11341TIP3    H233969   1.838   6.633   2.479  0.2656  1.2766  0.2528
11342TIP3   OH233970   3.035   4.907   1.836 -0.0093  0.1417  0.4036
11342TIP3    H133971   3.025   4.979   1.898 -2.6302  0.7551 -0.6050
11342TIP3    H233972   3.019   4.828   1.888  1.3771  0.3505  1.1944
11343TIP3   OH233973   4.972   3.688   5.601 -0.1369 -0.4565  0.3897
11343TIP3    H133974   5.020   3.650   5.528 -0.0398  0.4836 -0.0593
11343TIP3    H233975   4.885   3.649   5.595 -0.6042  0.7279 -1.1794
11344TIP3   OH233976   4.253   6.754   6.207 -0.3589 -0.1264 -0.4316
11344TIP3    H133977   4.343   6.721   6.197 -0.0708  0.0773  1.2906
11344TIP3    H233978   4.240   6.761   6.301 -3.0195 -2.3856 -0.5112
11345TIP3   OH233979   0.430   2.354   4.209  0.0431  0.6438 -0.3521
11345TIP3    H133980   0.381   2.302   4.273 -0.2522 -0.2874 -1.3002
11345TIP3    H233981   0.487   2.290   4.165  1.4661  1.5572  0.1171
11346TIP3   OH233982   5.082   4.711   5.956 -0.0523 -0.1466  0.2155
11346TIP3    H133983   5.162   4.722   5.905 -1.5507  2.1599 -1.8413
11346TIP3    H233984   5.099   4.758   6.038  0.6594  0.3847 -0.2294
11347TIP3   OH233985   0.497   4.465   1.056 -0.5808 -0.3026 -0.2997
11347TIP3    H133986   0.467   4.482   1.145 -1.0597 -1.5380 -0.1981
11347TIP3    H233987   0.573   4.407   1.067 -0.2603  0.0325 -0.6810
11348TIP3   OH233988   7.752   2.708   2.404  0.4145 -0.1130 -0.0077
11348TIP3    H133989   7.717   2.769   2.339  0.2491  0.4968  0.6260
11348TIP3    H233990   7.760   2.625   2.358 -1.3977 -0.1507 -0.3184
11349TIP3   OH233991   0.881   1.171   1.578  0.3349 -0.5907 -0.6460
11349TIP3    H133992   0.962   1.123   1.560  1.1334  0.9472 -1.3478
11349TIP3    H233993   0.813   1.123   1.530  1.1455 -0.8837 -1.5230
11350TIP3   OH233994   4.836   0.889   6.166  0.1095  0.8536 -0.5492
11350TIP3    H133995   4.780   0.951   6.119  0.4667  0.9051 -0.9099
11350TIP3    H233996   4.901   0.943   6.210 -1.6370  1.0300  2.0452
11351TIP3   OH233997   2.067   2.477   3.616 -0.5529  0.3663  0.3582
11351TIP3    H133998   2.009   2.426   3.560 -0.3697  1.9580 -1.3966
11351TIP3    H233999   2.127   2.520   3.555  1.4342  0.0774  1.9940
11352TIP3   OH234000   1.399   1.118   4.698 -0.3637  0.2424 -0.1453
11352TIP3    H134001   1.378   1.026   4.717 -0.8880  0.3866  0.0108
11352TIP3    H234002   1.448   1.148   4.775  2.2700 -0.6549 -1.3613
11353TIP3   OH234003   2.212   2.126   1.701 -0.1776 -0.0484 -0.2624
11353TIP3    H134004   2.145   2.179   1.746  0.0206 -0.2786  0.3198
11353TIP3    H234005   2.163   2.052   1.664 -0.2249 -0.3408  0.3632
11354TIP3   OH234006   3.230   2.659   1.930  0.2671 -0.2347 -0.5077
11354TIP3    H134007   3.284   2.662   1.851  0.8758 -0.0724 -0.0934
11354TIP3    H234008   3.248   2.574   1.969 -1.0129 -0.8427 -1.2098
11355TIP3   OH234009   3.267   1.096   4.027  0.2070 -0.1472 -0.4666
11355TIP3    H134010   3.349   1.146   4.036 -0.3890  0.8925 -0.6195
11355TIP3    H234011   3.203   1.145   4.079 -0.4734 -0.5793 -0.8809
11356TIP3   OH234012   0.143   0.804   0.166 -0.0125 -0.3241 -0.1704
11356TIP3    H134013   0.144   0.774   0.075  0.3894  1.7928 -0.9258
11356TIP3    H234014   0.119   0.897   0.160 -1.1386 -0.4163  1.9929
11357TIP3   OH234015   0.364   4.690   5.733  0.2314  0.3337  0.2838
11357TIP3    H134016   0.383   4.602   5.767 -0.8294  0.2641  0.7381
11357TIP3    H234017   0.363   4.679   5.638  0.1511 -0.1355  0.3365
11358TIP3   OH234018   7.842   6.925   3.949 -0.0355 -0.1267  0.5451
11358TIP3    H134019   7.874   7.004   3.992  0.8070 -0.8896  1.3839
11358TIP3    H234020   7.775   6.891   4.009  0.2658 -0.5337  0.6592
11359TIP3   OH234021   5.018   4.234   1.433  0.2378  0.1486  0.0536
11359TIP3    H134022   5.012   4.312   1.378 -1.7586 -0.3566 -0.5331
11359TIP3    H234023   5.033   4.162   1.371 -2.6432 -0.5132 -0.0402
11360TIP3   OH234024   2.146   1.242   1.879 -0.0891  0.3130 -0.1170
11360TIP3    H134025   2.060   1.220   1.915 -0.4571 -0.6663 -1.4973
11360TIP3    H234026   2.153   1.337   1.889 -0.1427  0.1115  2.4600
11361TIP3   OH234027   2.151   3.021   6.496 -0.6014 -1.1307  0.4824
11361TIP3    H134028   2.176   3.087   6.560  0.0665 -0.9256  0.0194
11361TIP3    H234029   2.092   2.963   6.543 -0.9473 -0.3841  0.9861
11362TIP3   OH234030   7.192   7.512   5.529 -0.1164 -0.1055  0.4404
11362TIP3    H134031   7.233   7.542   5.448 -2.9256 -1.8494 -1.8532
11362TIP3    H234032   7.196   7.417   5.525 -0.7999 -0.2417  2.1013
11363TIP3   OH234033   6.138   6.035   5.036 -0.4268  0.6407 -0.2110
11363TIP3    H134034   6.228   6.047   5.007 -0.0505  0.5667  0.9089
11363TIP3    H234035   6.101   6.123   5.038  0.3476  0.9629  1.6068
11364TIP3   OH234036   1.897   6.645   5.782  0.4089  0.3258 -0.0137
11364TIP3    H134037   1.989   6.620   5.785  0.6172  0.3872 -3.0333
11364TIP3    H234038   1.859   6.589   5.715 -1.6351  0.7799  0.6948
11365TIP3   OH234039   6.314   3.161   0.577 -0.0987 -0.2596 -0.4619
11365TIP3    H134040   6.281   3.078   0.544 -1.7888  0.5338 -0.9230
11365TIP3    H234041   6.351   3.205   0.501  0.2015 -0.3201 -0.3519
11366TIP3   OH234042   6.261   4.636   6.743 -0.7483  0.2073  0.7004
11366TIP3    H134043   6.202   4.563   6.724 -0.7744  0.4936 -0.3826
11366TIP3    H234044   6.332   4.596   6.794 -0.6617 -0.6324 -0.0455
11367TIP3   OH234045   4.141   0.648   6.073 -0.3177 -0.1072 -0.2524
11367TIP3    H134046   4.051   0.628   6.098  0.1191 -1.4265  0.3653
11367TIP3    H234047   4.171   0.569   6.028  0.0735  0.8680 -1.7905
11368TIP3   OH234048   1.195   2.968   2.725 -0.5177  0.1596  0.1223
11368TIP3    H134049   1.213   2.931   2.812  0.4558  2.0365  0.7676
11368TIP3    H234050   1.194   3.062   2.739  1.8628  0.6346 -2.2947
11369TIP3   OH234051   2.471   7.038   3.831 -0.3076 -0.0122 -0.1847
11369TIP3    H134052   2.534   7.088   3.779  0.4252 -1.5560 -0.8695
11369TIP3    H234053   2.521   7.007   3.906 -0.4022 -0.7136 -0.3988
11370TIP3   OH234054   7.524   3.938   4.512  0.4174  0.5597 -0.1455
11370TIP3    H134055   7.559   4.026   4.495 -1.5984  0.9532 -3.0062
11370TIP3    H234056   7.528   3.894   4.428 -1.5965 -0.9564  0.4762
11371TIP3   OH234057   0.966   1.282   5.172 -0.9172  0.1425 -0.4888
11371TIP3    H134058   0.925   1.250   5.092  0.9290 -1.0754 -1.0250
11371TIP3    H234059   1.060   1.271   5.156 -0.3444  2.5849  0.7319
11372TIP3   OH234060   1.214   4.913   2.253 -0.7703 -0.2656 -0.2848
11372TIP3    H134061   1.179   4.969   2.322  1.6998 -0.2104  1.0217
11372TIP3    H234062   1.169   4.942   2.173  0.4314  3.6727  0.2680
11373TIP3   OH234063   6.674   0.069   3.680 -0.2619 -0.3963  0.0177
11373TIP3    H134064   6.604   0.044   3.741 -0.1217  1.5167  1.0362
11373TIP3    H234065   6.638   0.145   3.633  1.3024  0.9798  0.9558
11374TIP3   OH234066   4.982   6.665   1.728  0.1292  0.3311  0.1703
11374TIP3    H134067   4.997   6.682   1.635 -1.9802  0.3229 -0.2136
11374TIP3    H234068   4.955   6.573   1.731 -0.1702  0.4346  0.7412
11375TIP3   OH234069   4.335   1.539   1.899 -0.6123 -0.2141 -0.3549
11375TIP3    H134070   4.314   1.446   1.894 -0.8867 -0.1043 -1.6930
11375TIP3    H234071   4.365   1.562   1.811  1.6628  0.4654  0.5241
11376TIP3   OH234072   0.105   3.366   2.753 -0.3670  0.2548 -0.5665
11376TIP3    H134073   0.145   3.288   2.714  1.0150  0.8788 -0.4351
11376TIP3    H234074   0.069   3.414   2.679 -0.9959 -0.3546 -0.6753
11377TIP3   OH234075   1.939   1.714   4.546 -0.7690 -0.3225 -0.0530
11377TIP3    H134076   1.921   1.624   4.573  0.6454 -1.1620 -1.6823
11377TIP3    H234077   2.008   1.743   4.605 -0.7977 -0.5373  0.0881
11378TIP3   OH234078   3.499   0.043   3.610 -0.7771 -0.1735  0.5472
11378TIP3    H134079   3.434  -0.018   3.646 -0.9093  1.2115  2.8090
11378TIP3    H234080   3.560   0.059   3.682 -0.1033  1.5166 -0.3472
11379TIP3   OH234081   0.242   2.604   1.415  0.0615  0.2276  0.2647
11379TIP3    H134082   0.211   2.635   1.501  1.2817 -1.6784  1.4784
11379TIP3    H234083   0.328   2.646   1.404  0.6817 -0.8688  0.8216
11380TIP3   OH234084   6.042   3.247   3.334  0.3342  0.1343 -0.2093
11380TIP3    H134085   6.096   3.325   3.341 -0.6437  1.0474 -1.9734
11380TIP3    H234086   6.093   3.178   3.376  0.5572  1.9836  2.8042
11381TIP3   OH234087   7.697   5.467   3.147 -0.0390  0.0819 -0.8556
11381TIP3    H134088   7.719   5.518   3.224  0.3136  0.6830 -1.3438
11381TIP3    H234089   7.689   5.377   3.179  0.6667  0.2363 -0.2186
11382TIP3   OH234090   2.151   0.443   2.581  0.3341 -0.0533 -0.0723
11382TIP3    H134091   2.180   0.387   2.653 -0.0082  0.2763  0.3322
11382TIP3    H234092   2.228   0.455   2.526  1.4109  2.0105  1.7484
11383TIP3   OH234093   0.715   1.825   5.335 -0.1815  0.2368  0.0201
11383TIP3    H134094   0.748   1.786   5.254 -1.7108  1.3728 -1.2058
11383TIP3    H234095   0.676   1.752   5.382 -0.2781 -0.2533 -0.8012
11384TIP3   OH234096   0.329   4.984   3.821 -0.0641  0.1317  0.0946
11384TIP3    H134097   0.280   4.927   3.762  1.5276 -1.5330  0.2583
11384TIP3    H234098   0.350   5.061   3.769 -2.0841  0.5286 -0.2107
11385TIP3   OH234099   7.209   4.628   2.412  0.3810 -0.6224  0.0463
11385TIP3    H134100   7.194   4.650   2.320 -0.1905  0.9358  0.4944
11385TIP3    H234101   7.222   4.712   2.455 -0.5689 -1.2467  1.6107
11386TIP3   OH234102   3.775   4.103   0.496 -0.4019 -0.4130  1.2421
11386TIP3    H134103   3.774   4.194   0.527 -0.6945 -0.4753  1.4239
11386TIP3    H234104   3.734   4.106   0.410  1.3970 -0.0699  0.3503
11387TIP3   OH234105   6.362   6.271   1.267 -0.5803  0.2375  0.6092
11387TIP3    H134106   6.349   6.301   1.357  2.4857 -2.4354  2.1459
11387TIP3    H234107   6.342   6.178   1.270  0.5731 -0.1178 -1.2285
11388TIP3   OH234108   0.293   7.274   4.125 -0.1410 -0.4654 -0.5831
11388TIP3    H134109   0.320   7.189   4.089 -0.7516 -0.6697 -0.5766
11388TIP3    H234110   0.356   7.291   4.195 -0.9733 -1.7041  0.5134
11389TIP3   OH234111   5.799   4.936   5.685  0.1403 -0.3937  0.0077
11389TIP3    H134112   5.778   4.951   5.778 -5.3444 -0.0273 -0.9233
11389TIP3    H234113   5.810   4.841   5.678  1.5058 -0.3516  1.0657
11390TIP3   OH234114   0.498   3.237   4.459 -0.1887 -0.1816 -0.0875
11390TIP3    H134115   0.520   3.228   4.366  1.6576 -0.2871  0.3364
11390TIP3    H234116   0.565   3.188   4.505 -0.8773  0.1669  1.3456
11391TIP3   OH234117   4.215   7.123   5.221 -0.1989  0.1365  0.2616
11391TIP3    H134118   4.177   7.044   5.260  1.3056 -1.9192 -2.1354
11391TIP3    H234119   4.139   7.176   5.196 -1.2954 -1.0002  1.0313
11392TIP3   OH234120   6.103   5.364   2.048 -0.4289  0.0791  0.1355
11392TIP3    H134121   6.165   5.295   2.069  0.9841  0.5801 -2.0757
11392TIP3    H234122   6.071   5.395   2.133  0.3061 -1.9834  1.2245
11393TIP3   OH234123   6.946   2.920   2.366  0.1417  0.1589 -0.5170
11393TIP3    H134124   7.029   2.940   2.410  0.5685 -0.1755 -1.1614
11393TIP3    H234125   6.890   2.995   2.387 -0.7234 -1.2965  3.0902
11394TIP3   OH234126   0.051   5.301   1.960  0.2934 -0.0624  0.1589
11394TIP3    H134127  -0.040   5.330   1.949 -0.5370 -2.2421  0.7227
11394TIP3    H234128   0.066   5.307   2.055  1.1457  1.3129 -0.0365
11395TIP3   OH234129   0.463   5.304   2.002  0.1157  0.1324  0.0838
11395TIP3    H134130   0.496   5.234   2.057 -1.8551 -1.0884 -0.1733
11395TIP3    H234131   0.540   5.355   1.979  1.4286 -1.1735  1.3554
11396TIP3   OH234132   3.084   3.591   5.748 -0.1595 -0.0773  0.2246
11396TIP3    H134133   3.134   3.587   5.829 -0.1838 -1.8756  0.1731
11396TIP3    H234134   2.994   3.572   5.774  0.2099 -3.4029 -0.4822
11397TIP3   OH234135   1.245   5.785   6.500 -0.1107  0.0909  0.1239
11397TIP3    H134136   1.231   5.854   6.436  0.0558  1.1792  1.2249
11397TIP3    H234137   1.164   5.734   6.499 -0.9533  1.3750  0.5589
11398TIP3   OH234138   5.584   2.526   6.036  0.0273  0.3232 -0.4341
11398TIP3    H134139   5.680   2.528   6.043 -0.0197  0.7777  0.1230
11398TIP3    H234140   5.568   2.482   5.953  0.7406  0.9010 -0.9005
11399TIP3   OH234141   2.882   5.061   6.238  0.1328  0.5241 -0.1617
11399TIP3    H134142   2.845   5.146   6.217 -1.0199  0.0557 -0.0914
11399TIP3    H234143   2.880   5.013   6.155 -2.7518 -0.7029  0.4767
11400TIP3   OH234144   1.310   6.034   3.486  0.2283  0.2018 -0.1269
11400TIP3    H134145   1.263   6.117   3.476 -1.6700 -0.7115  0.7484
11400TIP3    H234146   1.361   6.045   3.566 -0.7269  0.2425  0.4966
11401TIP3   OH234147   1.459   2.974   3.213  0.3986 -0.1113 -0.1816
11401TIP3    H134148   1.486   3.057   3.172 -0.6671 -0.3877 -1.5426
11401TIP3    H234149   1.367   2.988   3.235  0.6627 -0.3750  1.1241
11402TIP3   OH234150   6.210   6.622   3.290 -0.0246 -0.0734  0.1109
11402TIP3    H134151   6.134   6.611   3.233  0.7564 -2.3587 -0.6131
11402TIP3    H234152   6.277   6.564   3.252  0.9812 -0.6680  2.5700
11403TIP3   OH234153   4.631   4.855   3.742 -0.2494  0.3870 -0.0850
11403TIP3    H134154   4.725   4.851   3.722 -0.1144 -0.1353  0.5928
11403TIP3    H234155   4.623   4.928   3.803 -0.2270  0.2334  0.1051
11404TIP3   OH234156   8.107   0.604   5.594 -0.3533  0.1579  0.1675
11404TIP3    H134157   8.083   0.513   5.577 -0.4350  0.0486  0.8637
11404TIP3    H234158   8.090   0.648   5.511 -3.1239  0.1408  0.6456
11405TIP3   OH234159   0.202   4.379   4.225  0.3930 -0.4063 -0.6512
11405TIP3    H134160   0.197   4.404   4.133 -0.6835  1.7494 -0.0759
11405TIP3    H234161   0.111   4.374   4.253  0.6715  1.8494  0.9514
11406TIP3   OH234162   6.780   0.366   1.502  0.3416 -0.2886  0.0768
11406TIP3    H134163   6.867   0.335   1.526  0.2753 -1.0938 -0.6569
11406TIP3    H234164   6.754   0.309   1.429 -0.5645  0.3073 -0.0784
11407TIP3   OH234165   7.637   7.402   1.750 -0.3375 -0.3515  0.0704
11407TIP3    H134166   7.646   7.464   1.677  1.6480 -0.5076  0.1217
11407TIP3    H234167   7.597   7.454   1.820 -0.0959  0.4691 -0.3774
11408TIP3   OH234168   0.403   0.022   3.059 -0.0022  0.6089  0.3804
11408TIP3    H134169   0.430  -0.031   3.134  1.0161  2.3406  1.3130
11408TIP3    H234170   0.341   0.086   3.095 -1.1216  0.1622 -0.6859
11409TIP3   OH234171   0.241   1.753   3.136 -0.0125  0.2986 -0.2813
11409TIP3    H134172   0.229   1.841   3.101 -0.5999  0.2923 -0.1049
11409TIP3    H234173   0.287   1.706   3.066  0.5372  0.8117 -0.2720
11410TIP3   OH234174   1.730   4.710   3.912 -1.1378  0.1311  0.6943
11410TIP3    H134175   1.691   4.785   3.868  0.8245  0.8896  0.1767
11410TIP3    H234176   1.655   4.659   3.944 -2.5582  0.9492 -1.1839
11411TIP3   OH234177   0.331   0.887   2.407  0.3364 -0.4746 -0.1042
11411TIP3    H134178   0.334   0.880   2.503  1.3575 -1.4586 -0.1838
11411TIP3    H234179   0.246   0.850   2.383  0.0643 -0.1972  0.4289
11412TIP3   OH234180   2.416   6.168   3.476 -0.0750 -0.5385  0.6327
11412TIP3    H134181   2.390   6.086   3.517 -0.3430  0.5850  2.9043
11412TIP3    H234182   2.406   6.234   3.545  0.6507  1.3303 -0.9239
11413TIP3   OH234183   2.848   1.859   3.318  0.2499  0.6486 -0.1062
11413TIP3    H134184   2.916   1.924   3.335 -0.4533  1.0544  1.2926
11413TIP3    H234185   2.885   1.803   3.251  1.1374  2.0983 -0.8883
11414TIP3   OH234186   5.109   5.631   0.075 -0.3869 -0.6202 -0.2662
11414TIP3    H134187   5.091   5.681  -0.004 -0.5793 -1.2102 -0.6041
11414TIP3    H234188   5.071   5.683   0.146 -0.5762 -0.2880 -0.6060
11415TIP3   OH234189   4.324   0.525   2.386 -0.4505 -0.0275  0.2751
11415TIP3    H134190   4.371   0.591   2.336 -1.0535 -1.5534 -2.5397
11415TIP3    H234191   4.321   0.449   2.329  0.0412 -2.5007  3.2560
11416TIP3   OH234192   8.098   3.950   1.149 -0.1339  0.0825 -0.3876
11416TIP3    H134193   8.135   4.037   1.162 -0.9309  0.5149 -0.9099
11416TIP3    H234194   8.018   3.950   1.202  0.2798 -0.6173  0.2468
11417TIP3   OH234195   6.632   2.409   4.072  0.8419 -0.3734 -0.3665
11417TIP3    H134196   6.663   2.420   3.982  1.9469 -2.2559 -0.2683
11417TIP3    H234197   6.651   2.318   4.094  0.9283  0.1152  1.9143
11418TIP3   OH234198   5.510   6.672   4.927  0.0937 -0.0062 -0.2628
11418TIP3    H134199   5.436   6.611   4.930  2.0274 -2.5785 -0.9670
11418TIP3    H234200   5.511   6.704   4.837 -0.4468  0.4632 -0.1092
11419TIP3   OH234201   4.191   0.019   5.089  0.4974  0.1867  0.0226
11419TIP3    H134202   4.126  -0.041   5.051 -0.1010 -0.3379  1.7631
11419TIP3    H234203   4.218   0.075   5.016  1.0245 -2.1185 -1.6724
11420TIP3   OH234204   7.144   2.725   6.413  0.0744  0.6475  0.1809
11420TIP3    H134205   7.187   2.704   6.496  0.1854 -1.4574 -0.3481
11420TIP3    H234206   7.081   2.654   6.400  2.0796 -0.7758 -2.8903
11421TIP3   OH234207   5.178   3.968   4.401  0.4444 -0.4740 -0.3503
11421TIP3    H134208   5.245   3.980   4.335  0.8665 -2.1537 -0.2937
11421TIP3    H234209   5.123   3.897   4.367  0.5646 -1.2512  0.9778
11422TIP3   OH234210   6.032   1.291   0.811 -0.2917 -0.1372 -0.3639
11422TIP3    H134211   6.074   1.376   0.814 -2.5283  1.0727 -1.0982
11422TIP3    H234212   6.041   1.261   0.721  0.0723 -0.4757 -0.2208
11423TIP3   OH234213   2.077   2.171   0.144  0.0832 -0.3234 -0.3346
11423TIP3    H134214   2.067   2.085   0.186 -0.0439  0.1914  0.7300
11423TIP3    H234215   2.003   2.222   0.175 -0.2914 -0.0564 -1.6028
11424TIP3   OH234216   1.966   7.736   6.331 -0.1268 -0.2341 -0.4383
11424TIP3    H134217   1.938   7.828   6.332  2.9285  0.8244 -0.3316
11424TIP3    H234218   1.955   7.708   6.240 -1.3236  0.1374 -0.4196
11425TIP3   OH234219   6.640   1.677   5.288  0.3552 -0.3516  0.3699
11425TIP3    H134220   6.611   1.593   5.325  0.9808 -1.8887 -2.3386
11425TIP3    H234221   6.605   1.677   5.199  0.8610  2.0381  0.1112
11426TIP3   OH234222   4.150   2.553   1.701 -0.0849  0.5441 -0.3204
11426TIP3    H134223   4.213   2.513   1.641 -0.9195  0.5526 -1.2357
11426TIP3    H234224   4.073   2.570   1.647 -0.2541  2.1434  0.3549
11427TIP3   OH234225   5.888   0.716   0.247 -0.4565  0.2029 -0.0223
11427TIP3    H134226   5.956   0.660   0.210 -1.4100  0.1741 -1.8519
11427TIP3    H234227   5.895   0.798   0.199 -1.0066  0.5766  0.5192
11428TIP3   OH234228   0.792   1.066   2.476 -0.1733  0.2463 -0.3113
11428TIP3    H134229   0.768   1.153   2.507  0.1285 -0.1170  1.0208
11428TIP3    H234230   0.739   1.006   2.530  1.6553 -0.4720  0.7849
11429TIP3   OH234231   1.932   1.745   0.873  0.2667  0.6800 -0.0020
11429TIP3    H134232   2.016   1.782   0.900  0.3424 -0.6715  1.7969
11429TIP3    H234233   1.869   1.779   0.937 -0.0335 -0.5222  0.3789
11430TIP3   OH234234   4.422   6.582   0.189 -0.3346 -0.1509 -0.2478
11430TIP3    H134235   4.450   6.505   0.139  0.6801  1.0285 -1.5616
11430TIP3    H234236   4.488   6.592   0.257 -1.0743 -1.0610  0.6357
11431TIP3   OH234237   0.654   6.380   5.897  0.0357 -0.2272  0.5139
11431TIP3    H134238   0.685   6.436   5.968  2.9397 -1.1694  0.1582
11431TIP3    H234239   0.646   6.439   5.822 -2.3020  0.6297  1.3539
11432TIP3   OH234240   8.022   6.463   2.871  0.6262  0.3138  0.2312
11432TIP3    H134241   8.066   6.515   2.939  1.6885  0.4512 -0.5398
11432TIP3    H234242   8.044   6.507   2.789 -0.7144  0.1998 -0.2149
11433TIP3   OH234243   7.124   6.469   1.987  0.4127 -0.2802 -0.6071
11433TIP3    H134244   7.185   6.429   2.048 -0.1806  1.0761  0.9642
11433TIP3    H234245   7.164   6.457   1.901  2.5365 -0.0648  0.2987
11434TIP3   OH234246   5.345   2.737   3.032 -0.1486 -0.0790 -0.1804
11434TIP3    H134247   5.398   2.736   2.953 -0.0770 -0.3289 -0.1278
11434TIP3    H234248   5.270   2.681   3.013 -1.1049  1.3338 -0.7412
11435TIP3   OH234249   4.166   0.064   5.866  0.2043  0.1251  0.0690
11435TIP3    H134250   4.132   0.024   5.946  0.6599  0.1313  0.2704
11435TIP3    H234251   4.242   0.011   5.844  0.8774  0.9248  0.3928
11436TIP3   OH234252   7.988   3.512   0.289 -0.4454 -0.4959 -0.0479
11436TIP3    H134253   7.912   3.521   0.232 -0.3661 -0.5188 -0.1564
11436TIP3    H234254   8.002   3.600   0.324 -0.8472 -0.6035  0.3884
11437TIP3   OH234255   0.910   4.882   1.013  0.2712 -0.1436 -0.4276
11437TIP3    H134256   0.975   4.831   0.965  0.1828 -0.3220 -0.3584
11437TIP3    H234257   0.874   4.821   1.077  2.1847  0.7526  1.6200
11438TIP3   OH234258   5.890   4.378   4.967  0.5918  0.6872  0.0820
11438TIP3    H134259   5.916   4.319   5.038 -0.5697 -1.2373 -1.0084
11438TIP3    H234260   5.970   4.393   4.918  0.7370 -0.8442 -0.1997
11439TIP3   OH234261   3.462   5.889   0.231 -0.1188 -0.0869 -0.1624
11439TIP3    H134262   3.552   5.892   0.200  0.0240 -0.7483  0.1758
11439TIP3    H234263   3.468   5.860   0.322 -0.7459 -1.5434 -0.5520
11440TIP3   OH234264   4.867   4.475   4.311 -0.3573 -0.5006 -0.4455
11440TIP3    H134265   4.803   4.544   4.332  0.3028 -0.1517  0.5057
11440TIP3    H234266   4.814   4.403   4.276 -1.2789 -0.2070  0.2974
11441TIP3   OH234267   1.219   1.634   6.327 -0.2460  0.3040 -0.0823
11441TIP3    H134268   1.259   1.644   6.240 -0.1792 -2.4834 -0.4518
11441TIP3    H234269   1.226   1.721   6.366  2.0728  1.0412 -1.8742
11442TIP3   OH234270   7.854   3.831   3.782  0.2448  0.5540 -0.3246
11442TIP3    H134271   7.900   3.907   3.818 -0.8399  0.7648  0.6979
11442TIP3    H234272   7.913   3.757   3.797  0.9044  1.0542 -0.4606
11443TIP3   OH234273   7.355   6.396   6.552 -0.1970 -0.5942  0.0865
11443TIP3    H134274   7.403   6.374   6.472  0.7235 -2.1797  1.0221
11443TIP3    H234275   7.272   6.431   6.521  0.4273 -0.4773 -1.5620
11444TIP3   OH234276   0.940   7.013   5.220 -0.3206  0.5469 -0.2612
11444TIP3    H134277   0.921   7.042   5.309  0.2571  1.1555 -0.3299
11444TIP3    H234278   0.855   6.987   5.185 -0.3174 -1.3587  1.0343
11445TIP3   OH234279   5.073   0.166   6.476  0.2140 -0.4076 -0.1195
11445TIP3    H134280   5.162   0.175   6.444  0.6941  0.1164  1.3188
11445TIP3    H234281   5.068   0.223   6.552 -1.3736 -0.3846 -0.1985
11446TIP3   OH234282   6.767   1.547   1.803 -0.3654 -0.5346 -0.1897
11446TIP3    H134283   6.750   1.586   1.717  1.6333 -0.9921 -0.8443
11446TIP3    H234284   6.744   1.617   1.865 -3.5723 -0.7716 -0.8890
11447TIP3   OH234285   7.972   4.453   4.693 -0.5907 -0.1970 -0.2062
11447TIP3    H134286   7.924   4.384   4.738  0.3776  1.0802  3.0880
11447TIP3    H234287   8.055   4.412   4.669 -0.3565 -0.4345  0.9554
11448TIP3   OH234288   1.332   3.254   6.190 -0.9470  0.2254  0.3898
11448TIP3    H134289   1.358   3.167   6.158  1.3442  1.6972 -2.1803
11448TIP3    H234290   1.399   3.278   6.253 -1.0106  0.5311  0.3429
11449TIP3   OH234291   2.601   1.325   4.162  0.1291 -0.3173  0.0509
11449TIP3    H134292   2.635   1.407   4.197 -1.1778  0.8135 -1.1732
11449TIP3    H234293   2.528   1.301   4.220 -1.1871  0.8504 -1.0440
11450TIP3   OH234294   5.106   7.365   6.325  0.3647 -0.1133 -0.5956
11450TIP3    H134295   5.175   7.299   6.322 -0.9748 -1.6660  0.8964
11450TIP3    H234296   5.039   7.327   6.381 -1.4744  1.5758 -1.5457
11451TIP3   OH234297   1.728   1.541   5.333  0.0312  0.3437  0.2164
11451TIP3    H134298   1.723   1.446   5.345 -0.9193  0.6458  2.9657
11451TIP3    H234299   1.822   1.560   5.333  0.4887 -0.8255 -4.1169
11452TIP3   OH234300   2.871   7.251   4.318 -0.1508  0.0690  0.5866
11452TIP3    H134301   2.829   7.175   4.360  0.1642  1.6220  4.0254
11452TIP3    H234302   2.809   7.322   4.328 -1.2153  0.1590 -4.1424
11453TIP3   OH234303   0.694   0.497   2.977 -0.2013 -0.3227 -0.7398
11453TIP3    H134304   0.744   0.543   2.909 -0.0916  0.2227 -0.2964
11453TIP3    H234305   0.722   0.537   3.059  0.1775 -1.4432 -0.2992
11454TIP3   OH234306   5.492   7.248   3.171 -0.2514  0.6363  0.1358
11454TIP3    H134307   5.425   7.314   3.190  1.9079  2.9603  0.1664
11454TIP3    H234308   5.549   7.249   3.247  0.1797 -0.8748 -0.1349
11455TIP3   OH234309   7.787   0.516   4.421  0.7827  0.6247  0.1214
11455TIP3    H134310   7.704   0.469   4.407 -0.2079  2.6927 -1.4045
11455TIP3    H234311   7.812   0.491   4.510 -0.7501 -1.1186  0.1508
11456TIP3   OH234312   0.708   0.933   1.914  0.0460 -0.1256 -0.6935
11456TIP3    H134313   0.684   0.999   1.850 -0.4433  0.7486  0.3716
11456TIP3    H234314   0.678   0.967   1.997  0.0971 -1.5359 -0.0624
11457TIP3   OH234315   3.497   7.374   0.434  0.0775  0.3385 -0.3631
11457TIP3    H134316   3.450   7.308   0.485 -1.3534  0.7541 -1.0767
11457TIP3    H234317   3.438   7.450   0.434 -0.1641  0.2337 -2.9056
11458TIP3   OH234318   6.972   4.369   3.278  0.3406  0.2250  0.0305
11458TIP3    H134319   7.042   4.365   3.343  1.8236  1.2470 -1.4211
11458TIP3    H234320   6.962   4.462   3.260  1.2118 -0.0964 -2.4442
11459TIP3   OH234321   3.659   4.549   0.824  0.0475 -0.3174 -0.0041
11459TIP3    H134322   3.749   4.577   0.808  0.3565 -1.4246 -0.3114
11459TIP3    H234323   3.620   4.620   0.875  1.5985 -0.5580  1.6127
11460TIP3   OH234324   0.766   1.066   5.991  0.3402 -0.2877  0.5314
11460TIP3    H134325   0.782   1.120   5.913  1.0549 -0.7444  0.3564
11460TIP3    H234326   0.672   1.049   5.989  0.0977  0.9451  0.5871
11461TIP3   OH234327   6.064   7.632   4.543 -0.2751 -0.1914 -0.3443
11461TIP3    H134328   6.028   7.550   4.507 -1.6567  0.0855  0.3524
11461TIP3    H234329   6.055   7.695   4.472 -1.7948  0.0298  0.0127
11462TIP3   OH234330   0.281   0.404   5.866  0.0858 -0.2872 -0.4719
11462TIP3    H134331   0.234   0.473   5.914  0.2834 -0.5492  0.1117
11462TIP3    H234332   0.233   0.324   5.886  0.2343 -0.4146 -0.6255
11463TIP3   OH234333   7.496   4.930   5.244 -0.3703  0.1202 -0.3978
11463TIP3    H134334   7.574   4.895   5.287 -1.2739 -1.0974  0.3212
11463TIP3    H234335   7.444   4.852   5.223 -2.0534  0.9756  0.4371
11464TIP3   OH234336   8.139   6.990   1.441  0.1939 -0.6135  0.4600
11464TIP3    H134337   8.060   6.946   1.408 -0.1458 -0.0678  0.5297
11464TIP3    H234338   8.136   7.077   1.401  0.5929 -0.4809  0.7204
11465TIP3   OH234339   5.641   3.898   1.955  0.6953  0.0892 -0.4240
11465TIP3    H134340   5.584   3.959   2.002  0.5420 -0.8389  0.6387
11465TIP3    H234341   5.585   3.823   1.936  0.8826  0.2675 -1.7146
11466TIP3   OH234342   8.189   3.859   6.267  0.0078 -0.3759 -0.1035
11466TIP3    H134343   8.261   3.812   6.225  0.3313 -0.1563  0.1975
11466TIP3    H234344   8.124   3.791   6.287 -0.3526 -0.4251 -1.3443
11467TIP3   OH234345   4.189   7.479   2.175 -0.0381  0.1640  0.3637
11467TIP3    H134346   4.244   7.557   2.170  0.3764 -0.1299  0.2892
11467TIP3    H234347   4.250   7.406   2.173 -0.5013 -0.2088 -1.1170
11468TIP3   OH234348   1.788   6.545   3.990 -0.6611  0.4474 -0.2633
11468TIP3    H134349   1.880   6.524   3.974 -0.4842  0.5617  0.5521
11468TIP3    H234350   1.739   6.485   3.935 -0.0847  1.0833 -1.5140
11469TIP3   OH234351   1.051   1.034   2.487  0.1219  0.2892  0.8852
11469TIP3    H134352   1.054   1.086   2.567 -1.3604  1.0389  0.4959
11469TIP3    H234353   0.958   1.026   2.468  0.3782 -1.3285  0.1508
11470TIP3   OH234354   6.703   5.437   4.962  0.3429 -0.3738  0.4873
11470TIP3    H134355   6.711   5.357   5.014 -1.6162 -1.0727 -0.1726
11470TIP3    H234356   6.793   5.467   4.949  1.1094 -2.2979  1.0082
11471TIP3   OH234357   1.174   1.468   4.380 -0.4998 -0.2579 -0.0724
11471TIP3    H134358   1.263   1.443   4.354 -0.0739 -0.0586  1.1340
11471TIP3    H234359   1.178   1.563   4.391 -1.4110  0.0589 -1.9690
11472TIP3   OH234360   4.748   4.059   0.576  0.0888  0.4889  0.4708
11472TIP3    H134361   4.685   4.024   0.513  1.6436 -1.3126 -0.1757
11472TIP3    H234362   4.704   4.136   0.613 -1.5043  0.7111 -1.6576
11473TIP3   OH234363   2.768   0.046   3.147 -1.0334 -0.1528 -0.1442
11473TIP3    H134364   2.770  -0.045   3.176 -0.0781  0.6740  2.6037
11473TIP3    H234365   2.860   0.072   3.141 -1.2046  0.1551 -2.8421
11474TIP3   OH234366   0.061   3.459   5.380 -0.1624  0.2861  0.5411
11474TIP3    H134367   0.110   3.498   5.308 -1.0937 -1.3178 -1.0483
11474TIP3    H234368   0.054   3.529   5.445  2.9027  1.0344  0.2353
11475TIP3   OH234369   0.288   2.778   3.204  0.1743  0.0908  0.2072
11475TIP3    H134370   0.217   2.784   3.141 -0.3157 -0.7301  0.6603
11475TIP3    H234371   0.244   2.774   3.289  0.7796  0.0587  0.5280
11476TIP3   OH234372   7.932   5.448   0.532  0.2934  0.4084  0.4665
11476TIP3    H134373   7.837   5.443   0.531  0.2563  0.3222  1.9199
11476TIP3    H234374   7.953   5.524   0.477 -0.5260 -0.2253 -0.7698
11477TIP3   OH234375   4.884   6.969   1.693  0.1953 -0.2640 -0.0683
11477TIP3    H134376   4.828   6.892   1.685  0.5932 -0.6790  0.9799
11477TIP3    H234377   4.829   7.034   1.738 -0.3563  0.3071 -1.5263
11478TIP3   OH234378   0.621   5.372   2.292 -0.0925 -0.6925 -0.4393
11478TIP3    H134379   0.541   5.423   2.280 -0.3304 -1.0310 -0.3205
11478TIP3    H234380   0.649   5.392   2.382 -0.0201 -0.5452 -0.4937
11479TIP3   OH234381   1.622   1.715   0.292 -0.2888 -0.1640  0.0276
11479TIP3    H134382   1.670   1.767   0.356 -2.4539  2.0944 -0.0683
11479TIP3    H234383   1.666   1.733   0.209  1.1023 -1.3180  0.4600
11480TIP3   OH234384   6.640   6.957   0.702 -0.0286  0.3326 -0.6131
11480TIP3    H134385   6.713   6.983   0.645  0.4041 -0.6661 -0.5315
11480TIP3    H234386   6.597   6.886   0.654  0.5413 -0.7558  0.4294
11481TIP3   OH234387   4.512   6.887   2.178  0.3958  0.1149  0.4176
11481TIP3    H134388   4.456   6.915   2.251 -1.5171 -0.3290 -0.8319
11481TIP3    H234389   4.550   6.969   2.145 -0.7150  0.6159  0.3327
11482TIP3   OH234390  -0.005   7.342   6.670 -0.1362  0.0819 -0.3079
11482TIP3    H134391   0.090   7.345   6.677 -0.2328 -0.1459  1.5763
11482TIP3    H234392  -0.024   7.383   6.585  1.5404  1.4928 -0.0547
11483TIP3   OH234393   4.726   1.319   4.168  0.0205  0.2197 -0.0175
11483TIP3    H134394   4.729   1.320   4.264 -0.6728 -0.2559  0.0218
11483TIP3    H234395   4.660   1.384   4.145  0.7260  0.8857 -0.2189
11484TIP3   OH234396   3.337   4.123   4.259 -0.2403  0.0041  0.2377
11484TIP3    H134397   3.279   4.104   4.332 -1.2092  1.1560 -0.2165
11484TIP3    H234398   3.384   4.202   4.284 -0.1569  0.0820 -0.1451
11485TIP3   OH234399   0.181   7.474   3.344  0.0779  0.2208 -0.1413
11485TIP3    H134400   0.087   7.489   3.335 -0.0900 -0.1611  0.7841
11485TIP3    H234401   0.198   7.393   3.297 -0.5112 -0.9848  1.6141
11486TIP3   OH234402   0.634   7.122   2.844  0.3730  0.3566 -0.3691
11486TIP3    H134403   0.700   7.137   2.776  2.2050  2.3103  1.6735
11486TIP3    H234404   0.684   7.104   2.923 -1.6523 -0.7267  0.7505
11487TIP3   OH234405   7.510   2.240   5.128 -0.4332  0.2272 -0.2482
11487TIP3    H134406   7.498   2.173   5.195  0.0324  1.4438  1.1231
11487TIP3    H234407   7.559   2.310   5.173  0.1703  0.9589 -1.9522
11488TIP3   OH234408   3.320   1.634   3.878 -0.0128 -0.5204  0.4399
11488TIP3    H134409   3.395   1.595   3.833  0.0003 -1.3779  1.1893
11488TIP3    H234410   3.350   1.648   3.968 -0.3287  0.3573  0.4167
11489TIP3   OH234411   2.033   3.281   3.001  0.4300 -0.0119  0.4289
11489TIP3    H134412   2.048   3.211   2.938 -0.5768  0.3574 -0.2458
11489TIP3    H234413   2.109   3.339   2.992  0.6455 -0.3424  0.0915
11490TIP3   OH234414   4.874   6.407   1.785 -0.2450 -0.7091 -0.0812
11490TIP3    H134415   4.781   6.405   1.763  0.2231 -0.5415 -2.2274
11490TIP3    H234416   4.882   6.350   1.862 -1.8497 -2.1258 -0.9213
11491TIP3   OH234417   4.774   2.647   3.395 -0.1142  0.2331  0.2042
11491TIP3    H134418   4.789   2.632   3.488  1.6179  1.3816  0.1683
11491TIP3    H234419   4.699   2.707   3.392  1.9745  3.1389  1.1632
11492TIP3   OH234420   4.529   3.559   3.783 -0.6539 -0.6725  0.4563
11492TIP3    H134421   4.539   3.539   3.690 -0.7727 -0.6119  0.4309
11492TIP3    H234422   4.438   3.538   3.803 -1.0305  0.6768  0.2320
11493TIP3   OH234423   0.205   3.409   1.585 -0.3368 -0.7537  0.0942
11493TIP3    H134424   0.275   3.418   1.520  0.7355  0.4693  1.3621
11493TIP3    H234425   0.226   3.329   1.632  0.7615  0.0856  1.0718
11494TIP3   OH234426   3.066   5.777   1.434  0.5202  0.4700 -0.3418
11494TIP3    H134427   3.022   5.852   1.475  0.2710 -0.6667  1.5535
11494TIP3    H234428   3.003   5.745   1.370 -0.1206  0.7912  0.1175
11495TIP3   OH234429   1.078   0.398   5.382 -0.7726 -0.2409 -0.1740
11495TIP3    H134430   1.051   0.308   5.401  0.7930 -0.6848  0.0765
11495TIP3    H234431   1.119   0.392   5.296  0.6831 -0.0866  0.4792
11496TIP3   OH234432   1.915   2.926   0.714 -0.4554  0.3363 -0.6660
11496TIP3    H134433   1.930   2.886   0.628  0.0004  0.3588 -0.6007
11496TIP3    H234434   1.939   3.017   0.703 -0.4890  0.3611 -0.5402
11497TIP3   OH234435   2.211   1.995   4.373 -0.3588  0.0439  0.4564
11497TIP3    H134436   2.188   1.933   4.442  1.0734 -2.1707 -0.9450
11497TIP3    H234437   2.304   2.012   4.387 -0.3598  0.5826 -0.1808
11498TIP3   OH234438   1.971   2.542   5.545  0.1475 -0.1089 -0.2108
11498TIP3    H134439   2.006   2.500   5.467  1.4713  2.8138 -1.3335
11498TIP3    H234440   1.958   2.633   5.520  1.4366  1.1814  3.1953
11499TIP3   OH234441   4.696   1.714   1.751 -0.1805 -0.4678 -0.2683
11499TIP3    H134442   4.638   1.776   1.796 -0.1523 -1.0756  0.6325
11499TIP3    H234443   4.655   1.701   1.666 -0.5866  0.2165 -0.1889
11500TIP3   OH234444   0.892   6.671   1.033 -0.4512  0.1446 -0.3831
11500TIP3    H134445   0.961   6.714   0.982 -1.1799  1.6726 -0.1510
11500TIP3    H234446   0.813   6.721   1.012 -1.7492 -2.1310 -1.4135
11501TIP3   OH234447   4.239   2.904   1.635  0.0734  0.7173 -0.0964
11501TIP3    H134448   4.313   2.879   1.579 -0.6345  0.0544 -0.7720
11501TIP3    H234449   4.196   2.975   1.587  0.8793  1.8470  0.8170
11502TIP3   OH234450   3.713   0.679   3.550 -0.3412 -0.2328 -0.6566
11502TIP3    H134451   3.667   0.688   3.466  0.1282 -0.2131 -0.9123
11502TIP3    H234452   3.688   0.592   3.582 -0.0186 -0.5030 -1.1235
11503TIP3   OH234453   0.613   1.153   6.337 -0.1510 -0.0079 -0.7068
11503TIP3    H134454   0.556   1.203   6.278 -1.4885  1.2073  1.4839
11503TIP3    H234455   0.566   1.071   6.352 -0.1519 -0.0180 -0.7638
11504TIP3   OH234456   0.381   3.318   0.430 -0.2035 -0.0653  0.4806
11504TIP3    H134457   0.391   3.227   0.401 -1.2934 -0.8504  2.3519
11504TIP3    H234458   0.351   3.365   0.352  0.1968 -1.3355 -0.4777
11505TIP3   OH234459   1.507   7.646   1.875 -0.2306  0.2008  0.1960
11505TIP3    H134460   1.568   7.716   1.898  0.7646  0.1264 -2.0156
11505TIP3    H234461   1.510   7.641   1.780  0.1628 -3.2158  0.2692
11506TIP3   OH234462   7.038   2.428   3.445 -0.0653 -0.3420 -0.0420
11506TIP3    H134463   7.073   2.483   3.515 -0.0533 -1.9421  1.2910
11506TIP3    H234464   7.006   2.489   3.379 -0.5003  1.2598  1.5706
11507TIP3   OH234465   3.871   7.006   0.119  0.1613 -0.1649  0.6634
11507TIP3    H134466   3.905   6.916   0.115  0.2548 -0.1583  1.2918
11507TIP3    H234467   3.804   7.003   0.186 -0.3300  0.0792  0.1890
11508TIP3   OH234468   5.395   0.287   0.057 -0.0346  0.5812  0.0390
11508TIP3    H134469   5.376   0.379   0.079 -1.0129  0.1067  1.3498
11508TIP3    H234470   5.310   0.244   0.060  0.1592 -0.0887 -2.2486
11509TIP3   OH234471   6.613   6.181   4.317  0.1487  0.3675  0.1597
11509TIP3    H134472   6.561   6.137   4.249 -0.7581  1.5717  0.0342
11509TIP3    H234473   6.698   6.196   4.275  0.4724 -1.1632  0.1878
11510TIP3   OH234474   4.727   1.728   2.345 -0.1263 -0.8783 -0.3119
11510TIP3    H134475   4.750   1.733   2.253 -0.8790 -0.9861 -0.5121
11510TIP3    H234476   4.698   1.637   2.358  1.4065 -1.2977  0.3806
11511TIP3   OH234477   3.075   6.751   1.521 -0.6359  0.3291 -0.3396
11511TIP3    H134478   3.016   6.793   1.584 -1.0652  1.4501 -1.4294
11511TIP3    H234479   3.027   6.673   1.492 -0.9334  0.4244 -0.1093
11512TIP3   OH234480   6.955   2.030   4.157  0.7631 -0.3201  0.3074
11512TIP3    H134481   6.947   2.096   4.226  0.2656 -1.6770  1.6061
11512TIP3    H234482   6.914   1.952   4.194  1.2378 -1.3372 -1.2203
11513TIP3   OH234483   5.465   2.087   1.702 -0.1940 -0.6003 -0.0949
11513TIP3    H134484   5.405   2.155   1.730  0.3963 -0.6445  1.3680
11513TIP3    H234485   5.542   2.098   1.758  0.9359 -0.9090 -1.5247
11514TIP3   OH234486   1.098   7.719   6.661 -0.0949 -0.0456  0.1116
11514TIP3    H134487   1.057   7.739   6.745 -1.2008 -0.5868 -0.2879
11514TIP3    H234488   1.049   7.645   6.627 -1.8076  2.0569 -2.4734
11515TIP3   OH234489   7.497   3.283   6.057 -0.3903 -0.0322 -0.4550
11515TIP3    H134490   7.461   3.356   6.008 -1.7056 -0.1428  0.3169
11515TIP3    H234491   7.482   3.207   6.001  1.4127  0.2972 -1.4763
11516TIP3   OH234492   1.875   5.484   1.975 -0.4312 -0.1563  0.2302
11516TIP3    H134493   1.964   5.458   1.998 -0.4076 -0.8994 -0.6490
11516TIP3    H234494   1.865   5.571   2.013  1.3059  0.7258 -1.1749
11517TIP3   OH234495   1.280   0.473   2.984  0.5258  0.1617  0.1079
11517TIP3    H134496   1.233   0.454   3.066  0.5477 -0.7430 -0.0764
11517TIP3    H234497   1.311   0.563   2.994 -1.1829  0.7706  0.2699
11518TIP3   OH234498   2.427   2.286   5.769  0.5531 -0.6174 -0.1517
11518TIP3    H134499   2.476   2.256   5.846  2.9416  3.5534  0.2682
11518TIP3    H234500   2.338   2.299   5.802  0.8514 -1.4979  1.1190
11519TIP3   OH234501   6.492   2.990   3.389  0.1782 -0.3857  0.7245
11519TIP3    H134502   6.511   2.936   3.466 -1.1123  3.1216  3.8165
11519TIP3    H234503   6.416   2.949   3.349  0.9922 -2.4164  1.1485
11520TIP3   OH234504   6.349   6.309   5.848  0.1911 -0.5321  0.1379
11520TIP3    H134505   6.425   6.357   5.815 -0.9527  1.3535  0.0871
11520TIP3    H234506   6.274   6.353   5.808 -0.9964 -1.4874  1.2260
11521TIP3   OH234507   6.951   7.393   4.330 -0.2454  0.0693 -0.1923
11521TIP3    H134508   6.859   7.419   4.335 -0.8886 -1.0512 -3.6867
11521TIP3    H234509   6.959   7.348   4.246  3.7726  1.1492 -0.6052
11522TIP3   OH234510   5.519   6.100   5.145  0.1982 -0.1400  0.1585
11522TIP3    H134511   5.507   6.056   5.061  1.2091 -2.3214  1.1020
11522TIP3    H234512   5.491   6.037   5.210 -0.4297  1.4611  1.5170
11523TIP3   OH234513   3.534   0.532   1.240 -0.1113  0.4007  0.0226
11523TIP3    H134514   3.530   0.574   1.325  0.0101 -2.0769  1.3561
11523TIP3    H234515   3.533   0.438   1.260 -0.9808 -0.2680 -2.7610
11524TIP3   OH234516   5.207   0.477   2.190 -0.4544  0.2207  0.1930
11524TIP3    H134517   5.278   0.420   2.220 -1.4974 -1.4337 -0.3680
11524TIP3    H234518   5.176   0.521   2.270  0.8156  0.5453  0.5249
11525TIP3   OH234519   5.891   6.830   6.042  0.3811  0.2037  0.0487
11525TIP3    H134520   5.844   6.893   5.987  1.0603  0.8535  0.2022
11525TIP3    H234521   5.944   6.780   5.980  1.1446  0.9336  0.0891
11526TIP3   OH234522   7.343   5.984   1.993 -0.4832  0.1890  0.1525
11526TIP3    H134523   7.395   5.903   1.998  0.8098  1.0431  1.2722
11526TIP3    H234524   7.394   6.041   1.935 -0.6316  0.7137  0.5328
11527TIP3   OH234525   3.410   2.698   0.658 -0.3788  0.8870  0.0459
11527TIP3    H134526   3.397   2.748   0.578 -1.0895  0.7205  0.0501
11527TIP3    H234527   3.440   2.762   0.722  1.0123  0.8763 -0.5637
11528TIP3   OH234528   1.969   6.110   1.168 -0.0062  0.1309  0.6182
11528TIP3    H134529   1.972   6.015   1.185 -0.0657  0.3157  1.7594
11528TIP3    H234530   1.879   6.127   1.141  0.1708 -0.2265 -0.2425
11529TIP3   OH234531   8.162   4.659   6.645 -0.6388  0.0170 -0.2340
11529TIP3    H134532   8.084   4.612   6.674  0.2575  0.3581  3.0746
11529TIP3    H234533   8.234   4.598   6.660  0.1656  1.2047  0.9956
11530TIP3   OH234534   7.549   5.950   5.664 -0.5980  0.3489  0.5647
11530TIP3    H134535   7.587   6.033   5.637 -2.2208  0.5299 -1.4039
11530TIP3    H234536   7.569   5.890   5.592 -0.4610 -0.6822  1.4279
11531TIP3   OH234537   0.946   7.513   5.493  0.4283  0.0517  0.0470
11531TIP3    H134538   0.898   7.482   5.416  0.6727 -0.6608  0.1690
11531TIP3    H234539   0.998   7.437   5.520  0.7597  0.4675  0.5884
11532TIP3   OH234540   7.725   3.171   1.580 -0.5739 -0.3397 -0.4125
11532TIP3    H134541   7.635   3.201   1.595 -0.3746 -0.1824  0.5087
11532TIP3    H234542   7.770   3.248   1.546 -1.0606 -0.7350 -2.0369
11533TIP3   OH234543   2.668   7.301   2.851 -0.1065 -1.0167 -0.3458
11533TIP3    H134544   2.756   7.279   2.883 -0.7465 -0.9984  1.5561
11533TIP3    H234545   2.679   7.384   2.806  0.9542 -1.2862 -0.6147
11534TIP3   OH234546   3.252   2.451   2.107  0.1915 -0.1541 -0.5784
11534TIP3    H134547   3.177   2.453   2.166 -0.3160 -1.9932 -1.1065
11534TIP3    H234548   3.305   2.378   2.137  0.5300 -0.3686 -1.6547
11535TIP3   OH234549   3.984   6.863   6.427 -0.0191 -0.2357 -0.0722
11535TIP3    H134550   4.066   6.815   6.429  0.0317 -0.1500 -0.0774
11535TIP3    H234551   3.919   6.799   6.396 -0.5579 -1.1645  2.7124
11536TIP3   OH234552   8.124   0.465   4.915 -0.0133  0.4767  0.0318
11536TIP3    H134553   8.083   0.499   4.994 -0.9421  3.2845 -1.5236
11536TIP3    H234554   8.218   0.474   4.931 -0.1312 -0.2303  1.2743
11537TIP3   OH234555   6.929   4.958   0.608 -0.2580 -0.1553  0.0299
11537TIP3    H134556   6.906   4.865   0.606 -0.4467 -0.1037 -0.2398
11537TIP3    H234557   6.876   4.997   0.539 -0.0992  0.1356  0.0721
11538TIP3   OH234558   6.899   0.349   0.828 -0.8351 -0.4231  0.4766
11538TIP3    H134559   6.917   0.375   0.737  1.5844  1.3081  1.3339
11538TIP3    H234560   6.830   0.409   0.857 -2.5387 -1.8212 -0.5286
11539TIP3   OH234561   3.869   7.730   1.018  0.3922  0.0946  0.4498
11539TIP3    H134562   3.890   7.710   1.109 -1.3240  1.1799  1.1481
11539TIP3    H234563   3.822   7.814   1.023  0.6238  0.3788 -1.4802
11540TIP3   OH234564   3.497   5.433   4.834 -0.4348 -0.3053  0.7044
11540TIP3    H134565   3.441   5.357   4.820 -1.7461  1.0021 -2.0035
11540TIP3    H234566   3.566   5.424   4.768  0.6978 -0.2329  1.8483
11541TIP3   OH234567   2.048   5.711   4.606  0.1013 -0.0480 -0.0148
11541TIP3    H134568   2.132   5.750   4.580  0.4809 -0.0918  1.0934
11541TIP3    H234569   2.061   5.617   4.595  0.2162 -0.0592  0.2271
11542TIP3   OH234570   6.340   7.470   1.291  0.0727  1.0165  0.5633
11542TIP3    H134571   6.248   7.487   1.310 -0.0442 -0.8425  2.0666
11542TIP3    H234572   6.338   7.413   1.214 -0.1313  0.1862  1.1637
11543TIP3   OH234573   5.744   0.216   2.266  0.3495  0.3366 -0.1757
11543TIP3    H134574   5.696   0.259   2.337 -0.7700  1.7213 -1.6795
11543TIP3    H234575   5.684   0.149   2.233  0.5861  0.1651 -0.2614
11544TIP3   OH234576   3.248   7.289   0.986  0.4532 -0.1864  0.5699
11544TIP3    H134577   3.315   7.309   0.921 -1.6555 -2.3812 -2.5651
11544TIP3    H234578   3.290   7.227   1.046  1.3656 -1.1948 -1.0629
11545TIP3   OH234579   0.674   2.064   0.160 -0.2660  0.0530  0.5665
11545TIP3    H134580   0.645   1.978   0.131  1.1276  0.3561 -2.0006
11545TIP3    H234581   0.751   2.047   0.214 -0.2622 -0.3449  0.4350
11546TIP3   OH234582   3.438   6.504   1.755  0.2803  0.1940  0.7188
11546TIP3    H134583   3.359   6.453   1.775 -0.3526 -0.0466 -1.9445
11546TIP3    H234584   3.409   6.568   1.690  2.4225 -0.4679 -0.9917
11547TIP3   OH234585   0.493   4.529   0.179 -0.4589  0.6001  0.4690
11547TIP3    H134586   0.410   4.519   0.225  0.3460 -0.4753  1.7699
11547TIP3    H234587   0.560   4.518   0.247  0.7611  0.4391 -0.7042
11548TIP3   OH234588   3.343   1.401   0.647 -0.2215  0.3797 -0.1103
11548TIP3    H134589   3.345   1.495   0.669  0.3717  0.8454 -1.9870
11548TIP3    H234590   3.252   1.375   0.661 -0.6256  1.4939 -0.5553
11549TIP3   OH234591   3.070   4.851   1.486  0.1312 -0.0903  0.2112
11549TIP3    H134592   3.155   4.840   1.443 -0.0192 -0.5673  0.0282
11549TIP3    H234593   3.007   4.836   1.416 -0.0978  1.0476  0.1664
11550TIP3   OH234594   7.306   1.652   0.484  0.2089  0.2251  0.0767
11550TIP3    H134595   7.371   1.696   0.431 -1.9478  3.1050 -0.4518
11550TIP3    H234596   7.290   1.712   0.557 -2.8890  0.5089 -0.6726
11551TIP3   OH234597   0.142   3.742   0.971  0.1185  0.3065 -0.4290
11551TIP3    H134598   0.172   3.832   0.967 -1.0109  0.7869  1.1124
11551TIP3    H234599   0.152   3.716   1.062 -1.0725 -0.5767 -0.5199
11552TIP3   OH234600   1.281   1.975   2.863  0.6216  0.4954 -0.2925
11552TIP3    H134601   1.218   1.913   2.900 -0.1834  0.4723 -1.6426
11552TIP3    H234602   1.363   1.926   2.859  0.6529  0.3789  1.0524
11553TIP3   OH234603   2.610   5.068   1.078 -0.4068  0.0448 -0.0044
11553TIP3    H134604   2.583   5.110   0.997  1.2219  1.2824  0.0492
11553TIP3    H234605   2.665   4.994   1.050 -0.1235  0.2669 -0.0352
11554TIP3   OH234606   8.080   2.353   3.180 -0.2100 -0.4716  0.2586
11554TIP3    H134607   8.125   2.307   3.109  1.0018 -1.6022  1.6946
11554TIP3    H234608   8.137   2.343   3.255 -0.0384  3.1331  0.8046
11555TIP3   OH234609   7.195   6.879   2.645  0.0582 -0.1664  0.3755
11555TIP3    H134610   7.167   6.947   2.584 -1.7224  0.2983  1.6562
11555TIP3    H234611   7.243   6.817   2.590 -0.2957  0.9156 -1.2401
11556TIP3   OH234612   7.696   0.417   5.210  0.2631  0.1853 -0.6202
11556TIP3    H134613   7.708   0.404   5.304  1.2104  1.2124 -0.5852
11556TIP3    H234614   7.753   0.351   5.170 -0.4119 -0.4930 -0.4947
11557TIP3   OH234615   3.873   0.598   2.029  0.2816 -0.5011  0.0134
11557TIP3    H134616   3.805   0.559   1.973  0.8874 -0.9265 -0.4437
11557TIP3    H234617   3.866   0.550   2.112  0.1487 -0.6801 -0.1000
11558TIP3   OH234618   1.124   5.599   1.759 -0.3031  0.2851 -0.1799
11558TIP3    H134619   1.214   5.582   1.731 -0.6702  0.0207 -1.2630
11558TIP3    H234620   1.078   5.517   1.741 -0.6295  0.1960  0.9798
11559TIP3   OH234621   2.345   4.510   0.142  0.1800  0.8883 -0.6540
11559TIP3    H134622   2.270   4.562   0.114 -0.4690  0.4359  0.1798
11559TIP3    H234623   2.308   4.446   0.203  1.3123  0.9219  0.0943
11560TIP3   OH234624   5.889   6.543   5.600  0.2970 -0.2735  0.5759
11560TIP3    H134625   5.841   6.500   5.529  1.0839 -1.3891  0.6911
11560TIP3    H234626   5.826   6.548   5.672 -0.5095  0.8814 -0.1796
11561TIP3   OH234627   3.874   2.582   1.537  0.5312  0.2746 -0.2109
11561TIP3    H134628   3.779   2.597   1.537  0.4501 -0.1324  1.4921
11561TIP3    H234629   3.884   2.496   1.495  0.1604  0.3302 -0.4252
11562TIP3   OH234630   1.651   3.588   5.676 -0.4502 -0.2154  0.1999
11562TIP3    H134631   1.725   3.624   5.627 -1.3884  1.1992 -0.2487
11562TIP3    H234632   1.644   3.498   5.645 -0.1580  0.2382 -1.2891
11563TIP3   OH234633   1.660   6.704   1.249 -0.6255  0.1606  0.5356
11563TIP3    H134634   1.746   6.663   1.256  1.0192  2.9689 -1.0314
11563TIP3    H234635   1.644   6.742   1.335  0.4674  0.8572  0.4560
11564TIP3   OH234636   0.901   2.492   5.682 -0.1197 -0.1059 -0.2206
11564TIP3    H134637   0.924   2.513   5.592 -0.5279  0.0359 -0.2916
11564TIP3    H234638   0.908   2.396   5.686  0.8213 -0.0401 -0.1447
11565TIP3   OH234639   2.711   4.571   5.802  0.2205  0.5007  0.4016
11565TIP3    H134640   2.660   4.571   5.721 -1.4276  1.7327  1.3717
11565TIP3    H234641   2.714   4.479   5.829 -0.9257  0.3099 -0.0523
11566TIP3   OH234642   0.489   2.711   5.376  0.0262 -0.5218 -0.8368
11566TIP3    H134643   0.413   2.655   5.360 -0.9889  0.6475 -0.2510
11566TIP3    H234644   0.483   2.735   5.468  1.4337 -0.8518 -0.6378
11567TIP3   OH234645   6.368   5.854   5.336  0.3378 -0.6644 -0.0758
11567TIP3    H134646   6.324   5.914   5.396  0.7214  1.1756 -1.5348
11567TIP3    H234647   6.299   5.825   5.276  0.6536  0.5157 -1.0398
11568TIP3   OH234648   7.947   6.975   5.880  0.4061  0.4474 -0.0564
11568TIP3    H134649   7.857   7.004   5.894  0.5287  0.5857  0.4883
11568TIP3    H234650   7.962   6.911   5.950  0.9042  0.8359  0.1996
11569TIP3   OH234651   1.410   7.245   1.548  0.5495 -0.0026  0.0029
11569TIP3    H134652   1.486   7.290   1.585  1.2017 -0.8860 -0.2097
11569TIP3    H234653   1.435   7.152   1.548  0.1618 -0.1504 -1.6600
11570TIP3   OH234654   5.738   2.104   3.085 -0.2869  0.4083  0.4712
11570TIP3    H134655   5.798   2.177   3.097  1.2797 -0.8627  0.7018
11570TIP3    H234656   5.651   2.145   3.079  0.1333  2.1048  3.6718
11571TIP3   OH234657   2.941   1.349   6.061  0.5599 -0.1400 -0.5105
11571TIP3    H134658   2.864   1.293   6.060 -0.5281  1.2772  0.4215
11571TIP3    H234659   2.947   1.383   5.972  0.3915 -0.6282 -0.7099
11572TIP3   OH234660   6.242   2.849   1.189 -0.2245  0.0799 -0.4126
11572TIP3    H134661   6.204   2.798   1.117 -1.3798 -0.3243  0.4460
11572TIP3    H234662   6.171   2.906   1.218 -0.3826 -0.9982  1.5189
11573TIP3   OH234663   3.957   7.557   1.710 -0.0197 -0.0505 -0.2858
11573TIP3    H134664   3.940   7.480   1.764 -1.2450 -0.2026 -0.8507
11573TIP3    H234665   3.945   7.526   1.620  2.5977  0.0375 -0.7261
11574TIP3   OH234666   8.146   2.656   2.012  0.0213 -0.1277  0.1785
11574TIP3    H134667   8.199   2.608   1.949  0.5122  0.4929  0.1078
11574TIP3    H234668   8.079   2.700   1.959  1.0351  1.1988 -0.0516
11575TIP3   OH234669   4.146   1.950   2.802  0.2610  0.1827 -0.0227
11575TIP3    H134670   4.212   1.882   2.820  0.0582  0.1909  0.8200
11575TIP3    H234671   4.129   1.943   2.708 -0.0031 -1.1694  0.0983
11576TIP3   OH234672   0.928   0.742   1.396 -0.2393  0.6658 -0.3497
11576TIP3    H134673   0.959   0.760   1.308  0.7826  3.7427  0.4970
11576TIP3    H234674   0.849   0.689   1.384  0.9188 -0.6616 -2.9546
11577TIP3   OH234675   5.995   0.319   4.782  0.6984  0.5821 -0.0505
11577TIP3    H134676   6.007   0.396   4.839  1.0122  1.0730 -0.7599
11577TIP3    H234677   5.932   0.348   4.717  0.8573  0.2497 -0.3541
11578TIP3   OH234678   1.709   5.983   0.519  0.2663 -0.0463  0.3809
11578TIP3    H134679   1.617   6.008   0.507  0.4246 -0.3637 -1.8685
11578TIP3    H234680   1.704   5.896   0.559 -0.5394 -1.2228 -2.0810
11579TIP3   OH234681   2.268   0.138   4.429  0.2602  0.2273 -0.0472
11579TIP3    H134682   2.210   0.130   4.353 -0.0043 -1.9330  0.3205
11579TIP3    H234683   2.215   0.183   4.495 -1.2844 -2.1483  0.4581
11580TIP3   OH234684   0.754   2.907   3.390  0.6745  0.6524  0.2624
11580TIP3    H134685   0.686   2.841   3.375  0.5093  0.3045  2.2492
11580TIP3    H234686   0.830   2.875   3.341  0.5053 -0.8867  0.9371
11581TIP3   OH234687   3.566   2.183   2.859 -0.5624 -0.0898 -0.4562
11581TIP3    H134688   3.542   2.099   2.898  0.5165 -0.2853 -0.1827
11581TIP3    H234689   3.635   2.218   2.916 -0.4568  0.6159 -0.9944
11582TIP3   OH234690   1.218   0.548   6.359  0.1221 -0.0775  0.3649
11582TIP3    H134691   1.192   0.575   6.271 -0.4739  2.4974  1.2224
11582TIP3    H234692   1.313   0.547   6.357  0.1036 -0.5701 -0.4381
11583TIP3   OH234693   7.774   4.289   4.796  0.2475 -0.7419 -0.0159
11583TIP3    H134694   7.699   4.235   4.819 -0.9827  1.0371  0.3625
11583TIP3    H234695   7.821   4.303   4.878  0.0328 -0.4638  0.0599
11584TIP3   OH234696   4.001   3.157   3.655  0.4966  0.1882  0.1263
11584TIP3    H134697   3.993   3.090   3.588 -0.4988  0.2632  0.1517
11584TIP3    H234698   3.978   3.112   3.737  1.8980  0.0440  0.4646
11585TIP3   OH234699   1.276   3.850   6.603 -0.1500  0.0674  0.8465
11585TIP3    H134700   1.228   3.932   6.616  0.6161  0.5932  0.4525
11585TIP3    H234701   1.209   3.783   6.603 -1.0036  0.8736 -0.5463
11586TIP3   OH234702   5.750   6.873   3.445  0.0202 -0.0838 -0.2586
11586TIP3    H134703   5.821   6.937   3.448 -0.0430  0.0451 -1.2965
11586TIP3    H234704   5.784   6.802   3.392 -1.2652  0.8274 -2.4536
11587TIP3   OH234705   3.678   0.525   2.805 -0.4775 -0.3036 -0.0026
11587TIP3    H134706   3.683   0.593   2.872 -0.8089  0.7653 -1.0156
11587TIP3    H234707   3.739   0.555   2.737 -1.1838 -0.6199 -0.7958
11588TIP3   OH234708   2.134   7.249   3.330  0.5014 -0.6398 -0.6153
11588TIP3    H134709   2.185   7.280   3.254 -1.4009 -2.5369 -2.8341
11588TIP3    H234710   2.152   7.155   3.334 -1.6806 -1.1128 -0.6238
11589TIP3   OH234711   6.666   2.086   0.055  0.3049  0.8236  0.7583
11589TIP3    H134712   6.616   2.006   0.037  1.5150  0.4414 -1.1291
11589TIP3    H234713   6.757   2.057   0.059  0.7720  2.1123  0.0109
11590TIP3   OH234714   1.277   3.695   5.938  0.1366  0.4593  0.2891
11590TIP3    H134715   1.298   3.690   6.031 -0.0854  1.2050  0.3792
11590TIP3    H234716   1.312   3.613   5.901 -1.8432 -0.9725  1.4331
11591TIP3   OH234717   5.744   3.427   4.058 -0.1862 -0.2213 -0.5920
11591TIP3    H134718   5.779   3.457   4.142 -1.0284 -0.8753  0.0074
11591TIP3    H234719   5.686   3.354   4.080  1.4108 -2.0176 -1.9338
11592TIP3   OH234720   3.680   5.155   1.510  0.6337  0.2224 -0.0677
11592TIP3    H134721   3.690   5.143   1.605 -0.1557  1.2528  0.1619
11592TIP3    H234722   3.652   5.246   1.500 -2.7090 -0.7650 -1.0204
11593TIP3   OH234723   3.787   0.128   2.641 -0.0159  0.2632  0.1633
11593TIP3    H134724   3.876   0.097   2.627  1.1712  3.0956  0.8275
11593TIP3    H234725   3.749   0.133   2.553  2.2363  3.6266 -0.7893
11594TIP3   OH234726   1.111   2.042   3.172  0.5170 -0.0103  0.3217
11594TIP3    H134727   1.111   1.961   3.121  1.1162 -3.2192  4.8388
11594TIP3    H234728   1.020   2.055   3.197  0.6215 -0.1221  0.7668
11595TIP3   OH234729   1.541   0.175   4.113 -0.0264  0.0936 -0.0228
11595TIP3    H134730   1.568   0.120   4.040 -0.7469 -1.7243  1.0141
11595TIP3    H234731   1.602   0.153   4.184 -1.1021 -0.3305  0.7963
11596TIP3   OH234732   7.822   2.166   4.948  0.4725 -0.2895 -0.2223
11596TIP3    H134733   7.911   2.158   4.980  1.3733  1.3697 -2.0866
11596TIP3    H234734   7.795   2.255   4.970  0.0256 -0.1148 -1.3864
11597TIP3   OH234735   0.150   1.133   4.400  0.0632  0.3744 -0.0329
11597TIP3    H134736   0.224   1.184   4.434  0.1060  0.5434 -0.3768
11597TIP3    H234737   0.084   1.137   4.470  0.6978 -0.4920  0.6450
11598TIP3   OH234738   4.574   2.946   1.077 -0.1954 -0.0490 -0.2416
11598TIP3    H134739   4.558   2.947   0.983  3.5822  0.3485 -1.0493
11598TIP3    H234740   4.579   3.038   1.103  3.4900  0.0843 -0.8320
11599TIP3   OH234741   0.680   3.928   0.755 -0.4776  0.4286  0.7808
11599TIP3    H134742   0.595   3.965   0.779 -1.6236 -1.5549  0.0690
11599TIP3    H234743   0.676   3.920   0.660  0.9870  1.3322  0.6234
11600TIP3   OH234744   5.103   0.029   1.355 -0.5395  0.1613 -0.5916
11600TIP3    H134745   5.148   0.030   1.271  0.4836 -2.0118 -0.1316
11600TIP3    H234746   5.015  -0.002   1.335 -1.0042  1.7072 -1.1033
11601TIP3   OH234747   1.391   2.178   3.622 -0.4660  0.2326  0.5019
11601TIP3    H134748   1.373   2.252   3.680  1.5647 -0.0480  1.5588
11601TIP3    H234749   1.398   2.103   3.680 -0.1843 -0.3879 -0.3100
11602TIP3   OH234750   7.200   3.085   6.243  0.1353 -0.4470 -0.0317
11602TIP3    H134751   7.225   3.118   6.157 -0.2238  1.0258  0.3984
11602TIP3    H234752   7.107   3.062   6.234 -0.3671  1.2624  0.3528
11603TIP3   OH234753   5.675   4.336   4.248  0.5834 -0.0824  0.3976
11603TIP3    H134754   5.608   4.404   4.246  0.0080 -0.6538 -0.3385
11603TIP3    H234755   5.686   4.309   4.157  1.1546 -0.6286  0.6170
11604TIP3   OH234756   3.039   4.526   3.822  0.4076  0.1109 -0.0125
11604TIP3    H134757   3.127   4.493   3.804  0.5756  0.1945  0.6179
11604TIP3    H234758   3.037   4.536   3.917 -0.5120 -0.5116  0.0376
11605TIP3   OH234759   8.313   1.876   5.022  0.0712 -0.8478  0.3646
11605TIP3    H134760   8.221   1.888   4.999 -0.0879  0.3935  1.5040
11605TIP3    H234761   8.312   1.823   5.102  0.4158 -1.7222 -0.1936
11606TIP3   OH234762   5.636   4.222   3.447 -0.4397 -0.4316  0.3249
11606TIP3    H134763   5.599   4.261   3.368 -1.6942 -0.5094  0.8620
11606TIP3    H234764   5.664   4.297   3.500  0.0271 -0.3703  0.0017
11607TIP3   OH234765   1.799   7.623   0.260 -0.3067  0.1837  0.0845
11607TIP3    H134766   1.890   7.637   0.286 -0.9612  1.8362  1.6600
11607TIP3    H234767   1.790   7.672   0.178 -0.0172  0.8598  0.4511
11608TIP3   OH234768   2.027   0.487   3.703  0.1378  0.2327  0.0712
11608TIP3    H134769   2.080   0.417   3.665 -0.6860 -2.2250  3.0569
11608TIP3    H234770   1.960   0.504   3.637  0.7863 -1.2861 -1.0350
11609TIP3   OH234771   5.261   3.781   3.064 -0.7187 -0.0914 -0.4759
11609TIP3    H134772   5.335   3.824   3.108  0.6218 -0.9270 -1.8079
11609TIP3    H234773   5.283   3.688   3.068 -0.8360 -0.2330 -2.3575
11610TIP3   OH234774   2.894   1.583   6.226 -0.0870 -0.0133 -0.1357
11610TIP3    H134775   2.850   1.511   6.271 -2.3389  1.0586 -0.4823
11610TIP3    H234776   2.945   1.541   6.157 -1.2232 -1.3020 -0.2274
11611TIP3   OH234777   3.382   7.659   1.660 -0.6771  0.2160 -0.1370
11611TIP3    H134778   3.299   7.702   1.641 -0.8198 -0.6681 -1.6181
11611TIP3    H234779   3.443   7.731   1.675 -0.9390  1.0062 -2.4517
11612TIP3   OH234780   5.157   4.449   3.843 -0.0598 -0.3924 -0.7251
11612TIP3    H134781   5.061   4.447   3.841 -0.0482 -1.8433 -1.3697
11612TIP3    H234782   5.181   4.391   3.915  0.3492  0.2123 -0.3623
11613TIP3   OH234783   0.108   2.537   4.828  0.2380  0.2241  0.1859
11613TIP3    H134784   0.023   2.493   4.814 -0.5810  1.9760 -0.6917
11613TIP3    H234785   0.101   2.576   4.915 -0.6618  1.9401 -0.6002
11614TIP3   OH234786   8.307   0.072   3.299  0.8093 -0.0643  0.2687
11614TIP3    H134787   8.259   0.035   3.224  2.1152 -0.4787 -0.3991
11614TIP3    H234788   8.264   0.035   3.376 -0.4063  0.1727 -0.2742
11615TIP3   OH234789   7.479   6.894   2.133 -0.8499  0.3165 -0.0785
11615TIP3    H134790   7.463   6.861   2.044 -3.1767  0.7103  0.1233
11615TIP3    H234791   7.540   6.831   2.171 -0.8175 -0.5845 -1.5382
11616TIP3   OH234792   8.149   1.551   6.190 -0.0290 -0.1996 -0.7619
11616TIP3    H134793   8.185   1.517   6.108 -0.2522  2.1358 -1.9091
11616TIP3    H234794   8.226   1.583   6.238 -0.0625  0.0712 -0.8856
11617TIP3   OH234795   4.100   1.355   3.731  0.6220  0.0893 -0.1971
11617TIP3    H134796   4.148   1.317   3.657 -0.4990 -1.2330 -0.2715
11617TIP3    H234797   4.091   1.284   3.793 -0.9685  0.3950 -0.0539
11618TIP3   OH234798   0.782   1.328   3.753  0.0197  0.0571  0.1160
11618TIP3    H134799   0.774   1.416   3.792  0.7726 -0.8332  2.4924
11618TIP3    H234800   0.783   1.343   3.659  0.0859  2.5973  0.4511
11619TIP3   OH234801   1.013   6.166   3.827  0.4976 -0.1068 -0.0618
11619TIP3    H134802   1.043   6.092   3.881 -0.3426  0.2629  0.9632
11619TIP3    H234803   1.046   6.243   3.872  0.2997  0.1919 -0.4237
11620TIP3   OH234804   4.592   0.591   0.864  0.0883  0.2223 -0.2113
11620TIP3    H134805   4.663   0.636   0.818 -0.8985  2.3388  0.2224
11620TIP3    H234806   4.518   0.595   0.804 -0.3975  0.4389  0.3866
11621TIP3   OH234807   7.180   2.353   0.761  0.3339  0.5028 -0.0363
11621TIP3    H134808   7.243   2.418   0.792  1.1795 -0.5660  0.5309
11621TIP3    H234809   7.229   2.298   0.700  0.1112 -0.6359  0.7723
11622TIP3   OH234810   6.872   0.740   4.015  0.1949  0.1155  0.0815
11622TIP3    H134811   6.851   0.735   4.109 -0.3794 -0.5721 -0.0703
11622TIP3    H234812   6.815   0.675   3.975  0.5170  0.3300 -0.7390
11623TIP3   OH234813   7.337   6.660   3.996 -0.5176  0.8563  0.0298
11623TIP3    H134814   7.368   6.583   4.044 -0.3150  1.4815  0.9325
11623TIP3    H234815   7.398   6.668   3.922 -1.2938 -0.5639 -0.8016
11624TIP3   OH234816   3.883   0.892   3.367 -0.1432  0.3433  0.2212
11624TIP3    H134817   3.880   0.886   3.272  0.3071  0.1454  0.2163
11624TIP3    H234818   3.824   0.823   3.398 -0.6545  0.7169  0.0807
11625TIP3   OH234819   0.534   7.274   4.612 -0.0617  0.7267  0.2932
11625TIP3    H134820   0.477   7.306   4.681 -0.3293 -0.2002  0.5216
11625TIP3    H234821   0.485   7.202   4.571  0.4576  0.6793 -0.2714
11626TIP3   OH234822   3.308   7.452   2.169 -0.0430  0.1049  0.4259
11626TIP3    H134823   3.329   7.382   2.107 -0.7991  0.8084 -0.6509
11626TIP3    H234824   3.294   7.406   2.252  0.9574 -0.8570  0.0866
11627TIP3   OH234825   3.000   3.719   2.842  0.0641 -0.0299 -0.2668
11627TIP3    H134826   2.984   3.681   2.928 -1.0955  1.0137  0.0001
11627TIP3    H234827   3.067   3.785   2.856  2.3684 -2.0926 -0.7968
11628TIP3   OH234828   2.881   5.038   2.548 -0.2129  0.2945 -0.3880
11628TIP3    H134829   2.872   4.999   2.461  2.3554  0.9022 -1.0296
11628TIP3    H234830   2.952   4.988   2.589  0.6832  1.9500  0.1525
11629TIP3   OH234831   0.859   0.041   4.263 -0.5025 -0.4008 -0.0886
11629TIP3    H134832   0.873   0.121   4.313 -0.4515 -1.2639  1.3328
11629TIP3    H234833   0.907  -0.026   4.312  0.5032 -1.0783 -1.9225
11630TIP3   OH234834   7.981   2.210   2.196 -0.4386 -0.2062 -0.5612
11630TIP3    H134835   7.886   2.196   2.199 -0.5029  0.3154  0.2830
11630TIP3    H234836   7.996   2.257   2.115 -1.3623  2.6691  0.7938
11631TIP3   OH234837   5.717   3.416   2.772 -0.0925  0.2015  0.5297
11631TIP3    H134838   5.764   3.444   2.851 -0.1845  0.0914  0.6239
11631TIP3    H234839   5.734   3.322   2.767  1.9915  0.5881 -0.9561
11632TIP3   OH234840   5.883   3.018   0.416  0.4298  0.1507 -0.5651
11632TIP3    H134841   5.841   2.979   0.493  1.4009 -0.4952 -0.3461
11632TIP3    H234842   5.912   2.943   0.364  2.6489  0.5182  0.0362
11633TIP3   OH234843   6.328   3.567   4.647 -0.0161  0.1883  0.0636
11633TIP3    H134844   6.383   3.508   4.699 -0.4722 -0.2584  0.0442
11633TIP3    H234845   6.350   3.547   4.556  1.1054  1.2795  0.0730
11634TIP3   OH234846   4.150   1.619   6.234  0.7428 -0.2946 -0.4417
11634TIP3    H134847   4.180   1.607   6.144 -2.2847  0.3857 -1.6648
11634TIP3    H234848   4.191   1.701   6.262  2.0168 -0.7074 -1.0230
11635TIP3   OH234849   3.241   0.955   0.994  0.1573 -0.0131 -0.0104
11635TIP3    H134850   3.224   1.002   0.912 -1.2878  0.3662  0.4794
11635TIP3    H234851   3.209   0.866   0.978 -1.2142  0.3650  0.4940
11636TIP3   OH234852   6.015   5.154   0.344  0.4667  0.8065  0.7600
11636TIP3    H134853   6.020   5.247   0.321  0.5885  0.8117  0.8062
11636TIP3    H234854   6.083   5.113   0.291 -0.5386  0.5208 -0.3461
11637TIP3   OH234855   1.169   0.888   5.791  0.1041  0.4207 -0.2970
11637TIP3    H134856   1.207   0.951   5.730  1.5893  0.1319  0.2990
11637TIP3    H234857   1.130   0.821   5.735 -0.5665  1.3094 -0.9264
11638TIP3   OH234858   4.464   1.706   6.358 -0.2067 -0.4636 -0.2760
11638TIP3    H134859   4.390   1.750   6.317  0.2043 -0.8463 -1.4806
11638TIP3    H234860   4.452   1.720   6.452 -1.1975  0.4182 -0.5190
11639TIP3   OH234861   5.090   2.912   3.290 -0.3365  0.5272 -0.1850
11639TIP3    H134862   5.067   2.932   3.380  0.4950  2.1107 -0.2749
11639TIP3    H234863   5.022   2.956   3.238 -0.7551 -0.2921 -0.3424
11640TIP3   OH234864   1.509   3.106   0.343 -0.1428  0.2449  0.3243
11640TIP3    H134865   1.573   3.168   0.378  0.8120 -0.9454  0.7988
11640TIP3    H234866   1.442   3.160   0.303  0.3126  1.5942  1.2979
11641TIP3   OH234867   5.111   6.743   0.075 -0.1675  0.3108 -0.5507
11641TIP3    H134868   5.176   6.726   0.007  1.1097 -0.6798  0.8189
11641TIP3    H234869   5.102   6.659   0.120 -0.7696  0.9884  0.6369
11642TIP3   OH234870   5.434   6.741   2.880 -0.4307 -0.2566 -0.1430
11642TIP3    H134871   5.465   6.830   2.863 -0.0820 -0.4910 -0.7722
11642TIP3    H234872   5.386   6.716   2.801  1.3337 -1.4186 -0.9140
11643TIP3   OH234873   2.603   4.313   0.790  0.4038 -0.0142 -0.0402
11643TIP3    H134874   2.686   4.358   0.775  0.7044 -0.8039 -0.8745
11643TIP3    H234875   2.550   4.332   0.712  1.1104 -2.2681 -1.1872
11644TIP3   OH234876   3.773   7.617   5.946 -0.0817 -0.1114 -0.5911
11644TIP3    H134877   3.844   7.652   5.999 -1.5477  2.0138  0.1198
11644TIP3    H234878   3.791   7.648   5.857 -0.9505  1.9454 -0.1059
11645TIP3   OH234879   2.249   1.097   4.916  0.2531 -0.3327 -0.1835
11645TIP3    H134880   2.323   1.109   4.856  0.5538 -0.7341  0.1032
11645TIP3    H234881   2.194   1.032   4.873 -0.2790  0.4558 -0.7137
11646TIP3   OH234882   4.323   0.402   4.894 -0.1299 -0.6810 -0.0184
11646TIP3    H134883   4.295   0.313   4.917 -1.1951 -0.3682 -0.0510
11646TIP3    H234884   4.307   0.454   4.973  0.2201 -0.4633 -0.0908
11647TIP3   OH234885   3.246   1.922   0.818 -0.2281  0.2622 -0.2732
11647TIP3    H134886   3.316   1.985   0.835  0.2448 -0.6370  1.2294
11647TIP3    H234887   3.219   1.891   0.904 -1.4253 -0.5494 -0.9112
11648TIP3   OH234888   3.452   3.791   5.592 -0.0764  0.2620  0.8627
11648TIP3    H134889   3.432   3.835   5.675  0.0638  2.6727 -0.2691
11648TIP3    H234890   3.529   3.838   5.559 -1.9582  1.6066 -2.0569
11649TIP3   OH234891   0.694   3.935   2.971 -0.0043  0.0747  0.9086
11649TIP3    H134892   0.686   4.014   2.918 -2.4748 -0.3410  0.5680
11649TIP3    H234893   0.752   3.960   3.043  1.6438  1.2997 -0.7223
11650TIP3   OH234894   3.588   3.727   3.940  0.2262  0.0427  0.0021
11650TIP3    H134895   3.553   3.765   3.860  0.4252  0.7475  0.2394
11650TIP3    H234896   3.524   3.661   3.966  0.0927 -0.0958 -0.6551
11651TIP3   OH234897   7.534   0.648   6.203  0.0320 -0.2768 -0.2641
11651TIP3    H134898   7.473   0.705   6.249  1.3398  0.5293  0.5694
11651TIP3    H234899   7.509   0.560   6.229 -1.0079  0.0084 -0.2649
11652TIP3   OH234900   3.933   2.164   1.206  0.4695 -0.1518  0.0898
11652TIP3    H134901   3.962   2.221   1.278 -0.1193  0.3084 -0.0288
11652TIP3    H234902   3.957   2.076   1.234  4.0946  0.3308 -0.9742
11653TIP3   OH234903   0.261   6.807   1.255 -0.1682  0.1785 -0.2741
11653TIP3    H134904   0.197   6.873   1.227 -0.9019 -0.9573 -1.3463
11653TIP3    H234905   0.281   6.831   1.346 -1.8574  0.7690 -0.0145
11654TIP3   OH234906   5.049   7.338   5.132  0.2406  0.2965  0.2602
11654TIP3    H134907   5.100   7.383   5.065  1.5362 -0.9381  0.3538
11654TIP3    H234908   5.093   7.253   5.142 -1.5506 -0.6368  0.7158
11655TIP3   OH234909   0.513   6.197   6.078 -0.7535  0.1278  0.2460
11655TIP3    H134910   0.432   6.153   6.051 -0.2858  0.1088 -1.2343
11655TIP3    H234911   0.532   6.258   6.007 -0.6024  1.7111  1.5794
11656TIP3   OH234912   2.190   2.269   1.423  0.1195 -0.0855 -0.2322
11656TIP3    H134913   2.207   2.243   1.514 -0.6077 -0.0580 -0.0781
11656TIP3    H234914   2.276   2.282   1.385  0.5916 -2.8839 -0.3600
11657TIP3   OH234915   6.931   5.604   6.291 -0.4209 -0.5165 -0.3233
11657TIP3    H134916   6.990   5.587   6.364 -0.1587 -0.5869 -0.5509
11657TIP3    H234917   6.873   5.673   6.323  1.7729  1.9106 -1.1397
11658TIP3   OH234918   3.488   1.258   4.054 -0.7105  0.0598 -0.5341
11658TIP3    H134919   3.456   1.262   4.144 -1.7900  0.6010 -0.9235
11658TIP3    H234920   3.534   1.341   4.041  0.9418 -0.7111  0.0214
11659TIP3   OH234921   3.191   0.672   4.040 -0.3789  0.3011  0.0698
11659TIP3    H134922   3.103   0.710   4.039 -0.6078 -0.1972  0.7849
11659TIP3    H234923   3.183   0.593   4.092  0.4552  0.1381 -0.0274
11660TIP3   OH234924   2.082   6.793   0.165  0.0539  0.5651 -0.3014
11660TIP3    H134925   2.063   6.827   0.078  1.1032 -1.0657 -1.1993
11660TIP3    H234926   2.005   6.741   0.188  0.1619  0.2596 -0.6356
11661TIP3   OH234927   2.747   4.793   4.603  0.2582 -0.1827  0.5601
11661TIP3    H134928   2.723   4.724   4.664  2.1080  0.1708  1.7958
11661TIP3    H234929   2.682   4.862   4.617  0.5324 -0.1889  2.0371
11662TIP3   OH234930   5.004   4.455   2.265  0.1119  0.2876  0.0831
11662TIP3    H134931   5.046   4.370   2.276  0.8244  0.8267  1.9004
11662TIP3    H234932   4.978   4.457   2.173  3.3121 -0.4595 -0.9919
11663TIP3   OH234933   5.466   0.206   1.622 -0.5008  0.2114 -0.1937
11663TIP3    H134934   5.377   0.184   1.648  0.0189 -0.4375  1.1257
11663TIP3    H234935   5.521   0.140   1.666  0.5131 -0.5069 -2.3684
11664TIP3   OH234936   7.035   6.811   3.020 -0.2339  0.3106 -0.0675
11664TIP3    H134937   6.958   6.775   3.064  0.2350 -0.5320  0.1033
11664TIP3    H234938   7.009   6.899   2.993 -1.1594  0.1404  0.2261
11665TIP3   OH234939   6.639   7.132   3.202  0.1766 -0.7608 -0.2876
11665TIP3    H134940   6.734   7.139   3.195  0.3260 -2.9030 -1.3668
11665TIP3    H234941   6.624   7.047   3.245 -1.2273 -1.1325 -1.4167
11666TIP3   OH234942   6.173   1.310   4.543  0.0562 -0.0850  0.6841
11666TIP3    H134943   6.248   1.252   4.554  0.5386 -0.0118 -1.5512
11666TIP3    H234944   6.142   1.328   4.631  1.1244 -2.1177  1.5354
11667TIP3   OH234945   6.650   7.048   1.404 -0.2828 -0.1082  0.0495
11667TIP3    H134946   6.679   7.040   1.494  0.2687 -0.0638 -0.1210
11667TIP3    H234947   6.605   6.965   1.386 -2.1380  0.6528  0.9702
11668TIP3   OH234948   0.960   4.981   4.946 -0.4804 -0.2829  0.4319
11668TIP3    H134949   0.938   4.903   4.894  1.0179 -0.5527  0.1652
11668TIP3    H234950   1.041   4.958   4.992 -2.0888 -0.3032  3.4978
11669TIP3   OH234951   4.893   0.155   2.710  0.1089 -0.0681 -0.1231
11669TIP3    H134952   4.897   0.082   2.649  2.1438 -0.2773  0.1598
11669TIP3    H234953   4.951   0.128   2.782  0.0066  1.3574  0.5221
11670TIP3   OH234954   0.461   0.200   5.367 -0.2077  0.1287 -0.4481
11670TIP3    H134955   0.442   0.127   5.425 -0.3182  0.4608 -0.0597
11670TIP3    H234956   0.428   0.172   5.282 -0.0497 -0.3589 -0.3491
11671TIP3   OH234957   2.541   5.086   4.046 -0.0331  0.1828 -0.0994
11671TIP3    H134958   2.584   5.068   3.962 -0.0515  0.8705 -0.2662
11671TIP3    H234959   2.612   5.120   4.101 -0.2365  0.8013 -0.2038
11672TIP3   OH234960   2.947   0.534   3.481 -0.1200 -0.8361 -0.0931
11672TIP3    H134961   2.863   0.513   3.522 -1.1714  1.6050 -0.7665
11672TIP3    H234962   3.010   0.537   3.553 -1.3798  0.7641  1.0206
11673TIP3   OH234963   5.458   6.469   4.503  0.5098  0.5226 -0.3953
11673TIP3    H134964   5.504   6.386   4.491 -2.1643 -0.9765 -1.0676
11673TIP3    H234965   5.460   6.511   4.417 -0.7176 -0.3238 -0.8624
11674TIP3   OH234966   2.795   4.015   1.494 -0.3784 -0.3535  0.1980
11674TIP3    H134967   2.813   3.959   1.419  2.4382 -0.5283  0.8800
11674TIP3    H234968   2.838   4.098   1.473 -1.6145  0.4371  0.6369
11675TIP3   OH234969   6.229   3.767   4.349  0.1193  0.6571  0.3801
11675TIP3    H134970   6.181   3.786   4.268  0.8749 -0.0144 -0.2515
11675TIP3    H234971   6.162   3.767   4.417 -0.7774 -0.1748 -0.4574
11676TIP3   OH234972   5.524   3.762   0.616 -0.4262  1.0842  0.0889
11676TIP3    H134973   5.536   3.681   0.666  0.2300  0.6952 -0.6690
11676TIP3    H234974   5.436   3.792   0.639 -1.3065 -0.6838 -0.8072
11677TIP3   OH234975   1.361   3.051   1.342 -0.0668  0.6792  0.2711
11677TIP3    H134976   1.271   3.074   1.319  0.1033  1.7057  0.5554
11677TIP3    H234977   1.353   2.982   1.408 -0.5746 -2.5505 -2.8779
11678TIP3   OH234978   7.507   7.220   3.737  0.3025  0.1817  0.2008
11678TIP3    H134979   7.537   7.188   3.652 -0.4763  0.9433 -0.3832
11678TIP3    H234980   7.416   7.189   3.743  1.0108 -1.7827  1.7675
11679TIP3   OH234981   1.089   1.633   0.681 -0.5773 -0.1856  0.4066
11679TIP3    H134982   1.061   1.551   0.722 -0.1977 -0.0588  0.9314
11679TIP3    H234983   1.130   1.607   0.600 -2.1726 -0.3838 -0.3833
11680TIP3   OH234984   5.049   7.310   1.600  0.2396  0.6107 -0.0237
11680TIP3    H134985   4.961   7.302   1.564 -0.2162  2.2742  0.6343
11680TIP3    H234986   5.071   7.221   1.630 -0.7375 -0.0578 -1.2096
11681TIP3   OH234987   4.363   0.574   0.646 -0.4522 -0.0758 -0.0680
11681TIP3    H134988   4.416   0.643   0.606  0.1166 -0.6363 -0.2946
11681TIP3    H234989   4.307   0.621   0.709 -2.0050  0.9471 -2.1080
11682TIP3   OH234990   7.605   6.290   3.832  0.1768 -0.2191  0.1038
11682TIP3    H134991   7.670   6.253   3.772 -0.1116  1.2099 -1.1544
11682TIP3    H234992   7.656   6.318   3.908  0.4303 -2.8913  1.0372
11683TIP3   OH234993   7.790   6.305   3.235  0.3663  0.2451  0.0980
11683TIP3    H134994   7.766   6.352   3.315 -0.9127  0.9946 -0.6856
11683TIP3    H234995   7.707   6.278   3.197  0.7314  1.9963 -2.1976
11684TIP3   OH234996   2.762   0.026   0.809  0.2447 -0.0818  0.0183
11684TIP3    H134997   2.689   0.070   0.852 -0.8405 -1.3895 -0.4090
11684TIP3    H234998   2.744   0.036   0.715 -0.9750 -2.7699 -0.1348
11685TIP3   OH234999   5.219   6.351   1.697 -0.4191 -0.1381  0.4082
11685TIP3    H135000   5.152   6.321   1.636 -1.5211  1.0672  0.9620
11685TIP3    H235001   5.170   6.379   1.774  0.7273  0.7991  0.8322
11686TIP3   OH235002   0.520   2.649   2.287  0.4085 -0.0275 -0.8512
11686TIP3    H135003   0.500   2.557   2.302  0.7233  0.1851  1.2342
11686TIP3    H235004   0.464   2.696   2.349  2.6215  0.9554  0.5429
11687TIP3   OH235005   7.224   3.267   2.719  0.1005 -0.3361 -1.1041
11687TIP3    H135006   7.305   3.264   2.668  0.0145 -0.4054 -1.2377
11687TIP3    H235007   7.174   3.338   2.681  0.6926  0.6457 -0.1196
11688TIP3   OH235008   7.972   7.192   4.494 -0.0344 -0.0133 -0.5604
11688TIP3    H135009   7.976   7.285   4.474  0.4394 -0.0582 -0.6980
11688TIP3    H235010   8.033   7.151   4.432  0.8314 -0.2533  0.3994
11689TIP3   OH235011   7.386   7.028   3.975  0.1147  0.4139  0.3622
11689TIP3    H135012   7.465   7.015   4.028 -0.4583  1.0629  1.4062
11689TIP3    H235013   7.413   7.005   3.886  1.3242  0.0844  0.7946
11690TIP3   OH235014   3.068   3.834   4.598 -0.2956 -0.1519  0.4804
11690TIP3    H135015   3.118   3.838   4.679  0.7146 -0.7184 -0.0804
11690TIP3    H235016   2.984   3.795   4.622  0.1073 -0.5868  1.2048
11691TIP3   OH235017   7.348   6.399   2.885  0.1736 -0.5227 -0.2919
11691TIP3    H135018   7.368   6.311   2.918  0.5424 -0.6485 -0.8233
11691TIP3    H235019   7.434   6.438   2.868  0.0081 -0.0952 -0.1584
11692TIP3   OH235020   6.420   2.419   4.505 -0.1580  0.0979  0.1493
11692TIP3    H135021   6.367   2.470   4.566 -0.0486  1.4024 -0.7955
11692TIP3    H235022   6.506   2.461   4.507  1.1727 -2.4504  2.2313
11693TIP3   OH235023   7.981   3.904   5.734 -0.5805 -0.4396 -0.1015
11693TIP3    H135024   7.951   3.831   5.789 -0.3896 -0.0612  0.5124
11693TIP3    H235025   7.986   3.979   5.793 -1.3002  0.2139 -0.8405
11694TIP3   OH235026   0.585   6.409   2.767  0.4715  0.3233 -0.3245
11694TIP3    H135027   0.610   6.329   2.722  0.3934 -0.0142  0.2239
11694TIP3    H235028   0.489   6.411   2.762  0.3311 -0.6402  1.3521
11695TIP3   OH235029   2.320   5.561   3.057  0.6939 -0.2754  0.1322
11695TIP3    H135030   2.226   5.564   3.035  0.6477 -0.1258  0.3560
11695TIP3    H235031   2.323   5.573   3.152  0.8387 -1.7621  0.3417
11696TIP3   OH235032   4.815   3.278   2.975  0.4396  0.9069  0.3658
11696TIP3    H135033   4.750   3.250   3.040 -1.5619  1.4537 -1.2759
11696TIP3    H235034   4.845   3.197   2.934 -1.9379  0.7527 -1.2641
11697TIP3   OH235035   0.698   7.745   6.678  0.8127 -0.2510 -0.2435
11697TIP3    H135036   0.787   7.766   6.707  1.0781 -2.6773  0.8816
11697TIP3    H235037   0.653   7.715   6.756 -0.5967 -0.4096 -1.0719
11698TIP3   OH235038   2.223   6.196   4.207  0.5738  0.4935 -0.0594
11698TIP3    H135039   2.302   6.146   4.224  0.0852 -0.1021  0.5244
11698TIP3    H235040   2.245   6.286   4.234  0.9001  0.2359  0.5490
11699TIP3   OH235041   4.943   6.321   4.978  0.1704 -0.4700  0.1305
11699TIP3    H135042   4.920   6.271   5.056  2.0146  0.5600  1.4181
11699TIP3    H235043   4.964   6.255   4.912  1.0639 -1.3913  1.3005
11700TIP3   OH235044   2.213   3.142   4.396 -0.3260  0.8673 -0.5417
11700TIP3    H135045   2.303   3.174   4.405 -1.0869  2.9369  0.1874
11700TIP3    H235046   2.197   3.093   4.477 -0.4154  2.0176  0.1575
11701TIP3   OH235047   2.599   5.990   2.879 -0.0807 -0.3399  0.6581
11701TIP3    H135048   2.571   6.059   2.939  0.3573 -0.0223  0.5026
11701TIP3    H235049   2.560   5.910   2.915 -0.5512 -0.0235  0.8667
11702TIP3   OH235050   3.406   5.357   4.031  0.0533 -0.3001 -0.2170
11702TIP3    H135051   3.445   5.272   4.050  0.1702 -0.6227 -1.7707
11702TIP3    H235052   3.333   5.365   4.093  0.7892 -0.9688  0.7720
11703TIP3   OH235053   1.120   3.389   2.236  0.0520 -0.5490 -0.2963
11703TIP3    H135054   1.099   3.336   2.159  1.7648 -1.2668 -0.3222
11703TIP3    H235055   1.107   3.330   2.310  1.1371 -0.7710 -0.2630
11704TIP3   OH235056   4.470   1.952   0.342  0.0923 -0.4331 -0.0035
11704TIP3    H135057   4.421   2.028   0.311  0.5281 -0.0895  0.1259
11704TIP3    H235058   4.497   1.977   0.431  3.3780  0.8340 -1.2029
11705TIP3   OH235059   6.307   5.059   3.490 -0.3445  0.6665 -0.3760
11705TIP3    H135060   6.300   4.989   3.425  0.5943  0.1700  0.0418
11705TIP3    H235061   6.298   5.015   3.574 -0.6111  1.1759 -0.1331
11706TIP3   OH235062   0.958   3.670   2.938  0.5685  0.3171 -0.0795
11706TIP3    H135063   1.032   3.613   2.958 -0.3083 -0.7039  0.3207
11706TIP3    H235064   0.885   3.634   2.988 -0.0809  1.6339 -0.0308
11707TIP3   OH235065   2.045   4.641   4.303  0.3925 -0.0640 -0.3917
11707TIP3    H135066   2.094   4.571   4.346 -1.0603  0.2058  1.8586
11707TIP3    H235067   1.989   4.595   4.240  1.9734 -0.5525 -1.4949
11708TIP3   OH235068   7.118   4.459   6.576 -0.1931 -0.3578 -0.5137
11708TIP3    H135069   7.085   4.445   6.488  0.8973 -0.5783 -0.8984
11708TIP3    H235070   7.094   4.550   6.596 -0.3880 -0.2879 -1.0473
11709TIP3   OH235071   2.423   7.081   2.824  0.6698  0.1284  0.4456
11709TIP3    H135072   2.455   6.995   2.851 -1.0945 -0.5527  0.4457
11709TIP3    H235073   2.500   7.124   2.787  1.6184 -1.3834  0.5765
11710TIP3   OH235074   2.463   6.512   3.003  0.1803 -0.5746  0.4125
11710TIP3    H135075   2.524   6.497   2.931 -0.1387  0.1514 -0.0191
11710TIP3    H235076   2.383   6.468   2.976  0.5396 -1.6345  1.0359
11711TIP3   OH235077   5.659   4.145   0.258 -0.7963 -0.1223 -0.4470
11711TIP3    H135078   5.695   4.071   0.306  0.4869  0.8630  0.1784
11711TIP3    H235079   5.729   4.171   0.198 -0.2716  1.9857  0.9513
11712TIP3   OH235080   1.295   6.975   2.208 -0.0484  0.0126 -0.5680
11712TIP3    H135081   1.375   6.963   2.157 -0.4820  0.9132 -1.4950
11712TIP3    H235082   1.325   6.986   2.298  0.8272 -0.2945 -0.8115
11713TIP3   OH235083   4.085   5.374   2.183 -1.4081  1.4268 -0.0794
11713TIP3    H135084   4.049   5.306   2.126 -0.6674  1.5811 -0.7406
11713TIP3    H235085   4.099   5.329   2.267  0.3326  0.3814 -0.8794
11714TIP3   OH235086   3.450   4.724   3.770  0.3934  0.1359  0.2568
11714TIP3    H135087   3.410   4.663   3.708  0.3166  1.4885 -1.0907
11714TIP3    H235088   3.408   4.704   3.854 -0.3256 -1.0045 -0.3434
11715TIP3   OH235089   1.339   4.386   5.827 -0.7133 -0.1031  0.5664
11715TIP3    H135090   1.429   4.373   5.856 -0.4531 -0.9261 -0.5317
11715TIP3    H235091   1.290   4.314   5.866 -0.9316  0.3981  1.2421
11716TIP3   OH235092   6.975   0.550   6.118 -0.4044  0.4290  0.2914
11716TIP3    H135093   6.886   0.535   6.085  0.7770 -2.0329 -2.1271
11716TIP3    H235094   7.031   0.542   6.040  2.2386 -1.5608  2.2199
11717TIP3   OH235095   7.963   0.143   6.245 -0.1041 -0.0082 -0.1069
11717TIP3    H135096   7.922   0.133   6.331 -2.2497  1.0662 -0.9297
11717TIP3    H235097   7.977   0.237   6.236  0.4865 -0.1499 -0.7832
11718TIP3   OH235098   0.389   7.057   2.719  0.0295 -0.5157 -0.1915
11718TIP3    H135099   0.467   7.072   2.772 -0.3980 -1.1561  0.6376
11718TIP3    H235100   0.422   7.035   2.633  0.9168 -3.7462  0.8354
11719TIP3   OH235101   3.509   2.062   3.379  0.0797 -0.2784 -0.3962
11719TIP3    H135102   3.592   2.068   3.332  1.6600  1.7868  2.3304
11719TIP3    H235103   3.510   1.975   3.420  0.6475 -0.4629 -0.7999
11720TIP3   OH235104   7.016   6.723   1.878 -0.0539  0.1605  0.3006
11720TIP3    H135105   7.029   6.651   1.940 -1.5501  0.2740  0.7913
11720TIP3    H235106   7.098   6.773   1.883  0.7454 -1.1100  0.4532
11721TIP3   OH235107   7.072   0.412   6.359  0.0714  0.0810  0.0978
11721TIP3    H135108   7.012   0.338   6.352  1.0038 -0.7514  0.6852
11721TIP3    H235109   7.079   0.446   6.270  1.2231 -1.8442 -0.6000
11722TIP3   OH235110   1.295   4.949   4.244  0.2112 -0.5546 -0.5725
11722TIP3    H135111   1.383   4.962   4.208  0.5351  0.7435  0.6007
11722TIP3    H235112   1.303   4.871   4.298  1.1699  0.5622  0.9848
11723TIP3   OH235113   0.350   7.058   4.659  0.4396 -0.4148 -0.0879
11723TIP3    H135114   0.430   7.016   4.689  2.1928  1.4579 -1.7813
11723TIP3    H235115   0.311   7.096   4.738 -0.5557 -3.9186  1.2757
11724TIP3   OH235116   0.568   4.126   6.493  0.2671 -0.2287  0.2163
11724TIP3    H135117   0.597   4.037   6.513  1.2402  0.3090  1.3402
11724TIP3    H235118   0.482   4.115   6.454  0.0260 -1.6218  1.0685
11725TIP3   OH235119   1.884   0.773   4.897 -0.1661 -0.1089  0.1781
11725TIP3    H135120   1.826   0.759   4.822 -0.6323  0.8603  0.3441
11725TIP3    H235121   1.826   0.769   4.973  0.1684 -0.2472  0.4249
11726TIP3   OH235122   0.535   7.610   4.336  0.9579  0.4086  0.4375
11726TIP3    H135123   0.589   7.627   4.259  0.8925 -0.1383  0.2674
11726TIP3    H235124   0.549   7.686   4.392 -0.1241  1.5301 -0.7417
11727TIP3   OH235125   6.660   4.142   2.133  0.0319  0.2343 -0.3541
11727TIP3    H135126   6.695   4.053   2.127  1.7736  0.7566  1.2413
11727TIP3    H235127   6.698   4.178   2.213 -1.9543  1.8749 -0.0527
11728TIP3   OH235128   1.078   3.525   2.623  0.1621  0.4961  0.2836
11728TIP3    H135129   1.094   3.593   2.558  0.3983 -0.4519 -0.6709
11728TIP3    H235130   0.990   3.543   2.655 -1.1904 -0.7177 -2.4422
11729TIP3   OH235131   1.758   3.044   3.206  0.1429  0.3868 -0.3755
11729TIP3    H135132   1.672   3.077   3.182  0.4051 -0.6783 -3.1776
11729TIP3    H235133   1.815   3.121   3.208 -0.6282  0.9481  0.4033
11730TIP3   OH235134   3.037   1.433   2.057 -0.0186 -0.1937 -0.2432
11730TIP3    H135135   2.952   1.414   2.018 -0.4783  2.0162 -0.4604
11730TIP3    H235136   3.018   1.494   2.128  1.4022  0.8044 -0.6689
11731TIP3   OH235137   0.426   7.730   5.256  0.6747  0.0156 -0.1580
11731TIP3    H135138   0.456   7.659   5.313 -0.9359 -1.2523 -0.8098
11731TIP3    H235139   0.441   7.810   5.307  0.2026 -0.9957  1.6558
11732TIP3   OH235140   1.090   5.193   1.878 -0.5044  0.1977 -0.1975
11732TIP3    H135141   1.103   5.263   1.942 -0.3819 -1.4621  1.6831
11732TIP3    H235142   1.174   5.184   1.834  0.2354 -0.3892  1.2904
11733TIP3   OH235143   0.356   6.451   5.167  0.1949  0.0828 -0.7521
11733TIP3    H135144   0.292   6.426   5.234  0.0852 -0.2278 -0.9728
11733TIP3    H235145   0.313   6.432   5.084 -0.7267  2.8814 -1.0322
11734TIP3   OH235146   2.768   5.947   3.594 -0.2698  0.0718  0.6535
11734TIP3    H135147   2.803   6.012   3.656  1.9855  0.0614 -0.4832
11734TIP3    H235148   2.727   6.000   3.525  1.5441  0.3704 -0.2602
11735TIP3   OH235149   0.622   7.110   0.852  0.4432 -0.2013  0.4885
11735TIP3    H135150   0.637   7.147   0.939  2.3496  0.6456 -0.1468
11735TIP3    H235151   0.595   7.184   0.799  1.7343 -0.1977 -0.1956
11736TIP3   OH235152   3.127   2.981   4.441  0.3812  0.2515  0.2936
11736TIP3    H135153   3.077   3.054   4.479  1.0290  0.5996  0.4835
11736TIP3    H235154   3.161   3.016   4.359  0.0851 -0.0810  0.0245
11737TIP3   OH235155   5.421   3.167   0.246 -0.4565  0.4442  0.3368
11737TIP3    H135156   5.489   3.106   0.276  1.2491  0.9020 -2.2023
11737TIP3    H235157   5.355   3.167   0.315 -0.1678 -3.6446  0.8295
11738TIP3   OH235158   3.062   2.613   5.731  0.5903 -0.5719  0.5219
11738TIP3    H135159   3.156   2.596   5.731  0.4735 -1.3866 -1.3111
11738TIP3    H235160   3.026   2.556   5.663 -0.9373  1.2808 -0.3466
11739TIP3   OH235161   5.259   4.280   0.806  0.4365 -0.5740 -0.1375
11739TIP3    H135162   5.166   4.297   0.811  0.6627  1.2371 -1.3168
11739TIP3    H235163   5.279   4.232   0.886 -1.3456 -0.2828  0.5178
11740TIP3   OH235164   0.316   0.930   5.332  0.2709  0.0436  0.3258
11740TIP3    H135165   0.382   0.998   5.344  0.0681  0.0016  1.8671
11740TIP3    H235166   0.277   0.919   5.418 -3.1121  1.4313 -0.8253
11741TIP3   OH235167   1.747   5.259   2.093 -0.9446  0.1749  0.1364
11741TIP3    H135168   1.786   5.180   2.055 -2.5185 -0.0082 -1.1692
11741TIP3    H235169   1.795   5.332   2.053 -0.3038 -0.0696  0.4354
11742TIP3   OH235170   4.878   5.455   2.991  0.3349 -0.5345 -0.6297
11742TIP3    H135171   4.954   5.410   2.953  1.6381 -0.9943  2.2567
11742TIP3    H235172   4.824   5.384   3.027 -1.5416 -0.2092 -2.5987
11743TIP3   OH235173   2.439   7.202   6.668  0.0772  0.0776  0.2452
11743TIP3    H135174   2.498   7.185   6.594 -0.8840  0.4431 -0.6301
11743TIP3    H235175   2.461   7.290   6.696 -0.0628  0.2258 -0.1015
11744TIP3   OH235176   6.939   6.590   4.599 -0.4849 -0.1622  0.2410
11744TIP3    H135177   6.910   6.642   4.524 -0.3865 -0.9056 -0.3193
11744TIP3    H235178   6.947   6.501   4.565  1.4334 -0.1805  0.6368
11745TIP3   OH235179   7.248   2.649   6.697 -0.5377 -0.0264 -0.1415
11745TIP3    H135180   7.305   2.603   6.758  1.3377 -1.6483 -2.8931
11745TIP3    H235181   7.160   2.630   6.728  0.2587 -3.0868  0.5721
11746TIP3   OH235182   7.120   1.742   1.464 -0.8969 -0.2091 -0.5742
11746TIP3    H135183   7.036   1.772   1.432 -0.3787  0.3135 -1.4763
11746TIP3    H235184   7.103   1.712   1.554 -2.5186 -2.3709 -1.5203
11747TIP3   OH235185   2.969   3.383   5.476 -0.1470 -0.2913 -0.4327
11747TIP3    H135186   2.964   3.381   5.380  0.5106 -0.3847 -0.4674
11747TIP3    H235187   3.062   3.371   5.495 -0.1076  0.8355  0.1830
11748TIP3   OH235188   3.422   0.189   3.372 -0.0401  0.0387  0.2093
11748TIP3    H135189   3.489   0.135   3.330  1.4286  1.9315  0.0030
11748TIP3    H235190   3.411   0.150   3.459  2.9529  0.9070  1.0724
11749TIP3   OH235191   4.437   5.594   2.293  0.4051 -0.2315  0.0776
11749TIP3    H135192   4.472   5.534   2.359 -0.5905  0.5372  1.3628
11749TIP3    H235193   4.420   5.675   2.342  0.3344  0.6139 -1.2980
11750TIP3   OH235194   7.601   6.940   4.118  0.4642 -0.9996 -0.0304
11750TIP3    H135195   7.573   6.870   4.176  1.5002 -0.9196  0.6025
11750TIP3    H235196   7.619   7.014   4.176 -0.2458 -0.3197 -0.6472
11751TIP3   OH235197   1.609   1.446   1.077 -0.2457 -0.0507 -0.3760
11751TIP3    H135198   1.611   1.407   0.990  0.1376 -0.8711 -0.0057
11751TIP3    H235199   1.570   1.380   1.133 -0.7746  0.5918  0.0318
11752TIP3   OH235200   3.477   6.269   6.373  0.3939  0.3670  0.0855
11752TIP3    H135201   3.473   6.348   6.319  0.2895  0.1585 -0.2209
11752TIP3    H235202   3.388   6.232   6.367  1.0900 -1.1379 -1.8815
11753TIP3   OH235203   4.866   2.164   4.238  0.4252  0.4029  0.2002
11753TIP3    H135204   4.925   2.217   4.184  0.7216  0.7168  0.8306
11753TIP3    H235205   4.796   2.138   4.177  2.2094 -1.6797 -1.0856
11754TIP3   OH235206   6.120   5.790   4.392  0.5831  0.3278 -0.2130
11754TIP3    H135207   6.197   5.734   4.404  0.6423  0.3832 -0.3263
11754TIP3    H235208   6.122   5.850   4.467  0.4282  0.0719 -0.0061
11755TIP3   OH235209   6.945   2.563   2.126  0.3357 -0.3581 -0.0440
11755TIP3    H135210   6.870   2.610   2.163 -0.0531 -0.7456 -0.3305
11755TIP3    H235211   6.909   2.479   2.097  0.8960 -0.5741 -0.1188
11756TIP3   OH235212   5.684   7.789   1.059  0.7073 -0.0522 -0.7037
11756TIP3    H135213   5.676   7.732   1.136 -0.0932 -0.0883 -0.8075
11756TIP3    H235214   5.600   7.834   1.054  1.4012  1.3248 -0.4836
11757TIP3   OH235215   7.739   3.772   5.565 -0.2998  0.1529  0.0309
11757TIP3    H135216   7.812   3.720   5.600 -1.1107 -1.1794 -0.2144
11757TIP3    H235217   7.739   3.755   5.471 -1.1623 -0.1507  0.0829
11758TIP3   OH235218   2.857   7.436   3.161  0.0944 -0.3304 -0.2272
11758TIP3    H135219   2.900   7.388   3.231  0.2875 -1.1774 -0.9055
11758TIP3    H235220   2.850   7.373   3.089 -2.3783 -0.2579 -0.1318
11759TIP3   OH235221   2.217   0.866   5.399 -0.8328 -0.0795  0.1920
11759TIP3    H135222   2.232   0.793   5.339 -0.8948 -0.0845  0.1826
11759TIP3    H235223   2.281   0.851   5.470 -0.5467  0.0991 -0.0264
11760TIP3   OH235224   4.368   7.575   3.592 -0.2454  0.0940 -0.4363
11760TIP3    H135225   4.303   7.578   3.522 -0.6446  1.3049 -0.0258
11760TIP3    H235226   4.337   7.505   3.650 -0.0280 -0.7728 -1.3258
11761TIP3   OH235227   6.817   0.060   2.136 -0.1211 -0.2318 -0.3558
11761TIP3    H135228   6.759   0.003   2.185  1.1309 -1.1543  0.1050
11761TIP3    H235229   6.815   0.143   2.184  0.1238 -0.7352  0.5471
11762TIP3   OH235230   6.241   5.491   6.448  0.4404 -0.6334 -0.2466
11762TIP3    H135231   6.146   5.480   6.460  0.4151  1.4084  2.4896
11762TIP3    H235232   6.249   5.550   6.372 -0.5330 -0.3209 -0.1208
11763TIP3   OH235233   1.792   7.505   2.299  0.4025 -0.4347 -0.6698
11763TIP3    H135234   1.706   7.542   2.321  0.5010 -0.6001  0.0384
11763TIP3    H235235   1.843   7.580   2.268  0.1547 -0.2431 -0.6176
11764TIP3   OH235236   5.714   5.320   3.673  0.3216  0.0762 -0.1909
11764TIP3    H135237   5.685   5.301   3.763 -0.2612 -0.3111 -0.4590
11764TIP3    H235238   5.692   5.412   3.660  0.7831  0.2522  0.1988
11765TIP3   OH235239   4.600   4.789   1.705  0.5759  0.4853  0.2382
11765TIP3    H135240   4.678   4.780   1.760  0.0177 -0.4655  0.9053
11765TIP3    H235241   4.593   4.706   1.659  0.1391  0.6827 -0.0553
11766TIP3   OH235242   2.388   6.568   0.107  0.2612 -0.0208  0.0375
11766TIP3    H135243   2.433   6.487   0.087 -0.3807 -0.5109  0.5093
11766TIP3    H235244   2.296   6.543   0.115 -0.0596  0.9032 -0.6380
11767TIP3   OH235245   2.661   0.403   5.563 -0.1754 -0.4520  0.0863
11767TIP3    H135246   2.585   0.405   5.621  0.4004  0.9370  0.8448
11767TIP3    H235247   2.695   0.314   5.572  1.7174  0.4178  4.4130
11768TIP3   OH235248   5.404   5.199   2.928  0.3312 -0.1258 -0.0115
11768TIP3    H135249   5.453   5.276   2.899  0.4683 -0.5751 -1.0075
11768TIP3    H235250   5.384   5.151   2.847  0.5047 -1.2903  0.6095
11769TIP3   OH235251   5.457   0.773   4.434  0.5979 -0.0128  0.5727
11769TIP3    H135252   5.365   0.749   4.450  0.4187 -0.4404 -0.9682
11769TIP3    H235253   5.506   0.721   4.498 -0.1804 -0.3740  0.8877
11770TIP3   OH235254   0.151   0.102   3.878 -0.0826 -0.6345  0.0714
11770TIP3    H135255   0.128   0.027   3.932 -1.8376 -0.1034  0.0979
11770TIP3    H235256   0.195   0.162   3.938 -0.9379 -0.5647  0.6395
11771TIP3   OH235257   3.164   5.425   1.469 -0.3037 -0.8721 -0.0852
11771TIP3    H135258   3.178   5.494   1.403 -0.4853 -1.0110 -0.2689
11771TIP3    H235259   3.244   5.373   1.466 -0.1525 -0.6512  0.0758
11772TIP3   OH235260   4.041   0.827   2.406 -0.5093  0.2570  0.4432
11772TIP3    H135261   4.009   0.808   2.317  2.1928 -0.3391 -0.4922
11772TIP3    H235262   4.028   0.746   2.454  0.0307 -0.1495 -0.0760
11773TIP3   OH235263   8.185   7.008   1.921  0.0526  0.5150  0.4677
11773TIP3    H135264   8.251   7.075   1.942  0.4245 -0.4990  2.7415
11773TIP3    H235265   8.181   6.952   1.998  1.4998 -3.6071 -2.1334
11774TIP3   OH235266   6.702   6.487   1.595 -0.5830 -0.3923  0.1458
11774TIP3    H135267   6.779   6.542   1.585 -0.0302 -1.4610 -1.8554
11774TIP3    H235268   6.642   6.516   1.527 -1.6543 -0.1338  1.1517
11775TIP3   OH235269   0.194   1.712   4.433  0.1921 -0.3711 -0.0317
11775TIP3    H135270   0.215   1.649   4.502  0.5088  0.2489  0.4510
11775TIP3    H235271   0.127   1.669   4.380 -1.4353 -0.1557  1.7295
11776TIP3   OH235272   0.803   6.845   6.597  0.0747 -0.3634  0.5166
11776TIP3    H135273   0.740   6.916   6.585  0.9660  0.1118 -2.1353
11776TIP3    H235274   0.752   6.765   6.584 -0.1607 -0.0085 -0.9009
11777TIP3   OH235275   6.671   1.920   0.632 -0.4298 -0.3235  0.1792
11777TIP3    H135276   6.583   1.947   0.660  0.3548  3.0513 -0.1297
11777TIP3    H235277   6.707   1.998   0.590  2.5675 -1.7600 -0.1653
11778TIP3   OH235278   0.614   2.083   0.879 -0.0216 -0.1577  0.0390
11778TIP3    H135279   0.564   2.165   0.880 -0.5972 -0.5016  0.4262
11778TIP3    H235280   0.615   2.056   0.787  0.1834  0.2924 -0.0919
11779TIP3   OH235281   5.381   0.535   4.950  0.7016  0.2445  0.3351
11779TIP3    H135282   5.335   0.463   4.906 -2.9613  2.2097  0.5449
11779TIP3    H235283   5.410   0.497   5.033  1.2203 -1.6251 -0.6331
11780TIP3   OH235284   7.460   3.549   6.674 -0.1006  0.1394 -0.2264
11780TIP3    H135285   7.442   3.506   6.758 -1.1579  1.5429  0.2998
11780TIP3    H235286   7.402   3.505   6.612  0.4491 -0.6861 -0.1673
11781TIP3   OH235287   2.774   0.295   5.126  0.2631 -0.6990  0.3132
11781TIP3    H135288   2.838   0.365   5.139 -1.5918  1.0168  0.5355
11781TIP3    H235289   2.812   0.220   5.172  1.1852  0.8407  2.2368
11782TIP3   OH235290   8.058   4.459   1.663 -0.6946  0.3228  0.4040
11782TIP3    H135291   8.056   4.459   1.759 -0.7175 -2.8848  0.4941
11782TIP3    H235292   8.052   4.552   1.639  0.9300  1.3619  3.5114
11783TIP3   OH235293   1.939   3.022   2.181  0.2576  0.0864 -0.1105
11783TIP3    H135294   1.900   2.949   2.132 -0.8157  0.2042  0.5293
11783TIP3    H235295   2.030   2.995   2.197  0.3313 -0.3931 -1.2625
11784TIP3   OH235296   3.080   0.026   6.610  0.3514 -0.0426 -0.0520
11784TIP3    H135297   3.035   0.002   6.691 -1.2805 -0.6227 -1.0780
11784TIP3    H235298   3.116   0.113   6.627 -2.3375  1.0559  0.4149
11785TIP3   OH235299   6.367   0.152   2.923 -0.0822 -0.1837 -0.2802
11785TIP3    H135300   6.353   0.058   2.933  2.3104 -0.3642  3.1226
11785TIP3    H235301   6.459   0.159   2.896  0.1222  1.1608  0.6621
11786TIP3   OH235302   1.094   6.800   1.672  0.1931  0.5642 -0.3180
11786TIP3    H135303   1.168   6.744   1.649  0.0612  0.8334 -1.4950
11786TIP3    H235304   1.131   6.869   1.726  0.4865 -0.2504  0.5453
11787TIP3   OH235305   6.705   0.284   0.545  0.5726 -0.2851  0.4438
11787TIP3    H135306   6.691   0.300   0.451 -0.0019 -2.0957  0.1802
11787TIP3    H235307   6.800   0.293   0.557  0.5210  1.1778 -0.0337
11788TIP3   OH235308   0.223   2.937   0.930 -0.0537 -0.0749 -0.2912
11788TIP3    H135309   0.162   2.919   1.001  0.6946  0.7457  0.5771
11788TIP3    H235310   0.211   3.030   0.911  2.0068  0.5132  0.9891
11789TIP3   OH235311   7.580   2.734   2.987  0.0500 -0.0196  0.0998
11789TIP3    H135312   7.641   2.726   3.060 -0.4574 -1.2403  0.4286
11789TIP3    H235313   7.623   2.689   2.914  0.1279  0.3075 -0.0539
11790TIP3   OH235314   7.918   6.442   2.402 -0.1469 -0.1228  0.6215
11790TIP3    H135315   7.997   6.482   2.366  1.3460 -0.5403  3.2273
11790TIP3    H235316   7.873   6.514   2.446 -0.0881 -0.2989  0.9728
11791TIP3   OH235317   7.538   1.400   6.378  0.2568 -0.8361  0.0972
11791TIP3    H135318   7.520   1.314   6.340  0.3425 -0.0898 -1.7303
11791TIP3    H235319   7.551   1.458   6.302  0.5470  0.7180  1.2789
11792TIP3   OH235320   2.502   2.071   6.538  0.2589 -0.0948  0.0038
11792TIP3    H135321   2.578   2.041   6.588  0.9013 -2.6130 -2.2467
11792TIP3    H235322   2.532   2.151   6.494  0.9270  0.0135  0.6333
11793TIP3   OH235323   6.114   6.793   1.719  0.2720 -0.1838 -0.0217
11793TIP3    H135324   6.026   6.782   1.755 -0.7693 -0.6757 -2.4935
11793TIP3    H235325   6.165   6.722   1.759 -0.7137 -0.5284  0.6668
11794TIP3   OH235326   3.333   3.757   1.382 -0.3224 -0.4144 -0.1299
11794TIP3    H135327   3.289   3.804   1.311 -1.1067  0.1372  0.6981
11794TIP3    H235328   3.359   3.825   1.444 -0.2214 -0.9420  0.4156
11795TIP3   OH235329   5.658   0.552   0.327  0.4048 -0.9146 -0.1909
11795TIP3    H135330   5.727   0.490   0.352  1.1574  0.0140  0.0807
11795TIP3    H235331   5.705   0.624   0.286 -0.4309 -0.3386 -0.1481
11796TIP3   OH235332   6.213   2.067   6.273  0.2780 -0.0095  0.0203
11796TIP3    H135333   6.175   2.155   6.272  2.3011  1.0552  2.7914
11796TIP3    H235334   6.289   2.073   6.216 -0.2042 -0.2987 -0.6566
11797TIP3   OH235335   2.021   3.872   3.247 -0.5751  0.4232 -0.4656
11797TIP3    H135336   2.059   3.909   3.167  0.8563  1.5983  0.7127
11797TIP3    H235337   2.073   3.909   3.318 -2.1676 -0.1544  1.0669
11798TIP3   OH235338   5.346   7.033   4.464  0.4666  0.0683 -0.6512
11798TIP3    H135339   5.395   7.099   4.414  0.7431 -0.6174 -1.3090
11798TIP3    H235340   5.389   6.950   4.443 -0.0589 -0.3651 -0.0683
11799TIP3   OH235341   3.755   5.397   6.166  0.2403 -0.6438 -0.1664
11799TIP3    H135342   3.672   5.369   6.126  0.0367  0.0215 -0.2313
11799TIP3    H235343   3.794   5.316   6.199  0.5431 -1.2644 -1.9225
11800TIP3   OH235344   2.850   6.334   2.579  0.6715 -0.1746 -0.0327
11800TIP3    H135345   2.770   6.318   2.529  0.2656  1.7644 -0.0483
11800TIP3    H235346   2.843   6.274   2.654 -0.3434 -0.6915 -0.5229
11801TIP3   OH235347   0.141   2.119   5.066  0.1201  0.2117 -0.5110
11801TIP3    H135348   0.212   2.116   5.131  1.6734 -0.5155 -2.1542
11801TIP3    H235349   0.116   2.028   5.053 -1.1379  0.4556  0.0127
11802TIP3   OH235350   4.003   6.211   2.154  0.1367  0.1361  0.2288
11802TIP3    H135351   3.921   6.234   2.110 -0.3729 -0.9502  0.5694
11802TIP3    H235352   3.986   6.227   2.247 -0.3760 -1.8976  0.5266
11803TIP3   OH235353   5.409   5.685   3.753 -0.1615 -0.1740  0.0979
11803TIP3    H135354   5.410   5.770   3.710  0.1733 -0.0821  0.2869
11803TIP3    H235355   5.492   5.644   3.728 -0.2575 -0.3878  0.1217
11804TIP3   OH235356   0.498   3.482   3.417 -0.3135 -0.4824  0.0930
11804TIP3    H135357   0.581   3.526   3.403  0.2464 -1.2444  0.9011
11804TIP3    H235358   0.461   3.523   3.495 -1.1336  0.4537 -0.7549
11805TIP3   OH235359   4.594   5.647   2.082  0.0149 -0.2383 -0.3678
11805TIP3    H135360   4.656   5.576   2.097 -1.1672 -1.4793 -1.1670
11805TIP3    H235361   4.526   5.633   2.147 -0.1711  0.2527 -0.4531
11806TIP3   OH235362   3.506   2.462   2.761  0.6210  0.2584 -0.0336
11806TIP3    H135363   3.593   2.482   2.794  1.4685 -1.1540 -1.3167
11806TIP3    H235364   3.471   2.398   2.823  1.3449 -0.7422 -0.6333
11807TIP3   OH235365   2.462   0.791   6.585 -0.2597  0.0542 -0.1199
11807TIP3    H135366   2.372   0.817   6.566 -1.1674 -1.7663  1.4042
11807TIP3    H235367   2.469   0.795   6.680  0.5346 -1.9854 -0.0434
11808TIP3   OH235368   5.515   4.322   1.253  0.1072 -0.1859 -0.1625
11808TIP3    H135369   5.593   4.344   1.201  0.8231 -0.1905  0.8602
11808TIP3    H235370   5.454   4.393   1.237  1.1492  0.9232  0.6097
11809TIP3   OH235371   4.636   6.812   5.867  0.5151  0.4806 -0.6752
11809TIP3    H135372   4.628   6.882   5.931  3.2886  0.0838  0.2301
11809TIP3    H235373   4.568   6.749   5.891  0.7387  0.8924  1.1615
11810TIP3   OH235374   2.627   2.050   6.134  0.5377 -1.1913 -0.6435
11810TIP3    H135375   2.576   2.070   6.212  0.7361  0.9762 -1.0096
11810TIP3    H235376   2.657   1.961   6.147 -0.6482 -1.3794  1.0684
11811TIP3   OH235377   7.440   3.256   3.045  0.5433  0.1350  0.1311
11811TIP3    H135378   7.520   3.276   3.094  1.2358  0.5605 -1.1236
11811TIP3    H235379   7.466   3.186   2.984 -0.4472 -0.7952  0.7302
11812TIP3   OH235380   5.909   2.282   6.585 -0.1269 -0.3110  0.0196
11812TIP3    H135381   5.829   2.319   6.622 -0.1618 -1.1938  0.8487
11812TIP3    H235382   5.979   2.315   6.641  0.0710  0.2225 -0.5304
11813TIP3   OH235383   7.453   5.598   5.827  0.5111 -0.2285  0.0351
11813TIP3    H135384   7.429   5.515   5.786 -1.4884  0.4830 -0.3630
11813TIP3    H235385   7.379   5.616   5.886  1.0210  1.1587  0.2663
11814TIP3   OH235386   3.808   0.162   5.608  0.3991 -0.1131 -0.8466
11814TIP3    H135387   3.781   0.209   5.529 -0.6687 -0.7063 -0.8487
11814TIP3    H235388   3.826   0.073   5.577 -0.1613 -0.3857 -0.4068
11815TIP3   OH235389   6.562   5.257   2.599  0.1504 -0.0072  0.1529
11815TIP3    H135390   6.593   5.342   2.570 -1.2199  0.1899 -0.8518
11815TIP3    H235391   6.511   5.276   2.678  0.8775 -0.0760  0.6496
11816TIP3   OH235392   4.125   0.679   3.922  0.2727  0.8951 -0.3082
11816TIP3    H135393   4.131   0.584   3.914  0.3230  0.9268 -0.6650
11816TIP3    H235394   4.031   0.697   3.927  0.2379  0.8652 -0.7785
11817TIP3   OH235395   7.182   2.916   0.129 -0.0125 -0.0980 -0.0474
11817TIP3    H135396   7.242   2.930   0.056  0.1295 -0.4659  0.0012
11817TIP3    H235397   7.234   2.934   0.207  0.1496 -0.8286  0.0134
11818TIP3   OH235398   2.297   1.658   3.865  0.5682 -0.1337 -0.3762
11818TIP3    H135399   2.369   1.633   3.923  0.9967 -1.0994 -1.2733
11818TIP3    H235400   2.279   1.578   3.815 -0.5724  0.3395 -0.7434
11819TIP3   OH235401   0.365   1.019   5.699 -0.0557  0.3771  0.0753
11819TIP3    H135402   0.452   0.994   5.668 -0.0274 -0.6599  0.9410
11819TIP3    H235403   0.325   1.062   5.624 -0.2259 -2.6112 -1.6951
11820TIP3   OH235404   5.672   4.514   5.039  0.1134  0.1732 -0.1043
11820TIP3    H135405   5.753   4.466   5.023 -1.2068 -2.5517  0.6588
11820TIP3    H235406   5.696   4.581   5.103  1.8950 -0.0133 -0.5188
11821TIP3   OH235407   1.278   0.781   1.617  0.6678 -0.4122 -0.3097
11821TIP3    H135408   1.351   0.833   1.583  0.4373 -0.9315 -1.6625
11821TIP3    H235409   1.257   0.720   1.546 -1.0336 -0.3140  0.0637
11822TIP3   OH235410   4.116   1.467   1.619  0.0514  0.3431  0.6169
11822TIP3    H135411   4.211   1.470   1.615  0.0176  1.0580  0.3404
11822TIP3    H235412   4.097   1.413   1.696  0.6628 -1.5856 -0.5172
11823TIP3   OH235413   2.248   2.659   5.091 -0.1538  0.1884 -0.4143
11823TIP3    H135414   2.250   2.714   5.013  1.1045  1.6907  0.6104
11823TIP3    H235415   2.191   2.586   5.068 -1.3254  1.5543 -2.0782
11824TIP3   OH235416   3.790   1.275   3.722 -0.1107  0.7288  0.2251
11824TIP3    H135417   3.818   1.346   3.779 -0.4973 -0.2913  1.7392
11824TIP3    H235418   3.752   1.210   3.781 -0.9024 -0.1979 -1.2387
11825TIP3   OH235419   6.637   7.742   6.264  0.1771 -0.2338 -0.3488
11825TIP3    H135420   6.677   7.828   6.282  1.4188 -0.7742 -0.3846
11825TIP3    H235421   6.604   7.750   6.174  1.1589 -0.0798 -0.7200
11826TIP3   OH235422   0.860   4.732   4.851 -0.2653 -0.1686 -0.4897
11826TIP3    H135423   0.794   4.676   4.891 -3.0378  2.5603 -0.7908
11826TIP3    H235424   0.848   4.719   4.757 -0.4601  0.3615 -0.5457
11827TIP3   OH235425   4.500   3.060   3.904 -0.3395  0.1038 -0.0226
11827TIP3    H135426   4.510   2.973   3.944  2.1268  0.6009  0.6052
11827TIP3    H235427   4.431   3.102   3.956 -1.1360 -1.2228  0.0550
11828TIP3   OH235428   5.374   1.877   5.348  0.5608  0.4303 -0.0462
11828TIP3    H135429   5.453   1.930   5.358  1.2932 -0.5328 -0.6088
11828TIP3    H235430   5.393   1.796   5.395  0.1916 -0.0979 -0.7852
11829TIP3   OH235431   7.325   4.989   4.053  0.6601  0.2841  0.0881
11829TIP3    H135432   7.255   4.936   4.089  0.6493  0.7783  0.8167
11829TIP3    H235433   7.405   4.953   4.092  1.0099 -1.2198 -1.8419
11830TIP3   OH235434   5.060   6.416   3.124  0.0160  0.5189 -0.0460
11830TIP3    H135435   5.081   6.398   3.216  1.6137 -1.1916 -0.6821
11830TIP3    H235436   4.965   6.410   3.120 -0.1172  1.0301  1.5613
11831TIP3   OH235437   5.422   5.490   4.404  0.1050 -0.1632 -0.1070
11831TIP3    H135438   5.466   5.523   4.483 -0.0157 -2.2397  0.9137
11831TIP3    H235439   5.336   5.463   4.435 -0.9371  1.3952 -1.5399
11832TIP3   OH235440   4.487   4.482   4.919 -0.3333 -0.5883 -0.1293
11832TIP3    H135441   4.575   4.468   4.886  1.1933  1.1444  2.7349
11832TIP3    H235442   4.461   4.398   4.956  0.1840 -1.0655 -0.8330
11833TIP3   OH235443   3.796   0.825   1.619  0.1110  0.4298 -1.2726
11833TIP3    H135444   3.732   0.895   1.614  0.2757  0.5386 -1.9673
11833TIP3    H235445   3.861   0.856   1.682  0.6822  1.3314 -2.2798
11834TIP3   OH235446   6.589   7.582   1.570  0.0324  0.4659 -0.3963
11834TIP3    H135447   6.562   7.649   1.506  0.4582  0.7235 -0.3073
11834TIP3    H235448   6.669   7.617   1.609  0.6024 -0.3765 -0.7884
11835TIP3   OH235449   6.551   3.862   4.611  0.7723 -0.3230 -0.3837
11835TIP3    H135450   6.628   3.914   4.589  1.6622 -0.5606  1.8872
11835TIP3    H235451   6.519   3.900   4.694  1.8679 -3.6525  1.7693
11836TIP3   OH235452   1.676   4.791   4.852  0.1263 -0.5786  0.8143
11836TIP3    H135453   1.744   4.813   4.788  0.5253  0.3346  1.5319
11836TIP3    H235454   1.594   4.793   4.801  0.4957 -0.4681  0.2083
11837TIP3   OH235455   0.246   4.717   6.155 -0.0879  0.4179 -0.4718
11837TIP3    H135456   0.253   4.738   6.248  0.8585 -0.1467 -0.3988
11837TIP3    H235457   0.265   4.623   6.149  0.4500  0.5570 -1.2773
11838TIP3   OH235458   7.662   5.057   2.246  0.5773  0.8348  0.1158
11838TIP3    H135459   7.683   5.076   2.337 -2.4028  1.0053  0.8837
11838TIP3    H235460   7.610   4.977   2.250 -1.5342  2.0409 -1.0965
11839TIP3   OH235461   3.649   6.231   0.041 -0.6430 -0.5666 -0.3958
11839TIP3    H135462   3.660   6.317   0.081 -3.3005 -0.3196 -0.0200
11839TIP3    H235463   3.676   6.243  -0.050 -0.7403  0.5844 -0.2839
11840TIP3   OH235464   5.851   1.079   3.228  0.4376  0.3485 -0.7077
11840TIP3    H135465   5.909   1.142   3.185  2.0096 -0.2959  0.3494
11840TIP3    H235466   5.885   1.074   3.318 -0.0730 -1.4681 -0.5764
11841TIP3   OH235467   1.099   0.053   2.868  0.2109 -0.4274 -0.6110
11841TIP3    H135468   1.145   0.110   2.929 -1.7975  0.7183 -0.0745
11841TIP3    H235469   1.112   0.094   2.782  0.4263 -0.2720 -0.5040
11842TIP3   OH235470   8.044   4.792   1.339 -0.0637 -0.1652 -0.2298
11842TIP3    H135471   7.980   4.816   1.271 -0.6982 -2.6738 -0.6256
11842TIP3    H235472   7.997   4.731   1.395  1.4633 -0.6852  0.5344
11843TIP3   OH235473   3.631   6.605   1.984 -0.5543  0.1560 -0.2399
11843TIP3    H135474   3.644   6.694   1.949 -2.2611  1.1879  1.5235
11843TIP3    H235475   3.536   6.596   1.989 -0.3980 -1.7655 -0.2876
11844TIP3   OH235476   2.566   3.230   6.185  0.4729  0.0082 -0.3218
11844TIP3    H135477   2.491   3.248   6.128  0.6769  0.5275 -0.4300
11844TIP3    H235478   2.526   3.202   6.268  0.1312  1.1427 -0.0864
11845TIP3   OH235479   1.770   5.809   3.977  0.2515  0.0235  0.0532
11845TIP3    H135480   1.744   5.754   4.050 -0.1798  0.4776  0.2526
11845TIP3    H235481   1.798   5.891   4.017  0.6334  0.0452 -0.2526
11846TIP3   OH235482   2.703   4.806   1.898 -0.2358 -0.0561  0.0828
11846TIP3    H135483   2.730   4.794   1.807  0.2944 -0.3290  0.2729
11846TIP3    H235484   2.728   4.724   1.942  0.7670  0.5968  0.7709
11847TIP3   OH235485   1.949   2.058   0.995 -0.2478  0.5558  0.0255
11847TIP3    H135486   2.014   2.108   1.044  0.2928 -0.9045  0.8660
11847TIP3    H235487   1.937   1.978   1.046 -3.1324  0.9901  0.2015
11848TIP3   OH235488   7.886   6.937   2.278  0.0968 -0.0116 -0.3018
11848TIP3    H135489   7.843   6.885   2.209  1.8349 -1.8451 -0.1204
11848TIP3    H235490   7.974   6.951   2.244  0.3042  0.9821  0.6292
11849TIP3   OH235491   7.062   7.188   3.696  0.0268  0.0186  0.4566
11849TIP3    H135492   7.126   7.233   3.751  1.4239 -2.0118  0.5533
11849TIP3    H235493   7.035   7.112   3.747 -0.2741 -0.7255 -0.7748
11850TIP3   OH235494   4.450   4.035   0.107 -0.3270  0.1159 -0.2448
11850TIP3    H135495   4.497   3.951   0.110  0.6372  0.6584  0.3911
11850TIP3    H235496   4.431   4.048   0.014  2.2227  0.6315 -0.7740
11851TIP3   OH235497   2.418   2.793   4.863  0.0290 -0.1633 -0.1365
11851TIP3    H135498   2.428   2.865   4.800  1.2524  0.4306  0.6893
11851TIP3    H235499   2.414   2.714   4.809  0.9309  0.3456 -0.9819
11852TIP3   OH235500   6.127   3.745   3.081 -0.2938  0.4471 -0.0406
11852TIP3    H135501   6.047   3.792   3.057 -1.1927 -0.6749  0.6331
11852TIP3    H235502   6.146   3.690   3.005 -0.8091 -0.0986  0.2163
11853TIP3   OH235503   1.895   6.144   3.719 -0.6896  0.1503  0.1232
11853TIP3    H135504   1.807   6.116   3.742 -1.4837  1.6311 -0.9480
11853TIP3    H235505   1.936   6.164   3.803 -0.7710 -2.0711  0.7681
11854TIP3   OH235506   2.562   3.269   5.532 -0.1171  0.6466 -0.0126
11854TIP3    H135507   2.641   3.317   5.509 -0.0313  0.5024 -0.0230
11854TIP3    H235508   2.581   3.232   5.618  0.7737 -1.3935 -1.0193
11855TIP3   OH235509   0.854   3.759   3.407 -0.7999  0.0902  0.9006
11855TIP3    H135510   0.946   3.748   3.382 -0.4403  1.8126  1.3163
11855TIP3    H235511   0.849   3.727   3.497 -1.1703 -2.1781  0.1486
11856TIP3   OH235512   0.380   4.007   0.170 -0.1837  0.5708  0.2421
11856TIP3    H135513   0.306   3.995   0.229  0.7162 -1.2004  1.0777
11856TIP3    H235514   0.379   3.930   0.114  0.7584  0.7515 -0.0399
11857TIP3   OH235515   0.716   6.861   5.222 -0.2284  0.1517  0.5196
11857TIP3    H135516   0.646   6.796   5.212  1.2071 -1.5230  0.8956
11857TIP3    H235517   0.698   6.901   5.307 -1.6023  0.8878 -0.0776
11858TIP3   OH235518   1.898   1.662   3.945 -0.2590  0.6094 -0.2372
11858TIP3    H135519   1.955   1.589   3.972 -0.2394  0.9236  0.6017
11858TIP3    H235520   1.950   1.710   3.881  0.2550  0.6403  0.1949
11859TIP3   OH235521   0.419   0.377   6.744 -0.1576 -0.3116  0.3852
11859TIP3    H135522   0.436   0.471   6.738  2.4707 -0.7947 -4.1703
11859TIP3    H235523   0.505   0.336   6.734 -1.4531 -3.2358  0.1695
11860TIP3   OH235524   0.354   3.665   5.448 -0.0659  0.0747  0.2930
11860TIP3    H135525   0.372   3.599   5.381 -0.7848 -0.2234  0.3829
11860TIP3    H235526   0.439   3.684   5.487  0.0886 -1.2326  0.6624
11861TIP3   OH235527   7.058   5.759   5.165  0.1852  0.0766 -0.0345
11861TIP3    H135528   7.031   5.823   5.100  0.3587  0.3737  0.1791
11861TIP3    H235529   7.091   5.812   5.238  0.7043 -0.2582 -0.0166
11862TIP3   OH235530   2.242   6.285   2.051  0.3851  0.2885 -0.2937
11862TIP3    H135531   2.283   6.321   1.973  1.5549  1.0314  0.6200
11862TIP3    H235532   2.308   6.228   2.090 -0.4372 -0.6371 -0.2135
11863TIP3   OH235533   1.145   1.800   3.964  0.3399  0.2877 -0.0111
11863TIP3    H135534   1.237   1.795   3.991 -0.3334  0.1109  2.4198
11863TIP3    H235535   1.118   1.889   3.986 -0.1273  0.2960 -0.5987
11864TIP3   OH235536   7.483   4.449   6.034  0.5309  0.1025  0.4002
11864TIP3    H135537   7.471   4.407   5.949  1.4093  0.5914  0.0236
11864TIP3    H235538   7.542   4.390   6.082  0.3114  0.0016  0.5508
11865TIP3   OH235539   2.531   6.383   4.087 -0.4817 -0.4518  0.0418
11865TIP3    H135540   2.474   6.415   4.157  0.0571 -1.3209  0.9011
11865TIP3    H235541   2.614   6.363   4.131  0.1303 -0.2548 -0.9940
11866TIP3   OH235542   7.609   5.889   6.530  0.2045  0.2756 -0.1365
11866TIP3    H135543   7.666   5.960   6.560 -0.7189  1.4471 -1.0538
11866TIP3    H235544   7.539   5.933   6.481 -0.9645 -1.1835  0.1354
11867TIP3   OH235545   3.698   1.727   0.677  0.0122  0.0105 -0.2147
11867TIP3    H135546   3.660   1.813   0.692 -1.3681 -0.7730  1.0953
11867TIP3    H235547   3.773   1.723   0.736  1.1312  0.8925 -1.5032
11868TIP3   OH235548   7.758   0.008   1.132 -0.0616  0.8058 -0.4890
11868TIP3    H135549   7.753  -0.051   1.208  1.6283  0.3072 -0.7139
11868TIP3    H235550   7.776   0.094   1.170 -1.4345  0.9968 -0.2223
11869TIP3   OH235551   1.726   7.506   4.659  0.2358 -0.5906 -0.2029
11869TIP3    H135552   1.698   7.430   4.710  0.4200 -0.3073  0.3268
11869TIP3    H235553   1.817   7.520   4.683 -0.2858  0.9011  1.1253
11870TIP3   OH235554   1.392   3.330   3.791 -0.0744 -0.0209 -0.2861
11870TIP3    H135555   1.312   3.297   3.833  0.4777 -2.3224 -0.9312
11870TIP3    H235556   1.385   3.426   3.799 -2.0303 -0.2216  1.2159
11871TIP3   OH235557   5.040   4.377   4.495  0.7910 -0.3319  0.0241
11871TIP3    H135558   4.957   4.407   4.460  0.1556 -1.9970 -0.0093
11871TIP3    H235559   5.022   4.288   4.525  2.5485 -0.7202  0.0368
11872TIP3   OH235560   0.345   1.014   4.791 -0.2079 -1.0184 -0.7042
11872TIP3    H135561   0.438   1.004   4.772 -0.0739  1.6482 -1.8843
11872TIP3    H235562   0.302   0.988   4.709 -0.3244 -0.0725 -0.9561
11873TIP3   OH235563   2.802   4.059   0.188  0.3917  0.1564 -0.5282
11873TIP3    H135564   2.863   4.132   0.185  0.8772 -0.2178  0.0069
11873TIP3    H235565   2.855   3.984   0.216 -0.1024 -0.3968 -1.0335
11874TIP3   OH235566   2.070   5.739   5.266  0.6634 -0.3721 -0.2388
11874TIP3    H135567   2.112   5.808   5.317 -0.7283  1.0874 -0.9985
11874TIP3    H235568   1.976   5.754   5.277  0.3044 -0.3117 -2.7612
11875TIP3   OH235569   5.767   5.048   0.282  0.3818 -0.2477  0.0781
11875TIP3    H135570   5.804   5.019   0.198  0.0845 -0.7592  0.1188
11875TIP3    H235571   5.821   5.123   0.307  0.4238 -0.0371 -0.6120
11876TIP3   OH235572   2.708   1.529   0.875  0.1796 -0.2849 -0.1451
11876TIP3    H135573   2.739   1.522   0.966 -0.6630  0.1871  0.1958
11876TIP3    H235574   2.635   1.591   0.880 -0.3072 -0.7688 -1.0442
11877TIP3   OH235575   4.808   5.360   4.695  0.1419 -0.3648  0.4918
11877TIP3    H135576   4.805   5.334   4.788 -0.6784  0.1849  0.6322
11877TIP3    H235577   4.897   5.392   4.682 -0.0893  0.7600  1.4442
11878TIP3   OH235578   1.238   7.000   5.145 -0.1565 -0.3658 -0.4736
11878TIP3    H135579   1.153   6.994   5.188 -0.0836 -1.7156 -0.5011
11878TIP3    H235580   1.297   6.948   5.200  1.1024  2.0125  0.5799
11879TIP3   OH235581   6.721   2.327   1.009  0.1894  0.2095 -0.0444
11879TIP3    H135582   6.803   2.280   0.997  0.8506  1.0260  1.0804
11879TIP3    H235583   6.663   2.264   1.052  0.5635 -0.0587  0.0701
11880TIP3   OH235584   0.006   4.709   5.335 -0.1036 -0.3335  0.2818
11880TIP3    H135585   0.078   4.748   5.384  0.1901  1.1848 -1.2946
11880TIP3    H235586  -0.015   4.773   5.267 -1.6438 -1.6084 -0.5067
11881TIP3   OH235587   5.103   0.649   1.303 -0.1680  0.2147  0.0174
11881TIP3    H135588   5.039   0.590   1.262 -1.5623  1.5105  0.2300
11881TIP3    H235589   5.154   0.593   1.361 -0.0106 -1.1573 -1.3817
11882TIP3   OH235590   2.686   7.434   4.876  0.0033  0.1208 -0.3833
11882TIP3    H135591   2.759   7.431   4.939 -0.8105  1.5451  0.6704
11882TIP3    H235592   2.728   7.418   4.792  1.2073 -1.3311  0.4234
11883TIP3   OH235593   1.802   7.134   1.406  0.1374  0.3577 -0.2581
11883TIP3    H135594   1.839   7.209   1.362 -1.4057 -0.2575 -2.8036
11883TIP3    H235595   1.788   7.069   1.337 -0.4906 -1.4908  1.4856
11884TIP3   OH235596   5.568   0.716   6.492 -0.3578 -0.2505 -0.5384
11884TIP3    H135597   5.508   0.650   6.456 -0.9186  0.2250 -0.4930
11884TIP3    H235598   5.594   0.768   6.416  0.8582 -1.1051 -0.7416
11885TIP3   OH235599   3.106   1.479   4.032 -0.0779  0.3639  0.7894
11885TIP3    H135600   3.177   1.538   4.054  1.0277 -1.0427  1.1373
11885TIP3    H235601   3.120   1.402   4.088 -1.4067 -0.2729  0.2966
11886TIP3   OH235602   0.010   0.295   6.153  0.1645 -0.2745  0.0180
11886TIP3    H135603  -0.004   0.367   6.214 -0.6526 -0.1511 -0.3037
11886TIP3    H235604   0.050   0.226   6.207 -0.6379 -0.2083  0.7364
11887TIP3   OH235605   1.911   0.320   3.349 -0.4469 -0.3251 -0.0814
11887TIP3    H135606   1.842   0.374   3.388  1.1448  0.7222  1.3692
11887TIP3    H235607   1.903   0.236   3.393  0.5058  0.4512  1.6378
11888TIP3   OH235608   5.803   4.762   4.674 -0.3955 -0.5192  0.6428
11888TIP3    H135609   5.807   4.710   4.754 -0.8541 -0.0306  0.9984
11888TIP3    H235610   5.717   4.805   4.678 -0.5342 -0.6864 -0.2426
11889TIP3   OH235611   7.570   1.276   1.041 -0.3740 -0.1877 -0.1413
11889TIP3    H135612   7.533   1.260   0.954 -1.4361  1.0129  0.0646
11889TIP3    H235613   7.495   1.265   1.100  0.3549 -1.0714  0.6506
11890TIP3   OH235614   7.802   2.976   2.794  0.7475  0.7955  0.2340
11890TIP3    H135615   7.776   2.886   2.774  0.6128  0.4788  1.7539
11890TIP3    H235616   7.896   2.978   2.780  0.7408  0.4402  0.1356
11891TIP3   OH235617   4.482   3.855   1.820  0.0175  0.6141  0.1904
11891TIP3    H135618   4.574   3.875   1.836 -0.3516  1.6078  1.2452
11891TIP3    H235619   4.470   3.866   1.726  1.1773 -0.4893 -0.1132
11892TIP3   OH235620   2.714   3.791   4.886  0.4277 -0.2646  0.1909
11892TIP3    H135621   2.652   3.814   4.955  0.9443 -1.0648  0.9549
11892TIP3    H235622   2.738   3.700   4.905  1.9992  0.0915  0.0630
11893TIP3   OH235623   7.340   1.206   0.875 -0.0952 -0.0977 -0.4102
11893TIP3    H135624   7.311   1.236   0.789  0.4810 -0.5586 -0.7676
11893TIP3    H235625   7.261   1.213   0.930 -0.6490 -0.4715 -1.1421
11894TIP3   OH235626   2.389   0.140   0.184 -0.0962  0.1396  0.3146
11894TIP3    H135627   2.453   0.108   0.120 -1.5598 -1.0532 -0.6161
11894TIP3    H235628   2.437   0.206   0.235  1.4584  0.3054 -1.2622
11895TIP3   OH235629   2.678   5.525   5.359  0.0546  0.2003  0.2930
11895TIP3    H135630   2.611   5.564   5.304  0.7983 -0.5458 -1.1837
11895TIP3    H235631   2.651   5.546   5.449 -1.4877  0.9302 -0.3199
11896TIP3   OH235632   2.901   5.302   4.044  0.1160 -0.0728 -0.5109
11896TIP3    H135633   2.862   5.320   3.958  1.6885  2.2902 -0.8421
11896TIP3    H235634   2.994   5.292   4.027  0.2888 -0.9009  0.7831
11897TIP3   OH235635   7.585   0.836   5.609 -0.1611  0.1187 -0.2320
11897TIP3    H135636   7.613   0.921   5.643 -0.5221 -0.0824  0.5879
11897TIP3    H235637   7.661   0.779   5.623  0.1008  0.3145 -0.8315
11898TIP3   OH235638   6.948   1.852   1.090  0.1912 -0.1661  0.3734
11898TIP3    H135639   6.877   1.846   1.026 -0.8061  1.3949  1.2723
11898TIP3    H235640   6.986   1.764   1.091 -2.1151 -1.2441  0.2898
11899TIP3   OH235641   4.290   7.568   6.293  0.2814 -0.0468  0.1399
11899TIP3    H135642   4.322   7.503   6.356  0.8821 -0.4374 -0.5502
11899TIP3    H235643   4.360   7.576   6.229 -0.1492  0.6540 -0.2597
11900TIP3   OH235644   0.896   1.803   6.590 -0.1975 -0.3009 -0.6422
11900TIP3    H135645   0.932   1.748   6.659  0.8985 -0.5781 -1.4081
11900TIP3    H235646   0.869   1.742   6.522  1.4705  0.0815 -1.7064
11901TIP3   OH235647   2.352   3.500   4.868 -0.2436  0.2427  0.2836
11901TIP3    H135648   2.407   3.490   4.791 -0.3736  1.0759  0.0668
11901TIP3    H235649   2.408   3.477   4.942  0.1991  0.4588  0.0162
11902TIP3   OH235650   6.769   3.761   1.729  0.2241  0.1590  0.3710
11902TIP3    H135651   6.750   3.677   1.689  0.4536  0.7718 -1.0717
11902TIP3    H235652   6.837   3.742   1.795  0.4085 -0.7465 -0.0769
11903TIP3   OH235653   4.811   5.240   3.911 -0.4041  0.0404  0.3957
11903TIP3    H135654   4.792   5.333   3.906  1.7594  0.4979 -2.7373
11903TIP3    H235655   4.849   5.227   3.997 -0.6314  2.0547  0.8433
11904TIP3   OH235656   7.816   3.188   5.193  0.4741 -0.1109  0.3857
11904TIP3    H135657   7.868   3.255   5.148 -0.7637  0.4828 -0.1861
11904TIP3    H235658   7.783   3.132   5.122 -1.4751  0.8218  0.5104
11905TIP3   OH235659   6.468   6.181   5.363  0.1514  0.0082  0.2793
11905TIP3    H135660   6.412   6.124   5.416 -1.2143 -0.6098 -1.7139
11905TIP3    H235661   6.434   6.269   5.378  0.6773  0.0461  1.4385
11906TIP3   OH235662   5.338   6.374   2.030  0.2019  0.1115  0.0690
11906TIP3    H135663   5.259   6.421   2.002  0.5160 -0.2560 -1.5265
11906TIP3    H235664   5.388   6.360   1.949  1.9046  0.3212  1.0304
11907TIP3   OH235665   7.121   5.526   2.470  0.2855  0.0862 -0.2779
11907TIP3    H135666   7.181   5.596   2.496 -0.4034  0.7999 -0.5876
11907TIP3    H235667   7.176   5.465   2.421  0.4725  1.5401 -1.9864
11908TIP3   OH235668   1.994   6.360   4.190  0.1693  0.0007 -0.3875
11908TIP3    H135669   2.060   6.291   4.194  0.7552  0.6054  2.6450
11908TIP3    H235670   2.042   6.439   4.168  0.4213  0.3063  1.1188
11909TIP3   OH235671   3.684   1.667   3.021 -0.2757 -0.1588  0.3321
11909TIP3    H135672   3.710   1.738   2.963 -1.2648  0.9309  1.1561
11909TIP3    H235673   3.673   1.591   2.964 -2.3038  1.1265 -1.1370
11910TIP3   OH235674   8.023   7.345   6.526 -0.3308  0.2900  0.1060
11910TIP3    H135675   8.076   7.288   6.582  1.3135  1.6360  0.0309
11910TIP3    H235676   8.088   7.399   6.481 -1.6690  0.1679 -2.1040
11911TIP3   OH235677   1.220   3.886   2.140 -0.3456  0.8015  0.4394
11911TIP3    H135678   1.212   3.931   2.056 -0.7153  2.7887  1.4856
11911TIP3    H235679   1.139   3.835   2.148  0.0872 -0.1094 -0.7718
11912TIP3   OH235680   2.451   0.852   5.675 -0.0570 -0.3687 -0.0858
11912TIP3    H135681   2.446   0.908   5.753  0.3569  0.6684 -0.7921
11912TIP3    H235682   2.534   0.874   5.634  0.3007 -1.7778 -0.1991
11913TIP3   OH235683   7.298   7.516   6.702  0.1866 -0.3206 -0.0537
11913TIP3    H135684   7.324   7.572   6.629  2.1945 -1.0982 -0.0147
11913TIP3    H235685   7.323   7.428   6.674 -0.7678 -0.8923  0.8177
11914TIP3   OH235686   7.784   5.582   3.381  0.1116 -0.2339 -0.2218
11914TIP3    H135687   7.855   5.519   3.390 -0.1856 -0.6481 -0.6928
11914TIP3    H235688   7.736   5.576   3.464  0.3442 -0.2954 -0.0901
11915TIP3   OH235689   4.534   4.288   4.494  0.1151 -0.4160 -0.2994
11915TIP3    H135690   4.462   4.257   4.549  0.5753 -0.4130  0.3129
11915TIP3    H235691   4.595   4.329   4.555  1.0158 -1.1066 -0.7138
11916TIP3   OH235692   3.938   1.113   4.000 -0.3354  1.4199  0.2239
11916TIP3    H135693   3.963   1.200   4.030 -1.1602  2.3866 -1.7331
11916TIP3    H235694   3.843   1.118   3.985 -0.1991  0.5990 -1.1148
11917TIP3   OH235695   7.523   5.705   4.350  0.3976 -0.2612  0.2648
11917TIP3    H135696   7.481   5.682   4.433 -0.9783  0.3569 -0.2311
11917TIP3    H235697   7.606   5.656   4.351  0.3067 -0.4492  1.8832
11918TIP3   OH235698   6.516   7.714   1.227  0.0913  0.0575 -0.5351
11918TIP3    H135699   6.454   7.787   1.219 -0.2357 -0.2533 -0.8441
11918TIP3    H235700   6.468   7.649   1.278  0.2289 -0.1134 -0.6260
11919TIP3   OH235701   1.070   3.650   3.313 -0.4623 -0.2872 -0.2823
11919TIP3    H135702   1.142   3.702   3.348 -0.2291  0.8690 -2.2974
11919TIP3    H235703   1.105   3.613   3.232 -1.2806 -2.0064  0.1010
11920TIP3   OH235704   0.887   2.074   2.338 -0.3165  0.1122  0.6917
11920TIP3    H135705   0.931   2.158   2.339 -1.1349  0.5470  1.3976
11920TIP3    H235706   0.809   2.087   2.392 -0.1503 -1.2645  1.2950
11921TIP3   OH235707   3.919   5.758   0.670  0.5130 -0.2298 -0.5251
11921TIP3    H135708   3.872   5.751   0.587 -0.9395 -1.7066  0.3520
11921TIP3    H235709   4.003   5.715   0.654  1.0719  1.2309 -1.7362
11922TIP3   OH235710   4.149   3.498   2.363  0.5560  0.3341  0.0006
11922TIP3    H135711   4.054   3.505   2.349  0.3308 -0.9858  0.6640
11922TIP3    H235712   4.187   3.562   2.303 -0.5430 -2.0024 -3.5119
11923TIP3   OH235713   2.815   7.306   1.947 -0.3755  0.6677 -0.3566
11923TIP3    H135714   2.876   7.335   2.014 -0.2692 -1.3870  0.4921
11923TIP3    H235715   2.735   7.357   1.963  0.4231  1.9189 -0.2184
11924TIP3   OH235716   3.334   2.858   0.411 -0.0984 -0.3440  0.2348
11924TIP3    H135717   3.292   2.851   0.325 -0.6228  1.3201  0.3230
11924TIP3    H235718   3.262   2.871   0.473  0.4047  0.5534  0.6485
11925TIP3   OH235719   0.548   5.658   0.773  0.0897  0.1238  0.5612
11925TIP3    H135720   0.607   5.604   0.720  0.6693  0.4601  0.8446
11925TIP3    H235721   0.484   5.596   0.808 -0.5796 -0.0462 -0.8627
11926TIP3   OH235722   7.999   5.788   4.435 -0.0294 -0.1509 -0.6696
11926TIP3    H135723   7.929   5.728   4.462  0.6594 -0.9569 -0.6390
11926TIP3    H235724   7.960   5.875   4.443 -0.0612 -0.3490  2.3361
11927TIP3   OH235725   2.407   5.569   2.190 -0.2589  0.3339  0.0915
11927TIP3    H135726   2.401   5.663   2.208 -1.6047 -0.1111  2.3912
11927TIP3    H235727   2.379   5.527   2.271 -0.9904 -2.0640 -1.2797
11928TIP3   OH235728   7.377   1.906   2.500  0.2980 -0.4705 -0.6519
11928TIP3    H135729   7.471   1.892   2.490  0.2301 -1.7463  0.2936
11928TIP3    H235730   7.369   1.995   2.534  1.1104 -0.0751 -1.4661
11929TIP3   OH235731   1.456   0.596   3.879  0.2964 -0.0771 -0.0245
11929TIP3    H135732   1.374   0.643   3.894 -0.4648 -1.6188  0.9188
11929TIP3    H235733   1.453   0.569   3.788  0.2108  0.6601 -0.2494
11930TIP3   OH235734   6.574   3.501   6.333 -0.1954  0.9843  0.4374
11930TIP3    H135735   6.553   3.580   6.383 -1.1911 -0.0454  1.7412
11930TIP3    H235736   6.660   3.518   6.295 -0.5816  2.8477  0.3267
11931TIP3   OH235737   0.881   6.644   1.558  0.1003 -0.4616  0.4035
11931TIP3    H135738   0.939   6.577   1.523  1.3240 -0.1253  1.6525
11931TIP3    H235739   0.940   6.703   1.607 -1.2011  0.3411  1.0663
11932TIP3   OH235740   2.314   2.522   3.474 -0.0974 -0.0626  0.1197
11932TIP3    H135741   2.313   2.497   3.382  1.0852 -2.4920  0.7019
11932TIP3    H235742   2.398   2.492   3.507 -1.3043 -1.1390  2.4673
11933TIP3   OH235743   3.635   1.110   2.818 -0.0996  0.0062  0.5528
11933TIP3    H135744   3.703   1.086   2.755 -0.1875  1.4494 -0.1264
11933TIP3    H235745   3.567   1.043   2.807  1.1228 -1.3835  1.1518
11934TIP3   OH235746   5.599   7.721   4.679  0.2410  0.0528 -0.5613
11934TIP3    H135747   5.618   7.637   4.720  1.0237  0.2265 -0.5591
11934TIP3    H235748   5.611   7.706   4.586  2.7947  0.7316 -0.4264
11935TIP3   OH235749   6.085   2.549   6.388 -0.6615 -0.2247  0.4117
11935TIP3    H135750   6.179   2.558   6.370 -1.0062  1.3924 -0.8309
11935TIP3    H235751   6.065   2.459   6.363  0.3287 -0.2110 -0.5373
11936TIP3   OH235752   3.721   6.029   4.931  0.0211  0.0278  0.2153
11936TIP3    H135753   3.646   6.088   4.927 -0.3591 -0.4164  0.7799
11936TIP3    H235754   3.773   6.062   5.004 -0.8885 -1.1353  1.4346
11937TIP3   OH235755   1.375   5.868   1.663 -0.3762  0.0536 -0.3208
11937TIP3    H135756   1.388   5.773   1.669 -0.2856  0.0249 -0.8771
11937TIP3    H235757   1.282   5.881   1.678 -0.3812 -0.1194 -0.1971
11938TIP3   OH235758   0.394   6.028   0.443  0.0450 -0.2448 -0.2545
11938TIP3    H135759   0.454   6.018   0.517 -0.9953  0.4831  0.7119
11938TIP3    H235760   0.372   5.938   0.418 -0.0925 -0.5036  0.7437
11939TIP3   OH235761   3.256   4.956   6.325  0.1822 -0.3158 -0.0406
11939TIP3    H135762   3.236   4.922   6.412  2.5581 -0.5877  0.4929
11939TIP3    H235763   3.291   4.880   6.278 -0.4128 -0.0090 -1.0095
11940TIP3   OH235764   3.837   0.232   3.994 -0.0326 -0.0533 -0.1281
11940TIP3    H135765   3.794   0.168   3.937  1.3251  0.9014 -2.3799
11940TIP3    H235766   3.915   0.186   4.026  0.5037  0.1701 -1.0744
11941TIP3   OH235767   7.915   0.205   5.147 -0.0873  0.0875  0.0566
11941TIP3    H135768   7.989   0.217   5.089  0.0070  0.9196  0.3376
11941TIP3    H235769   7.917   0.112   5.170 -0.4643 -0.3847 -1.6982
11942TIP3   OH235770   4.084   6.428   1.939 -0.2543  0.3889  0.6003
11942TIP3    H135771   4.118   6.346   1.975  2.8236  1.5627  0.7010
11942TIP3    H235772   4.121   6.496   1.995 -0.7178  1.9488 -0.9039
11943TIP3   OH235773   0.700   4.484   5.679  0.3161  0.7081 -0.5069
11943TIP3    H135774   0.764   4.525   5.738  0.5066 -2.9572  2.2160
11943TIP3    H235775   0.751   4.457   5.603  1.1550  1.1487 -0.1160
11944TIP3   OH235776   7.445   4.042   3.243  0.1421  0.3564  0.2788
11944TIP3    H135777   7.445   3.971   3.307  1.9517  0.9804  1.0136
11944TIP3    H235778   7.521   4.024   3.187 -0.5889  0.6030 -0.8378
11945TIP3   OH235779   3.559   2.377   0.809  0.3747 -0.1436  0.2722
11945TIP3    H135780   3.481   2.328   0.786 -0.4251  0.5111  1.4381
11945TIP3    H235781   3.593   2.332   0.887  1.2356 -0.4993 -0.3026
11946TIP3   OH235782   6.502   5.314   0.095  0.5302 -0.4535  0.3320
11946TIP3    H135783   6.483   5.220   0.100 -1.8208 -0.1047 -1.0217
11946TIP3    H235784   6.541   5.326   0.008 -1.9136  0.1759 -0.7584
11947TIP3   OH235785   1.876   4.209   5.603  0.5730 -0.0277  0.2593
11947TIP3    H135786   1.809   4.250   5.656  0.8760  0.0161  0.6148
11947TIP3    H235787   1.828   4.151   5.543  0.0774  1.3990 -0.7857
11948TIP3   OH235788   1.491   6.600   5.684  0.2965  0.1504 -0.5637
11948TIP3    H135789   1.440   6.658   5.627  0.2612 -0.3789 -1.0785
11948TIP3    H235790   1.540   6.544   5.623 -1.3452 -1.8898 -0.1444
11949TIP3   OH235791   3.576   5.286   5.923  0.3871  0.2228 -0.3986
11949TIP3    H135792   3.503   5.225   5.932  1.3393 -0.7230  1.7580
11949TIP3    H235793   3.653   5.234   5.945  1.5305  1.6074 -0.9695
11950TIP3   OH235794   0.017   6.784   4.194  0.4241 -0.0799  0.2127
11950TIP3    H135795   0.008   6.700   4.149  2.4937 -0.3869  0.2604
11950TIP3    H235796   0.048   6.762   4.282 -0.1512  0.6911  0.6250
11951TIP3   OH235797   2.141   2.583   2.478  0.3212  0.2405 -0.4760
11951TIP3    H135798   2.224   2.629   2.465  0.3074 -0.0748 -1.7751
11951TIP3    H235799   2.076   2.652   2.483  0.3880  0.4068 -1.7187
11952TIP3   OH235800   5.264   2.305   0.001  0.3615 -0.0211 -0.4983
11952TIP3    H135801   5.354   2.296   0.030  0.0869 -2.7038 -0.1954
11952TIP3    H235802   5.212   2.300   0.081 -0.0971  0.7007 -0.7393
11953TIP3   OH235803   7.893   1.557   3.543  0.3412 -0.4395  0.4873
11953TIP3    H135804   7.901   1.463   3.524  0.7263 -0.0227 -1.5470
11953TIP3    H235805   7.867   1.560   3.635  1.8139 -2.4888  1.0327
11954TIP3   OH235806   3.762   6.568   3.395 -0.1156  0.4002  0.1114
11954TIP3    H135807   3.773   6.475   3.376 -0.9786  0.3987 -0.3915
11954TIP3    H235808   3.774   6.611   3.311  2.2429  0.9408  0.6510
11955TIP3   OH235809   2.016   5.836   3.237 -0.9341 -0.4215  0.3123
11955TIP3    H135810   1.944   5.887   3.274  0.5384  1.3766  0.8584
11955TIP3    H235811   2.086   5.843   3.302  0.2621 -0.7982 -0.8942
11956TIP3   OH235812   0.880   5.415   4.156  0.1808  0.3250  0.4185
11956TIP3    H135813   0.877   5.371   4.071 -1.8012  0.7697  0.2126
11956TIP3    H235814   0.958   5.470   4.152 -0.0890  0.6228 -1.2693
11957TIP3   OH235815   4.430   1.184   5.174 -0.0660 -0.4180  0.1345
11957TIP3    H135816   4.374   1.218   5.105  0.2766 -0.0409  0.0444
11957TIP3    H235817   4.374   1.180   5.251 -0.3093 -0.3599 -0.0410
11958TIP3   OH235818   0.668   6.487   4.074  0.4372  0.4529 -0.1093
11958TIP3    H135819   0.595   6.522   4.125  0.7549 -0.3012  0.8886
11958TIP3    H235820   0.660   6.530   3.989 -1.5203 -0.0075 -0.2263
11959TIP3   OH235821   3.960   1.705   1.487  0.6440 -0.3264  0.7489
11959TIP3    H135822   3.912   1.624   1.499 -0.1515 -0.0220 -0.2927
11959TIP3    H235823   4.030   1.701   1.553  0.7340 -1.9236  0.5936
11960TIP3   OH235824   7.127   4.094   3.549  0.5408 -0.2156  0.1504
11960TIP3    H135825   7.125   4.020   3.489 -1.1881  0.8678 -1.2332
11960TIP3    H235826   7.047   4.086   3.601 -0.4273  1.3693 -0.9941
11961TIP3   OH235827   3.400   6.379   2.059 -0.0936  0.0454  0.6934
11961TIP3    H135828   3.341   6.418   1.994  1.2473 -1.3666 -1.4899
11961TIP3    H235829   3.423   6.452   2.117 -1.3242  1.3725 -0.4207
11962TIP3   OH235830   6.379   1.440   0.738 -0.1494 -0.8096  0.0175
11962TIP3    H135831   6.410   1.517   0.690  0.2903 -0.8595  0.2170
11962TIP3    H235832   6.316   1.476   0.801 -0.9862 -0.7828 -0.8027
11963TIP3   OH235833   3.507   4.622   5.251  0.3966  0.1730 -0.1594
11963TIP3    H135834   3.461   4.657   5.174 -0.3278  0.0191  0.1991
11963TIP3    H235835   3.596   4.656   5.242  0.0257  1.1039 -0.4676
11964TIP3   OH235836   0.832   2.787   6.746  0.1420  0.0813 -0.9975
11964TIP3    H135837   0.779   2.859   6.781 -1.2298 -0.2931 -2.2241
11964TIP3    H235838   0.788   2.762   6.665  1.2439 -1.4053 -1.1732
11965TIP3   OH235839   1.111   3.183   2.049  0.4568  0.2428 -0.0587
11965TIP3    H135840   1.073   3.160   1.964 -0.4224  2.7327 -0.4042
11965TIP3    H235841   1.151   3.101   2.080 -0.7637 -1.1846 -2.0192
11966TIP3   OH235842   0.916   0.426   4.859 -0.7627  0.1031  0.4973
11966TIP3    H135843   0.983   0.422   4.928  2.2930  0.2443 -2.2225
11966TIP3    H235844   0.878   0.514   4.868  1.0436  0.8973  0.7839
11967TIP3   OH235845   5.070   0.384   6.210 -0.4019 -0.0272 -0.0144
11967TIP3    H135846   5.048   0.451   6.145  0.3836 -0.7876 -1.1128
11967TIP3    H235847   5.025   0.305   6.178  1.7521 -0.9721 -0.9112
11968TIP3   OH235848   5.262   6.106   2.013 -0.5496  0.5552 -0.2685
11968TIP3    H135849   5.351   6.140   2.024 -0.0884 -0.6247 -0.2262
11968TIP3    H235850   5.208   6.185   2.002  0.5056  1.2874 -0.4141
11969TIP3   OH235851   8.270   7.053   0.449  0.0135 -0.1366  0.4624
11969TIP3    H135852   8.317   7.077   0.528 -0.1280 -1.0973  0.8516
11969TIP3    H235853   8.210   6.983   0.476 -0.5801  0.0396 -0.3317
11970TIP3   OH235854   1.847   7.500   1.105  0.5656  0.7027  0.3000
11970TIP3    H135855   1.752   7.496   1.099  0.0922  1.3832  4.5523
11970TIP3    H235856   1.869   7.592   1.091  0.6159  0.5788 -0.4834
11971TIP3   OH235857   6.214   1.955   2.958 -0.1484  0.1844  0.0781
11971TIP3    H135858   6.118   1.953   2.962 -0.2366  1.0461 -0.9883
11971TIP3    H235859   6.241   1.866   2.980 -1.2674 -0.4163 -0.8769
11972TIP3   OH235860   1.010   4.562   4.297 -0.5826 -0.3150 -0.5771
11972TIP3    H135861   0.982   4.602   4.379  2.0910  0.7256 -0.0564
11972TIP3    H235862   0.997   4.630   4.231  0.0118 -0.0765 -0.4565
11973TIP3   OH235863   4.542   2.084   0.582  0.2491 -0.3725  0.2740
11973TIP3    H135864   4.448   2.101   0.580  0.1050 -1.1440 -1.0443
11973TIP3    H235865   4.582   2.167   0.558 -0.1083 -0.1459  0.4459
11974TIP3   OH235866   5.081   6.751   3.122 -0.1573  0.1196  0.3577
11974TIP3    H135867   5.043   6.733   3.208 -3.5863  0.2445 -0.9882
11974TIP3    H235868   5.036   6.691   3.063  0.4935  1.5261 -1.6652
11975TIP3   OH235869   1.915   6.967   2.818  0.4613 -0.3697  0.3146
11975TIP3    H135870   1.997   6.958   2.865  0.8191 -0.7477 -0.3566
11975TIP3    H235871   1.938   6.950   2.726 -0.0865  0.9759 -0.1009
11976TIP3   OH235872   5.328   5.848   1.816 -0.0869 -0.2253 -0.0462
11976TIP3    H135873   5.340   5.916   1.883 -2.9873 -1.5043  1.9746
11976TIP3    H235874   5.410   5.799   1.816  0.6622  0.9808  1.1983
11977TIP3   OH235875   0.778   7.069   3.106 -0.3762 -0.2073  0.1789
11977TIP3    H135876   0.871   7.092   3.103 -0.5174  0.4771  0.8724
11977TIP3    H235877   0.775   6.980   3.071  0.4922 -0.1052 -0.1927
11978TIP3   OH235878   6.136   2.238   3.782 -0.2661 -0.1613  0.1949
11978TIP3    H135879   6.218   2.192   3.763  1.4462  2.8718 -0.2497
11978TIP3    H235880   6.143   2.261   3.875 -0.4751  0.3514  0.0839
11979TIP3   OH235881   4.092   5.272   2.744 -0.0037 -0.1281  0.2667
11979TIP3    H135882   4.179   5.296   2.713 -1.0234  2.7725 -0.7418
11979TIP3    H235883   4.072   5.336   2.813 -1.4913 -0.3721  0.1082
11980TIP3   OH235884   0.840   5.410   4.600 -0.0550  0.2401  0.3154
11980TIP3    H135885   0.903   5.403   4.672  1.1243 -1.5071 -0.7801
11980TIP3    H235886   0.803   5.322   4.593  0.6495  0.0590 -1.8362
11981TIP3   OH235887   7.374   1.742   5.360  0.0544 -0.0427 -0.2207
11981TIP3    H135888   7.397   1.769   5.271 -2.5470 -0.8514 -1.2212
11981TIP3    H235889   7.281   1.718   5.355  0.4826 -2.6476  2.1255
11982TIP3   OH235890   3.781   1.837   1.671  0.6113 -0.4309  0.5263
11982TIP3    H135891   3.852   1.784   1.634 -0.3229 -0.6187 -1.1141
11982TIP3    H235892   3.756   1.896   1.599 -1.0353 -0.5328  0.9845
11983TIP3   OH235893   3.908   6.938   0.703  0.0673 -0.1793 -0.2902
11983TIP3    H135894   3.995   6.899   0.709  0.0613 -0.8522 -3.1961
11983TIP3    H235895   3.868   6.895   0.627 -3.1440 -0.4821  1.4007
11984TIP3   OH235896   4.922   7.112   6.428  0.5963 -0.2225 -0.6507
11984TIP3    H135897   5.011   7.084   6.408  0.6221 -0.0859 -0.7284
11984TIP3    H235898   4.874   7.105   6.345  0.3131 -1.1123 -0.4281
11985TIP3   OH235899   7.874   2.697   6.222 -0.1890 -0.2281 -0.0078
11985TIP3    H135900   7.870   2.652   6.306 -1.5096 -0.2076 -0.0344
11985TIP3    H235901   7.929   2.774   6.238 -3.4981  1.9621  1.9645
11986TIP3   OH235902   1.850   2.659   5.819  0.8608  0.1275  0.5468
11986TIP3    H135903   1.797   2.584   5.845 -1.2892  1.0609 -0.8242
11986TIP3    H235904   1.896   2.630   5.740  0.3193  0.1063  0.2307
11987TIP3   OH235905   7.688   6.460   3.439  0.5446  0.1278  0.5574
11987TIP3    H135906   7.684   6.556   3.446 -0.4961  0.0570  1.0042
11987TIP3    H235907   7.609   6.429   3.482  0.3851 -0.9093 -0.4386
11988TIP3   OH235908   3.915   7.143   5.079 -0.2509  0.0714 -0.3102
11988TIP3    H135909   3.844   7.166   5.020 -0.4556 -2.3261 -1.1031
11988TIP3    H235910   3.992   7.136   5.022 -0.4652 -2.3340 -0.3997
11989TIP3   OH235911   2.128   1.910   5.197 -0.6455  0.1568 -0.0269
11989TIP3    H135912   2.108   1.935   5.287  0.8041 -0.9880  0.6554
11989TIP3    H235913   2.088   1.824   5.186 -1.3507  0.5546 -0.7087
11990TIP3   OH235914   5.316   0.395   1.320 -0.1876  0.5055 -0.2219
11990TIP3    H135915   5.252   0.325   1.334  0.8430 -0.9755 -2.3024
11990TIP3    H235916   5.337   0.426   1.408 -0.4499 -2.0565  0.8419
11991TIP3   OH235917   6.966   5.547   6.027 -0.6828  0.7476 -0.1844
11991TIP3    H135918   6.894   5.584   5.976  0.0738  1.5289 -0.7161
11991TIP3    H235919   6.954   5.584   6.115  0.7560  3.4101 -0.9779
11992TIP3   OH235920   4.380   4.152   6.508 -0.1344 -0.2069 -0.7080
11992TIP3    H135921   4.387   4.129   6.601 -2.2824 -0.7364 -0.6424
11992TIP3    H235922   4.344   4.073   6.467 -1.7156  0.9103 -1.5358
11993TIP3   OH235923   6.892   4.829   5.719  0.4031 -0.4218 -0.0875
11993TIP3    H135924   6.857   4.741   5.729 -1.3682  0.3229  0.8868
11993TIP3    H235925   6.956   4.823   5.649 -0.8123 -2.1617 -1.0999
11994TIP3   OH235926   5.176   1.071   1.915  0.5209 -0.4816  0.1297
11994TIP3    H135927   5.113   1.088   1.845  0.3017  1.5732  0.7676
11994TIP3    H235928   5.220   0.991   1.888  0.0755 -0.0471 -2.1078
11995TIP3   OH235929   5.608   2.935   4.893  0.0217 -0.2026 -0.2985
11995TIP3    H135930   5.578   2.866   4.952 -1.9884  0.5667 -0.3488
11995TIP3    H235931   5.560   2.919   4.812  0.9155  0.1996 -0.9119
11996TIP3   OH235932   1.184   0.171   0.706  0.7967  0.2727  0.6595
11996TIP3    H135933   1.277   0.163   0.683  0.6229 -1.0726  0.3796
11996TIP3    H235934   1.139   0.181   0.622  0.1711 -4.5719  0.1582
11997TIP3   OH235935   0.055   4.403   5.701  0.7523 -0.5683 -0.4100
11997TIP3    H135936   0.020   4.475   5.755 -0.5543 -1.1378 -0.4614
11997TIP3    H235937   0.022   4.421   5.613 -0.0633 -1.5274 -0.3086
11998TIP3   OH235938   5.102   1.658   3.633  0.4422 -0.4911  0.0705
11998TIP3    H135939   5.169   1.594   3.613  0.6631 -0.4582  0.6881
11998TIP3    H235940   5.060   1.625   3.713 -1.2174 -1.2480 -1.0409
11999TIP3   OH235941   4.477   0.544   4.475  0.1165 -0.1464 -0.3717
11999TIP3    H135942   4.426   0.464   4.477  1.5008 -1.0611  0.5942
11999TIP3    H235943   4.443   0.594   4.400 -1.0326 -1.4416 -0.7372
12000TIP3   OH235944   0.973   2.899   0.479  0.1980 -0.5096  0.5214
12000TIP3    H135945   0.984   2.971   0.541 -1.1946  1.2525 -1.1430
12000TIP3    H235946   0.899   2.848   0.514 -0.1043  0.0446  0.7055
12001TIP3   OH235947   5.287   4.510   6.152 -0.3482 -0.0302  0.4464
12001TIP3    H135948   5.243   4.581   6.105  1.2137  1.4600  1.1209
12001TIP3    H235949   5.358   4.483   6.094 -0.6672 -0.7506  0.3846
12002TIP3   OH235950   3.876   0.660   1.362  0.0235 -0.2943 -0.2170
12002TIP3    H135951   3.906   0.571   1.343  0.4262 -0.2134  0.0300
12002TIP3    H235952   3.883   0.669   1.457 -0.3584 -0.1195 -0.2041
12003TIP3   OH235953   1.995   2.320   3.377 -0.7512 -0.0255  0.2711
12003TIP3    H135954   1.968   2.389   3.317 -1.0420 -0.6138 -0.2931
12003TIP3    H235955   2.047   2.260   3.323  3.9707  2.2239  1.7243
12004TIP3   OH235956   1.147   2.343   2.643 -1.0004 -0.0137 -0.4182
12004TIP3    H135957   1.162   2.249   2.642 -0.5541  0.0483 -1.3445
12004TIP3    H235958   1.123   2.363   2.733 -0.1044 -0.8615  0.0309
12005TIP3   OH235959   6.733   1.897   5.006 -0.3080  0.1369  0.9028
12005TIP3    H135960   6.663   1.831   5.001 -0.1314 -0.0569  0.9724
12005TIP3    H235961   6.700   1.970   4.954  0.1091 -0.5841 -0.4454
12006TIP3   OH235962   3.690   7.119   6.073  0.1757  0.3875  0.1500
12006TIP3    H135963   3.758   7.080   6.127  1.0618  0.7586 -0.6498
12006TIP3    H235964   3.726   7.117   5.984 -0.9511  0.4084 -0.3261
12007TIP3   OH235965   2.173   6.542   5.713  0.0368 -0.3552  0.1088
12007TIP3    H135966   2.258   6.501   5.731  0.2556  0.2680  0.5670
12007TIP3    H235967   2.195   6.628   5.676 -0.4094 -0.6409 -0.8508
12008TIP3   OH235968   1.534   2.783   6.648  0.5269  0.6388 -0.1223
12008TIP3    H135969   1.449   2.801   6.609  0.4455  1.2618  0.3273
12008TIP3    H235970   1.552   2.860   6.703  0.4383 -0.3772  1.3907
12009TIP3   OH235971   4.003   4.769   4.776  0.0284  0.8872  0.9503
12009TIP3    H135972   3.919   4.746   4.737  1.2642 -1.7324 -0.4627
12009TIP3    H235973   4.032   4.846   4.727 -0.0999 -0.1840 -0.8991
12010TIP3   OH235974   5.804   6.708   4.490 -0.2456  0.2272 -0.3405
12010TIP3    H135975   5.829   6.746   4.406  0.6660  1.1197  0.3211
12010TIP3    H235976   5.816   6.614   4.478  0.4204  0.3878 -1.0322
12011TIP3   OH235977   0.984   2.762   3.379  0.4479  0.4051 -0.0592
12011TIP3    H135978   1.048   2.830   3.401  0.3705  1.4677 -2.7729
12011TIP3    H235979   1.037   2.692   3.340  0.2480  0.0368  0.3273
12012TIP3   OH235980   3.109   7.746   1.608 -0.1573  0.1943  0.1679
12012TIP3    H135981   3.053   7.669   1.607 -2.6413  1.8655  0.7142
12012TIP3    H235982   3.107   7.779   1.518 -3.1612  2.1981  0.8041
12013TIP3   OH235983   4.239   7.177   6.186  0.7603 -0.0592  0.1079
12013TIP3    H135984   4.266   7.260   6.148 -0.8515  0.7910  0.7602
12013TIP3    H235985   4.221   7.197   6.278  0.5443 -1.1808  0.3279
12014TIP3   OH235986   8.230   0.725   3.099  0.0625 -0.0272 -0.2166
12014TIP3    H135987   8.194   0.715   3.187 -0.3780 -0.7443 -0.4616
12014TIP3    H235988   8.233   0.819   3.084 -1.0533  0.0696  0.0882
12015TIP3   OH235989   1.608   2.506   4.508 -0.3818 -0.1494 -0.1527
12015TIP3    H135990   1.562   2.570   4.453  0.8679  0.9964  0.1013
12015TIP3    H235991   1.589   2.533   4.598 -3.5276 -2.7905  0.1580
12016TIP3   OH235992   6.967   6.933   1.038 -0.2054 -0.1963  0.1811
12016TIP3    H135993   6.876   6.957   1.023 -0.4070  0.4278  2.1472
12016TIP3    H235994   6.979   6.942   1.133  2.3928  1.4966 -0.2113
12017TIP3   OH235995   8.329   5.335   1.412  0.8926  0.3771 -0.0694
12017TIP3    H135996   8.292   5.335   1.501  0.5158 -0.1744 -0.2209
12017TIP3    H235997   8.253   5.343   1.355  1.2064  1.9123 -0.3345
12018TIP3   OH235998   3.094   3.242   2.414  0.2481  0.0810  0.2295
12018TIP3    H135999   3.164   3.281   2.466 -0.6589  0.1789  1.4338
12018TIP3    H236000   3.074   3.159   2.458  0.7909 -0.7948 -1.1361
12019TIP3   OH236001   3.879   2.781   2.093 -0.4268 -0.3939 -0.0070
12019TIP3    H136002   3.934   2.716   2.049  0.7116  0.3724  0.2220
12019TIP3    H236003   3.881   2.857   2.034 -1.1539 -0.3034  0.0705
12020TIP3   OH236004   4.858   2.996   3.179  0.7080  0.4310 -0.2083
12020TIP3    H136005   4.809   3.056   3.235 -1.1781  1.5429 -2.8822
12020TIP3    H236006   4.813   2.912   3.189  0.3703  0.6271 -0.0676
12021TIP3   OH236007   4.377   2.552   3.134 -0.1241 -0.5647 -0.6484
12021TIP3    H136008   4.443   2.512   3.191  0.5727 -2.9905 -2.9507
12021TIP3    H236009   4.427   2.611   3.077 -0.2778 -0.6804 -0.9063
12022TIP3   OH236010   7.364   1.871   3.400 -0.1227  0.0041 -0.2534
12022TIP3    H136011   7.331   1.883   3.311  1.3462  0.9986 -0.6974
12022TIP3    H236012   7.431   1.939   3.410 -0.0624 -0.2815  1.5128
12023TIP3   OH236013   4.276   0.628   3.301 -0.0979 -0.1046  0.1503
12023TIP3    H136014   4.334   0.691   3.343  0.5291 -1.3607  1.2369
12023TIP3    H236015   4.263   0.663   3.213  0.8899  1.1002  0.4516
12024TIP3   OH236016   6.019   5.996   3.446  0.3045 -0.5266  0.2499
12024TIP3    H136017   6.012   5.982   3.352  3.8822 -0.8947 -0.1124
12024TIP3    H236018   6.000   6.089   3.458  1.1436 -0.1498 -1.0823
12025TIP3   OH236019   4.377   7.040   2.399 -0.2117 -0.2855  0.2145
12025TIP3    H136020   4.424   7.121   2.379  0.0395  0.0891  2.1120
12025TIP3    H236021   4.285   7.062   2.387 -0.1380  0.2599  0.6254
12026TIP3   OH236022   4.221   4.657   6.060  0.3906 -0.1306  0.0614
12026TIP3    H136023   4.273   4.727   6.020  0.1517 -0.1801 -0.3363
12026TIP3    H236024   4.238   4.666   6.154 -0.0709  0.8184  0.0660
12027TIP3   OH236025   5.016   6.254   2.440  0.3245  0.0622 -0.0409
12027TIP3    H136026   5.087   6.191   2.451  0.5692  0.6762  2.5305
12027TIP3    H236027   5.059   6.332   2.405  0.1569 -0.8421 -2.4325
12028TIP3   OH236028   0.069   2.109   3.498 -0.0329 -0.0546 -0.0310
12028TIP3    H136029   0.112   2.151   3.573 -0.3104 -0.9723  0.6580
12028TIP3    H236030   0.082   2.015   3.512  0.3036 -0.2309 -1.3789
12029TIP3   OH236031   1.380   5.979   4.393 -0.2487 -0.4584  0.7076
12029TIP3    H136032   1.445   6.007   4.458 -0.5845 -2.0643  1.7853
12029TIP3    H236033   1.427   5.979   4.310  1.0356 -1.2027  1.4110
12030TIP3   OH236034   4.679   5.208   0.137 -0.3615  0.1391 -0.4992
12030TIP3    H136035   4.753   5.160   0.100  0.1473  1.6716 -1.6217
12030TIP3    H236036   4.719   5.271   0.197 -0.8982 -0.0393  0.0519
12031TIP3   OH236037   4.848   6.267   6.623  0.0638  0.3463  0.3938
12031TIP3    H136038   4.855   6.362   6.623 -0.4472  0.3961  1.5780
12031TIP3    H236039   4.921   6.236   6.676  0.1596  0.0706  0.1108
12032TIP3   OH236040   5.501   4.419   1.689  0.1304  0.4631 -0.3861
12032TIP3    H136041   5.497   4.328   1.661 -0.2458 -0.0714  1.2692
12032TIP3    H236042   5.588   4.449   1.664 -0.3060  0.1792 -2.3892
12033TIP3   OH236043   7.903   0.279   3.841  0.4054  0.1434  0.2338
12033TIP3    H136044   7.879   0.243   3.926  1.1187 -2.2901 -0.5022
12033TIP3    H236045   7.999   0.279   3.840  0.4793  2.6481  0.3494
12034TIP3   OH236046   2.473   3.938   5.610  0.6213  0.1664  0.0229
12034TIP3    H136047   2.470   3.932   5.705 -1.3868 -1.0047 -0.0537
12034TIP3    H236048   2.494   3.850   5.580  0.3220  0.3110 -0.6327
12035TIP3   OH236049   7.709  -0.011   0.536  0.3691  0.1708  0.3101
12035TIP3    H136050   7.617   0.007   0.556  0.6970  0.1801  1.9456
12035TIP3    H236051   7.755   0.006   0.618  1.7687 -0.3211 -0.3454
12036TIP3   OH236052   6.468   7.076   2.774  0.1482 -0.8599 -0.1545
12036TIP3    H136053   6.425   7.136   2.713  0.0843 -2.1359 -1.4167
12036TIP3    H236054   6.561   7.096   2.765  0.1266 -0.9327 -0.5643
12037TIP3   OH236055   3.025   3.950   4.866 -0.0215  0.1853  0.2880
12037TIP3    H136056   3.120   3.955   4.858  0.2426 -0.9956  2.1193
12037TIP3    H236057   3.009   3.872   4.919 -2.0777 -0.1770 -0.7371
12038TIP3   OH236058   5.813   5.845   4.490 -0.4119 -0.1454  0.1510
12038TIP3    H136059   5.846   5.820   4.576 -0.7875 -1.0384  0.0445
12038TIP3    H236060   5.735   5.898   4.509  0.0667  0.5083  0.3629
12039TIP3   OH236061   3.983   1.864   3.833  0.6700  0.3462 -0.5846
12039TIP3    H136062   3.961   1.946   3.790 -1.5880 -1.0512 -2.2894
12039TIP3    H236063   3.917   1.802   3.802  0.5361 -1.4562  2.8706
12040TIP3   OH236064   8.024   5.688   0.415  0.0923 -0.1639 -0.2958
12040TIP3    H136065   8.044   5.685   0.321  1.5144 -0.4556 -0.0084
12040TIP3    H236066   8.103   5.656   0.458 -0.5201 -0.0074  1.0197
12041TIP3   OH236067   0.644   1.034   3.613  0.0871  0.0712 -0.8937
12041TIP3    H136068   0.657   1.121   3.575 -1.2802  0.2229 -1.0675
12041TIP3    H236069   0.599   0.985   3.544  0.0010 -0.4872 -0.4484
12042TIP3   OH236070   6.086   0.081   4.889 -0.0615 -0.4282 -0.2070
12042TIP3    H136071   6.007   0.029   4.870 -0.4179 -0.0834  0.3165
12042TIP3    H236072   6.076   0.160   4.836  1.3454 -1.6243 -2.4344
12043TIP3   OH236073   8.260   2.230   2.287  0.7993  0.1082  0.2519
12043TIP3    H136074   8.315   2.298   2.247  0.4013  0.0325 -0.4519
12043TIP3    H236075   8.171   2.252   2.259  0.7241 -0.9829 -0.4113
12044TIP3   OH236076   8.210   0.212   3.771  0.3750 -0.2343 -0.2138
12044TIP3    H136077   8.300   0.184   3.785  1.2514  0.9577 -2.8676
12044TIP3    H236078   8.179   0.156   3.699 -0.3635  0.5553 -0.5248
12045TIP3   OH236079   1.135   5.884   0.905 -0.4422 -0.3078  0.1985
12045TIP3    H136080   1.147   5.936   0.826 -0.5539 -1.3693 -0.5279
12045TIP3    H236081   1.202   5.815   0.899 -0.3770 -0.3355  1.0876
12046TIP3   OH236082   3.748   7.366   1.917  0.5667  0.1067  0.1333
12046TIP3    H136083   3.676   7.418   1.953  0.8451  1.4913 -1.2111
12046TIP3    H236084   3.826   7.396   1.963  0.8794  1.6718 -1.3278
12047TIP3   OH236085   8.007   1.642   4.827 -0.0248  0.2534  0.1418
12047TIP3    H136086   7.995   1.664   4.920  1.3588 -0.8510  0.6213
12047TIP3    H236087   8.052   1.718   4.791 -0.0930  0.4733  0.5122
12048TIP3   OH236088   7.602   6.455   2.102 -0.5569  0.2143 -0.4460
12048TIP3    H136089   7.573   6.529   2.049 -2.4530 -1.3410 -1.7140
12048TIP3    H236090   7.522   6.406   2.121  0.8014 -2.4112 -1.0702
12049TIP3   OH236091   7.917   5.916   4.685  0.5151  0.0773 -0.1404
12049TIP3    H136092   7.938   5.822   4.682 -1.4936 -0.4576  0.8674
12049TIP3    H236093   7.837   5.921   4.737 -1.4202  1.9674 -2.9611
12050TIP3   OH236094   5.553   0.620   4.756 -0.0656  0.3394  0.1340
12050TIP3    H136095   5.514   0.706   4.774  0.2221 -0.0704  3.2425
12050TIP3    H236096   5.509   0.561   4.816  1.4523 -1.2245 -0.2264
12051TIP3   OH236097   0.640   4.734   3.382 -0.1104  0.1691 -0.4400
12051TIP3    H136098   0.579   4.778   3.440  1.2936  0.9793  0.4689
12051TIP3    H236099   0.664   4.800   3.317  0.0169 -0.0623 -0.6344
12052TIP3   OH236100   3.294   1.510   1.398  0.2459  0.7699  0.0229
12052TIP3    H136101   3.204   1.516   1.367  0.5604 -0.4250 -1.2363
12052TIP3    H236102   3.291   1.542   1.488 -1.4942  0.4381  0.1137
12053TIP3   OH236103   6.973   0.999   0.542 -0.6805 -0.4251  0.6208
12053TIP3    H136104   6.931   0.947   0.473 -1.0598 -0.8648  1.1771
12053TIP3    H236105   7.059   1.020   0.507 -0.2549 -1.9945  0.6384
12054TIP3   OH236106   1.165   3.551   4.489 -0.0690  0.0861  0.3655
12054TIP3    H136107   1.117   3.631   4.468  0.9857  1.0335  1.3884
12054TIP3    H236108   1.145   3.534   4.581  1.0991  0.1890  0.6524
12055TIP3   OH236109   3.298   4.961   5.172 -0.0374 -0.5973 -0.3522
12055TIP3    H136110   3.204   4.949   5.162 -0.2422 -0.4131  1.1378
12055TIP3    H236111   3.337   4.901   5.108 -1.1555 -1.1576 -0.5256
12056TIP3   OH236112   4.024   6.292   4.447 -0.0431 -0.2582 -0.0691
12056TIP3    H136113   4.041   6.198   4.436  0.8497 -0.0616 -0.4672
12056TIP3    H236114   3.973   6.298   4.528  0.1431 -1.0611  0.1174
12057TIP3   OH236115   6.528   3.836   5.792 -0.3550 -0.5223 -0.5565
12057TIP3    H136116   6.527   3.791   5.707 -3.1469 -0.5425 -0.5993
12057TIP3    H236117   6.523   3.765   5.856 -0.9013 -0.4332 -0.4934
12058TIP3   OH236118   5.811   0.637   6.330  0.7428 -0.3453 -0.4315
12058TIP3    H136119   5.804   0.545   6.304 -1.9469 -0.3099 -0.1533
12058TIP3    H236120   5.800   0.686   6.248 -1.8936 -0.3032 -0.1405
12059TIP3   OH236121   2.987   0.474   4.100 -0.1960  0.1789  0.2110
12059TIP3    H136122   2.994   0.407   4.032 -1.1860  0.4105 -0.1289
12059TIP3    H236123   3.039   0.439   4.173  0.8390 -0.0924 -0.6291
12060TIP3   OH236124   6.489   4.033   0.610  0.0065 -0.1558  0.0836
12060TIP3    H136125   6.431   4.104   0.584  0.5465  0.5508  0.7599
12060TIP3    H236126   6.464   4.014   0.700  0.5876 -0.0752  0.2674
12061TIP3   OH236127   6.352   7.583   6.081 -0.3346 -0.3406 -0.1943
12061TIP3    H136128   6.325   7.608   5.992  1.8607 -0.0977 -0.8452
12061TIP3    H236129   6.444   7.559   6.072  0.5501  1.6559  2.3529
12062TIP3   OH236130   3.792   3.932   4.012 -0.3176 -0.5991 -0.1676
12062TIP3    H136131   3.721   3.935   4.076 -1.2721  0.0151 -1.2220
12062TIP3    H236132   3.775   3.854   3.960 -0.0510 -0.6079 -0.2461
12063TIP3   OH236133   5.101   6.174   5.376  0.3654  0.1138  0.6958
12063TIP3    H136134   5.101   6.266   5.351  0.0877  0.8172  3.0038
12063TIP3    H236135   5.189   6.158   5.411  0.5814 -0.6576 -0.1644
12064TIP3   OH236136   6.780   4.892   3.216 -0.3324 -0.6567 -0.1501
12064TIP3    H136137   6.718   4.953   3.256 -1.8711 -2.7518  0.8525
12064TIP3    H236138   6.746   4.805   3.238  2.9772 -1.9518  0.4915
12065TIP3   OH236139   4.855   7.278   4.246  1.1242  0.3933 -0.0330
12065TIP3    H136140   4.898   7.193   4.258  0.8848  0.0278 -1.5920
12065TIP3    H236141   4.841   7.284   4.152  0.4274  1.8279  0.1512
12066TIP3   OH236142   7.604   0.008   1.917 -0.1273 -0.2136  0.2742
12066TIP3    H136143   7.638   0.091   1.884  1.6416 -0.4879  1.3157
12066TIP3    H236144   7.559  -0.031   1.841  0.0233  1.1398 -0.5472
12067TIP3   OH236145   6.056   7.196   0.445 -0.6051  0.1686 -0.2128
12067TIP3    H136146   6.139   7.196   0.396 -1.3413 -0.1827 -1.5255
12067TIP3    H236147   5.994   7.153   0.385 -1.8484  0.8722  0.5420
12068TIP3   OH236148   2.255   5.918   5.915 -0.3037  0.2828 -0.1379
12068TIP3    H136149   2.216   5.998   5.878 -0.8277  0.8870  1.6162
12068TIP3    H236150   2.289   5.946   6.000  1.9210 -0.7794 -0.5941
12069TIP3   OH236151   8.213   2.352   0.853 -0.3861  0.6627  0.1578
12069TIP3    H136152   8.133   2.337   0.902 -0.8966  2.4498 -0.0854
12069TIP3    H236153   8.280   2.369   0.919 -0.7347  1.5202  0.2970
12070TIP3   OH236154   6.060   3.690   6.420 -0.5282 -0.4513 -0.6762
12070TIP3    H136155   5.991   3.666   6.482 -0.7691  0.1660 -0.7003
12070TIP3    H236156   6.040   3.780   6.395 -0.4648 -0.7081 -1.7039
12071TIP3   OH236157   2.086   2.189   3.132 -0.7101 -0.7990  0.1518
12071TIP3    H136158   2.089   2.095   3.115 -1.9933 -0.5509 -1.7785
12071TIP3    H236159   2.076   2.228   3.045  0.9631  1.2158  0.7857
12072TIP3   OH236160   5.190   4.803   6.253 -0.3515  0.5551 -0.1577
12072TIP3    H136161   5.254   4.806   6.324  1.5257  0.3727 -1.7560
12072TIP3    H236162   5.149   4.717   6.261  1.9608 -0.7105 -0.9911
12073TIP3   OH236163   5.351   5.681   0.755 -0.4649  0.4002 -0.2620
12073TIP3    H136164   5.443   5.689   0.780 -0.7169  0.2375  0.7973
12073TIP3    H236165   5.335   5.753   0.695 -0.1576  1.7377  1.1840
12074TIP3   OH236166   2.614   5.401   2.114 -0.0857 -0.1207 -0.4426
12074TIP3    H136167   2.552   5.467   2.147  0.0207 -1.4359  2.8015
12074TIP3    H236168   2.563   5.321   2.109  0.8328 -0.7702  0.2526
12075TIP3   OH236169   4.717   2.993   3.540  0.2611 -0.1857 -0.0248
12075TIP3    H136170   4.808   3.016   3.561  0.5209 -0.8034 -0.4438
12075TIP3    H236171   4.665   3.063   3.580  0.9739  0.6320 -0.4875
12076TIP3   OH236172   8.173   5.054   6.375  0.0921  0.2991  0.1909
12076TIP3    H136173   8.095   5.003   6.354 -0.1625  1.0087 -0.6740
12076TIP3    H236174   8.192   5.033   6.467 -2.2413  1.5481  1.0389
12077TIP3   OH236175   0.699   6.180   4.765  0.0275  0.5021  0.1635
12077TIP3    H136176   0.784   6.176   4.721 -0.2929  0.6060 -0.4795
12077TIP3    H236177   0.707   6.118   4.838  0.6634  0.5388  0.1283
12078TIP3   OH236178   4.381   6.197   4.311  0.1419 -0.3410 -0.2268
12078TIP3    H136179   4.316   6.268   4.305  2.0570  1.4847 -0.5351
12078TIP3    H236180   4.348   6.129   4.252 -1.4711  0.5322 -0.3893
12079TIP3   OH236181   5.361   3.441   5.452  0.3102  0.5159  0.2306
12079TIP3    H136182   5.373   3.379   5.380  1.3098  0.4040  0.4716
12079TIP3    H236183   5.430   3.418   5.515  0.4445  1.6171  0.5067
12080TIP3   OH236184   5.196   7.725   3.876 -0.1454 -0.1172  0.4259
12080TIP3    H136185   5.217   7.784   3.949  1.0844 -1.6416  1.3715
12080TIP3    H236186   5.101   7.722   3.874 -0.2639  2.0780  0.1572
12081TIP3   OH236187   7.602   4.864   1.925  0.9352  0.1407 -0.8968
12081TIP3    H136188   7.693   4.890   1.943  1.1092  0.0325 -1.5823
12081TIP3    H236189   7.578   4.915   1.848 -1.2801  4.0323  1.9575
12082TIP3   OH236190   1.114   4.498   3.149  0.1627 -0.1479  0.5862
12082TIP3    H136191   1.077   4.414   3.177  0.8579 -0.6691  0.0103
12082TIP3    H236192   1.041   4.559   3.149 -0.9981 -1.4132 -1.6649
12083TIP3   OH236193   6.932   2.754   1.205 -0.3013 -0.0043  0.2538
12083TIP3    H136194   6.964   2.749   1.115 -0.5900  0.1371  0.1431
12083TIP3    H236195   6.875   2.678   1.215  0.2002 -0.3551  0.5063
12084TIP3   OH236196   1.607   2.051   4.653  0.5791 -0.0245  0.4478
12084TIP3    H136197   1.549   2.103   4.598  1.0107 -0.9860 -0.9924
12084TIP3    H236198   1.566   2.052   4.739 -1.2641 -0.1883 -0.3795
12085TIP3   OH236199   1.987   1.266   6.222  0.3008 -0.5710  0.1448
12085TIP3    H136200   2.003   1.336   6.285 -0.8203  0.4157 -0.6345
12085TIP3    H236201   1.895   1.276   6.198  0.9790 -0.1056 -2.5878
12086TIP3   OH236202   2.796   5.937   5.788 -0.4428 -0.5182  0.3397
12086TIP3    H136203   2.722   5.937   5.849 -0.5280  1.3700  0.2883
12086TIP3    H236204   2.792   6.022   5.745  1.9352 -0.2327  0.5609
12087TIP3   OH236205   7.399   7.193   0.422  0.5702  0.3648 -0.3254
12087TIP3    H136206   7.392   7.124   0.357 -1.4062  0.6082 -0.4317
12087TIP3    H236207   7.418   7.272   0.371 -0.8161  0.5262 -0.6224
12088TIP3   OH236208   4.825   3.556   0.578 -0.4365 -0.6767 -0.0072
12088TIP3    H136209   4.786   3.641   0.602  0.7170 -0.2941  0.6189
12088TIP3    H236210   4.781   3.493   0.635  0.4756 -0.1187  1.3816
12089TIP3   OH236211   6.762   3.533   1.582  0.7567  0.1775  0.3548
12089TIP3    H136212   6.714   3.578   1.513  1.2372  1.5964  0.9006
12089TIP3    H236213   6.746   3.440   1.566 -1.2942  0.5486 -0.1070
12090TIP3   OH236214   5.416   3.634   3.839 -0.1583 -0.1626 -0.1293
12090TIP3    H136215   5.481   3.640   3.908 -1.5344  0.1677  1.1954
12090TIP3    H236216   5.435   3.707   3.781  0.4469  0.1237  0.4188
12091TIP3   OH236217   5.062   7.639   1.342  0.6154  0.2751  0.1190
12091TIP3    H136218   5.099   7.555   1.370 -0.9250 -0.5546 -0.2611
12091TIP3    H236219   4.978   7.645   1.386  1.1485  2.1327  0.9542
12092TIP3   OH236220   5.862   5.897   5.913  0.1367 -0.1758 -0.4458
12092TIP3    H136221   5.769   5.875   5.919 -0.4123  1.4384 -2.1651
12092TIP3    H236222   5.906   5.812   5.908 -1.1940 -0.9694  0.7298
12093TIP3   OH236223   2.176   2.984   3.341  0.0653 -0.0464  0.2130
12093TIP3    H136224   2.207   2.895   3.326  2.5391  0.8933 -0.7420
12093TIP3    H236225   2.242   3.023   3.399  0.2688  1.8109 -1.1882
12094TIP3   OH236226   4.315   6.064   4.586 -0.9537  0.0788 -0.1772
12094TIP3    H136227   4.224   6.037   4.573 -0.8897 -0.7639  0.8918
12094TIP3    H236228   4.334   6.124   4.514 -1.8634 -0.9595 -1.3193
12095TIP3   OH236229   0.856   1.225   4.933  0.6118 -0.1418 -0.3767
12095TIP3    H136230   0.908   1.151   4.902 -1.2479 -0.5791 -2.7327
12095TIP3    H236231   0.802   1.250   4.858 -0.3796  2.2425  1.0066
12096TIP3   OH236232   4.105   3.996   0.523 -0.2895 -0.0364 -0.6649
12096TIP3    H136233   4.131   3.992   0.615 -0.1659 -0.1297 -0.7040
12096TIP3    H236234   4.011   3.977   0.524 -0.1965 -0.5054 -0.6028
12097TIP3   OH236235   4.976   5.522   3.276 -0.6555  0.2915  0.2850
12097TIP3    H136236   4.900   5.465   3.289 -0.6257  0.4479  1.2060
12097TIP3    H236237   4.945   5.591   3.217 -0.7078 -0.6383 -0.8123
12098TIP3   OH236238   1.628   5.162   0.551 -0.5501  0.0332  0.3091
12098TIP3    H136239   1.720   5.142   0.535 -1.2297 -1.6988 -1.9808
12098TIP3    H236240   1.608   5.122   0.636  0.3485 -1.3595 -0.1092
12099TIP3   OH236241   1.041   4.621   6.671  0.3035 -0.1309 -0.0402
12099TIP3    H136242   0.993   4.690   6.715  1.9963 -0.2588  2.1755
12099TIP3    H236243   1.121   4.663   6.641 -0.3254 -0.3107 -2.1390
12100TIP3   OH236244   6.577   3.325   5.705 -0.1191 -0.0885 -0.6448
12100TIP3    H136245   6.564   3.387   5.633 -0.8752 -0.1333 -0.5476
12100TIP3    H236246   6.500   3.336   5.761  0.6689  0.2725  0.4095
12101TIP3   OH236247   5.301   5.479   6.042  0.0585  0.0893  0.0404
12101TIP3    H136248   5.376   5.422   6.026  0.8729  0.9481  0.6555
12101TIP3    H236249   5.336   5.549   6.097 -0.9415  1.1079 -0.5796
12102TIP3   OH236250   2.511   5.620   1.319  0.7622  0.4611 -0.9325
12102TIP3    H136251   2.447   5.612   1.389  2.5523  0.1023  0.7712
12102TIP3    H236252   2.514   5.533   1.279  0.9703  0.1460 -0.2550
12103TIP3   OH236253   3.452   4.034   3.548  0.0815 -0.6524  0.0831
12103TIP3    H136254   3.499   4.015   3.467  0.5451  0.3408  0.1100
12103TIP3    H236255   3.411   4.119   3.533 -0.0481 -0.5840  0.7888
12104TIP3   OH236256   1.283   4.408   4.918  0.5886  0.3224 -0.3387
12104TIP3    H136257   1.212   4.403   4.981  1.7501  0.1060  1.0036
12104TIP3    H236258   1.264   4.487   4.867  0.1149  1.0491  0.9162
12105TIP3   OH236259   6.746   1.180   1.546 -0.1754 -0.5781  0.1495
12105TIP3    H136260   6.721   1.236   1.472 -0.8610 -0.5879  0.3615
12105TIP3    H236261   6.672   1.121   1.556  0.7517 -1.8778 -0.3878
12106TIP3   OH236262   5.947   4.580   3.919  0.5512  0.0259 -0.6993
12106TIP3    H136263   6.001   4.651   3.955 -0.0371  0.5002 -0.7354
12106TIP3    H236264   5.861   4.593   3.959  0.2931 -0.3372 -1.1322
12107TIP3   OH236265   0.092   2.709   0.455  0.1541  0.2920 -0.4937
12107TIP3    H136266   0.069   2.787   0.507 -1.3817 -1.3662  1.4997
12107TIP3    H236267   0.179   2.728   0.420 -0.3953  3.1082 -0.5570
12108TIP3   OH236268   3.440   4.672   1.627 -0.1588 -0.6552  0.1273
12108TIP3    H136269   3.359   4.677   1.679  0.1607  0.7833  0.5544
12108TIP3    H236270   3.499   4.734   1.671  0.9172 -1.1412 -0.6129
12109TIP3   OH236271   5.789   3.165   2.269 -0.0751 -0.1371  0.2810
12109TIP3    H136272   5.804   3.092   2.209  0.5151 -0.7717  1.1714
12109TIP3    H236273   5.713   3.138   2.321 -1.0960  0.7684 -0.7070
12110TIP3   OH236274   1.608   4.689   5.535 -0.0242  0.2300 -0.7579
12110TIP3    H136275   1.592   4.751   5.463  0.6914 -0.7734 -1.8084
12110TIP3    H236276   1.577   4.735   5.613  0.0976  1.7479 -1.5658
12111TIP3   OH236277   7.499   4.671   0.221  0.0792 -0.4283 -0.1626
12111TIP3    H136278   7.410   4.636   0.209  0.2520 -0.7668 -0.4758
12111TIP3    H236279   7.515   4.722   0.142 -0.0622  0.1331  0.1655
12112TIP3   OH236280   6.933   0.627   4.919 -0.6642 -0.2291 -0.3948
12112TIP3    H136281   6.975   0.607   4.835 -0.2330 -2.5023  0.2967
12112TIP3    H236282   6.876   0.553   4.936 -1.7058  0.7867  0.7641
12113TIP3   OH236283   0.653   0.610   2.626 -0.0313 -0.4890  0.0833
12113TIP3    H136284   0.581   0.553   2.653  0.2458 -0.3841  1.1036
12113TIP3    H236285   0.664   0.593   2.533 -0.1728 -1.8752  0.2994
12114TIP3   OH236286   7.982   7.653   2.108 -0.3303 -0.2385 -0.3385
12114TIP3    H136287   7.962   7.684   2.196  1.0712  1.4461 -0.5714
12114TIP3    H236288   7.896   7.638   2.068 -0.9970 -0.4456  1.0883
12115TIP3   OH236289   1.386   3.106   3.619 -0.1132 -0.0076  0.0532
12115TIP3    H136290   1.374   3.174   3.685 -4.0274 -1.6949  1.4081
12115TIP3    H236291   1.455   3.050   3.654  0.7397  1.3553  0.6141
12116TIP3   OH236292   2.227   4.767   0.662 -0.4754 -0.1544 -0.5603
12116TIP3    H136293   2.211   4.774   0.568 -4.0267 -0.4199 -0.0962
12116TIP3    H236294   2.189   4.847   0.699 -0.8126 -0.9028  0.7895
12117TIP3   OH236295   5.857   0.465   5.855 -0.4429 -0.0522 -0.1271
12117TIP3    H136296   5.908   0.510   5.787 -0.6540 -0.2832 -0.4401
12117TIP3    H236297   5.868   0.372   5.835 -1.8711 -0.0842 -0.8551
12118TIP3   OH236298   4.356   0.854   1.383 -0.2842 -0.1439  0.1300
12118TIP3    H136299   4.382   0.940   1.350 -0.0180  0.5164  1.9663
12118TIP3    H236300   4.319   0.871   1.469 -1.8728 -1.6891 -0.1912
12119TIP3   OH236301   2.428   1.836   4.727 -0.2473  0.3932 -0.2453
12119TIP3    H136302   2.389   1.859   4.811  2.8384  0.7747  1.2060
12119TIP3    H236303   2.453   1.744   4.736  2.2003  1.0256  0.2677
12120TIP3   OH236304   0.327   5.582   6.763  0.0126  0.1688 -0.1458
12120TIP3    H136305   0.245   5.532   6.756 -1.9242  3.0509  0.2229
12120TIP3    H236306   0.359   5.588   6.673 -1.5322  0.9967 -0.6829
12121TIP3   OH236307   0.788   1.548   3.553  0.1790 -0.3251 -0.0494
12121TIP3    H136308   0.787   1.503   3.468  0.6592 -0.0539 -0.2005
12121TIP3    H236309   0.862   1.608   3.547  1.2643 -1.4745  1.1806
12122TIP3   OH236310   1.000   6.604   4.114 -0.3482  0.1491  0.1806
12122TIP3    H136311   0.945   6.527   4.128  0.7105 -0.6922 -0.1920
12122TIP3    H236312   0.997   6.619   4.020  0.0917  0.0790  0.1553
12123TIP3   OH236313   1.757   1.423   2.714 -0.0136 -0.1190  0.2159
12123TIP3    H136314   1.823   1.384   2.657 -2.4471 -2.2723 -1.3261
12123TIP3    H236315   1.778   1.389   2.801  1.6788  0.3937  0.0519
12124TIP3   OH236316   7.243   1.892   5.755  0.2893  0.1022 -0.1512
12124TIP3    H136317   7.298   1.814   5.759  0.6710  0.3974  0.3952
12124TIP3    H236318   7.239   1.924   5.845 -0.5594  0.2375 -0.2289
12125TIP3   OH236319   4.351   7.339   3.733  0.2631 -0.2485 -0.2374
12125TIP3    H136320   4.432   7.289   3.745 -0.1259 -0.6599  0.7790
12125TIP3    H236321   4.294   7.281   3.682  0.3196 -0.2772 -0.2679
12126TIP3   OH236322   4.911   3.129   4.383 -0.0821 -0.0546 -0.1525
12126TIP3    H136323   4.826   3.164   4.409  0.8954  1.0772  1.7004
12126TIP3    H236324   4.975   3.183   4.429  1.7590  0.5079 -3.1292
12127TIP3   OH236325   2.650   5.026   3.372 -0.1880 -0.2729 -0.2893
12127TIP3    H136326   2.598   4.974   3.434  1.3632 -0.2436  1.0906
12127TIP3    H236327   2.591   5.097   3.346 -1.1975 -0.8139  0.4306
12128TIP3   OH236328   1.451   0.867   2.825  0.4583  0.0903  0.0187
12128TIP3    H136329   1.541   0.885   2.853  1.0785 -0.9697 -1.1537
12128TIP3    H236330   1.410   0.826   2.901  1.5787 -1.1673 -0.0042
12129TIP3   OH236331   4.416   3.767   0.486  0.1490 -0.0176  0.0867
12129TIP3    H136332   4.419   3.757   0.581 -2.3555  2.0683  0.5062
12129TIP3    H236333   4.487   3.828   0.466 -0.5412  1.1040  0.9385
12130TIP3   OH236334   6.658   4.238   1.864  0.2856  0.2441 -0.5075
12130TIP3    H136335   6.650   4.210   1.955 -0.4659  0.3751 -0.5336
12130TIP3    H236336   6.649   4.157   1.813  0.1107  0.2555 -0.4939
12131TIP3   OH236337   2.724   4.327   2.186  0.0927 -0.2772  0.0569
12131TIP3    H136338   2.661   4.272   2.139 -1.3240  0.7515  0.6597
12131TIP3    H236339   2.775   4.266   2.238 -0.0968 -1.1914 -0.7868
12132TIP3   OH236340   7.600   4.886   3.265  0.3002  0.2539 -0.3932
12132TIP3    H136341   7.535   4.817   3.259 -1.0459  1.3541  0.8006
12132TIP3    H236342   7.665   4.864   3.198 -1.5883 -0.5678 -2.0608
12133TIP3   OH236343   0.457   4.858   2.504 -0.3559 -0.4766  0.4266
12133TIP3    H136344   0.391   4.927   2.513  0.3045  0.0057  1.8923
12133TIP3    H236345   0.490   4.845   2.593  1.0099 -1.2185 -0.1605
12134TIP3   OH236346   4.037   6.411   0.728  0.3559 -0.1412 -0.6617
12134TIP3    H136347   3.954   6.458   0.727  0.0346 -0.3653 -5.1942
12134TIP3    H236348   4.094   6.465   0.783 -1.9692  1.5261  0.2821
12135TIP3   OH236349   5.673   0.222   3.333 -0.2541  0.1441 -0.4849
12135TIP3    H136350   5.639   0.305   3.298  0.3763  0.7215  0.2186
12135TIP3    H236351   5.767   0.226   3.314 -0.2470 -0.4880 -0.5863
12136TIP3   OH236352   0.422   3.790   6.534 -0.2340  0.2163  0.4226
12136TIP3    H136353   0.350   3.847   6.560 -1.1327 -0.3789 -0.6664
12136TIP3    H236354   0.382   3.703   6.524  0.3321  0.1279 -1.4589
12137TIP3   OH236355   4.418   7.121   1.974  0.0412  0.4143 -0.4151
12137TIP3    H136356   4.388   7.062   1.905 -0.5286  0.5823 -0.3154
12137TIP3    H236357   4.513   7.113   1.973  0.0272  0.2749 -1.0978
12138TIP3   OH236358   5.479   0.141   2.682  0.6135  0.1411  0.0406
12138TIP3    H136359   5.441   0.062   2.643  0.2553  0.3349  0.0007
12138TIP3    H236360   5.437   0.150   2.767 -0.9838  1.5031 -0.8329
12139TIP3   OH236361   1.375   4.811   6.601  0.2740  0.6020 -0.4628
12139TIP3    H136362   1.412   4.890   6.640 -0.2813  0.9598 -0.6521
12139TIP3    H236363   1.450   4.753   6.587  0.5453  0.6500  0.7113
12140TIP3   OH236364   0.911   4.711   1.263 -0.5361 -0.5092 -0.3032
12140TIP3    H136365   0.822   4.747   1.259  0.1152  1.3313  0.5755
12140TIP3    H236366   0.940   4.731   1.352  0.2251 -2.4777 -0.0632
12141TIP3   OH236367   7.714   1.056   5.677 -0.0971 -0.2019 -0.7328
12141TIP3    H136368   7.774   1.063   5.603  0.4214  0.3296 -0.2750
12141TIP3    H236369   7.730   1.135   5.729 -1.5277  0.1772 -0.8366
12142TIP3   OH236370   0.570   1.590   5.349 -0.3728 -0.3107 -0.3847
12142TIP3    H136371   0.503   1.604   5.281 -1.4165  0.9988  0.8425
12142TIP3    H236372   0.571   1.495   5.361 -1.5421 -0.4164 -0.9085
12143TIP3   OH236373   7.116   6.825   4.920 -0.2535 -0.2944  0.2841
12143TIP3    H136374   7.055   6.822   4.846  0.1689  1.0119 -0.1351
12143TIP3    H236375   7.200   6.796   4.883  0.4835  2.3776 -0.3399
12144TIP3   OH236376   3.922   4.031   0.119 -0.2161 -0.2680  0.2541
12144TIP3    H136377   3.995   4.045   0.179  1.2567  0.5435 -1.6177
12144TIP3    H236378   3.844   4.035   0.174  1.1478 -1.7323  2.4147
12145TIP3   OH236379   4.231   1.600   3.675  0.3220 -0.8085 -0.1824
12145TIP3    H136380   4.239   1.570   3.584  0.6791  0.1207 -0.4728
12145TIP3    H236381   4.164   1.544   3.713 -1.5942  0.3157 -1.7007
12146TIP3   OH236382   3.058   3.300   0.922  0.2761  0.0579  0.3073
12146TIP3    H136383   3.046   3.388   0.887  1.5033 -0.1045 -0.5717
12146TIP3    H236384   3.135   3.306   0.978  1.5650 -0.8370 -1.2773
12147TIP3   OH236385   2.792   2.951   2.203  0.7674 -0.2778  0.0756
12147TIP3    H136386   2.769   2.994   2.286  0.3091  0.0900 -0.2382
12147TIP3    H236387   2.848   3.014   2.158 -0.8131  0.4856 -0.8757
12148TIP3   OH236388   4.446   7.825   6.607  0.2017  0.3710 -0.0223
12148TIP3    H136389   4.371   7.823   6.666 -0.7224 -1.5054 -1.1645
12148TIP3    H236390   4.501   7.752   6.634 -0.6881 -1.0998 -1.9377
12149TIP3   OH236391   6.352   5.576   2.270  0.0395 -0.3832  0.1403
12149TIP3    H136392   6.377   5.575   2.178  0.2951 -0.4878  0.2080
12149TIP3    H236393   6.419   5.630   2.312 -0.2723 -0.0488  0.2104
12150TIP3   OH236394   6.192   4.630   2.666 -0.1608  0.0617 -0.4085
12150TIP3    H136395   6.141   4.707   2.641  0.8532  0.7376 -0.4365
12150TIP3    H236396   6.226   4.595   2.584  0.7951  0.6006 -0.2545
12151TIP3   OH236397   8.030   2.980   0.248  0.4072 -0.1317  0.5458
12151TIP3    H136398   7.995   3.064   0.278 -1.0082 -0.8140  0.9215
12151TIP3    H236399   7.990   2.916   0.307  1.5719 -1.0687  0.3612
12152TIP3   OH236400   1.499   7.431   3.401 -0.3362  0.6003  0.0717
12152TIP3    H136401   1.436   7.359   3.391 -0.5039  0.5784  1.2174
12152TIP3    H236402   1.539   7.439   3.314  1.1233 -2.1949  0.3612
12153TIP3   OH236403   7.672   0.393   1.573  0.1835  0.9317 -0.0742
12153TIP3    H136404   7.765   0.416   1.571 -0.0133  1.7018 -1.0382
12153TIP3    H236405   7.635   0.434   1.495 -1.0069  0.7775  0.3819
12154TIP3   OH236406   3.120   0.702   0.033 -0.3522 -0.0318 -0.2751
12154TIP3    H136407   3.074   0.723   0.114  1.2203  0.1720  0.6089
12154TIP3    H236408   3.098   0.774  -0.026 -2.7990 -0.9899 -0.6374
12155TIP3   OH236409   5.537   0.460   3.192  0.0471  0.3353 -0.3352
12155TIP3    H136410   5.492   0.436   3.111 -2.2343  1.1363  0.6050
12155TIP3    H236411   5.564   0.551   3.178 -0.5751  0.5567 -0.1132
12156TIP3   OH236412   2.264   4.171   6.412  0.5031 -0.1912  0.5559
12156TIP3    H136413   2.336   4.153   6.472  2.0033 -0.8402 -1.3240
12156TIP3    H236414   2.282   4.258   6.378  0.4649 -0.4024 -0.0128
12157TIP3   OH236415   5.551   1.547   2.105 -0.4699 -0.1436 -0.4491
12157TIP3    H136416   5.477   1.522   2.051 -0.6663  0.1176 -0.3019
12157TIP3    H236417   5.514   1.602   2.174 -0.2190 -0.4480 -0.0655
12158TIP3   OH236418   7.575   5.668   6.660 -0.1337 -0.3065  0.0312
12158TIP3    H136419   7.655   5.616   6.646  0.1112  0.1345 -0.2209
12158TIP3    H236420   7.589   5.748   6.609 -2.0750 -1.5684 -2.7568
12159TIP3   OH236421   3.385   7.085   5.950 -0.2186  0.1596  0.2862
12159TIP3    H136422   3.416   7.128   5.870 -0.8623  0.7027  0.3185
12159TIP3    H236423   3.460   7.035   5.981 -0.3461 -1.1484 -1.3863
12160TIP3   OH236424   2.611   5.011   1.584  0.2603  0.3983 -0.2196
12160TIP3    H136425   2.566   4.978   1.506  0.8782  0.5023 -0.6200
12160TIP3    H236426   2.624   5.104   1.566  1.9931  0.0867 -0.7790
12161TIP3   OH236427   2.559   1.491   2.916 -0.0261  0.3134 -0.7484
12161TIP3    H136428   2.464   1.505   2.916 -0.1891 -0.6203 -2.2233
12161TIP3    H236429   2.596   1.577   2.895 -0.3877  1.2024  1.8758
12162TIP3   OH236430   5.724   6.316   5.092 -0.3700 -0.2284 -0.2790
12162TIP3    H136431   5.774   6.312   5.173 -3.6796  0.7184  2.0090
12162TIP3    H236432   5.669   6.238   5.094 -2.1342  0.9517 -0.3647
12163TIP3   OH236433   4.979   5.646   4.817 -0.5662  0.4438  0.0885
12163TIP3    H136434   4.941   5.579   4.873  1.4147 -0.1862  0.7720
12163TIP3    H236435   5.044   5.599   4.764 -0.3112  1.5354 -0.6037
12164TIP3   OH236436   5.583   0.908   5.408  0.5290 -0.2935 -0.2165
12164TIP3    H136437   5.524   0.857   5.463  0.8344  1.2165  1.6180
12164TIP3    H236438   5.581   0.996   5.446  1.0498  0.7446 -2.4347
12165TIP3   OH236439   8.160   7.254   2.755  0.6723 -0.6401 -0.4509
12165TIP3    H136440   8.174   7.229   2.663  1.5523 -0.8736 -0.2644
12165TIP3    H236441   8.099   7.188   2.789 -1.8006  0.9353 -1.5413
12166TIP3   OH236442   4.570   3.782   0.113  0.9361  0.1719  0.2134
12166TIP3    H136443   4.538   3.736   0.036 -0.1276  1.6436 -0.2665
12166TIP3    H236444   4.526   3.738   0.186  0.8115 -0.2898 -0.1324
12167TIP3   OH236445   2.364   4.454   2.436 -0.1726 -0.2847  0.2854
12167TIP3    H136446   2.318   4.400   2.372 -0.9083  0.7594 -0.0928
12167TIP3    H236447   2.406   4.523   2.384  0.8665 -0.5430  0.7441
12168TIP3   OH236448   7.749   2.865   6.428  0.4608  0.2978  0.0705
12168TIP3    H136449   7.831   2.904   6.397  1.0694 -1.7970 -1.1650
12168TIP3    H236450   7.777   2.790   6.481 -0.6495 -0.5713 -0.5366
12169TIP3   OH236451   0.074   2.760   3.023 -0.2426  0.4590 -0.2547
12169TIP3    H136452  -0.005   2.720   3.060  0.4468  0.7406  1.6174
12169TIP3    H236453   0.082   2.720   2.936 -0.8245 -1.8122  0.6620
12170TIP3   OH236454   8.112   0.518   1.526 -0.2161  0.0675  0.9324
12170TIP3    H136455   8.069   0.449   1.475 -0.9893  0.2223  1.3472
12170TIP3    H236456   8.198   0.483   1.547  1.1508  0.9903 -2.6130
12171TIP3   OH236457   6.290   3.398   1.962 -0.2258 -0.3154 -0.1598
12171TIP3    H136458   6.359   3.415   2.026 -1.4479 -0.8877  1.3924
12171TIP3    H236459   6.334   3.355   1.889  1.0714 -0.6279  0.7789
12172TIP3   OH236460   3.572   5.121   5.572 -0.6609 -0.2330  0.2325
12172TIP3    H136461   3.636   5.080   5.630 -2.0394 -0.3492  1.7340
12172TIP3    H236462   3.590   5.215   5.580  0.5887 -0.3336 -0.9385
12173TIP3   OH236463   2.233   3.335   3.387  0.2605  0.1589  0.8261
12173TIP3    H136464   2.224   3.289   3.304 -1.0971  1.3654  0.2743
12173TIP3    H236465   2.186   3.279   3.450 -1.0479  0.5682  0.2375
12174TIP3   OH236466   0.681   5.808   4.398 -0.0230  0.1016  0.2512
12174TIP3    H136467   0.704   5.720   4.368 -0.6728  0.5833 -1.8131
12174TIP3    H236468   0.758   5.861   4.380 -0.3723  0.3686 -0.5074
12175TIP3   OH236469   6.686   3.829   5.172  0.0811 -0.5198 -0.5203
12175TIP3    H136470   6.683   3.744   5.216 -0.2032 -0.9951 -1.4350
12175TIP3    H236471   6.599   3.867   5.185  0.9698  0.8432  2.1542
12176TIP3   OH236472   3.133   1.882   3.950  0.2188  0.0756  0.1977
12176TIP3    H136473   3.212   1.909   3.997  1.0596 -1.0822 -0.5127
12176TIP3    H236474   3.148   1.790   3.928 -0.9628  0.0794 -0.7179
12177TIP3   OH236475   1.869   4.337   0.897  0.1981  0.0908  0.3161
12177TIP3    H136476   1.961   4.327   0.874  0.4246 -0.1655  1.2670
12177TIP3    H236477   1.860   4.289   0.980 -0.4407  1.4099  1.0350
12178TIP3   OH236478   6.840   0.536   5.581 -0.0275 -0.0212 -0.1457
12178TIP3    H136479   6.893   0.548   5.502  2.7254  0.1998  1.5851
12178TIP3    H236480   6.820   0.625   5.609 -0.3359 -0.0830 -0.1670
12179TIP3   OH236481   5.861   6.159   5.789  0.0965  0.5080 -0.0906
12179TIP3    H136482   5.892   6.075   5.823  0.3362  0.3206 -0.7586
12179TIP3    H236483   5.814   6.137   5.709 -0.8717  0.8970  0.3624
12180TIP3   OH236484   5.583   1.262   5.002 -0.5216 -0.3302 -0.5326
12180TIP3    H136485   5.618   1.183   4.960 -1.1554 -0.7805 -0.2457
12180TIP3    H236486   5.500   1.233   5.040 -0.7276  0.4653 -0.3605
12181TIP3   OH236487   3.542   6.855   0.600 -0.2298  0.0576 -0.1994
12181TIP3    H136488   3.541   6.784   0.665  1.1163 -0.3558 -0.5919
12181TIP3    H236489   3.486   6.822   0.529 -0.4048 -0.1851  0.0460
12182TIP3   OH236490   0.785   6.461   0.274  0.3075  0.0100  0.0692
12182TIP3    H136491   0.732   6.487   0.199  0.5027 -0.5679 -0.2720
12182TIP3    H236492   0.775   6.533   0.336  0.7240  0.8519 -0.8002
12183TIP3   OH236493   4.998   0.268   3.172 -0.3561  0.0833  0.4373
12183TIP3    H136494   4.926   0.319   3.134 -0.7668 -2.1433 -2.0375
12183TIP3    H236495   5.042   0.228   3.097  1.3128 -1.4398  2.1115
12184TIP3   OH236496   0.757   7.591   1.997  0.4619  0.1732 -0.0173
12184TIP3    H136497   0.690   7.655   2.022  0.8784  1.5291 -2.0273
12184TIP3    H236498   0.825   7.599   2.064 -1.2787 -1.1357  1.9809
12185TIP3   OH236499   1.589   4.908   5.355 -0.1934  0.1182  0.3601
12185TIP3    H136500   1.652   4.979   5.366 -0.5645  0.4557  0.3057
12185TIP3    H236501   1.576   4.902   5.261  0.9360 -0.9897  0.2449
12186TIP3   OH236502   0.860   1.033   4.133 -0.0986  0.9203  0.3341
12186TIP3    H136503   0.865   1.026   4.037  1.5812 -1.4116  0.4971
12186TIP3    H236504   0.774   0.996   4.154  0.0929  0.1014 -0.2304
12187TIP3   OH236505   5.012   6.659   2.268 -0.1236 -0.5205  0.1601
12187TIP3    H136506   5.076   6.593   2.296  0.6001 -0.1007 -0.4576
12187TIP3    H236507   5.027   6.668   2.174 -0.6942  0.0168  0.1158
12188TIP3   OH236508   6.948   7.736   1.229  0.5816  0.5594  0.1744
12188TIP3    H136509   6.872   7.718   1.284  1.3521  1.1565  1.5022
12188TIP3    H236510   6.976   7.824   1.255  2.2111  0.0286  0.3318
12189TIP3   OH236511   6.499   5.165   3.141 -0.0949  0.7539 -0.2107
12189TIP3    H136512   6.475   5.233   3.204 -0.1928  2.0096 -1.5516
12189TIP3    H236513   6.542   5.212   3.070  2.6422 -0.9513  0.1832
12190TIP3   OH236514   5.293   2.681   0.236 -0.1276 -0.4048 -0.1153
12190TIP3    H136515   5.289   2.591   0.266 -0.0116 -1.1712 -2.2529
12190TIP3    H236516   5.327   2.730   0.311 -2.5327 -1.6676  1.9798
12191TIP3   OH236517   5.263   2.120   1.942  0.1626 -0.0588 -0.0117
12191TIP3    H136518   5.171   2.123   1.966  0.7275 -0.4261  2.5224
12191TIP3    H236519   5.281   2.205   1.902 -0.7114  1.1191  1.9613
12192TIP3   OH236520   1.572   5.470   4.442 -0.4375 -0.2928  0.3203
12192TIP3    H136521   1.550   5.398   4.500  0.5460 -0.8819 -0.0161
12192TIP3    H236522   1.565   5.548   4.497  0.2605 -0.8145  1.1707
12193TIP3   OH236523   1.775   4.552   5.748  0.4032  0.6922 -0.2274
12193TIP3    H136524   1.709   4.555   5.679  0.7294  1.8238 -0.5128
12193TIP3    H236525   1.859   4.547   5.702  0.5929  0.8372  0.0971
12194TIP3   OH236526   5.517   5.089   0.367  0.0071 -0.1444 -0.2626
12194TIP3    H136527   5.595   5.035   0.355  0.1678  0.1879 -0.7364
12194TIP3    H236528   5.526   5.159   0.303 -0.1444  0.5215  0.4242
12195TIP3   OH236529   7.148   7.019   6.666 -0.1671  0.2171  0.6169
12195TIP3    H136530   7.122   7.026   6.759 -1.3473  0.2949  0.3055
12195TIP3    H236531   7.072   7.052   6.618 -0.5767 -2.0934 -0.4607
12196TIP3   OH236532   4.948   7.050   2.297 -0.7382  0.4031  0.3474
12196TIP3    H136533   5.040   7.033   2.277 -0.9604 -0.1947 -0.1949
12196TIP3    H236534   4.947   7.140   2.329  0.3277 -0.2258  2.3336
12197TIP3   OH236535   0.204   3.187   5.078 -0.5234 -0.0641 -0.5572
12197TIP3    H136536   0.231   3.235   5.156 -0.2690  0.4187 -0.9421
12197TIP3    H236537   0.285   3.161   5.035 -0.6383  1.2355 -1.6223
12198TIP3   OH236538   8.093   6.772   0.197 -0.3303 -0.7677 -0.0444
12198TIP3    H136539   8.119   6.713   0.127 -1.4484 -2.7556  1.1129
12198TIP3    H236540   8.005   6.802   0.172 -1.6846 -3.1939  1.3870
12199TIP3   OH236541   0.154   0.455   3.787  0.0374 -0.2148  0.4555
12199TIP3    H136542   0.122   0.445   3.876 -0.0617  0.8901  0.5546
12199TIP3    H236543   0.231   0.511   3.794  0.9530 -1.3566  0.0056
12200TIP3   OH236544   0.306   7.150   0.116 -0.1829  0.5255  0.4655
12200TIP3    H136545   0.291   7.100   0.035 -0.4062  1.6406 -0.2181
12200TIP3    H236546   0.225   7.201   0.128 -0.0314  0.6003  1.2229
12201TIP3   OH236547   6.256   2.737   2.519 -0.2626  0.1004 -0.3671
12201TIP3    H136548   6.190   2.670   2.503  0.2337 -0.2549 -0.9372
12201TIP3    H236549   6.215   2.819   2.491 -1.2706  0.2162  1.3211
12202TIP3   OH236550   7.632   1.624   5.319 -0.2290  0.5827  0.8955
12202TIP3    H136551   7.673   1.680   5.385 -0.5348  0.5094  1.1499
12202TIP3    H236552   7.544   1.660   5.309 -0.3757  0.2377  0.9487
12203TIP3   OH236553   6.210   3.667   2.242  0.2083 -0.2706  0.5403
12203TIP3    H136554   6.169   3.668   2.156 -1.2849 -0.2308  1.2188
12203TIP3    H236555   6.240   3.577   2.254  2.1887  0.1521 -0.7744
12204TIP3   OH236556   5.797   5.535   2.229 -0.1488  0.1164  0.3739
12204TIP3    H136557   5.767   5.608   2.174 -1.5671 -0.4888  0.3097
12204TIP3    H236558   5.890   5.553   2.242  0.1925  0.4290 -1.9837
12205TIP3   OH236559   1.436   6.088   6.060  0.3366 -0.2617 -0.0083
12205TIP3    H136560   1.481   6.164   6.024  0.3878 -0.2385  0.1027
12205TIP3    H236561   1.344   6.114   6.066  0.2735 -0.3826 -0.4294
12206TIP3   OH236562   7.101   0.965   4.098 -0.0029 -0.0901  0.2557
12206TIP3    H136563   7.060   0.945   4.014  0.9351  1.2721 -0.5674
12206TIP3    H236564   7.099   1.060   4.103  1.4901 -0.0728  0.9723
12207TIP3   OH236565   0.429   7.546   5.737 -0.6117  0.2668 -0.1142
12207TIP3    H136566   0.339   7.516   5.724 -0.5418  0.6245 -1.6482
12207TIP3    H236567   0.472   7.473   5.783 -1.5192 -0.1610  0.0805
12208TIP3   OH236568   2.786   3.587   2.480  0.4377 -0.0191  0.3839
12208TIP3    H136569   2.796   3.521   2.411 -1.6101  0.5147 -0.4842
12208TIP3    H236570   2.809   3.541   2.561 -0.7280 -1.7648 -0.2180
12209TIP3   OH236571   2.028   7.498   6.648  0.2722 -0.1159  0.1915
12209TIP3    H136572   2.101   7.552   6.619  0.0764 -0.0658 -0.2073
12209TIP3    H236573   1.956   7.560   6.659  0.3755 -0.1122  0.9123
12210TIP3   OH236574   8.035   6.340   0.749  0.0035 -0.7911  1.0304
12210TIP3    H136575   8.109   6.350   0.689  0.5793  0.9983  1.9842
12210TIP3    H236576   8.075   6.328   0.835 -0.8054 -0.1818  1.5017
12211TIP3   OH236577   4.896   3.315   5.447  0.3078  0.6135  0.4316
12211TIP3    H136578   4.911   3.386   5.385 -1.5385 -0.5832 -1.5035
12211TIP3    H236579   4.813   3.276   5.421  1.1955 -2.2587  1.3876
12212TIP3   OH236580   7.168   1.063   1.533 -0.3580 -0.1555 -0.5129
12212TIP3    H136581   7.084   1.042   1.574  0.0346 -0.0196  0.3760
12212TIP3    H236582   7.144   1.111   1.454 -1.1114  0.1833 -0.0962
12213TIP3   OH236583   6.144   0.142   4.576  0.0031 -0.9489  0.2979
12213TIP3    H136584   6.073   0.182   4.624  1.4458 -0.1284  1.8518
12213TIP3    H236585   6.126   0.048   4.580 -1.4664 -0.7100 -0.1821
12214TIP3   OH236586   7.802   4.818   3.086 -0.2116  0.2534  0.0925
12214TIP3    H136587   7.832   4.732   3.114 -1.2093  0.2000  1.0706
12214TIP3    H236588   7.878   4.875   3.098  0.0362 -0.2194  0.8591
12215TIP3   OH236589   7.636   5.359   0.646  0.3548 -0.3802  0.1760
12215TIP3    H136590   7.586   5.331   0.722  0.1194 -1.2801 -0.2906
12215TIP3    H236591   7.575   5.349   0.573  0.7569 -0.0804 -0.2031
12216TIP3   OH236592   3.097   3.967   1.417 -0.5601  0.1370 -0.1115
12216TIP3    H136593   3.075   4.046   1.367  0.1778  0.5135  0.1527
12216TIP3    H236594   3.162   3.996   1.480 -0.1567 -0.7251 -0.1239
12217TIP3   OH236595   3.723   1.995   4.735  0.2423 -0.1999 -0.3349
12217TIP3    H136596   3.722   1.956   4.822  1.5379 -0.1831 -0.2999
12217TIP3    H236597   3.815   2.003   4.713 -0.0185  1.5057 -0.9507
12218TIP3   OH236598   3.908   3.879   6.480 -0.1278  0.0561 -0.4090
12218TIP3    H136599   3.888   3.815   6.548 -1.9280 -0.1962 -1.0960
12218TIP3    H236600   3.830   3.935   6.476 -0.0284  0.1477 -2.1505
12219TIP3   OH236601   1.816   2.930   3.449 -0.1939  0.4160  0.0893
12219TIP3    H136602   1.827   2.962   3.360  0.6745 -0.0750  0.0036
12219TIP3    H236603   1.906   2.924   3.483 -0.4610 -0.2190  0.7000
12220TIP3   OH236604   8.241   4.551   4.439 -0.1833 -0.7480  0.3765
12220TIP3    H136605   8.191   4.597   4.506 -2.4672  0.2170 -1.7785
12220TIP3    H236606   8.300   4.616   4.403 -0.8662 -0.4621 -0.2707
12221TIP3   OH236607   3.264   1.329   5.030  0.1204  0.1654 -0.0849
12221TIP3    H136608   3.281   1.240   5.061 -0.3923  0.2222  0.3879
12221TIP3    H236609   3.186   1.357   5.079  1.7525  1.8340  1.7602
12222TIP3   OH236610   2.342   4.697   0.913  0.1665  0.1453  0.3521
12222TIP3    H136611   2.311   4.719   0.825 -0.2728 -1.2105  0.1409
12222TIP3    H236612   2.437   4.690   0.904  0.0717 -0.6059 -0.1825
12223TIP3   OH236613   2.443   1.752   5.220 -0.6825 -0.4903 -0.2824
12223TIP3    H136614   2.461   1.810   5.146 -1.5561 -0.1158 -0.2153
12223TIP3    H236615   2.369   1.698   5.191 -2.3238  0.9788  0.9795
12224TIP3   OH236616   1.246   2.849   4.515 -0.1290 -0.0208  0.1730
12224TIP3    H136617   1.172   2.863   4.574  0.6337  3.2124  0.5147
12224TIP3    H236618   1.235   2.913   4.446  1.9617  0.0577 -0.1709
12225TIP3   OH236619   0.421   6.929   3.891  0.6237  0.3793  0.9364
12225TIP3    H136620   0.507   6.927   3.849 -0.2432  1.6085 -1.0253
12225TIP3    H236621   0.386   7.015   3.869 -1.9382 -0.8326 -0.1132
12226TIP3   OH236622   0.124   6.819   6.206 -0.4248 -0.5624  0.9822
12226TIP3    H136623   0.145   6.801   6.298 -2.1051 -0.4672  1.4063
12226TIP3    H236624   0.149   6.910   6.193 -1.1548 -0.2641  1.6430
12227TIP3   OH236625   1.731   0.436   6.753 -0.3399  0.4383  0.6640
12227TIP3    H136626   1.814   0.419   6.710 -0.1723 -0.8445  1.4509
12227TIP3    H236627   1.751   0.502   6.819  0.4960 -1.2069  2.1232
12228TIP3   OH236628   2.066   4.185   3.407  0.0218 -0.5411  0.3835
12228TIP3    H136629   2.105   4.240   3.475  0.3073 -0.5079  0.1935
12228TIP3    H236630   1.978   4.166   3.439 -0.5984  1.1746 -0.1798
12229TIP3   OH236631   5.319   1.759   0.714 -0.0217  0.2312  0.1319
12229TIP3    H136632   5.234   1.717   0.713  0.3444 -0.6345  1.7530
12229TIP3    H236633   5.308   1.838   0.661 -1.1356 -1.0895 -1.7002
12230TIP3   OH236634   2.273   1.576   2.406 -0.0635  0.3245  0.4945
12230TIP3    H136635   2.320   1.599   2.326 -0.6247  0.7756  0.2820
12230TIP3    H236636   2.220   1.500   2.381 -3.9115  3.1623 -1.0777
12231TIP3   OH236637   6.388   4.426   4.765  0.6060 -0.1920  0.4722
12231TIP3    H136638   6.482   4.429   4.778  0.6197 -1.1043  0.6431
12231TIP3    H236639   6.374   4.469   4.680  1.3219 -1.2920 -0.2348
12232TIP3   OH236640   0.535   5.247   5.624 -0.2346  0.3473  0.1845
12232TIP3    H136641   0.442   5.223   5.627  0.0074 -0.7807 -0.7166
12232TIP3    H236642   0.535   5.343   5.633 -1.6806  0.6399 -2.1054
12233TIP3   OH236643   3.259   6.103   2.644 -0.2436  0.6215  0.2930
12233TIP3    H136644   3.208   6.027   2.671 -2.8120  2.5130  1.2325
12233TIP3    H236645   3.204   6.147   2.579  1.4077  1.4296 -0.6229
12234TIP3   OH236646   3.873   5.744   6.449 -0.2736 -0.0724 -0.0851
12234TIP3    H136647   3.899   5.806   6.516 -1.5761  0.2945  0.1092
12234TIP3    H236648   3.954   5.698   6.425  0.2335 -0.1251  1.6325
12235TIP3   OH236649   3.584   3.928   4.921 -0.4418  0.1389 -0.0133
12235TIP3    H136650   3.605   3.837   4.901 -1.8778  0.0044 -1.0917
12235TIP3    H236651   3.614   3.977   4.845  1.4969  0.8065  1.0903
12236TIP3   OH236652   7.582   2.306   2.565 -0.1814  0.6590 -0.0828
12236TIP3    H136653   7.649   2.297   2.498 -0.6649  1.2729 -0.6607
12236TIP3    H236654   7.618   2.369   2.627  0.2179  0.1766  0.1765
12237TIP3   OH236655   7.159   0.937   4.657 -0.3767 -0.3669  0.3826
12237TIP3    H136656   7.167   0.844   4.676 -0.7672 -0.9481 -2.0118
12237TIP3    H236657   7.188   0.946   4.566 -0.9240  1.7505  0.3586
12238TIP3   OH236658   7.133   6.805   5.301 -0.1318 -0.1431  0.4044
12238TIP3    H136659   7.215   6.816   5.252 -0.3550 -1.0557 -0.1979
12238TIP3    H236660   7.132   6.878   5.363  0.7060  0.3885 -0.1905
12239TIP3   OH236661   0.168   5.352   0.527  0.0652  0.1084  0.5489
12239TIP3    H136662   0.188   5.265   0.492 -0.2927  0.0557  0.4643
12239TIP3    H236663   0.081   5.342   0.567 -0.0369  0.4584  0.4212
12240TIP3   OH236664   4.299   5.482   4.755 -0.4099 -0.1856 -0.7568
12240TIP3    H136665   4.257   5.519   4.832 -0.1790 -0.3440 -0.5494
12240TIP3    H236666   4.358   5.551   4.724  1.3766 -0.9817  0.6950
12241TIP3   OH236667   5.292   0.721   3.373  0.1364 -0.6605  0.1824
12241TIP3    H136668   5.306   0.648   3.312 -0.2993 -0.4869 -0.1347
12241TIP3    H236669   5.267   0.680   3.455 -0.3442 -0.8684 -0.0627
12242TIP3   OH236670   2.372   3.334   1.188  0.1313 -0.1671 -0.4597
12242TIP3    H136671   2.277   3.341   1.197  0.0766 -0.1361 -1.0111
12242TIP3    H236672   2.395   3.402   1.124  0.9095  1.8825  1.8609
12243TIP3   OH236673   5.299   6.239   6.649 -0.1513  0.5309  0.5558
12243TIP3    H136674   5.330   6.295   6.719  0.1034  0.9765  0.0951
12243TIP3    H236675   5.209   6.216   6.673  0.3404 -0.3401  1.6439
12244TIP3   OH236676   1.905   6.731   5.278 -0.3772  0.0421 -0.1971
12244TIP3    H136677   1.961   6.672   5.328  0.6506 -0.6875 -2.0899
12244TIP3    H236678   1.858   6.782   5.344  0.9879 -0.7605  1.4693
12245TIP3   OH236679   7.706   3.655   3.607  0.0173 -0.4788  0.0608
12245TIP3    H136680   7.722   3.749   3.601  1.0697 -0.6582 -0.2021
12245TIP3    H236681   7.658   3.643   3.689 -1.1197  0.3936 -0.4466
12246TIP3   OH236682   6.888   3.893   3.973  0.9424  0.2294  0.4242
12246TIP3    H136683   6.806   3.863   4.010 -0.0960  3.1146  0.7255
12246TIP3    H236684   6.949   3.894   4.047  1.1530 -1.4014  0.3115
12247TIP3   OH236685   8.210   3.526   5.675 -0.3279  0.1952  0.6836
12247TIP3    H136686   8.182   3.583   5.747  2.6079  1.1808  1.2070
12247TIP3    H236687   8.296   3.493   5.703  0.3097 -0.4712 -1.7862
12248TIP3   OH236688   5.460   1.237   0.681 -0.1153  0.1517  0.4661
12248TIP3    H136689   5.414   1.254   0.763  0.4459  0.7236  0.6749
12248TIP3    H236690   5.528   1.305   0.677 -0.6619  0.6590 -0.8844
12249TIP3   OH236691   4.149   4.963   5.337  0.0133 -0.1611 -0.6093
12249TIP3    H136692   4.219   4.917   5.290 -0.8488  0.6326 -2.7786
12249TIP3    H236693   4.101   4.894   5.382 -0.0525 -1.1807 -2.1688
12250TIP3   OH236694   4.883   7.300   3.221 -0.4885 -0.2606  0.0311
12250TIP3    H136695   4.870   7.239   3.293  1.4213  0.0039  0.6654
12250TIP3    H236696   4.921   7.246   3.151  0.0990 -0.0343  0.1708
12251TIP3   OH236697   6.667   1.367   2.009 -0.3876  0.0645 -0.0251
12251TIP3    H136698   6.728   1.294   2.007 -0.7908 -0.3662  1.7846
12251TIP3    H236699   6.687   1.418   1.930  1.2366 -0.9045 -0.2686
12252TIP3   OH236700   2.117   0.570   2.949  0.9417  0.3576 -0.7413
12252TIP3    H136701   2.111   0.607   2.861  0.8660 -0.8122 -1.2455
12252TIP3    H236702   2.206   0.536   2.955  0.0878 -2.3220 -1.5543
12253TIP3   OH236703   1.779   4.241   4.969  0.2082 -0.3877  0.5007
12253TIP3    H136704   1.813   4.328   4.990 -1.0333 -0.0502  1.2838
12253TIP3    H236705   1.828   4.213   4.892  0.7044  0.9623  0.3031
12254TIP3   OH236706   1.750   6.892   5.786  0.0572  0.3128  0.2318
12254TIP3    H136707   1.731   6.941   5.866  1.5203  2.6887 -0.7611
12254TIP3    H236708   1.824   6.836   5.809  0.9043  1.4697  0.4301
12255TIP3   OH236709   4.608   7.284   0.644 -0.1953 -0.7064 -0.1626
12255TIP3    H136710   4.618   7.342   0.718  0.3571 -2.2588  1.0328
12255TIP3    H236711   4.594   7.197   0.682 -0.2178 -1.5090 -1.8609
12256TIP3   OH236712   2.004   0.417   6.684 -0.6043  0.7474  0.5837
12256TIP3    H136713   2.004   0.419   6.588  0.7116  0.4026  0.5560
12256TIP3    H236714   2.086   0.372   6.707 -2.4060 -2.2355  1.8141
12257TIP3   OH236715   5.608   7.691   4.403 -0.5144  0.3256 -0.4432
12257TIP3    H136716   5.664   7.734   4.338  0.2704  2.8020  1.7174
12257TIP3    H236717   5.522   7.689   4.362  0.3722 -0.2676 -2.4165
12258TIP3   OH236718   0.049   0.416   2.999  0.0034  0.3937  0.5932
12258TIP3    H136719   0.024   0.392   3.088 -1.4564 -1.4420 -0.2482
12258TIP3    H236720   0.123   0.359   2.978  1.1618  1.6831  1.0061
12259TIP3   OH236721   6.545   6.449   4.429  0.2844 -0.1504 -0.2523
12259TIP3    H136722   6.568   6.364   4.390 -1.3256 -0.2085 -1.1725
12259TIP3    H236723   6.505   6.498   4.357  0.1691  0.9703  0.5566
12260TIP3   OH236724   0.512   7.185   6.143  0.5215  0.0784 -0.4188
12260TIP3    H136725   0.479   7.102   6.176 -0.2793  0.0252 -1.3066
12260TIP3    H236726   0.474   7.251   6.201  3.0510 -0.2391  1.8030
12261TIP3   OH236727   3.351   6.780   0.323 -0.0992  0.0340 -0.0172
12261TIP3    H136728   3.305   6.744   0.247  0.0600  1.4515 -0.8192
12261TIP3    H236729   3.293   6.847   0.358  1.2288  1.7971 -0.9995
12262TIP3   OH236730   2.959   1.962   0.262  0.5227  0.2919 -0.3945
12262TIP3    H136731   2.935   1.986   0.351  1.1476  2.1925 -0.6826
12262TIP3    H236732   2.891   1.901   0.234 -0.0025  0.1219  1.1692
12263TIP3   OH236733   7.169   2.290   2.817 -0.2477  0.3473  0.0126
12263TIP3    H136734   7.189   2.381   2.840  3.2972 -0.8677  2.7751
12263TIP3    H236735   7.118   2.257   2.891  0.1970 -0.3688  0.0136
12264TIP3   OH236736   3.633   3.479   5.727  0.4468  0.4745  0.6581
12264TIP3    H136737   3.696   3.491   5.656  0.2278  0.0427  0.3866
12264TIP3    H236738   3.619   3.567   5.763 -0.2340  0.8682 -0.5170
12265TIP3   OH236739   7.972   0.418   3.548 -0.8023 -0.0777 -0.8714
12265TIP3    H136740   7.995   0.363   3.623 -1.7579 -0.2748 -0.7153
12265TIP3    H236741   7.899   0.471   3.579  1.4458  2.9032 -0.2798
12266TIP3   OH236742   3.697   7.783   3.883 -0.1947 -0.2022  0.1269
12266TIP3    H136743   3.673   7.691   3.868  1.4102 -0.8106  1.0094
12266TIP3    H236744   3.703   7.790   3.978  0.2137  0.6725  0.0398
12267TIP3   OH236745   0.061   5.601   6.446 -0.2461 -0.2904 -0.6550
12267TIP3    H136746   0.119   5.526   6.460 -1.0453 -1.0802 -1.4477
12267TIP3    H236747   0.121   5.672   6.421  0.4839 -0.7943 -0.3873
12268TIP3   OH236748   8.143   7.208   2.217  0.6263  0.1693 -0.2526
12268TIP3    H136749   8.097   7.241   2.139  1.2741 -0.7376 -1.0271
12268TIP3    H236750   8.183   7.126   2.189  0.3775 -0.4754  1.2127
12269TIP3   OH236751   5.483   4.081   2.345 -0.0643  0.1412 -0.0965
12269TIP3    H136752   5.446   4.161   2.382  0.3943  1.1845 -1.7722
12269TIP3    H236753   5.552   4.056   2.407  0.3033  1.4906  0.0791
12270TIP3   OH236754   7.788   7.441   2.973  0.1077  0.0923 -0.0439
12270TIP3    H136755   7.778   7.531   3.006 -0.5376  1.2845 -3.1540
12270TIP3    H236756   7.700   7.404   2.979 -0.1846  0.5893 -1.1072
12271TIP3   OH236757   0.392   3.591   4.204 -0.1991 -0.2683 -0.4217
12271TIP3    H136758   0.357   3.505   4.229 -0.0402  0.0700  1.0677
12271TIP3    H236759   0.449   3.572   4.129  0.0851 -1.5146  0.0737
12272TIP3   OH236760   5.172   5.430   5.101  0.2487 -0.1840  0.2459
12272TIP3    H136761   5.249   5.389   5.140  0.0294  0.0299  0.9010
12272TIP3    H236762   5.194   5.523   5.096 -0.8356  0.2733  2.6043
12273TIP3   OH236763   3.529   4.805   5.783  0.0120 -0.1946  0.4271
12273TIP3    H136764   3.461   4.828   5.720  0.7255  0.3223 -0.1566
12273TIP3    H236765   3.496   4.839   5.867 -0.2928  0.3448  0.0922
12274TIP3   OH236766   2.360   5.963   4.812 -0.4922 -0.2345  0.4749
12274TIP3    H136767   2.317   5.942   4.730 -0.3310  0.6339  0.1535
12274TIP3    H236768   2.434   5.903   4.817  1.5530  1.9135 -1.7291
12275TIP3   OH236769   5.524   0.759   6.009 -0.0236  0.2738 -0.0177
12275TIP3    H136770   5.443   0.709   5.995 -0.2420  0.7727 -0.5875
12275TIP3    H236771   5.519   0.830   5.945  0.5528  0.6949  0.4026
12276TIP3   OH236772   3.552   1.399   6.320  0.3097  0.0538  0.2864
12276TIP3    H136773   3.589   1.484   6.300 -0.8846  0.2960 -1.0721
12276TIP3    H236774   3.539   1.357   6.235 -1.7526 -0.3129  0.7180
12277TIP3   OH236775   0.136   1.036   1.326 -0.4185  0.7543 -0.3268
12277TIP3    H136776   0.140   1.126   1.295 -0.7097  0.8455 -0.1118
12277TIP3    H236777   0.218   0.996   1.297 -0.2094  1.1371 -0.2675
12278TIP3   OH236778   6.970   0.313   2.164  0.6795 -0.0177 -0.0034
12278TIP3    H136779   6.952   0.285   2.074  0.4632 -0.6073  0.2166
12278TIP3    H236780   6.987   0.407   2.157 -1.8052  0.4775 -0.3358
12279TIP3   OH236781   3.178   6.346   1.083 -0.0434  0.0660 -0.0448
12279TIP3    H136782   3.217   6.337   1.170  1.5589 -0.2541 -0.7547
12279TIP3    H236783   3.191   6.261   1.041 -0.4657  0.3286 -0.7273
12280TIP3   OH236784   7.592   5.208   4.503 -0.0263  0.5091  0.3661
12280TIP3    H136785   7.641   5.260   4.567 -1.2186  1.4686  0.5340
12280TIP3    H236786   7.514   5.261   4.484  0.2195  0.1729 -1.7760
12281TIP3   OH236787   1.589   2.442   1.566 -0.0468 -0.0564 -0.3422
12281TIP3    H136788   1.657   2.468   1.504  1.1978 -1.0388  0.5484
12281TIP3    H236789   1.590   2.510   1.633 -0.7215  0.4992 -0.8827
12282TIP3   OH236790   0.615   0.775   3.196  0.3356 -0.2199 -0.2416
12282TIP3    H136791   0.624   0.803   3.105  0.5343 -1.3515 -0.5861
12282TIP3    H236792   0.571   0.690   3.191 -0.7095  0.2213  0.7978
12283TIP3   OH236793   2.862   3.607   1.743 -0.7372  0.0907  0.4449
12283TIP3    H136794   2.810   3.530   1.766 -0.5752  0.3973  1.9965
12283TIP3    H236795   2.798   3.671   1.711 -0.8331 -0.7653 -1.1463
12284TIP3   OH236796   2.793   7.763   3.681 -0.7189  0.4486 -0.2421
12284TIP3    H136797   2.827   7.740   3.595 -0.8647 -0.9892  0.0517
12284TIP3    H236798   2.778   7.858   3.678  0.5321  0.6238 -1.3401
12285TIP3   OH236799   6.485   6.809   2.834  0.0859  0.3445  0.0244
12285TIP3    H136800   6.492   6.902   2.812 -1.7727  0.2545 -1.1218
12285TIP3    H236801   6.415   6.804   2.898  0.0930 -0.2857 -0.0101
12286TIP3   OH236802   7.282   5.913   4.060  0.0682 -0.5152  0.2360
12286TIP3    H136803   7.253   5.828   4.029 -0.4295 -0.1635 -0.2925
12286TIP3    H236804   7.297   5.964   3.980  1.3752 -0.4298  0.5168
12287TIP3   OH236805   3.227   3.333   1.366  0.1042 -0.4857 -0.1614
12287TIP3    H136806   3.151   3.378   1.329  0.6414 -0.2712 -1.0317
12287TIP3    H236807   3.252   3.387   1.441 -0.1590 -0.1506 -0.3086
12288TIP3   OH236808   1.683   3.103   4.655  0.2828 -0.4545 -0.1228
12288TIP3    H136809   1.632   3.030   4.619  0.3483 -1.1188  1.0979
12288TIP3    H236810   1.636   3.181   4.626 -2.1230 -1.0383  1.8336
12289TIP3   OH236811   1.741   4.917   2.276 -0.5153  0.0867 -0.6279
12289TIP3    H136812   1.694   4.838   2.304  0.4263 -0.1332  0.3935
12289TIP3    H236813   1.676   4.987   2.281 -0.6574 -0.1403  1.1262
12290TIP3   OH236814   3.479   6.182   0.481 -0.2251 -0.3907  0.2536
12290TIP3    H136815   3.404   6.184   0.422  0.2434 -3.9090 -0.7039
12290TIP3    H236816   3.447   6.137   0.560 -0.0384  1.5262  1.4946
12291TIP3   OH236817   3.268   5.763   1.642 -0.0608 -0.2496 -0.8534
12291TIP3    H136818   3.202   5.730   1.704  0.8117  0.1521  0.3339
12291TIP3    H236819   3.217   5.809   1.575 -0.9719  1.2558  0.7590
12292TIP3   OH236820   5.243   4.879   0.845  0.3253  0.2558 -0.0965
12292TIP3    H136821   5.153   4.850   0.856 -0.0353  1.0423 -0.8590
12292TIP3    H236822   5.240   4.973   0.857  0.7572  0.5064 -1.6726
12293TIP3   OH236823   3.697   3.417   0.528 -0.0082 -0.6406 -1.2898
12293TIP3    H136824   3.755   3.493   0.536  0.2741 -0.9370 -0.4348
12293TIP3    H236825   3.674   3.415   0.435  0.9252 -0.2097 -1.5460
12294TIP3   OH236826   7.897   7.723   0.955 -0.5289 -0.8631  0.0527
12294TIP3    H136827   7.828   7.772   0.910  1.2565  2.4226  0.6065
12294TIP3    H236828   7.913   7.647   0.899 -1.4716  0.7169 -2.5167
12295TIP3   OH236829   6.324   6.848   5.965  0.4341 -0.1202 -0.2520
12295TIP3    H136830   6.352   6.798   6.041  1.4676  1.2442  0.3174
12295TIP3    H236831   6.388   6.919   5.959 -0.0057  0.1715 -2.0122
12296TIP3   OH236832   4.302   2.168   2.589 -0.1342  0.1999 -0.1616
12296TIP3    H136833   4.324   2.220   2.667  0.6999  0.2431 -0.4108
12296TIP3    H236834   4.207   2.157   2.593  0.0713 -1.7036  2.0988
12297TIP3   OH236835   6.875   0.341   4.053  0.1945  0.0344 -0.3008
12297TIP3    H136836   6.857   0.344   3.959  1.6142  1.1449 -0.5654
12297TIP3    H236837   6.789   0.350   4.094 -0.2133  2.5708 -1.5119
12298TIP3   OH236838   5.614   5.220   3.462 -0.4069 -0.2956  0.7214
12298TIP3    H136839   5.656   5.249   3.543 -1.1668  0.6714  0.7933
12298TIP3    H236840   5.592   5.128   3.477  2.1192 -1.0337  0.4817
12299TIP3   OH236841   0.732   6.945   2.363  0.0285  0.0058 -0.4330
12299TIP3    H136842   0.696   6.913   2.280 -0.6538  1.4958 -0.7552
12299TIP3    H236843   0.812   6.895   2.376  0.2600 -0.1088 -2.1015
12300TIP3   OH236844   4.794   5.689   5.707  0.7994 -0.4816  0.0365
12300TIP3    H136845   4.713   5.666   5.753  0.1502 -1.5072 -1.5282
12300TIP3    H236846   4.766   5.746   5.636  1.6718  0.3505  0.3291
12301TIP3   OH236847   2.567   7.760   6.782  0.2855 -0.1298  0.4481
12301TIP3    H136848   2.479   7.740   6.815 -0.5201  0.5636 -1.1587
12301TIP3    H236849   2.555   7.767   6.687  2.1929 -0.5491  0.1473
12302TIP3   OH236850   1.486   4.670   3.043  0.2277  0.5726 -0.1819
12302TIP3    H136851   1.536   4.742   3.082  0.7931  1.0582 -1.7535
12302TIP3    H236852   1.451   4.705   2.962 -1.5997 -0.1869  0.2252
12303TIP3   OH236853   3.916   2.620   3.832  0.2022 -0.3888 -0.1599
12303TIP3    H136854   3.913   2.525   3.827 -1.2037 -0.3076 -1.6775
12303TIP3    H236855   3.901   2.640   3.925 -1.5979 -1.6129 -0.1290
12304TIP3   OH236856   4.877   1.483   6.042  0.5836  0.0059  0.3536
12304TIP3    H136857   4.906   1.560   6.091  0.4001  1.6653 -1.9844
12304TIP3    H236858   4.921   1.410   6.085  0.1290  1.2620  3.1794
12305TIP3   OH236859   1.453   2.713   4.382  0.4053  0.8285  0.2606
12305TIP3    H136860   1.382   2.732   4.443  0.6286  1.0464  0.4539
12305TIP3    H236861   1.413   2.721   4.295 -0.7182 -2.4194  0.3400
12306TIP3   OH236862   3.517   6.021   4.167 -0.5972  0.0171  0.3924
12306TIP3    H136863   3.478   5.933   4.163 -1.1433  0.3066 -1.3801
12306TIP3    H236864   3.562   6.031   4.083  1.8029  0.4134  1.6357
12307TIP3   OH236865   5.924   5.137   3.664  0.4292  0.0245  0.8116
12307TIP3    H136866   5.999   5.138   3.605  0.7441 -0.2520  1.2068
12307TIP3    H236867   5.911   5.229   3.687 -0.9841  0.4159 -1.2923
12308TIP3   OH236868   1.145   1.921   4.385  0.3803  0.5615 -0.3229
12308TIP3    H136869   1.051   1.937   4.375 -0.6921 -3.8828  0.2344
12308TIP3    H236870   1.168   1.959   4.470 -1.8233 -0.9698  1.0733
12309TIP3   OH236871   7.081   2.096   1.835  0.1557  0.3959 -0.2836
12309TIP3    H136872   7.169   2.132   1.845 -0.1892  1.3248 -0.5284
12309TIP3    H236873   7.053   2.123   1.748 -0.5001  0.3869 -0.0815
12310TIP3   OH236874   2.737   3.641   4.586 -0.2627 -0.3598  0.0338
12310TIP3    H136875   2.774   3.591   4.513 -0.0372  0.0864 -0.1601
12310TIP3    H236876   2.803   3.634   4.655 -0.4199 -0.6777  0.1541
12311TIP3   OH236877   7.752   5.174   6.424 -0.4413 -0.4815  0.2831
12311TIP3    H136878   7.806   5.253   6.438 -1.7791  0.8300 -1.5645
12311TIP3    H236879   7.662   5.203   6.441 -0.7600 -2.4325  2.5314
12312TIP3   OH236880   1.413   6.512   0.799  0.2957  0.0567  0.3761
12312TIP3    H136881   1.437   6.431   0.754 -1.2702 -0.7989  1.0165
12312TIP3    H236882   1.418   6.489   0.892 -0.4586  0.6084  0.5559
12313TIP3   OH236883   1.940   2.572   1.713 -0.3001  0.0699  0.2446
12313TIP3    H136884   1.995   2.504   1.751  1.1239 -2.0439 -4.7463
12313TIP3    H236885   1.851   2.540   1.725  0.0818 -0.6519  1.3277
12314TIP3   OH236886   0.801   7.731   5.864 -0.2409 -0.5362 -0.4109
12314TIP3    H136887   0.767   7.746   5.952  0.5981  0.6058 -0.2527
12314TIP3    H236888   0.778   7.640   5.844 -0.9005 -0.6481  0.7706
12315TIP3   OH236889   3.111   1.354   0.749  0.6481  0.7037 -0.5773
12315TIP3    H136890   3.122   1.405   0.830 -0.0284 -0.5918  0.3565
12315TIP3    H236891   3.050   1.406   0.696  0.2065  1.0107  0.2211
12316TIP3   OH236892   6.270   7.171   3.287 -0.0880 -0.2632 -0.4525
12316TIP3    H136893   6.252   7.260   3.256 -0.1859  0.4389  1.4938
12316TIP3    H236894   6.274   7.179   3.382 -0.9932 -2.5132 -0.1551
12317TIP3   OH236895   8.235   2.065   6.508 -0.0850 -0.0928 -0.1725
12317TIP3    H136896   8.302   2.021   6.457 -1.0301 -1.6852 -0.0997
12317TIP3    H236897   8.159   2.071   6.450 -0.1253  1.0839 -0.0342
12318TIP3   OH236898   5.379   6.005   0.968 -0.0438  0.2274 -0.2308
12318TIP3    H136899   5.468   6.018   0.999  1.1132 -0.5276 -2.9128
12318TIP3    H236900   5.368   6.070   0.898 -1.2301 -0.3187 -0.5779
12319TIP3   OH236901   5.626   5.003   5.497  0.2703 -0.1942 -0.8217
12319TIP3    H136902   5.704   4.980   5.546 -1.3498 -1.7569  1.2376
12319TIP3    H236903   5.642   4.973   5.408  1.5389 -1.5827 -0.1511
12320TIP3   OH236904   5.883   4.976   2.832 -0.2104  0.5925 -0.2588
12320TIP3    H136905   5.928   4.978   2.916 -0.3579  2.7833 -0.1911
12320TIP3    H236906   5.793   5.000   2.852 -0.2539  1.1121 -1.0248
12321TIP3   OH236907   2.249  -0.008   2.602 -0.1854  0.1755 -0.5573
12321TIP3    H136908   2.257  -0.015   2.697 -1.6402 -0.7790 -0.4725
12321TIP3    H236909   2.284   0.079   2.581  0.2953  0.3323  0.8178
12322TIP3   OH236910   3.135   4.996   3.377 -0.0109  0.0185  0.0073
12322TIP3    H136911   3.102   4.909   3.353 -0.8186 -0.0865  1.4056
12322TIP3    H236912   3.059   5.040   3.416  0.3916  1.3608 -0.6421
12323TIP3   OH236913   7.210   6.624   4.368  0.2393  0.0089 -0.7694
12323TIP3    H136914   7.249   6.584   4.446 -0.9450  1.0126  0.3971
12323TIP3    H236915   7.135   6.673   4.402  0.2721  1.2856 -2.4369
12324TIP3   OH236916   4.623   3.000   5.286 -0.2524 -0.1589  0.1581
12324TIP3    H136917   4.584   2.987   5.200  1.5319  0.5238 -0.8057
12324TIP3    H236918   4.574   2.941   5.343 -3.0801  1.0814 -0.7868
12325TIP3   OH236919   2.316   0.119   3.230  0.1644  0.2873  0.5073
12325TIP3    H136920   2.259   0.196   3.222  1.3000  0.9586 -2.1184
12325TIP3    H236921   2.405   0.154   3.220  0.7109 -1.3302 -0.7961
12326TIP3   OH236922   7.139   4.120   1.767  0.9032  0.3225 -0.3988
12326TIP3    H136923   7.054   4.153   1.795  1.7601  1.6641  0.7571
12326TIP3    H236924   7.121   4.032   1.733 -0.7475  0.0232  1.1017
12327TIP3   OH236925   6.535   4.975   3.336  0.0917  0.3342  0.8349
12327TIP3    H136926   6.528   5.058   3.288  0.9876  0.2508  0.5257
12327TIP3    H236927   6.454   4.928   3.315  0.8431 -0.1088 -1.4263
12328TIP3   OH236928   2.906   4.058   6.731 -0.1197  0.7081 -0.4763
12328TIP3    H136929   2.874   4.143   6.700  0.9006  1.0037 -0.7666
12328TIP3    H236930   2.945   4.018   6.654 -2.5671 -1.0499 -0.9222
12329TIP3   OH236931   6.348   6.407   4.617 -0.4252  0.6341 -0.1795
12329TIP3    H136932   6.279   6.466   4.585 -0.6856 -0.3608 -1.5614
12329TIP3    H236933   6.427   6.436   4.572 -0.3441  0.5977 -0.0584
12330TIP3   OH236934   2.398   7.586   4.277 -0.0026 -0.6864 -0.3200
12330TIP3    H136935   2.477   7.634   4.256  0.6639 -1.6425 -0.0572
12330TIP3    H236936   2.330   7.653   4.285  1.1477  0.3433  1.2960
12331TIP3   OH236937   6.940   3.071   4.475  0.1929  0.0680  0.4093
12331TIP3    H136938   6.864   3.128   4.485 -0.3482 -0.2297 -1.5295
12331TIP3    H236939   7.015   3.131   4.472 -0.2804  0.6368 -0.6752
12332TIP3   OH236940   3.307   3.856   6.329 -0.1522  0.0384  0.3412
12332TIP3    H136941   3.369   3.803   6.280 -0.3014 -0.8217  1.0395
12332TIP3    H236942   3.222   3.819   6.308 -0.2034 -0.4442  1.3530
12333TIP3   OH236943   1.423   0.818   5.232 -0.3112  0.2979  0.2903
12333TIP3    H136944   1.368   0.895   5.220 -0.5206  0.0713 -0.2548
12333TIP3    H236945   1.420   0.800   5.326 -0.1525  1.0310  0.4398
12334TIP3   OH236946   2.654   5.388   5.657 -0.4315 -0.2960  0.6418
12334TIP3    H136947   2.597   5.319   5.624 -0.5954 -0.3333  0.9891
12334TIP3    H236948   2.595   5.446   5.706  0.1510 -1.7767  3.3209
12335TIP3   OH236949   7.036   6.265   5.793  0.0643  0.3562 -0.0584
12335TIP3    H136950   7.027   6.283   5.886 -0.3972 -0.8590  0.1431
12335TIP3    H236951   7.127   6.288   5.773 -0.5253  3.1279  0.0809
12336TIP3   OH236952   7.669   7.402   1.471  0.2870 -0.1996 -0.0844
12336TIP3    H136953   7.746   7.406   1.528 -0.5386  0.9478  1.0129
12336TIP3    H236954   7.691   7.459   1.398  0.4094  0.3134  0.3402
12337TIP3   OH236955   0.323   2.308   5.270  0.4798  0.2611 -0.7317
12337TIP3    H136956   0.386   2.296   5.341  0.0762  2.5840  0.0824
12337TIP3    H236957   0.238   2.290   5.309  0.3228  0.7290 -0.8597
12338TIP3   OH236958   1.114   0.678   4.817  0.6414  0.5863 -0.2289
12338TIP3    H136959   1.140   0.712   4.902 -1.3516 -1.4400  1.3116
12338TIP3    H236960   1.029   0.720   4.800  0.5983  0.2808 -0.7899
12339TIP3   OH236961   3.210   7.202   3.406 -0.3969  0.0125  0.6850
12339TIP3    H136962   3.208   7.170   3.496  0.7866  0.9780  1.0917
12339TIP3    H236963   3.277   7.271   3.407 -1.2176  0.8714 -0.6642
12340TIP3   OH236964   5.088   3.609   2.938  0.7113  0.3152  0.0724
12340TIP3    H136965   5.009   3.609   2.992  0.8599  2.5925  0.4068
12340TIP3    H236966   5.147   3.671   2.981  1.2830  1.3497 -2.0525
12341TIP3   OH236967   1.189   3.292   1.720 -0.1694  0.0949  0.2004
12341TIP3    H136968   1.164   3.204   1.693 -0.1871  0.0094  0.5019
12341TIP3    H236969   1.106   3.336   1.739 -0.1173 -0.0661  0.8119
12342TIP3   OH236970   4.888   2.790   3.907 -0.7729 -0.3773 -0.1998
12342TIP3    H136971   4.892   2.808   4.001  0.9035 -0.6680 -0.1827
12342TIP3    H236972   4.974   2.818   3.874 -1.8138  1.0368 -1.9026
12343TIP3   OH236973   2.599   7.580   5.828 -0.1706  0.0467  0.1282
12343TIP3    H136974   2.625   7.516   5.761 -1.7450 -1.4554  0.8708
12343TIP3    H236975   2.679   7.595   5.879  0.2058 -1.5371  0.0649
12344TIP3   OH236976   4.916   5.197   6.215 -0.0619 -0.4579 -0.0508
12344TIP3    H136977   4.983   5.208   6.148  1.4704  0.6262  1.5452
12344TIP3    H236978   4.923   5.106   6.242  0.9528 -0.3062  0.2423
12345TIP3   OH236979   6.724   7.680   4.221 -0.2308 -0.7529 -0.1669
12345TIP3    H136980   6.788   7.731   4.270 -0.4606 -0.6390  0.0168
12345TIP3    H236981   6.773   7.643   4.148  0.0916 -0.8440  0.0932
12346TIP3   OH236982   3.481   0.828   0.236 -0.4526 -0.3008  0.1755
12346TIP3    H136983   3.486   0.798   0.146 -2.5734  0.9731 -0.4303
12346TIP3    H236984   3.427   0.762   0.280 -0.6994 -0.1296  0.1314
12347TIP3   OH236985   1.963   3.185   4.272 -0.2596  0.5375  0.2841
12347TIP3    H136986   1.959   3.109   4.215 -0.8360  0.1772  0.7874
12347TIP3    H236987   2.050   3.182   4.310 -0.2563  0.1658  0.2469
12348TIP3   OH236988   7.515   0.026   1.389  0.2643 -0.1176  0.0963
12348TIP3    H136989   7.538  -0.029   1.463  0.0397  0.7035  0.7894
12348TIP3    H236990   7.420   0.038   1.396  0.2571  0.0585 -0.2596
12349TIP3   OH236991   5.659   3.107   5.311  0.0565 -0.1717 -0.1693
12349TIP3    H136992   5.683   3.167   5.239  1.1476 -0.6328 -0.2071
12349TIP3    H236993   5.563   3.102   5.306  0.1566 -1.7114 -2.8755
12350TIP3   OH236994   4.101   3.082   3.389  0.7650 -0.0893  0.0424
12350TIP3    H136995   4.071   3.172   3.377  1.4106  0.2560  0.8631
12350TIP3    H236996   4.124   3.051   3.301 -0.1102  0.2995 -0.3331
12351TIP3   OH236997   3.063   6.529   2.672  0.0014  0.2044  0.7449
12351TIP3    H136998   3.036   6.602   2.615  0.0836  0.1793  0.6730
12351TIP3    H236999   2.998   6.461   2.655 -0.6580  0.6174  1.5523
12352TIP3   OH237000   2.199   7.006   3.764  0.5598 -0.6759  0.4195
12352TIP3    H137001   2.154   7.086   3.741  2.9590  0.6845  0.0964
12352TIP3    H237002   2.282   7.035   3.802  2.4925 -2.9569 -1.7253
12353TIP3   OH237003   1.968   6.084   5.880  0.0662 -0.2711  0.1008
12353TIP3    H137004   1.998   6.030   5.807 -0.4453 -0.2278 -0.1506
12353TIP3    H237005   1.966   6.173   5.845  1.3431 -0.0058  0.6497
12354TIP3   OH237006   6.870   3.068   3.975  0.0819  0.0416 -0.5401
12354TIP3    H137007   6.937   3.061   3.907  0.9985  1.3538  0.1552
12354TIP3    H237008   6.859   3.163   3.987 -2.4182 -0.1117 -1.0864
12355TIP3   OH237009   8.216   2.247   0.390  0.1880 -0.1405  0.1738
12355TIP3    H137010   8.131   2.252   0.346  0.3069  1.1846  0.0620
12355TIP3    H237011   8.216   2.319   0.452  2.6480  2.3692 -2.4673
12356TIP3   OH237012   4.025   0.855   5.419  0.1849  0.6918 -0.2162
12356TIP3    H137013   4.081   0.917   5.465 -0.3973  1.1065 -0.0538
12356TIP3    H237014   3.945   0.851   5.472  0.0613  0.1078 -0.4406
12357TIP3   OH237015   0.254   5.632   3.296 -0.1879  0.5169 -0.3685
12357TIP3    H137016   0.274   5.671   3.381 -0.1359  1.2466 -0.7020
12357TIP3    H237017   0.333   5.582   3.273 -0.4679 -0.2406  0.3159
12358TIP3   OH237018   3.257   2.368   5.092  0.4567 -0.4272  0.4901
12358TIP3    H137019   3.307   2.426   5.036 -0.7679  0.9144  0.7262
12358TIP3    H237020   3.322   2.322   5.145  1.5552 -0.8224 -1.1466
12359TIP3   OH237021   7.978   5.705   6.091  0.3012  0.2876 -0.2861
12359TIP3    H137022   8.037   5.755   6.147 -0.0673  0.5688 -0.1471
12359TIP3    H237023   7.965   5.623   6.138  0.0301  0.5037  0.0173
12360TIP3   OH237024   2.946   4.913   6.029 -0.6561  0.0911  0.0621
12360TIP3    H137025   2.928   4.822   6.005 -1.0846 -0.1903  1.3593
12360TIP3    H237026   2.978   4.953   5.949 -0.8624 -1.0989 -0.6398
12361TIP3   OH237027   0.486   2.719   2.919  0.1235  0.1964 -0.4155
12361TIP3    H137028   0.433   2.767   2.982 -0.1084 -1.2116  0.4913
12361TIP3    H237029   0.503   2.783   2.849  1.2354  2.1122  1.4945
12362TIP3   OH237030   8.059   7.810   0.004  0.0847 -0.5882 -0.6967
12362TIP3    H137031   8.153   7.814   0.024 -0.5574  0.6277  2.8568
12362TIP3    H237032   8.031   7.726   0.037 -0.4100 -0.0989  0.1412
12363TIP3   OH237033   4.679   3.795   1.349  0.2507 -0.0061  0.5468
12363TIP3    H137034   4.709   3.705   1.357  3.2803  0.9059  0.8243
12363TIP3    H237035   4.610   3.792   1.282  3.1257 -1.9849 -2.6235
12364TIP3   OH237036   2.537   5.736   6.608  0.5626  0.2073  0.1587
12364TIP3    H137037   2.585   5.818   6.619  2.1713 -0.4707 -1.3583
12364TIP3    H237038   2.488   5.748   6.527 -0.4606  0.2132  0.7552
12365TIP3   OH237039   3.284   3.028   1.915 -0.1442  0.4178 -0.2375
12365TIP3    H137040   3.377   3.047   1.904  0.2043 -1.6766 -1.5466
12365TIP3    H237041   3.242   3.060   1.836  0.0321 -1.5209 -1.1793
12366TIP3   OH237042   7.194   5.747   1.928 -0.5404  0.6793  0.1814
12366TIP3    H137043   7.229   5.831   1.900 -3.1617  1.9046  0.3020
12366TIP3    H237044   7.103   5.747   1.897 -0.4736 -2.3649 -0.3120
12367TIP3   OH237045   3.422   6.098   1.162  0.2261  0.1841  0.6231
12367TIP3    H137046   3.384   6.016   1.194  0.7150 -0.4405 -0.3398
12367TIP3    H237047   3.379   6.114   1.078  1.5342 -0.1670 -0.1460
12368TIP3   OH237048   3.146   7.160   3.702  0.4047  0.3113 -0.0445
12368TIP3    H137049   3.082   7.230   3.718  0.3935  0.1150  0.7986
12368TIP3    H237050   3.113   7.086   3.752  0.6929 -0.1498 -0.5296
12369TIP3   OH237051   2.360   6.949   6.077  0.5907 -0.1347 -0.3757
12369TIP3    H137052   2.399   6.863   6.059 -0.3096 -0.7054  0.2944
12369TIP3    H237053   2.266   6.933   6.074  0.3954  0.3793  1.7225
12370TIP3   OH237054   2.712   6.544   6.223  0.1255  0.4878  0.2225
12370TIP3    H137055   2.745   6.578   6.140  2.0159  1.1864  1.2096
12370TIP3    H237056   2.735   6.452   6.222  0.0447  0.4666 -0.0459
12371TIP3   OH237057   7.728   2.225   6.387  0.4909 -0.2412  0.6042
12371TIP3    H137058   7.635   2.249   6.380  0.6402  0.7004  1.4997
12371TIP3    H237059   7.733   2.137   6.351 -0.2846  0.6624 -1.8669
12372TIP3   OH237060   4.351   0.118   5.289 -0.3843  0.9107 -0.2355
12372TIP3    H137061   4.281   0.062   5.254 -0.1322 -0.0285  0.6976
12372TIP3    H237062   4.429   0.093   5.240  0.5448 -2.1955  2.4196
12373TIP3   OH237063   5.995   5.211   2.733  0.0524 -0.7739 -0.3806
12373TIP3    H137064   5.944   5.130   2.740 -2.2675  0.5917 -0.4527
12373TIP3    H237065   6.031   5.224   2.821 -3.6367  0.5236  1.1731
12374TIP3   OH237066   8.147   2.773   6.526 -0.1055 -0.4866  0.0660
12374TIP3    H137067   8.175   2.715   6.455 -0.1634  0.3514 -0.6611
12374TIP3    H237068   8.229   2.803   6.566  0.1243  1.6868 -1.8338
12375TIP3   OH237069   7.411   0.262   3.804 -0.5095  0.1789 -0.4455
12375TIP3    H137070   7.350   0.322   3.760  0.5840  2.3048  0.7242
12375TIP3    H237071   7.403   0.285   3.897  0.4462 -1.0600 -0.0320
12376TIP3   OH237072   8.050   2.132   3.406 -0.1275  0.8495  0.1653
12376TIP3    H137073   8.127   2.132   3.464  0.0706  2.3700 -0.0651
12376TIP3    H237074   7.985   2.080   3.453  1.2386 -1.1131  0.0407
12377TIP3   OH237075   1.720   6.229   6.443 -0.3260  0.3410 -0.8735
12377TIP3    H137076   1.738   6.315   6.480  1.4893  0.2391 -1.4364
12377TIP3    H237077   1.696   6.174   6.518 -1.0380  1.2088 -0.4543
12378TIP3   OH237078   4.189   4.598   1.131 -0.1423 -0.1002  0.2370
12378TIP3    H137079   4.228   4.571   1.048  1.0614  1.0266  0.3992
12378TIP3    H237080   4.241   4.551   1.197  1.9586  2.3694  0.5232
12379TIP3   OH237081   4.997   7.754   4.194 -0.6592 -0.4345 -0.2490
12379TIP3    H137082   4.935   7.781   4.127 -0.1280 -1.0977 -1.0300
12379TIP3    H237083   4.952   7.687   4.245 -0.3795 -1.3990 -1.2312
12380TIP3   OH237084   2.847   7.714   3.149  0.2535 -0.2377 -0.0510
12380TIP3    H137085   2.860   7.728   3.056 -0.9385  0.9840 -0.0476
12380TIP3    H237086   2.852   7.619   3.160 -0.4949 -0.4553 -1.4848
12381TIP3   OH237087   1.644   4.462   2.462  0.7589  0.1751 -0.0623
12381TIP3    H137088   1.685   4.398   2.404 -1.1823  0.7970 -2.2922
12381TIP3    H237089   1.702   4.538   2.459  1.1756 -0.1571 -0.4460
12382TIP3   OH237090   5.261   3.344   4.610  0.3846  0.1679  0.1800
12382TIP3    H137091   5.174   3.338   4.570 -0.0349 -1.3839  1.2051
12382TIP3    H237092   5.286   3.435   4.601 -1.1172  0.5270 -0.6381
12383TIP3   OH237093   2.446   1.164   0.615  0.4165  0.5127 -0.6761
12383TIP3    H137094   2.430   1.071   0.634  2.8344 -0.1533 -1.4945
12383TIP3    H237095   2.359   1.201   0.603 -0.6211 -1.7573 -0.7988
12384TIP3   OH237096   4.538   4.008   4.431 -0.3480 -0.4685 -0.0379
12384TIP3    H137097   4.572   3.962   4.507  0.5771 -0.0324 -0.1682
12384TIP3    H237098   4.539   4.101   4.456  2.1137 -0.0651 -1.3030
12385TIP3   OH237099   3.891   3.459   4.734 -0.0024  0.1308 -0.0915
12385TIP3    H137100   3.838   3.536   4.753 -0.0863  0.0164  0.1350
12385TIP3    H237101   3.841   3.385   4.768  1.0088  0.1622  1.5911
12386TIP3   OH237102   5.746   7.418   1.872  0.1457 -0.1564 -0.1712
12386TIP3    H137103   5.809   7.489   1.860  0.9377 -0.8323 -0.1065
12386TIP3    H237104   5.800   7.339   1.881 -0.7323 -1.1874 -2.8552
12387TIP3   OH237105   6.638   5.900   3.624 -0.8137 -0.0195  0.5322
12387TIP3    H137106   6.645   5.826   3.565  2.2839 -0.8904  1.8046
12387TIP3    H237107   6.655   5.977   3.569  0.8528 -0.7060  0.0454
12388TIP3   OH237108   1.522   1.951   6.039 -0.1833  1.1528  0.1692
12388TIP3    H137109   1.551   1.978   5.952  0.1012  1.6124  0.4026
12388TIP3    H237110   1.515   2.032   6.089 -2.4509  1.1137 -0.0223
12389TIP3   OH237111   6.411   4.946   3.738  0.0138  0.9795  0.1813
12389TIP3    H137112   6.435   4.857   3.765 -0.5498  0.5452 -0.6882
12389TIP3    H237113   6.481   4.972   3.677 -0.8594  0.3185 -1.1468
12390TIP3   OH237114   8.175   0.020   3.570  0.1793 -0.3170 -0.1831
12390TIP3    H137115   8.151  -0.059   3.620  0.4700  0.2159  0.8341
12390TIP3    H237116   8.097   0.041   3.520  0.3962 -1.7828 -1.2171
12391TIP3   OH237117   7.731   3.344   3.082 -0.2544  0.1688  0.1072
12391TIP3    H137118   7.767   3.256   3.097  1.7384  1.0706  0.9773
12391TIP3    H237119   7.771   3.398   3.150 -1.8156  1.6954 -0.1004
12392TIP3   OH237120   3.942   0.220   3.709 -0.0104 -0.0321  0.0238
12392TIP3    H137121   3.939   0.313   3.734  0.4971 -0.3227  1.2579
12392TIP3    H237122   4.035   0.198   3.708  0.0748  0.1098 -2.9381
12393TIP3   OH237123   7.835   1.707   5.138  0.1918  0.0276  0.2333
12393TIP3    H137124   7.892   1.725   5.213  1.2581 -0.5761 -0.4004
12393TIP3    H237125   7.762   1.656   5.175  1.7973 -2.1962  0.5844
12394TIP3   OH237126   4.212   7.832   0.515 -0.2682  0.2953  0.1568
12394TIP3    H137127   4.123   7.833   0.550 -0.4883 -2.4172 -0.1408
12394TIP3    H237128   4.249   7.748   0.543  2.0356  1.1061 -0.1897
12395TIP3   OH237129   3.328   2.173   0.681  0.3715 -0.1227 -0.2936
12395TIP3    H137130   3.263   2.125   0.629 -0.2770  0.8779 -0.4265
12395TIP3    H237131   3.346   2.252   0.630  0.4322  0.4216  0.5530
12396TIP3   OH237132   2.497   3.215   5.027 -0.6286  0.0064 -0.3956
12396TIP3    H137133   2.586   3.196   4.997 -0.5708  1.8188 -1.4866
12396TIP3    H237134   2.508   3.273   5.102 -0.8977  0.7333 -0.9141
12397TIP3   OH237135   4.489   1.586   1.258 -0.3879  0.5922  0.4140
12397TIP3    H137136   4.423   1.526   1.223 -1.5015  0.9335  1.8660
12397TIP3    H237137   4.459   1.673   1.233  0.9449  0.6449 -1.2160
12398TIP3   OH237138   3.695   4.981   6.479 -0.0643 -0.2818  0.8629
12398TIP3    H137139   3.660   5.042   6.415  0.7097 -0.1119  0.5904
12398TIP3    H237140   3.644   4.998   6.559  0.8578  1.5044  1.1272
12399TIP3   OH237141   1.063   5.843   2.199 -0.4146 -0.2528  0.0480
12399TIP3    H137142   1.061   5.781   2.127 -1.2926  0.4908 -0.5880
12399TIP3    H237143   1.124   5.804   2.262  0.8988 -0.6072 -1.3651
12400TIP3   OH237144   7.986   7.528   1.831  0.3127 -0.0574 -0.4995
12400TIP3    H137145   8.010   7.445   1.873  3.0826  1.1810  0.5732
12400TIP3    H237146   7.905   7.554   1.875  0.1086 -1.5249  0.0787
12401TIP3   OH237147   1.969   1.959   1.718 -0.1743  0.1678  0.1131
12401TIP3    H137148   1.928   2.037   1.757  1.4430  1.2415 -0.2535
12401TIP3    H237149   1.901   1.922   1.662 -0.5120  2.2245 -0.9435
12402TIP3   OH237150   7.630   4.609   5.762  0.1059 -0.1389 -0.3007
12402TIP3    H137151   7.538   4.601   5.786 -0.3301  0.9952 -1.4785
12402TIP3    H237152   7.653   4.525   5.723  0.4151 -1.4788  2.5031
12403TIP3   OH237153   4.923   4.052   0.280  0.3884  0.5129  0.0730
12403TIP3    H137154   4.873   4.126   0.314  1.3096  2.1186 -1.9043
12403TIP3    H237155   4.871   4.019   0.207  0.3965 -0.2741  0.4102
12404TIP3   OH237156   5.116   1.129   1.077  0.0634  0.3805 -0.3501
12404TIP3    H137157   5.056   1.201   1.095 -0.3563  0.1812 -0.9251
12404TIP3    H237158   5.107   1.113   0.983 -0.2998 -0.8168 -0.1255
12405TIP3   OH237159   4.096   3.623   6.381 -0.2288  0.5987 -0.8772
12405TIP3    H137160   4.133   3.652   6.464 -1.7258 -1.0920  0.4379
12405TIP3    H237161   4.161   3.562   6.345 -1.0194 -1.2978  0.7512
12406TIP3   OH237162   8.103   6.274   1.648 -0.1662  0.2486  0.6527
12406TIP3    H137163   8.174   6.273   1.584 -1.0713  0.4674 -0.3807
12406TIP3    H237164   8.031   6.226   1.606 -0.0347 -1.6421  2.4185
12407TIP3   OH237165   2.273   6.557   4.881 -0.0739  0.3161  0.1823
12407TIP3    H137166   2.284   6.621   4.952 -1.1205  0.1914  0.4671
12407TIP3    H237167   2.179   6.556   4.863  0.2282  0.8148 -1.6582
12408TIP3   OH237168   3.099   5.928   0.679 -0.3624 -0.0997 -0.5796
12408TIP3    H137169   3.072   6.005   0.730 -1.2980 -0.2790 -0.7740
12408TIP3    H237170   3.044   5.857   0.712  0.6692 -0.7519 -0.2402
12409TIP3   OH237171   0.750   0.721   6.309  0.5890 -0.2868 -0.0519
12409TIP3    H137172   0.822   0.780   6.285  0.7517 -0.1849  0.6474
12409TIP3    H237173   0.777   0.685   6.394  0.3122 -1.0751 -0.2900
12410TIP3   OH237174   3.667   6.492   0.143  0.1357  0.7136  0.2519
12410TIP3    H137175   3.618   6.513   0.222 -1.8434 -0.2744 -0.6335
12410TIP3    H237176   3.634   6.554   0.077  0.1118  0.0849 -0.3397
12411TIP3   OH237177   4.043   1.976   0.564 -0.5374 -0.0511  0.5777
12411TIP3    H137178   4.102   1.912   0.525 -0.2519  0.4504  0.1565
12411TIP3    H237179   3.967   1.978   0.505 -2.0108 -2.2678  2.2680
12412TIP3   OH237180   2.729   4.912   5.223 -0.0723  0.5023 -0.0453
12412TIP3    H137181   2.678   4.914   5.143  0.3327 -0.3393 -0.3323
12412TIP3    H237182   2.666   4.889   5.292 -0.4617  1.4305 -0.0662
12413TIP3   OH237183   6.334   7.660   4.620  0.0345 -0.3920 -0.2175
12413TIP3    H137184   6.244   7.631   4.626 -0.3893  1.0802  1.2838
12413TIP3    H237185   6.363   7.631   4.533 -1.5085 -1.8139 -0.3056
12414TIP3   OH237186   1.152   2.536   5.821 -0.0611 -0.0402 -0.3135
12414TIP3    H137187   1.116   2.574   5.741 -1.9251  0.1421  0.5617
12414TIP3    H237188   1.132   2.443   5.816 -0.2797 -0.0107 -0.0085
12415TIP3   OH237189   0.479   7.797   4.889  0.5198 -0.1174  0.0054
12415TIP3    H137190   0.440   7.880   4.914 -1.7076 -1.5476  1.5751
12415TIP3    H237191   0.465   7.739   4.964  2.5587 -1.7713 -0.7759
12416TIP3   OH237192   6.631   1.829   0.348  0.1211 -0.3547 -0.2885
12416TIP3    H137193   6.676   1.854   0.429 -0.0419 -1.5820  0.2085
12416TIP3    H237194   6.549   1.877   0.350  0.3939  0.1068 -0.0389
12417TIP3   OH237195   5.406   4.505   0.907 -0.4198  0.0204 -0.2834
12417TIP3    H137196   5.355   4.432   0.871 -0.5129 -1.1290  1.9688
12417TIP3    H237197   5.369   4.519   0.994  1.5213  0.7851  0.4665
12418TIP3   OH237198   2.382   3.648   1.599  0.5285  0.0327  0.1356
12418TIP3    H137199   2.416   3.678   1.684  0.8749  0.1223 -0.0314
12418TIP3    H237200   2.314   3.712   1.576  0.4153 -0.0060  0.3567
12419TIP3   OH237201   4.013   3.197   5.339 -0.4820 -0.3638 -0.9090
12419TIP3    H137202   4.083   3.162   5.394  0.6367  0.1259 -1.9743
12419TIP3    H237203   4.024   3.151   5.255 -1.3588 -0.1743 -1.1367
12420TIP3   OH237204   5.694   2.877   4.098 -0.0164 -0.9565 -0.1434
12420TIP3    H137205   5.639   2.887   4.021  2.0022  0.4942 -1.4860
12420TIP3    H237206   5.778   2.846   4.064  0.5986 -1.3445  1.6166
12421TIP3   OH237207   2.338   6.399   2.700  0.2134 -0.3287 -0.6264
12421TIP3    H137208   2.425   6.436   2.715 -0.5674  1.9934 -1.3290
12421TIP3    H237209   2.352   6.330   2.636  1.5808 -0.2728 -0.4225
12422TIP3   OH237210   2.115   4.650   1.736  0.1332 -0.5460 -0.3370
12422TIP3    H137211   2.197   4.609   1.708 -0.8414 -1.5281 -1.9048
12422TIP3    H237212   2.085   4.699   1.659 -1.2983 -1.0986 -0.1563
12423TIP3   OH237213   0.657   3.522   2.430  0.0139 -0.1420 -0.2519
12423TIP3    H137214   0.616   3.594   2.382  1.3135  0.7884 -0.0223
12423TIP3    H237215   0.608   3.444   2.403 -2.0096  0.8999  0.1600
12424TIP3   OH237216   3.686   2.819   5.485  0.3517  0.0041  0.2460
12424TIP3    H137217   3.602   2.835   5.528  1.7283  0.3024  3.0582
12424TIP3    H237218   3.682   2.872   5.405 -1.5205  1.2690  1.0986
12425TIP3   OH237219   5.336   5.241   2.198 -0.2306  0.5354 -0.4018
12425TIP3    H137220   5.333   5.235   2.102  0.0023  0.2096 -0.3901
12425TIP3    H237221   5.250   5.212   2.226 -1.3101  3.1964 -0.6182
12426TIP3   OH237222   5.277   3.519   3.153  0.1677  0.2033 -0.1160
12426TIP3    H137223   5.233   3.435   3.142  0.9282 -0.4117  1.3225
12426TIP3    H237224   5.370   3.497   3.156  0.4029  1.1457 -0.1491
12427TIP3   OH237225   3.706   5.539   6.393  0.0095  0.2372  0.2001
12427TIP3    H137226   3.774   5.605   6.408 -0.1015  0.2224  0.7936
12427TIP3    H237227   3.735   5.492   6.315 -0.1598  1.3012 -0.5199
12428TIP3   OH237228   6.399   5.190   1.579 -0.2453 -0.4578  0.3864
12428TIP3    H137229   6.487   5.223   1.560 -0.8545  1.5989  0.8099
12428TIP3    H237230   6.364   5.164   1.494  0.3680 -0.1973  0.0452
12429TIP3   OH237231   5.666   3.013   5.923 -0.3039  0.3088 -0.3275
12429TIP3    H137232   5.655   3.096   5.968 -0.9175  0.8410 -1.4294
12429TIP3    H237233   5.761   2.999   5.922 -0.0676  1.7606 -1.4559
12430TIP3   OH237234   3.456   4.275   1.561  0.0353  0.6806 -0.2714
12430TIP3    H137235   3.476   4.234   1.477 -0.5674 -1.0849  0.4052
12430TIP3    H237236   3.524   4.243   1.620  0.9508  2.5732 -0.2241
12431TIP3   OH237237   8.257   1.575   4.363  0.5604  0.3967 -0.2907
12431TIP3    H137238   8.230   1.541   4.278  0.9986  1.0971 -0.7166
12431TIP3    H237239   8.194   1.643   4.384  0.0604 -0.2147  0.2679
12432TIP3   OH237240   6.351   4.722   1.642  0.2077 -0.5223 -0.2319
12432TIP3    H137241   6.272   4.746   1.593  1.2368  0.2850 -1.5499
12432TIP3    H237242   6.318   4.690   1.726 -1.4605  1.5332 -0.0236
12433TIP3   OH237243   5.609   7.424   5.325 -0.1446  0.2755  0.1502
12433TIP3    H137244   5.528   7.397   5.281 -0.1470 -1.3270  1.0736
12433TIP3    H237245   5.659   7.343   5.336  0.4314  0.8314  1.9018
12434TIP3   OH237246   1.444   3.612   6.147 -0.0359 -0.2862 -0.0449
12434TIP3    H137247   1.446   3.521   6.119 -0.0081 -0.8551  1.6875
12434TIP3    H237248   1.531   3.646   6.124 -0.2067 -0.5487 -1.1128
12435TIP3   OH237249   1.406   4.807   0.978  0.2219 -0.1388 -0.1481
12435TIP3    H137250   1.346   4.879   0.998  1.2506  0.3858  1.2084
12435TIP3    H237251   1.382   4.738   1.040 -0.4421 -0.8051 -1.1196
12436TIP3   OH237252   2.077   7.069   1.259 -0.1604  0.0514 -0.5971
12436TIP3    H137253   2.037   7.005   1.317 -0.9896  1.2915  0.2563
12436TIP3    H237254   2.064   7.034   1.171 -0.6723 -0.8918 -0.1597
12437TIP3   OH237255   4.523   4.841   0.650 -0.2856  0.3575 -0.2325
12437TIP3    H137256   4.614   4.812   0.655 -0.2970  0.3876  0.1268
12437TIP3    H237257   4.529   4.937   0.649 -0.2803  0.3537 -0.8192
12438TIP3   OH237258   2.232   3.151   2.407  0.1771 -0.1336  0.6066
12438TIP3    H137259   2.241   3.237   2.366  0.4032 -0.3888  0.1028
12438TIP3    H237260   2.260   3.090   2.339 -1.7349 -0.7338  0.3094
12439TIP3   OH237261   3.150   0.758   3.244 -0.8185 -0.3780  0.0661
12439TIP3    H137262   3.245   0.757   3.232 -0.8233  0.5220 -0.1571
12439TIP3    H237263   3.130   0.675   3.287 -0.0432 -0.9818 -0.6991
12440TIP3   OH237264   5.853   7.457   5.506  0.0955  0.1252  0.4765
12440TIP3    H137265   5.761   7.457   5.534 -0.0498  0.1386  0.0084
12440TIP3    H237266   5.870   7.546   5.475 -0.1374 -0.2243 -0.7093
12441TIP3   OH237267   1.747   2.904   5.859 -0.2024  0.1987 -0.1969
12441TIP3    H137268   1.780   2.959   5.788 -1.0620 -0.3925 -1.0895
12441TIP3    H237269   1.789   2.819   5.846  0.9624  0.5582  1.0524
12442TIP3   OH237270   2.278   0.642   5.968 -0.0247 -0.0461 -0.5314
12442TIP3    H137271   2.357   0.588   5.968 -0.3906 -0.7092  1.7501
12442TIP3    H237272   2.310   0.731   5.982  0.3419 -0.3936  1.0873
12443TIP3   OH237273   6.439   7.463   5.439 -0.2640  0.4354  0.0053
12443TIP3    H137274   6.424   7.521   5.514 -0.0287  2.8210 -1.6473
12443TIP3    H237275   6.527   7.427   5.453 -0.9895 -0.7533  1.7913
12444TIP3   OH237276   4.512   1.756   5.317 -0.0806  0.6642 -0.3135
12444TIP3    H137277   4.487   1.779   5.406  0.7912 -2.0852  0.7322
12444TIP3    H237278   4.429   1.752   5.269 -0.6730  1.0011  0.6548
12445TIP3   OH237279   1.503   3.483   0.167  0.0563 -0.1967 -0.0082
12445TIP3    H137280   1.520   3.457   0.077 -0.8385  2.0076 -0.8782
12445TIP3    H237281   1.442   3.416   0.200 -1.9693  0.4940 -2.0629
12446TIP3   OH237282   1.701   7.420   1.912  0.1010  0.9300  0.2144
12446TIP3    H137283   1.650   7.502   1.916 -0.0048  0.8318  1.0873
12446TIP3    H237284   1.784   7.446   1.873 -0.7610  1.0025 -1.7200
12447TIP3   OH237285   3.511   0.378   4.872  0.8208 -0.2977  0.0136
12447TIP3    H137286   3.538   0.311   4.810 -1.3235  0.1224 -1.5227
12447TIP3    H237287   3.452   0.333   4.932  0.3244 -0.0820 -0.2943
12448TIP3   OH237288   3.389   3.729   6.553  0.2397  0.0650  0.2279
12448TIP3    H137289   3.470   3.693   6.518 -0.1554 -1.2227  0.6040
12448TIP3    H237290   3.354   3.783   6.482  0.8017 -0.3490 -0.3721
12449TIP3   OH237291   5.824   3.118   4.764 -0.0857 -0.2893  0.1160
12449TIP3    H137292   5.793   3.137   4.853 -0.2674 -2.3437  0.5428
12449TIP3    H237293   5.796   3.029   4.747  0.2968 -0.0791 -1.8869
12450TIP3   OH237294   4.931   5.320   2.113  0.0686 -0.4811 -0.0208
12450TIP3    H137295   4.842   5.346   2.137  0.0467  0.0543 -0.6534
12450TIP3    H237296   4.965   5.393   2.062  0.7255 -0.8629 -0.1506
12451TIP3   OH237297   3.068   3.731   1.984 -0.3171  0.5466  0.1195
12451TIP3    H137298   3.031   3.657   1.936  0.8282 -0.9968  1.4951
12451TIP3    H237299   3.118   3.691   2.055  0.4771  2.6566  0.8313
12452TIP3   OH237300   0.896   2.432   2.019 -0.4484 -0.6208 -0.8549
12452TIP3    H137301   0.966   2.367   2.022 -0.2450 -0.4060 -0.9174
12452TIP3    H237302   0.836   2.399   1.952  0.7577  0.3509 -2.4904
12453TIP3   OH237303   5.676   1.391   3.573 -0.0447 -0.0884 -0.8492
12453TIP3    H137304   5.713   1.397   3.661 -0.0915 -2.3343 -0.6169
12453TIP3    H237305   5.733   1.446   3.519  0.5269  0.5958  0.4132
12454TIP3   OH237306   6.307   1.427   6.404 -0.6262 -0.4202  0.2545
12454TIP3    H137307   6.246   1.355   6.391 -0.9844 -0.1467  0.4152
12454TIP3    H237308   6.386   1.385   6.438  0.6302 -1.2819 -3.3538
12455TIP3   OH237309   2.683   3.920   6.018 -0.0626 -0.4268  0.2882
12455TIP3    H137310   2.650   3.944   5.932  0.3720 -0.1451  0.2007
12455TIP3    H237311   2.608   3.878   6.061 -0.0739 -1.2574 -0.4968
12456TIP3   OH237312   6.158   4.582   0.322  0.3276  0.8518 -0.2620
12456TIP3    H137313   6.088   4.647   0.322 -0.5711 -0.0122  1.8281
12456TIP3    H237314   6.131   4.517   0.257  0.0642  1.4090 -0.7084
12457TIP3   OH237315   1.344   5.351   5.776  0.3219  0.3516 -0.2836
12457TIP3    H137316   1.297   5.433   5.760  1.7552  1.6657  1.7476
12457TIP3    H237317   1.406   5.345   5.703  0.4657  1.2819 -0.2525
12458TIP3   OH237318   5.942   1.735   5.377  0.5116 -0.2670  0.2970
12458TIP3    H137319   5.938   1.772   5.464 -1.5919 -0.2784  0.2571
12458TIP3    H237320   6.029   1.756   5.345  1.4474 -0.5769  2.5194
12459TIP3   OH237321   0.410   6.023   5.799  0.4196 -0.6380  0.2715
12459TIP3    H137322   0.394   6.104   5.751  1.3824 -0.1305  0.7794
12459TIP3    H237323   0.348   6.025   5.872 -0.0161 -0.6927 -0.0899
12460TIP3   OH237324   5.067   1.194   4.781 -0.4807 -0.3050 -1.1595
12460TIP3    H137325   5.068   1.210   4.686 -1.9979 -0.6056 -1.2579
12460TIP3    H237326   4.975   1.204   4.805 -0.0711  0.0407  0.3426
12461TIP3   OH237327   6.418   7.627   2.630  0.5735 -0.0385 -0.1078
12461TIP3    H137328   6.446   7.566   2.698  1.3766 -2.1185 -2.2185
12461TIP3    H237329   6.499   7.652   2.585 -0.1275 -0.0967 -1.4276
12462TIP3   OH237330   1.542   7.668   0.755  0.2582 -0.1416  0.3094
12462TIP3    H137331   1.537   7.762   0.775  0.6217 -0.1833  0.6019
12462TIP3    H237332   1.630   7.642   0.781 -0.3502 -0.9028  1.7152
12463TIP3   OH237333   3.207   5.444   4.202 -0.1517  0.1078  0.1396
12463TIP3    H137334   3.173   5.523   4.160 -0.9992 -0.2740  0.0854
12463TIP3    H237335   3.144   5.425   4.272  0.6652  0.1243  0.8959
12464TIP3   OH237336   8.201   6.852   1.033  0.0504  0.5671  0.2778
12464TIP3    H137337   8.183   6.941   1.005  0.5839  0.7252  0.4218
12464TIP3    H237338   8.289   6.834   1.001 -0.6436 -0.5024 -1.1965
12465TIP3   OH237339   1.400   2.310   4.789  0.1277 -0.1041  0.5766
12465TIP3    H137340   1.433   2.399   4.775  0.5935 -0.3695 -0.0707
12465TIP3    H237341   1.323   2.304   4.732  0.3971 -0.2785  0.2266
12466TIP3   OH237342   5.231   1.950   4.270 -0.0529 -0.3537 -0.4196
12466TIP3    H137343   5.182   1.922   4.347 -0.9710  0.5677 -0.6467
12466TIP3    H237344   5.321   1.922   4.287 -0.6648 -2.3082 -0.1042
12467TIP3   OH237345   7.538   3.890   1.049 -0.1832  0.4071 -0.1048
12467TIP3    H137346   7.461   3.876   0.993  1.9046  0.0711 -3.1068
12467TIP3    H237347   7.509   3.956   1.113 -3.8493 -1.9107  0.9613
12468TIP3   OH237348   0.147   4.540   5.056 -0.0456  0.2113 -0.5091
12468TIP3    H137349   0.075   4.598   5.081  0.9735  0.8911  1.0678
12468TIP3    H237350   0.226   4.592   5.072  0.8260 -0.4706 -2.2978
12469TIP3   OH237351   5.948   3.580   5.216  0.3328  0.3389  0.1199
12469TIP3    H137352   5.918   3.498   5.254  1.4981 -0.8400 -1.4062
12469TIP3    H237353   5.867   3.624   5.188 -0.2305 -2.2420 -2.8572
12470TIP3   OH237354   7.485   2.395   6.292 -0.5040  0.5757  0.5605
12470TIP3    H137355   7.553   2.408   6.226 -0.5046  0.2463  0.4945
12470TIP3    H237356   7.500   2.465   6.356 -1.3768  1.7658 -0.5055
12471TIP3   OH237357   5.749   1.142   2.649  0.3260 -0.4178  0.3242
12471TIP3    H137358   5.732   1.057   2.689 -2.2185  0.1694  0.6562
12471TIP3    H237359   5.684   1.201   2.688  1.7477  1.6046 -0.1908
12472TIP3   OH237360   8.020   3.499   2.378  0.1391 -0.5277  0.1024
12472TIP3    H137361   7.946   3.439   2.366 -1.8098  1.5758  0.8228
12472TIP3    H237362   7.994   3.579   2.331  0.8745  1.0899  2.2972
12473TIP3   OH237363   4.905   6.274   3.554  0.0760  0.0248 -0.2993
12473TIP3    H137364   4.936   6.273   3.644 -2.2148  0.2316  0.5571
12473TIP3    H237365   4.835   6.339   3.553 -0.4736 -0.5222 -2.0476
12474TIP3   OH237366   4.264   1.429   1.192  0.1080 -0.8495  0.3570
12474TIP3    H137367   4.174   1.460   1.204 -0.5474 -2.1482 -1.0120
12474TIP3    H237368   4.262   1.338   1.219  0.7658 -1.1775 -0.6553
12475TIP3   OH237369   8.197   1.879   0.983  0.0400 -0.7572 -0.3170
12475TIP3    H137370   8.239   1.795   0.999  0.4228 -0.8063 -1.5010
12475TIP3    H237371   8.108   1.857   0.954 -0.3719 -0.6928  0.8465
12476TIP3   OH237372   2.743   6.730   2.722 -0.2115 -0.4963 -0.1469
12476TIP3    H137373   2.664   6.723   2.669 -1.0563  1.1573  0.8086
12476TIP3    H237374   2.766   6.823   2.719  1.5557 -0.9028 -0.1844
12477TIP3   OH237375   4.550   4.632   5.692 -0.1463 -0.4821  0.0963
12477TIP3    H137376   4.496   4.553   5.691  0.3125 -0.7997 -0.6538
12477TIP3    H237377   4.631   4.605   5.735  0.6215 -0.8576 -1.5284
12478TIP3   OH237378   1.600   0.848   1.571 -0.6412 -0.3234  0.2737
12478TIP3    H137379   1.580   0.921   1.512  0.3958  0.1855  0.5166
12478TIP3    H237380   1.660   0.886   1.635  0.9866 -1.7116 -0.3574
12479TIP3   OH237381   3.679   4.230   1.715 -0.2169  0.6228  0.0925
12479TIP3    H137382   3.753   4.246   1.773  0.6304 -0.0307 -0.7618
12479TIP3    H237383   3.607   4.206   1.773  0.4929  0.3804  0.8986
12480TIP3   OH237384   2.760   3.436   1.196 -0.0573  0.1623 -0.2014
12480TIP3    H137385   2.843   3.416   1.239  0.6898 -0.2868 -1.7656
12480TIP3    H237386   2.697   3.441   1.267  1.4905  1.7117  1.1878
12481TIP3   OH237387   4.717   1.134   3.764 -0.3452  0.4902 -0.2662
12481TIP3    H137388   4.768   1.152   3.685  0.9330  0.3188  0.4836
12481TIP3    H237389   4.772   1.075   3.815 -1.8592 -0.7249  0.0285
12482TIP3   OH237390   5.109   3.250   4.881 -0.3161 -0.3430  0.3525
12482TIP3    H137391   5.041   3.182   4.887  1.3942 -2.0846  0.9394
12482TIP3    H237392   5.177   3.210   4.827  0.1367  1.5011 -0.5009
12483TIP3   OH237393   2.935   0.508   2.978 -0.1095 -0.4656  0.0146
12483TIP3    H137394   2.846   0.527   2.949 -0.6274  0.0252  1.8345
12483TIP3    H237395   2.938   0.412   2.986  0.2963 -0.7086 -2.2651
12484TIP3   OH237396   0.394   0.473   5.455  0.1309 -0.0500  0.2107
12484TIP3    H137397   0.420   0.389   5.417  0.4446  0.1327  0.0182
12484TIP3    H237398   0.421   0.538   5.391  0.2008  0.2257  0.5153
12485TIP3   OH237399   2.287   0.639   5.234  0.0344 -0.4317 -0.0405
12485TIP3    H137400   2.215   0.622   5.174  0.7741  0.4309 -1.2081
12485TIP3    H237401   2.343   0.561   5.227  0.6973  0.1318 -1.3646
12486TIP3   OH237402   1.376   3.628   2.154  0.0549 -0.2671 -0.3127
12486TIP3    H137403   1.341   3.642   2.066 -1.1714 -1.2879 -0.0245
12486TIP3    H237404   1.315   3.675   2.211  0.0782 -0.7066  0.0794
12487TIP3   OH237405   5.271   5.044   6.103  0.1438 -0.0723 -0.4074
12487TIP3    H137406   5.235   4.972   6.156 -0.2925 -0.3089 -1.0187
12487TIP3    H237407   5.325   5.001   6.038  0.2953  0.1873 -0.4526
12488TIP3   OH237408   5.775   7.066   5.911  0.0742 -0.4957 -0.3040
12488TIP3    H137409   5.712   7.135   5.891 -1.4397 -0.9795  2.3263
12488TIP3    H237410   5.857   7.095   5.871  0.0081  3.7297  2.1175
12489TIP3   OH237411   6.798   2.664   0.299 -0.1087  0.8165  0.5053
12489TIP3    H137412   6.732   2.648   0.367  0.9568  0.5934  1.5123
12489TIP3    H237413   6.787   2.756   0.276 -2.3305  0.2344 -1.0561
12490TIP3   OH237414   7.065   5.330   6.596  0.3158  0.3574  0.3752
12490TIP3    H137415   7.144   5.319   6.649 -0.6206  0.7145  1.9232
12490TIP3    H237416   7.028   5.243   6.590  1.6947 -0.1492 -1.8753
12491TIP3   OH237417   0.145   1.439   5.545 -0.2010  0.3965  0.1748
12491TIP3    H137418   0.173   1.517   5.497 -1.4510  0.0653 -1.1626
12491TIP3    H237419   0.142   1.466   5.636 -0.4854  1.8767 -0.2492
12492TIP3   OH237420   0.171   4.733   4.313  0.4849 -0.3372  0.2170
12492TIP3    H137421   0.141   4.735   4.222  1.9211 -2.6745 -0.3961
12492TIP3    H237422   0.102   4.778   4.362  1.1444  3.9622 -2.3183
12493TIP3   OH237423   4.664   3.912   4.642  0.0114  0.3892  0.4861
12493TIP3    H137424   4.684   3.980   4.706  0.4022  0.4866  0.2666
12493TIP3    H237425   4.740   3.854   4.644 -0.6170 -0.4480  1.1792
12494TIP3   OH237426   1.634   5.863   0.201  0.0294 -0.2655 -0.2061
12494TIP3    H137427   1.693   5.916   0.147  0.2280 -0.5057 -0.2285
12494TIP3    H237428   1.563   5.923   0.224  1.2795  0.6560  1.5014
12495TIP3   OH237429   4.081   3.294   2.125 -0.0336 -0.3906 -0.4497
12495TIP3    H137430   4.156   3.322   2.177 -1.0940  1.6982  0.0799
12495TIP3    H237431   4.007   3.301   2.186 -0.9795 -0.1266 -1.6043
12496TIP3   OH237432   4.674   3.325   4.346 -0.1596 -0.0109 -0.1246
12496TIP3    H137433   4.747   3.370   4.304  0.4901  0.3846  1.3455
12496TIP3    H237434   4.641   3.389   4.409  0.1289 -1.2033  1.2912
12497TIP3   OH237435   8.085   3.032   2.372  0.2247 -0.0061  0.2668
12497TIP3    H137436   8.127   3.115   2.352 -1.5737  0.8797 -0.0428
12497TIP3    H237437   8.142   2.990   2.436  2.2060  0.5415 -1.0705
12498TIP3   OH237438   7.483   6.756   6.647  0.0646 -0.4594  0.5971
12498TIP3    H137439   7.566   6.735   6.688 -0.1705 -0.9990  0.7949
12498TIP3    H237440   7.496   6.736   6.554 -0.2176 -1.6859  0.8088
12499TIP3   OH237441   5.370   0.003   4.699  0.7924  0.5749 -0.0690
12499TIP3    H137442   5.406  -0.035   4.619  0.0266  1.3665 -0.8216
12499TIP3    H237443   5.359   0.096   4.678  2.0523  1.1181  1.5081
12500TIP3   OH237444   6.858   1.369   4.483 -0.5203  0.4185 -0.4414
12500TIP3    H137445   6.803   1.338   4.556 -0.0479 -0.4499 -0.4371
12500TIP3    H237446   6.917   1.433   4.523 -2.3371  2.3424 -0.6859
12501TIP3   OH237447   4.448   7.751   0.172 -0.3395 -0.1639  0.1490
12501TIP3    H137448   4.465   7.845   0.183  3.5121 -0.2517 -2.8560
12501TIP3    H237449   4.512   7.708   0.228 -0.6726 -1.0030 -0.0963
12502TIP3   OH237450   4.760   2.880   2.354 -0.2655 -0.1890 -0.2823
12502TIP3    H137451   4.699   2.953   2.354 -0.7238 -0.5718 -0.2536
12502TIP3    H237452   4.769   2.856   2.262  0.7478  0.6075 -0.4201
12503TIP3   OH237453   0.035   0.885   2.381  0.4319 -0.4789 -0.5557
12503TIP3    H137454  -0.049   0.839   2.382  2.1108 -3.9468  1.0639
12503TIP3    H237455   0.054   0.902   2.474  0.8902  1.7034 -0.9904
12504TIP3   OH237456   6.537   4.523   4.530 -0.4029 -0.3195 -0.0833
12504TIP3    H137457   6.568   4.594   4.474 -0.6457 -0.4260 -0.3606
12504TIP3    H237458   6.584   4.534   4.612 -0.0577 -0.1450 -0.3033
12505TIP3   OH237459   7.926   4.916   6.071  0.3474  0.3344 -0.6013
12505TIP3    H137460   7.878   5.000   6.076 -0.2093 -0.0468  1.5621
12505TIP3    H237461   7.940   4.891   6.162 -0.1575 -2.3120 -1.1637
12506TIP3   OH237462   0.127   0.421   2.703  0.0672  0.4144 -0.2357
12506TIP3    H137463   0.133   0.325   2.705 -1.0038  0.3494  1.3060
12506TIP3    H237464   0.044   0.441   2.746 -0.8357  1.9683 -2.5119
12507TIP3   OH237465   3.257   6.188   0.323 -0.0417  0.1472 -0.0108
12507TIP3    H137466   3.266   6.228   0.236 -1.6163  0.5468 -0.0282
12507TIP3    H237467   3.177   6.227   0.358 -0.1266 -0.9847  1.0981
12508TIP3   OH237468   0.439   2.195   3.308  0.4135 -0.5648 -0.7838
12508TIP3    H137469   0.382   2.120   3.325  1.0594 -1.3514 -1.9116
12508TIP3    H237470   0.428   2.212   3.214 -1.4857  2.2731 -0.2030
12509TIP3   OH237471   6.396   5.920   6.547 -0.8558 -0.7783  0.2283
12509TIP3    H137472   6.353   6.001   6.521  0.8349 -0.0016 -0.2797
12509TIP3    H237473   6.369   5.907   6.639  0.0325  1.1972  0.8149
12510TIP3   OH237474   7.594   1.980   0.561  0.1179  0.2009  0.4222
12510TIP3    H137475   7.522   1.923   0.588 -1.2135  1.6226 -0.0336
12510TIP3    H237476   7.590   2.054   0.622  1.3813  0.1772  0.5646
12511TIP3   OH237477   6.615   3.811   3.080 -0.1212  0.0781  0.5781
12511TIP3    H137478   6.557   3.801   3.005 -1.5606  0.9901  1.5273
12511TIP3    H237479   6.687   3.865   3.048  0.6114 -1.6036 -0.7923
12512TIP3   OH237480   0.734   6.951   6.250  0.0440  0.3148 -0.2557
12512TIP3    H137481   0.810   6.898   6.272 -0.8157 -1.0587 -0.5191
12512TIP3    H237482   0.732   7.019   6.318  0.8356 -0.3090  0.4105
12513TIP3   OH237483   1.880   1.783   6.093  0.3139  0.1005  0.3958
12513TIP3    H137484   1.953   1.816   6.040 -0.1298  0.8461  0.2376
12513TIP3    H237485   1.885   1.833   6.175  1.0459 -1.1011  1.1190
12514TIP3   OH237486   5.348   4.613   5.381 -0.0829  0.4070  0.0067
12514TIP3    H137487   5.405   4.537   5.385 -1.3887 -0.5494  1.1069
12514TIP3    H237488   5.261   4.580   5.401 -0.6542  2.2337  0.7738
12515TIP3   OH237489   2.481   5.437   4.484 -0.3567  0.2965  0.0083
12515TIP3    H137490   2.465   5.455   4.577 -0.8087  1.5645 -0.2907
12515TIP3    H237491   2.439   5.510   4.438 -2.4845 -1.6504 -1.3593
12516TIP3   OH237492   3.195   5.581   6.175 -0.0576  0.3804 -0.2277
12516TIP3    H137493   3.196   5.534   6.092 -0.2936  1.9094 -1.1412
12516TIP3    H237494   3.286   5.580   6.204  0.1606  0.4861 -0.8928
12517TIP3   OH237495   1.477   3.269   4.530  0.1385 -0.0119  0.4245
12517TIP3    H137496   1.495   3.353   4.488  0.4662  0.3838  1.3569
12517TIP3    H237497   1.444   3.214   4.458 -0.4454  1.0155 -0.1187
12518TIP3   OH237498   6.760   6.872   2.522  0.8209  0.1055  0.2064
12518TIP3    H137499   6.714   6.828   2.450  0.8535 -1.7272  1.2252
12518TIP3    H237500   6.840   6.906   2.482 -0.1425  1.0298 -1.0395
12519TIP3   OH237501   8.076   0.170   0.536  1.1065 -0.0631 -0.4931
12519TIP3    H137502   8.022   0.166   0.615  3.0753  0.5014  0.9766
12519TIP3    H237503   8.060   0.256   0.499 -0.5801 -0.6981 -1.3257
12520TIP3   OH237504   3.042   0.510   2.650  0.4889  0.0481  0.3732
12520TIP3    H137505   3.041   0.521   2.745 -1.0598  2.1348  0.1772
12520TIP3    H237506   3.116   0.562   2.621 -0.1599  0.9643  0.3200
12521TIP3   OH237507   4.245   6.075   5.727 -0.4292  0.4248 -0.8819
12521TIP3    H137508   4.204   6.045   5.646 -1.7881 -0.3028  0.0524
12521TIP3    H237509   4.280   5.996   5.768 -3.1664  0.0852  1.1025
12522TIP3   OH237510   3.823   3.329   0.981 -0.7891  0.4995  0.0587
12522TIP3    H137511   3.885   3.359   0.915 -1.5692  0.3819 -0.7462
12522TIP3    H237512   3.812   3.405   1.039  1.3167  0.0197  1.1911
12523TIP3   OH237513   5.209   0.703   2.621  0.4901  0.2042  0.5009
12523TIP3    H137514   5.162   0.641   2.677 -0.9538 -0.3151 -1.1774
12523TIP3    H237515   5.169   0.788   2.640  0.2951  0.1036  0.5390
12524TIP3   OH237516   3.133   2.159   5.726 -0.1699 -0.0973  0.2129
12524TIP3    H137517   3.177   2.075   5.711 -0.8382 -0.7502  1.7004
12524TIP3    H237518   3.149   2.178   5.819 -1.6458  0.4657  0.3708
12525TIP3   OH237519   3.703   5.634   3.034  0.2938 -0.1357 -0.2211
12525TIP3    H137520   3.789   5.668   3.058  1.1154 -0.6154 -2.2613
12525TIP3    H237521   3.718   5.542   3.014 -1.0282 -0.6313  0.8497
12526TIP3   OH237522   6.680   4.063   4.168 -0.2426  0.4047 -0.1313
12526TIP3    H137523   6.592   4.099   4.162 -0.4446 -0.1088 -0.2250
12526TIP3    H237524   6.737   4.141   4.169 -0.7541  0.7869  1.3420
12527TIP3   OH237525   5.124   5.923   6.204 -0.5614  0.0951 -0.0473
12527TIP3    H137526   5.187   5.992   6.186 -0.4468  0.2627  0.9273
12527TIP3    H237527   5.147   5.853   6.142  1.5968 -0.4671  1.2568
12528TIP3   OH237528   3.970   4.596   1.305  0.3591  0.0507 -0.4092
12528TIP3    H137529   4.044   4.595   1.244  0.1608 -0.2838 -0.6559
12528TIP3    H237530   3.919   4.673   1.280  0.8631  0.5406  0.0613
12529TIP3   OH237531   2.599   4.919   4.325  0.0831  0.0372  0.0185
12529TIP3    H137532   2.583   4.962   4.409  0.0733 -0.2631  0.1716
12529TIP3    H237533   2.586   4.988   4.260 -0.6778  0.0844  0.2138
12530TIP3   OH237534   6.134   0.400   5.354  0.0984 -0.5695  0.0911
12530TIP3    H137535   6.124   0.344   5.277  0.0508 -2.0305  1.1179
12530TIP3    H237536   6.229   0.406   5.367  0.0832 -1.5934  0.7833
12531TIP3   OH237537   2.627   6.859   2.299 -0.0259 -0.2284  0.4204
12531TIP3    H137538   2.533   6.846   2.304 -0.0762  0.0906  0.3334
12531TIP3    H237539   2.665   6.778   2.333 -0.2920 -1.7788 -2.6511
12532TIP3   OH237540   4.347   2.870   0.303  0.3118 -0.2177  0.2907
12532TIP3    H137541   4.266   2.865   0.353 -0.7893  0.6004 -1.3137
12532TIP3    H237542   4.347   2.790   0.249  0.1315  0.1803 -0.3120
12533TIP3   OH237543   4.374   5.898   4.787 -0.3685  0.0919  0.4479
12533TIP3    H137544   4.353   5.947   4.708  0.8664  0.2897  0.2210
12533TIP3    H237545   4.377   5.965   4.856 -1.2870 -0.0583  0.6492
12534TIP3   OH237546   0.866   6.002   0.009  0.4384 -0.1134  0.4400
12534TIP3    H137547   0.831   6.033   0.092 -0.4244 -2.1287  0.9031
12534TIP3    H237548   0.914   5.922   0.032  2.4961  0.7190 -0.6746
12535TIP3   OH237549   0.656   1.872   2.051  0.1723 -0.2255 -0.2736
12535TIP3    H137550   0.747   1.901   2.043  0.0899  0.2947  0.5379
12535TIP3    H237551   0.605   1.946   2.018 -0.0731  0.9691  2.5140
12536TIP3   OH237552   7.247   0.228   1.836  0.0199  0.2043  0.2069
12536TIP3    H137553   7.198   0.311   1.839 -0.4158 -0.0581  1.9707
12536TIP3    H237554   7.338   0.254   1.851 -0.0858  0.4020  0.5401
12537TIP3   OH237555   0.878   3.367   1.429  0.2380 -0.0893 -0.4330
12537TIP3    H137556   0.948   3.336   1.487 -0.2869 -2.0130 -0.7488
12537TIP3    H237557   0.800   3.367   1.483 -0.0655 -0.9388 -0.8442
12538TIP3   OH237558   3.197   4.509   3.244 -0.0603 -0.1809  0.3449
12538TIP3    H137559   3.144   4.468   3.176  0.3886  0.7934 -0.6204
12538TIP3    H237560   3.288   4.499   3.214  0.1459  0.2637  0.7904
12539TIP3   OH237561   1.477   4.077   6.674  0.3984  0.0258 -0.5054
12539TIP3    H137562   1.448   3.988   6.655  0.4216  0.0274 -0.5505
12539TIP3    H237563   1.533   4.099   6.599  0.1062  0.2087 -0.6728
12540TIP3   OH237564   5.247   6.986   2.250 -0.2181  0.2525  0.2867
12540TIP3    H137565   5.293   7.038   2.316  1.6726 -0.1341 -0.6698
12540TIP3    H237566   5.302   6.909   2.237 -2.3746 -1.5032  0.8392
12541TIP3   OH237567   7.497   2.432   2.267 -0.3369 -0.1527  0.2183
12541TIP3    H137568   7.441   2.405   2.194  0.7270  0.3772 -0.8083
12541TIP3    H237569   7.474   2.524   2.282 -0.5313 -0.2516  0.5373
12542TIP3   OH237570   0.869   6.999   4.764 -0.0784  0.3001 -0.3465
12542TIP3    H137571   0.957   7.037   4.768 -0.5356  1.7908 -2.4192
12542TIP3    H237572   0.844   6.986   4.855  1.6259  1.4793  0.3379
12543TIP3   OH237573   8.229   5.497   5.056 -0.7165  0.3236  0.5771
12543TIP3    H137574   8.170   5.572   5.064 -0.2055  0.5352  3.3814
12543TIP3    H237575   8.312   5.527   5.093  0.0160 -1.1245  0.2091
12544TIP3   OH237576   4.604   0.084   2.396  0.3571 -0.0549 -0.6744
12544TIP3    H137577   4.654   0.131   2.330 -1.6956  0.6529 -1.7743
12544TIP3    H237578   4.525   0.054   2.351  0.4424 -2.4752  0.6128
12545TIP3   OH237579   3.551   7.587   0.670  0.2619 -0.2194 -0.8545
12545TIP3    H137580   3.507   7.618   0.590 -1.4112  0.2640  0.2065
12545TIP3    H237581   3.503   7.508   0.695 -0.6979  0.8409  0.8540
12546TIP3   OH237582   3.953   2.348   3.785  0.6570 -0.4427  0.4378
12546TIP3    H137583   3.909   2.314   3.863 -1.2456  1.6665  0.3941
12546TIP3    H237584   3.887   2.343   3.716  0.6518  2.0990  0.1625
12547TIP3   OH237585   4.345   3.685   1.994 -0.1004  0.7057  0.3816
12547TIP3    H137586   4.265   3.669   1.944 -0.6650  0.6247  1.2869
12547TIP3    H237587   4.390   3.754   1.946 -0.2430  0.0827 -0.6612
12548TIP3   OH237588   6.212   4.755   1.207  0.2912  0.0331 -0.4030
12548TIP3    H137589   6.274   4.805   1.258 -0.2395  0.5530 -0.2565
12548TIP3    H237590   6.221   4.665   1.239  1.3085  0.0073 -0.7307
12549TIP3   OH237591   0.653   0.792   1.253  0.7752 -0.4290  0.1092
12549TIP3    H137592   0.636   0.725   1.320  0.5163 -0.3073  0.1670
12549TIP3    H237593   0.656   0.742   1.170 -2.9825 -0.1685 -0.3590
12550TIP3   OH237594   0.589   2.891   6.219  0.1417 -0.2269 -0.1720
12550TIP3    H137595   0.674   2.862   6.186  0.5391  0.3226  0.3213
12550TIP3    H237596   0.558   2.819   6.274 -1.4105 -1.9848 -3.0780
12551TIP3   OH237597   3.912   0.409   0.178  0.3239 -0.0897 -0.4407
12551TIP3    H137598   3.955   0.333   0.140 -0.1500 -0.4533 -0.2536
12551TIP3    H237599   3.934   0.481   0.119 -0.0550 -0.5671 -1.1761
12552TIP3   OH237600   6.949   5.572   4.962  0.3466  0.6050 -0.4639
12552TIP3    H137601   6.955   5.617   4.878  1.5685  0.8938 -0.2500
12552TIP3    H237602   6.954   5.643   5.027  0.3613  0.3148 -0.1466
12553TIP3   OH237603   1.109   0.509   0.385 -0.6575  0.0748 -0.1306
12553TIP3    H137604   1.074   0.471   0.467 -0.7324  1.1748  0.3643
12553TIP3    H237605   1.123   0.601   0.406  0.5186  0.1094 -0.9949
12554TIP3   OH237606   0.647   7.362   1.031 -0.4895  0.0634  0.3707
12554TIP3    H137607   0.623   7.287   1.086  0.6028  0.3820  1.3488
12554TIP3    H237608   0.743   7.364   1.035 -0.4054  0.4019 -1.1810
12555TIP3   OH237609   6.621   1.877   4.667 -0.4182  0.6995 -0.2283
12555TIP3    H137610   6.704   1.872   4.716 -1.9129  0.8806  2.5072
12555TIP3    H237611   6.611   1.790   4.628  0.6623  0.4098  0.0971
12556TIP3   OH237612   1.275   7.103   6.667 -0.9712  0.4729 -0.4195
12556TIP3    H137613   1.336   7.031   6.685 -1.0105  0.4422 -0.4090
12556TIP3    H237614   1.282   7.160   6.743 -2.4429 -0.5426  0.5351
12557TIP3   OH237615   0.517   3.895   6.281 -0.8820  0.1789 -0.1413
12557TIP3    H137616   0.487   3.850   6.360 -2.1625 -0.5363 -1.0010
12557TIP3    H237617   0.525   3.986   6.307  0.2848 -0.2718  1.2296
12558TIP3   OH237618   0.778   3.352   5.237  0.3981  0.0876 -0.2953
12558TIP3    H137619   0.721   3.420   5.202 -1.5088 -0.8672  0.7813
12558TIP3    H237620   0.776   3.283   5.171  0.8569  0.3243 -0.5592
12559TIP3   OH237621   7.064   3.526   2.140 -0.4813  0.6631  0.6791
12559TIP3    H137622   7.140   3.501   2.192  0.4879 -0.3596 -1.1412
12559TIP3    H237623   6.990   3.486   2.185  0.2697  0.1667  1.4959
12560TIP3   OH237624   1.345   2.064   0.228  0.2918 -0.2560 -0.3328
12560TIP3    H137625   1.361   2.029   0.140  0.7319 -0.2596 -0.2563
12560TIP3    H237626   1.307   1.991   0.277  1.1534 -0.6195 -0.1899
12561TIP3   OH237627   8.304   5.864   1.708  0.5835  0.5775  0.8212
12561TIP3    H137628   8.283   5.831   1.621  1.1006 -0.9027  1.2327
12561TIP3    H237629   8.219   5.874   1.751  0.4141 -1.8062  1.2068
12562TIP3   OH237630   3.491  -0.007   4.474 -0.0323  0.3061  0.0572
12562TIP3    H137631   3.522   0.080   4.447  1.0722 -0.3363 -0.8618
12562TIP3    H237632   3.570  -0.061   4.473 -0.8325 -0.8892 -0.1482
12563TIP3   OH237633   2.094   1.483   2.811  0.1979 -0.3361  0.3548
12563TIP3    H137634   2.120   1.390   2.807  2.7754  0.2543  1.1844
12563TIP3    H237635   2.014   1.483   2.863  1.9693 -1.8937  3.3616
12564TIP3   OH237636   6.234   6.666   4.935 -0.0097  0.2313 -0.4429
12564TIP3    H137637   6.269   6.625   5.015  1.5337 -0.0104 -1.1997
12564TIP3    H237638   6.161   6.610   4.909  0.6421 -0.7441 -0.2069
12565TIP3   OH237639   0.782   1.531   1.389  0.0500 -0.3742 -0.1431
12565TIP3    H137640   0.831   1.587   1.450 -1.4545  1.3468 -0.4098
12565TIP3    H237641   0.827   1.541   1.306  0.7504 -0.8905  0.1625
12566TIP3   OH237642   4.416   3.753   4.647  0.0548 -0.4565  0.2258
12566TIP3    H137643   4.414   3.658   4.660  0.4594 -0.3829  0.8942
12566TIP3    H237644   4.506   3.778   4.667  0.4447 -0.1511 -1.6748
12567TIP3   OH237645   2.281   0.649   5.606 -0.1963  0.0540  0.9632
12567TIP3    H137646   2.351   0.713   5.616  0.5203 -0.3477 -0.9617
12567TIP3    H237647   2.216   0.674   5.672  1.1736  1.2056  1.9482
12568TIP3   OH237648   5.041   2.884   2.972  0.1820  0.3459 -0.2558
12568TIP3    H137649   5.034   2.899   3.066  0.3701  1.8485 -0.4419
12568TIP3    H237650   5.099   2.809   2.963 -1.8172 -1.4452  0.8640
12569TIP3   OH237651   3.412   4.061   3.813  0.1295 -0.0860  0.1643
12569TIP3    H137652   3.442   4.029   3.728  0.1939 -2.2415  0.9408
12569TIP3    H237653   3.316   4.059   3.806  0.1244  0.9129 -0.2398
12570TIP3   OH237654   5.964   2.840   4.060 -0.0426  0.3202  0.2998
12570TIP3    H137655   6.019   2.836   4.138 -1.2732  0.2454  1.2050
12570TIP3    H237656   5.977   2.928   4.025  1.5025 -0.0767 -0.1781
12571TIP3   OH237657   0.887   2.033   2.781 -0.3209  0.7876 -0.2452
12571TIP3    H137658   0.977   2.043   2.750 -0.2366  0.5826 -0.0732
12571TIP3    H237659   0.868   1.939   2.772 -0.6067  0.8715 -0.5212
12572TIP3   OH237660   4.902   5.823   1.722 -0.3293  0.2937  0.1041
12572TIP3    H137661   4.814   5.785   1.726 -0.3709  0.3249 -0.4204
12572TIP3    H237662   4.957   5.762   1.771 -0.1532 -1.1159 -1.7523
12573TIP3   OH237663   1.608   2.307   2.956 -0.7589 -0.1157 -0.2155
12573TIP3    H137664   1.629   2.214   2.950  1.3155  0.3327 -0.7245
12573TIP3    H237665   1.513   2.309   2.964 -0.7602 -2.3301  1.4345
12574TIP3   OH237666   4.295   1.164   4.171  0.6229 -0.1214  0.7047
12574TIP3    H137667   4.268   1.252   4.145 -0.7501 -1.0527 -1.3518
12574TIP3    H237668   4.385   1.156   4.140  0.5357  0.3507  0.3105
12575TIP3   OH237669   2.572   4.081   6.261 -0.2685  0.3290  0.1010
12575TIP3    H137670   2.662   4.080   6.230 -1.3205  0.1686 -3.2949
12575TIP3    H237671   2.573   4.139   6.337  2.7731 -0.2755  0.6285
12576TIP3   OH237672   5.103   3.312   2.893  0.3214 -0.3752 -0.2473
12576TIP3    H137673   5.082   3.401   2.865  1.2062 -0.6012 -1.7101
12576TIP3    H237674   5.029   3.259   2.863 -0.8011 -0.0086  1.6792
12577TIP3   OH237675   5.747   7.599   5.100 -0.3915  0.5846  0.5630
12577TIP3    H137676   5.832   7.604   5.145  0.0482  1.0899 -0.2913
12577TIP3    H237677   5.683   7.589   5.170  0.3482  0.5196  1.2445
12578TIP3   OH237678   5.174   4.264   5.011  0.0838  0.8483  0.1983
12578TIP3    H137679   5.105   4.290   4.949  1.3393  0.2907 -1.5263
12578TIP3    H237680   5.240   4.333   5.004  0.3282  0.6736  0.7706
12579TIP3   OH237681   5.237   4.267   4.308  0.0280  0.0022 -0.0662
12579TIP3    H137682   5.161   4.287   4.362 -1.0989 -2.5855 -0.5500
12579TIP3    H237683   5.301   4.230   4.369  0.0293  0.1120 -0.0009
12580TIP3   OH237684   7.545   4.022   2.528 -0.2537  0.0713  0.0958
12580TIP3    H137685   7.614   4.028   2.463 -1.7663  0.0060 -1.5776
12580TIP3    H237686   7.556   3.934   2.566  0.2866 -0.1063 -0.4550
12581TIP3   OH237687   4.943   3.309   1.546 -0.4196 -0.0064  0.2985
12581TIP3    H137688   4.938   3.404   1.534  0.6990  0.4336  2.7324
12581TIP3    H237689   4.901   3.293   1.631 -0.6175 -1.7148 -0.0785
12582TIP3   OH237690   6.301   6.331   0.090 -0.1144 -0.2381  0.4547
12582TIP3    H137691   6.304   6.262   0.156  0.4928 -0.8053 -0.1571
12582TIP3    H237692   6.212   6.367   0.097  0.2649  0.4203  2.2834
12583TIP3   OH237693   0.291   6.791   2.165 -0.0400  0.3708  0.2275
12583TIP3    H137694   0.366   6.734   2.148 -0.9101 -0.5686 -0.5955
12583TIP3    H237695   0.254   6.809   2.079 -1.0192  0.4563  0.6548
12584TIP3   OH237696   1.082   2.476   3.296  0.5310 -0.1645 -0.0367
12584TIP3    H137697   0.993   2.447   3.277 -0.2917  2.5824 -0.8578
12584TIP3    H237698   1.100   2.442   3.383 -0.5581 -2.3593 -0.5906
12585TIP3   OH237699   7.372   5.864   1.254  0.4993 -0.1181 -0.2777
12585TIP3    H137700   7.296   5.823   1.215  1.2315 -2.0654  0.2243
12585TIP3    H237701   7.345   5.885   1.344  1.0061 -2.3883  0.4676
12586TIP3   OH237702   5.741   0.952   3.581  0.0711  0.1279 -0.1389
12586TIP3    H137703   5.691   1.018   3.532  0.2369 -0.2412 -0.8188
12586TIP3    H237704   5.824   0.995   3.601 -0.2705  0.5241  0.4371
12587TIP3   OH237705   1.060   1.532   5.213  0.0913 -0.6515 -0.6152
12587TIP3    H137706   1.040   1.441   5.193  0.9016 -1.0164  0.1389
12587TIP3    H237707   0.999   1.555   5.283 -0.1815 -0.5767 -0.8750
12588TIP3   OH237708   6.395   3.685   5.527 -0.2444  0.1065 -0.7212
12588TIP3    H137709   6.319   3.659   5.475  0.0234 -0.1599 -0.9785
12588TIP3    H237710   6.440   3.749   5.472  1.9834 -2.7212 -2.3976
12589TIP3   OH237711   3.352   3.492   0.271  0.5912  0.2480 -0.1707
12589TIP3    H137712   3.444   3.474   0.251  0.9652  1.6479  0.1643
12589TIP3    H237713   3.310   3.406   0.272  1.5809 -0.2997 -1.8433
12590TIP3   OH237714   1.907   6.394   0.083 -0.9026 -0.1697 -0.4437
12590TIP3    H137715   1.929   6.445   0.161 -2.2374  0.1574 -0.2564
12590TIP3    H237716   1.851   6.324   0.116 -0.4305 -0.7866 -0.9427
12591TIP3   OH237717   6.059   4.982   2.283 -0.1833  0.1427 -0.7426
12591TIP3    H137718   6.111   5.011   2.357  0.6342  0.8472 -1.5659
12591TIP3    H237719   5.968   4.993   2.311  0.0929 -0.9082  0.6341
12592TIP3   OH237720   6.793   4.321   4.156 -0.3494 -0.0936  0.1725
12592TIP3    H137721   6.783   4.331   4.250 -0.9557  1.0443  0.0032
12592TIP3    H237722   6.878   4.361   4.137  1.3464 -3.1493  0.6117
12593TIP3   OH237723   6.175   7.239   4.892 -0.1395  0.3512 -0.1352
12593TIP3    H137724   6.099   7.282   4.931 -0.2342 -1.0622  1.3549
12593TIP3    H237725   6.250   7.289   4.925 -0.3261  0.3755  0.2593
12594TIP3   OH237726   6.353   1.811   1.873 -0.2185  0.4870 -0.0306
12594TIP3    H137727   6.416   1.869   1.830 -0.0291  0.9629  0.8420
12594TIP3    H237728   6.298   1.777   1.803  1.2587 -0.2552 -0.8546
12595TIP3   OH237729   3.534   6.092   5.627  0.1819  0.0563  0.4887
12595TIP3    H137730   3.448   6.120   5.658  0.1358  0.0212  0.3895
12595TIP3    H237731   3.591   6.101   5.704  0.2865  0.9678  0.3161
12596TIP3   OH237732   1.625   3.763   5.282 -0.3854 -0.0690 -0.1314
12596TIP3    H137733   1.643   3.828   5.214  3.7183 -2.2481 -1.4869
12596TIP3    H237734   1.564   3.701   5.241 -1.4482  0.9375 -0.1252
12597TIP3   OH237735   1.206   4.469   5.529  0.5066 -0.0957  0.2050
12597TIP3    H137736   1.301   4.470   5.517  0.2542  0.9686 -2.6601
12597TIP3    H237737   1.180   4.380   5.506  0.6260  0.3424 -1.8080
12598TIP3   OH237738   6.630   4.188   5.447 -0.3786  0.5596 -0.3564
12598TIP3    H137739   6.680   4.109   5.427 -2.5109 -0.6045 -1.4738
12598TIP3    H237740   6.570   4.161   5.517 -1.6671  0.9076 -1.2843
12599TIP3   OH237741   7.938   7.450   2.403  0.3236 -0.7356 -0.2572
12599TIP3    H137742   7.903   7.373   2.358 -1.7158  0.6668 -1.2061
12599TIP3    H237743   7.895   7.524   2.361 -0.6264  0.7751  3.0410
12600TIP3   OH237744   4.128   4.595   1.974  0.5916  0.3626 -0.4936
12600TIP3    H137745   4.145   4.545   1.895  1.9003  0.7544 -0.4827
12600TIP3    H237746   4.111   4.684   1.943  0.4395  0.3718 -0.3839
12601TIP3   OH237747   3.703   4.412   6.529  0.2825 -0.1843 -0.1443
12601TIP3    H137748   3.743   4.442   6.447 -0.1553 -4.0392 -2.0208
12601TIP3    H237749   3.775   4.376   6.580  0.0717 -1.7535 -0.8868
12602TIP3   OH237750   2.645   3.966   2.224 -0.0349 -0.0535 -0.1533
12602TIP3    H137751   2.658   3.885   2.174  0.0700 -0.1623  0.0520
12602TIP3    H237752   2.574   4.011   2.178 -1.0287 -0.8911  0.5118
12603TIP3   OH237753   2.956   4.005   1.973 -0.0097  0.7167 -0.3643
12603TIP3    H137754   2.973   3.913   1.954 -1.3863  0.4742 -0.5509
12603TIP3    H237755   2.861   4.016   1.959 -0.2108  1.7162  1.4119
12604TIP3   OH237756   7.431   0.441   4.856  0.4406 -0.3605  0.2265
12604TIP3    H137757   7.432   0.407   4.946  0.1970  1.5687  1.0141
12604TIP3    H237758   7.499   0.508   4.855 -0.8520  1.0168 -0.4097
12605TIP3   OH237759   2.524   6.694   4.518 -0.1744 -1.1802 -0.0917
12605TIP3    H137760   2.553   6.618   4.569  1.0961 -1.2048 -0.8119
12605TIP3    H237761   2.512   6.763   4.583 -0.5709 -1.7753  0.4784
12606TIP3   OH237762   5.113   6.213   4.795  0.3656  0.5027 -0.3745
12606TIP3    H137763   5.176   6.167   4.739 -0.0641  0.5705 -0.9313
12606TIP3    H237764   5.144   6.304   4.795  0.6095  0.4198 -0.1517
12607TIP3   OH237765   5.399   3.189   0.525  0.5327 -0.0565  0.3138
12607TIP3    H137766   5.490   3.208   0.545  1.2537 -1.6394 -1.2102
12607TIP3    H237767   5.382   3.104   0.565 -0.0041 -0.1715 -0.1444
12608TIP3   OH237768   3.036   4.915   2.757  0.5555  0.1946 -0.2470
12608TIP3    H137769   3.098   4.982   2.785 -0.6580  0.9124  0.8408
12608TIP3    H237770   3.044   4.846   2.822 -0.6062  0.8300  0.6183
12609TIP3   OH237771   4.077   2.723   1.895 -0.6333 -0.3938 -0.1582
12609TIP3    H137772   4.153   2.709   1.839 -0.8742 -0.6553 -0.4225
12609TIP3    H237773   4.011   2.761   1.837 -0.6220  0.0579  0.1253
12610TIP3   OH237774   5.877   4.886   5.151  0.9593  0.2161  0.2454
12610TIP3    H137775   5.819   4.893   5.226  0.8922  1.2436  0.1145
12610TIP3    H237776   5.883   4.976   5.117  0.0666 -0.4000 -1.6718
12611TIP3   OH237777   6.156   5.234   3.270 -0.4927 -0.4612 -0.3991
12611TIP3    H137778   6.064   5.247   3.293  0.0028 -1.7433  2.8973
12611TIP3    H237779   6.166   5.138   3.264  0.7468 -0.3676 -0.1125
12612TIP3   OH237780   2.639   5.239   5.302  0.0299  0.0690  0.1301
12612TIP3    H137781   2.646   5.318   5.356 -1.1689 -0.1116  0.5713
12612TIP3    H237782   2.591   5.267   5.224 -1.1038 -0.3682  0.6411
12613TIP3   OH237783   7.802   0.989   3.579  0.0300  0.6428  0.1271
12613TIP3    H137784   7.837   0.923   3.639  2.3232  1.6396 -0.0261
12613TIP3    H237785   7.834   0.962   3.493 -2.1857 -0.0726 -0.5644
12614TIP3   OH237786   6.350   2.819   5.835  0.4670 -0.2367  0.6932
12614TIP3    H137787   6.438   2.796   5.804  0.8549 -3.7724  3.7905
12614TIP3    H237788   6.292   2.781   5.769  1.0460  2.2168 -1.4416
12615TIP3   OH237789   5.270   0.312   4.801  0.8105 -0.5051 -0.0508
12615TIP3    H137790   5.181   0.345   4.790  1.4763  1.3321 -0.3482
12615TIP3    H237791   5.303   0.304   4.711  0.5815 -2.3432 -0.0022
12616TIP3   OH237792   7.854   7.384   3.682 -0.3621  0.1669 -0.2300
12616TIP3    H137793   7.809   7.409   3.763 -0.1475 -1.3846  0.4199
12616TIP3    H237794   7.880   7.293   3.698  0.7288  0.2242 -1.5994
12617TIP3   OH237795   7.358   1.937   2.033 -0.6581 -0.0835  0.2562
12617TIP3    H137796   7.333   1.970   2.119 -2.6720  0.9512 -0.6591
12617TIP3    H237797   7.364   2.016   1.979 -0.0666 -0.7779 -0.7152
12618TIP3   OH237798   1.230   1.419   0.230 -0.0103 -0.1624  0.1749
12618TIP3    H137799   1.307   1.453   0.185  0.3691  0.5164  1.3089
12618TIP3    H237800   1.243   1.324   0.231 -0.2733 -0.2452 -1.5578
12619TIP3   OH237801   2.579   5.049   5.827 -0.1457  0.0605  0.0246
12619TIP3    H137802   2.542   4.972   5.870 -0.4027  0.4669  0.5524
12619TIP3    H237803   2.646   5.014   5.768 -1.6960 -0.7516 -1.3473
12620TIP3   OH237804   7.797   3.480   3.333  0.2474 -0.1167 -1.4356
12620TIP3    H137805   7.861   3.413   3.356  1.3997  0.4388 -2.8447
12620TIP3    H237806   7.839   3.562   3.359 -1.6847  0.0802  1.4859
12621TIP3   OH237807   5.255   4.846   6.629  0.0529 -0.2356 -0.1285
12621TIP3    H137808   5.167   4.850   6.591  0.2611  0.1390 -0.5879
12621TIP3    H237809   5.300   4.922   6.592  0.7089 -0.6753 -0.2409
12622TIP3   OH237810   1.546   6.421   1.954  0.4243 -0.0344  0.2657
12622TIP3    H137811   1.537   6.327   1.941  0.7068 -0.1952  1.1763
12622TIP3    H237812   1.580   6.453   1.870  1.7621 -0.9690  0.4115
12623TIP3   OH237813   1.520   5.483   3.653 -0.2519  0.3581  0.4244
12623TIP3    H137814   1.614   5.485   3.636 -0.2341  0.7080  0.5548
12623TIP3    H237815   1.511   5.430   3.732 -0.2376 -0.3396 -0.0319
12624TIP3   OH237816   4.925   5.107   0.108 -0.0991  0.9014  0.4938
12624TIP3    H137817   5.008   5.139   0.073 -1.1247  1.9760 -1.1227
12624TIP3    H237818   4.944   5.019   0.140  1.3640  0.5859 -1.1073
12625TIP3   OH237819   3.095   5.461   6.606 -0.1347  0.0758  0.0602
12625TIP3    H137820   3.149   5.456   6.527 -1.7420 -0.3879 -1.0489
12625TIP3    H237821   3.006   5.447   6.575 -0.8550  0.3224  1.9146
12626TIP3   OH237822   4.538   7.136   5.807 -0.2463 -0.1906 -0.6784
12626TIP3    H137823   4.554   7.103   5.719 -1.5968 -0.5768 -0.8003
12626TIP3    H237824   4.468   7.200   5.796  1.9766  2.4967 -0.3762
12627TIP3   OH237825   7.953   3.879   3.246  0.0777 -0.3938  0.4153
12627TIP3    H137826   7.956   3.785   3.228 -1.7766 -0.8086  1.8834
12627TIP3    H237827   8.044   3.909   3.238  1.3004 -2.9645  3.0485
12628TIP3   OH237828   7.472   5.216   5.499 -0.7953 -0.2459 -0.3748
12628TIP3    H137829   7.546   5.159   5.521  0.1675  0.4506 -1.6416
12628TIP3    H237830   7.395   5.167   5.527  0.1259 -1.1236  0.7145
12629TIP3   OH237831   1.915   5.924   0.884  0.3569  0.0909  0.0205
12629TIP3    H137832   1.946   5.835   0.897 -1.3064 -0.4214  0.7100
12629TIP3    H237833   1.929   5.940   0.790  1.4894 -0.5306  0.0572
12630TIP3   OH237834   0.978   1.198   6.542  0.8460  0.0836 -0.2499
12630TIP3    H137835   0.956   1.204   6.449  0.5158 -1.5333 -0.2902
12630TIP3    H237836   0.943   1.114   6.571 -0.4050  1.1650  1.7197
12631TIP3   OH237837   3.751   7.507   4.834  0.3233 -0.0269 -0.0724
12631TIP3    H137838   3.707   7.531   4.915 -0.4514  0.9030 -0.7401
12631TIP3    H237839   3.751   7.412   4.834  0.8565 -0.0458  1.2862
12632TIP3   OH237840   2.056   5.862   3.828  0.3902 -0.1413 -0.4164
12632TIP3    H137841   1.986   5.829   3.884  0.5061 -1.0686 -0.8017
12632TIP3    H237842   2.136   5.830   3.869  0.4716 -0.9000 -1.1499
12633TIP3   OH237843   2.800   0.413   0.155 -0.0368  0.1165  0.1939
12633TIP3    H137844   2.894   0.432   0.162 -0.2388  0.4932  2.3205
12633TIP3    H237845   2.757   0.491   0.189 -1.0461 -1.0002  1.5917
12634TIP3   OH237846   4.108   1.184   1.834 -0.0135  0.0385 -0.2526
12634TIP3    H137847   4.016   1.192   1.859 -0.3731  0.7515 -1.7091
12634TIP3    H237848   4.106   1.154   1.744  1.2101 -0.6456 -0.0781
12635TIP3   OH237849   4.062   0.965   1.330 -0.1407 -1.0963  0.2095
12635TIP3    H137850   3.968   0.950   1.321 -0.2380 -0.1938 -0.3010
12635TIP3    H237851   4.102   0.880   1.309 -0.9152 -2.1781  2.6698
12636TIP3   OH237852   0.265   4.102   1.464  0.3225  0.7084 -0.5953
12636TIP3    H137853   0.321   4.028   1.487  0.5840  1.0783 -0.0236
12636TIP3    H237854   0.265   4.158   1.542 -1.4812  0.3370 -0.2673
12637TIP3   OH237855   7.519   7.601   0.724  0.3286 -0.4632  0.1780
12637TIP3    H137856   7.460   7.612   0.799 -1.5651  0.2940 -1.3477
12637TIP3    H237857   7.599   7.564   0.762 -1.1448 -1.6467  2.3373
12638TIP3   OH237858   7.858   5.353   5.153  0.3399 -0.3433 -0.8919
12638TIP3    H137859   7.800   5.296   5.103 -1.2085 -0.1826  0.6330
12638TIP3    H237860   7.820   5.441   5.142  0.2692 -0.2337  0.0830
12639TIP3   OH237861   1.058   7.670   5.974  0.4507 -0.3631 -0.3168
12639TIP3    H137862   1.020   7.741   5.922  0.1611 -1.9071 -2.3315
12639TIP3    H237863   0.997   7.659   6.047 -0.6400  0.0583 -1.1436
12640TIP3   OH237864   0.645   0.641   0.630  0.1152  0.2281 -0.0070
12640TIP3    H137865   0.673   0.588   0.555 -2.2497 -0.7361 -0.2991
12640TIP3    H237866   0.558   0.672   0.606  0.0467  1.4411  1.6261
12641TIP3   OH237867   6.619   2.741   1.293 -0.7414  0.0348  0.1007
12641TIP3    H137868   6.658   2.655   1.282 -0.9454 -0.2077  1.1322
12641TIP3    H237869   6.593   2.744   1.385 -0.4822  1.2982  0.1592
12642TIP3   OH237870   6.644   3.532   5.212 -0.9120  0.1109  0.1889
12642TIP3    H137871   6.737   3.544   5.234 -0.7621  0.3242 -0.5181
12642TIP3    H237872   6.645   3.501   5.121 -1.5259 -0.0744  0.2447
12643TIP3   OH237873   3.127   1.562   5.879  0.3099  0.5695  0.0313
12643TIP3    H137874   3.045   1.560   5.831  0.9796  0.2923 -1.1494
12643TIP3    H237875   3.182   1.624   5.832  0.5141  1.3930  1.2914
12644TIP3   OH237876   8.304   1.944   2.174  0.1423  0.1538 -0.2962
12644TIP3    H137877   8.297   2.023   2.228 -1.0994  0.3876 -0.7580
12644TIP3    H237878   8.250   1.963   2.097  1.1487 -0.5230 -1.2027
12645TIP3   OH237879   7.367   0.866   1.106  0.0372 -0.2970  0.5521
12645TIP3    H137880   7.426   0.790   1.102 -0.0828 -0.3917  0.5832
12645TIP3    H237881   7.280   0.829   1.089  0.0938 -0.0339 -0.4088
12646TIP3   OH237882   5.346   1.915   1.406  0.2130 -0.0449  0.0329
12646TIP3    H137883   5.354   2.010   1.413  0.6376 -0.1910  2.4562
12646TIP3    H237884   5.407   1.890   1.336  1.1819  1.3327  0.3613
12647TIP3   OH237885   2.392   4.148   4.277 -0.0929 -0.1160 -0.5358
12647TIP3    H137886   2.408   4.055   4.290  0.4748 -0.1516 -1.4187
12647TIP3    H237887   2.302   4.153   4.244 -0.2919 -0.3007 -0.0359
12648TIP3   OH237888   1.528   4.920   3.856 -0.2474 -0.1275 -0.1616
12648TIP3    H137889   1.439   4.914   3.821 -0.2724 -1.9338  0.0744
12648TIP3    H237890   1.517   4.914   3.951  0.0599  1.0215 -0.0398
12649TIP3   OH237891   5.505   4.473   4.565  0.7911  0.4310  0.6620
12649TIP3    H137892   5.424   4.496   4.610 -1.5476 -3.3878 -1.0159
12649TIP3    H237893   5.510   4.532   4.490 -1.0937  0.0463  0.2024
12650TIP3   OH237894   5.480   2.541   4.376 -0.1498  0.0403 -0.4419
12650TIP3    H137895   5.523   2.624   4.400  0.9340 -0.5575 -0.2242
12650TIP3    H237896   5.476   2.492   4.458 -0.3400 -0.3152 -0.6618
12651TIP3   OH237897   1.574   0.657   4.117 -0.5419 -0.6689 -0.1382
12651TIP3    H137898   1.559   0.585   4.178  0.7913 -0.5469  0.3472
12651TIP3    H237899   1.539   0.625   4.034  1.6075 -2.6301 -0.3888
12652TIP3   OH237900   3.234   3.324   5.545 -0.7292  0.2459 -0.4408
12652TIP3    H137901   3.266   3.414   5.533 -0.2379  0.2013  0.4739
12652TIP3    H237902   3.246   3.306   5.638  1.1784 -1.5081 -0.9481
12653TIP3   OH237903   1.496   0.317   5.776  0.0468 -0.1205 -0.2468
12653TIP3    H137904   1.450   0.360   5.704  0.9180  1.0634 -0.1341
12653TIP3    H237905   1.433   0.255   5.812 -1.5446  1.6074  0.0670
12654TIP3   OH237906   4.993   7.106   1.280 -0.0165 -0.1865 -0.3947
12654TIP3    H137907   5.033   7.162   1.213 -0.4055 -0.8301 -1.1884
12654TIP3    H237908   4.946   7.166   1.337  0.3254  0.3795 -0.7006
12655TIP3   OH237909   4.882   5.069   1.999  0.0928  0.6345  0.5461
12655TIP3    H137910   4.818   5.020   2.051 -1.5490  1.1680 -0.8546
12655TIP3    H237911   4.904   5.145   2.053 -1.4617  1.0964  0.5746
12656TIP3   OH237912   5.725   7.203   3.928 -0.4003  0.4451  0.2125
12656TIP3    H137913   5.658   7.240   3.870 -2.2663 -0.8167  1.4619
12656TIP3    H237914   5.698   7.229   4.016  1.5815  1.1162  0.6729
12657TIP3   OH237915   3.499   3.963   4.457  0.4988  0.2059  0.0806
12657TIP3    H137916   3.551   3.892   4.495  0.6585  0.9534  1.3007
12657TIP3    H237917   3.414   3.924   4.439  0.3278 -0.1068  1.4791
12658TIP3   OH237918   3.847   6.971   0.989 -0.0566 -0.1973 -0.7569
12658TIP3    H137919   3.863   6.923   0.908 -0.6571 -1.5094 -0.1416
12658TIP3    H237920   3.752   6.967   1.001  0.0344 -0.1160  0.0508
12659TIP3   OH237921   5.996   6.604   3.115 -0.6592  0.4775  0.3546
12659TIP3    H137922   5.973   6.689   3.078 -0.0724  0.4844 -0.0112
12659TIP3    H237923   6.012   6.547   3.039 -2.6825 -0.4481  0.5731
12660TIP3   OH237924   5.315   1.150   0.025  0.3690 -0.0312 -0.0093
12660TIP3    H137925   5.346   1.151   0.116  1.4657 -0.5233 -0.3645
12660TIP3    H237926   5.316   1.242  -0.001  0.3054  0.0874  0.3959
12661TIP3   OH237927   2.987   2.751   5.392 -0.2925 -0.1695  0.9506
12661TIP3    H137928   2.987   2.673   5.337 -0.3144 -0.4179  1.3057
12661TIP3    H237929   3.063   2.742   5.448  0.2476  0.5232  0.3507
12662TIP3   OH237930   5.085   0.775   5.938 -0.1784 -0.3728  0.1482
12662TIP3    H137931   5.098   0.842   6.005  0.7782  0.1103 -0.5172
12662TIP3    H237932   5.045   0.821   5.865  0.0565 -0.6278 -0.1403
12663TIP3   OH237933   7.051   1.003   3.454  0.8036 -0.2592  0.2179
12663TIP3    H137934   7.002   0.921   3.447  0.4812 -0.1395  0.9512
12663TIP3    H237935   7.089   1.000   3.542  0.7537  0.3993  0.2605
12664TIP3   OH237936   2.122   3.999   3.015  0.2471  0.1694  0.3160
12664TIP3    H137937   2.072   4.028   2.938 -1.1266 -2.5974  0.0584
12664TIP3    H237938   2.213   4.021   2.994  0.0873 -1.5590 -2.7160
12665TIP3   OH237939   1.696   1.613   4.843  0.0881  0.2265  0.1167
12665TIP3    H137940   1.663   1.594   4.931 -0.0052 -1.1931 -0.2053
12665TIP3    H237941   1.617   1.629   4.791  0.1053  0.3947  0.1428
12666TIP3   OH237942   0.464   7.483   6.109  0.6166  0.4804  0.2640
12666TIP3    H137943   0.449   7.556   6.049  0.0307 -0.4466 -0.7671
12666TIP3    H237944   0.397   7.492   6.176 -0.1877  0.2444 -0.5025
12667TIP3   OH237945   3.958   0.995   3.679  0.2270  0.1507 -0.2916
12667TIP3    H137946   3.914   0.946   3.749  0.2328  0.7532  0.1447
12667TIP3    H237947   4.021   1.050   3.725  0.0024  0.7974 -0.7459
12668TIP3   OH237948   2.518   6.814   4.771  0.0556 -0.2151  0.0963
12668TIP3    H137949   2.425   6.800   4.757 -0.3375  1.6392  0.5454
12668TIP3    H237950   2.532   6.792   4.863 -0.2686  0.9073  0.4290
12669TIP3   OH237951   4.149   1.493   5.309  0.0123 -0.3222 -0.0903
12669TIP3    H137952   4.175   1.576   5.348  1.5444 -0.9187  0.2281
12669TIP3    H237953   4.145   1.432   5.383 -1.9456 -0.3721 -0.1881
12670TIP3   OH237954   6.788   0.058   1.633 -0.1868  0.2208  0.1633
12670TIP3    H137955   6.719   0.121   1.613 -0.0378  0.4326  0.3140
12670TIP3    H237956   6.765   0.023   1.719  0.3193  0.8741  0.5684
12671TIP3   OH237957   2.921   1.600   3.193  0.1126 -0.6801 -0.3220
12671TIP3    H137958   2.996   1.560   3.236 -0.9222 -0.7760  1.5365
12671TIP3    H237959   2.874   1.527   3.153 -0.8807 -1.1955  1.6420
12672TIP3   OH237960   0.270   2.863   0.681  0.2069 -0.4878  0.0132
12672TIP3    H137961   0.222   2.869   0.764 -2.0138 -1.9081 -1.0578
12672TIP3    H237962   0.207   2.896   0.616  1.7194  0.1382 -1.1862
12673TIP3   OH237963   7.246   5.809   2.297  0.2312  0.0699  0.6816
12673TIP3    H137964   7.261   5.897   2.262 -0.9295  0.1384  0.3115
12673TIP3    H237965   7.314   5.755   2.257  0.7237  0.7277  0.6234
12674TIP3   OH237966   5.678   5.289   0.884  0.2058  0.0058 -0.3458
12674TIP3    H137967   5.671   5.248   0.971  0.0503 -1.1746 -0.8933
12674TIP3    H237968   5.764   5.330   0.884  0.1280  0.1987  0.4336
12675TIP3   OH237969   6.980   7.236   4.112 -0.5887  0.6518 -0.1259
12675TIP3    H137970   6.911   7.188   4.067 -1.5922  1.5681  0.3782
12675TIP3    H237971   7.043   7.169   4.139  0.5856  0.1203 -3.6567
12676TIP3   OH237972   7.010   3.462   0.600 -0.5559 -0.1423  0.9826
12676TIP3    H137973   6.969   3.535   0.647 -0.1864 -1.6478  3.8456
12676TIP3    H237974   7.103   3.482   0.602 -0.4615 -0.6379  1.6976
12677TIP3   OH237975   0.524   4.615   4.750  0.1471 -0.5266  0.1323
12677TIP3    H137976   0.486   4.680   4.808 -0.4473 -0.9076  0.1788
12677TIP3    H237977   0.573   4.557   4.808 -0.0247 -0.6096  0.1972
12678TIP3   OH237978   1.741   2.719   4.817 -0.6803 -0.0082  0.2589
12678TIP3    H137979   1.805   2.751   4.752 -0.7080  1.6345  0.9806
12678TIP3    H237980   1.722   2.796   4.870 -1.2973 -1.1241  1.7008
12679TIP3   OH237981   2.061   3.180   5.468  0.2374 -0.3064  0.5518
12679TIP3    H137982   2.083   3.273   5.460 -0.9759  0.0240  0.7517
12679TIP3    H237983   2.061   3.148   5.377  0.8010 -0.1460  0.4941
12680TIP3   OH237984   2.504   6.607   1.388 -0.4109 -0.0274 -0.2046
12680TIP3    H137985   2.507   6.573   1.478  0.4291  0.2897 -0.1072
12680TIP3    H237986   2.513   6.702   1.398 -1.5908  0.1488 -0.5513
12681TIP3   OH237987   0.389   2.206   3.047 -0.0769  0.1221 -0.3988
12681TIP3    H137988   0.473   2.240   3.016  0.1549  0.9155  0.9874
12681TIP3    H237989   0.329   2.281   3.039 -0.3245 -0.0518 -0.1863
12682TIP3   OH237990   3.417   6.817   5.012  0.1943  0.1642 -0.2805
12682TIP3    H137991   3.363   6.858   4.944  0.6079 -0.8946 -1.2895
12682TIP3    H237992   3.411   6.723   4.994 -3.1175 -0.6746  3.7128
12683TIP3   OH237993   2.943   1.443   1.742  0.1295 -0.2817  0.0652
12683TIP3    H137994   2.916   1.531   1.767 -0.2943 -0.7956  1.5337
12683TIP3    H237995   2.894   1.424   1.662 -0.9240  0.2521  0.5664
12684TIP3   OH237996   4.853   6.151   5.167 -0.0917 -0.2828 -0.2961
12684TIP3    H137997   4.809   6.066   5.166  0.3876 -0.5275 -0.8704
12684TIP3    H237998   4.926   6.140   5.227 -1.6810  0.5936  1.9409
12685TIP3   OH237999   5.734   6.809   5.243  0.4876  0.7248  0.0402
12685TIP3    H138000   5.711   6.866   5.170  0.2896 -0.4758 -0.8607
12685TIP3    H238001   5.802   6.856   5.290  0.2341  1.7560 -0.6063
12686TIP3   OH238002   3.582   0.108   5.211 -0.3144  0.4875  0.3193
12686TIP3    H138003   3.660   0.052   5.215 -0.5633  0.0285 -0.9142
12686TIP3    H238004   3.523   0.071   5.277  0.5160  0.8823  1.3202
12687TIP3   OH238005   6.295   2.548   1.209 -0.3806  0.2769 -0.0451
12687TIP3    H138006   6.339   2.549   1.124 -0.7881  1.7488 -0.2556
12687TIP3    H238007   6.258   2.635   1.218 -1.5737 -0.3137  1.0154
12688TIP3   OH238008   8.216   4.362   3.811 -0.1199  0.2262 -0.0129
12688TIP3    H138009   8.121   4.357   3.818  0.0755 -2.2875  2.7266
12688TIP3    H238010   8.244   4.271   3.798  1.9382  0.9194 -0.8192
12689TIP3   OH238011   4.367   0.639   4.758 -0.4964 -0.1301 -0.3813
12689TIP3    H138012   4.409   0.609   4.677 -1.8224 -0.3341 -1.0290
12689TIP3    H238013   4.368   0.563   4.816  2.5521  0.6337  0.7674
12690TIP3   OH238014   0.541   1.479   2.430  0.6305  0.3704  0.0175
12690TIP3    H138015   0.569   1.507   2.343  1.9746  0.4902  0.4657
12690TIP3    H238016   0.470   1.540   2.453  0.9315  0.9574 -0.5892
12691TIP3   OH238017   7.504   3.794   3.110  0.1366  0.1743 -0.3243
12691TIP3    H138018   7.435   3.744   3.155 -0.2720  1.7731  0.9238
12691TIP3    H238019   7.570   3.809   3.178 -0.3871  2.4613 -0.2333
12692TIP3   OH238020   6.594   7.524   0.777 -0.7685 -0.5216 -0.4563
12692TIP3    H138021   6.659   7.592   0.794  0.3381 -1.7393  0.3145
12692TIP3    H238022   6.522   7.545   0.837  0.6617 -1.4591  1.7068
12693TIP3   OH238023   1.497   5.179   5.943 -0.4948 -0.2795 -0.5218
12693TIP3    H138024   1.543   5.106   5.902 -0.2895 -0.4440 -0.0156
12693TIP3    H238025   1.432   5.206   5.879  1.8327  1.5169 -2.3334
12694TIP3   OH238026   3.087   4.749   2.349  0.1435  0.9185  0.6040
12694TIP3    H138027   3.073   4.688   2.277  2.9039  0.5066  0.3166
12694TIP3    H238028   3.025   4.820   2.332  1.2331  1.2596 -2.7264
12695TIP3   OH238029   7.554   3.886   4.772 -0.0315 -0.1523 -0.7343
12695TIP3    H138030   7.561   3.981   4.786  0.5011 -0.4577  1.5504
12695TIP3    H238031   7.580   3.873   4.681 -0.4373  1.9235 -1.1994
12696TIP3   OH238032   7.989   1.637   5.874 -0.6332 -0.0324 -0.7118
12696TIP3    H138033   7.910   1.660   5.826 -0.0218  2.7704 -0.5055
12696TIP3    H238034   7.957   1.591   5.952 -1.8215 -1.3939 -1.9388
12697TIP3   OH238035   3.588   4.708   0.272 -0.5275  0.2910 -0.0136
12697TIP3    H138036   3.548   4.634   0.228 -2.3863  0.3247  1.4938
12697TIP3    H238037   3.635   4.755   0.203  0.0972 -1.8425 -1.1266
12698TIP3   OH238038   6.358   4.917   4.831 -0.0201 -0.2933  0.0924
12698TIP3    H138039   6.448   4.883   4.832  0.7244  1.5266 -0.3649
12698TIP3    H238040   6.320   4.879   4.752  0.2338 -1.2982  0.4306
12699TIP3   OH238041   4.587   3.417   2.299 -0.3746  0.3850 -0.1971
12699TIP3    H138042   4.648   3.407   2.226  0.1130  0.9843  0.1212
12699TIP3    H238043   4.579   3.512   2.311  1.0023  0.3247  1.7150
12700TIP3   OH238044   1.722   0.206   5.701 -0.2461  0.7994  0.0896
12700TIP3    H138045   1.657   0.262   5.743 -0.5841  2.0189 -1.9491
12700TIP3    H238046   1.700   0.117   5.732 -0.7215  1.5428  2.0721
12701TIP3   OH238047   7.741   6.167   1.261 -0.2821 -0.3296  0.0097
12701TIP3    H138048   7.664   6.118   1.232  1.1371 -1.5902 -1.9596
12701TIP3    H238049   7.737   6.249   1.212  0.0523 -0.7714 -0.7779
12702TIP3   OH238050   2.100   5.432   4.177 -0.0769  0.5038 -0.1356
12702TIP3    H138051   2.133   5.520   4.197  2.6940  0.0931 -2.2920
12702TIP3    H238052   2.133   5.378   4.249 -0.9754  1.0377  0.6975
12703TIP3   OH238053   3.755   6.305   2.078  0.0776 -0.1599 -0.5674
12703TIP3    H138054   3.785   6.383   2.125 -0.2435 -0.8518  0.8161
12703TIP3    H238055   3.679   6.335   2.028 -0.2001  0.3634  0.1507
12704TIP3   OH238056   4.477   1.579   3.779  0.1988 -0.1087 -0.2090
12704TIP3    H138057   4.388   1.594   3.747  0.4702 -0.7310 -1.3303
12704TIP3    H238058   4.533   1.620   3.714  0.7324  1.3584  1.1254
12705TIP3   OH238059   7.946   2.272   4.277  0.4914  0.2477 -0.0044
12705TIP3    H138060   7.953   2.286   4.371 -1.6797 -0.4215  0.3104
12705TIP3    H238061   8.029   2.231   4.253  0.2718 -1.5400  2.0187
12706TIP3   OH238062   5.874   1.727   1.257 -0.2997  0.2631  0.2374
12706TIP3    H138063   5.851   1.697   1.345 -0.7382 -0.3758 -0.0858
12706TIP3    H238064   5.791   1.725   1.209  0.0909 -0.3094 -0.4446
12707TIP3   OH238065   1.005   0.626   5.135  0.2055  0.2995 -1.0032
12707TIP3    H138066   0.920   0.663   5.111 -0.6856 -0.3844  0.8777
12707TIP3    H238067   0.985   0.537   5.163  1.7896 -0.4142 -2.0458
12708TIP3   OH238068   2.107   0.160   0.058  0.0878 -0.7897  0.2622
12708TIP3    H138069   2.143   0.092   0.001  0.7634  0.1514 -0.4808
12708TIP3    H238070   2.183   0.191   0.108 -0.2409 -0.6734  0.6907
12709TIP3   OH238071   2.023   5.141   6.451 -0.7317 -0.0764 -0.2133
12709TIP3    H138072   2.061   5.159   6.537  0.8595 -0.2573 -0.8426
12709TIP3    H238073   1.945   5.197   6.447 -0.9505 -0.2180  1.4104
12710TIP3   OH238074   2.728   0.304   4.525 -1.0009 -0.0907  0.4123
12710TIP3    H138075   2.637   0.296   4.498 -0.5770  0.4239 -1.2554
12710TIP3    H238076   2.744   0.399   4.530 -0.7283 -0.1740  1.3381
12711TIP3   OH238077   6.011   2.164   0.206 -0.0824  0.1633 -0.2076
12711TIP3    H138078   6.086   2.194   0.153  1.0580 -2.1419 -0.0006
12711TIP3    H238079   5.935   2.183   0.151  0.8702  0.1996 -1.5743
12712TIP3   OH238080   2.430   2.716   6.242 -1.1047  0.0427  0.0377
12712TIP3    H138081   2.415   2.777   6.170  1.1110 -0.0592 -0.5642
12712TIP3    H238082   2.412   2.630   6.205 -1.3583  0.0939  0.0380
12713TIP3   OH238083   0.123   6.440   2.129  0.3354 -0.2360 -0.0843
12713TIP3    H138084   0.148   6.375   2.194 -1.4000 -0.0249  0.8581
12713TIP3    H238085   0.052   6.398   2.080  0.9137  0.0100 -1.1605
12714TIP3   OH238086   7.237   4.934   0.210 -0.2932 -0.6585  0.6966
12714TIP3    H138087   7.168   4.995   0.238 -0.7041 -0.7339 -0.1069
12714TIP3    H238088   7.189   4.854   0.186  0.1284 -0.9000  0.6533
12715TIP3   OH238089   7.519   3.532   1.128  0.3200 -0.3083 -0.5545
12715TIP3    H138090   7.574   3.598   1.085  1.6568 -0.3469  1.0107
12715TIP3    H238091   7.567   3.450   1.117 -0.5296 -0.7573 -1.0602
12716TIP3   OH238092   1.680   3.262   0.465 -0.3973 -0.5884  0.6609
12716TIP3    H138093   1.664   3.349   0.429  0.6470 -0.6971 -0.1344
12716TIP3    H238094   1.768   3.239   0.434 -0.6845 -1.9593  0.7901
12717TIP3   OH238095   5.658   2.823   5.324 -0.4774 -0.1344 -0.3782
12717TIP3    H138096   5.655   2.918   5.331 -1.9154 -0.2275  1.0084
12717TIP3    H238097   5.720   2.795   5.392 -0.5392 -0.2073 -0.3505
12718TIP3   OH238098   3.593   2.224   4.820  0.4946  0.0227  0.6782
12718TIP3    H138099   3.675   2.273   4.819 -0.9368  2.5779 -0.6414
12718TIP3    H238100   3.619   2.133   4.801  3.0235  0.6537  0.7844
12719TIP3   OH238101   1.158   6.090   4.348 -0.0711  0.2164  0.2288
12719TIP3    H138102   1.175   6.174   4.305 -1.8971  1.1119  1.1676
12719TIP3    H238103   1.246   6.056   4.369  0.6991  2.4231  0.8519
12720TIP3   OH238104   7.429   0.952   4.025  0.0495  0.2069 -0.1478
12720TIP3    H138105   7.360   0.886   4.035  0.0094  0.2270 -0.2921
12720TIP3    H238106   7.383   1.036   4.027  0.2249  0.2919  1.2597
12721TIP3   OH238107   1.910   0.573   1.191 -0.0576  0.8314  0.2798
12721TIP3    H138108   1.855   0.576   1.113  0.7364  0.6522 -0.2885
12721TIP3    H238109   1.849   0.591   1.263 -1.3510 -1.6030 -0.0820
12722TIP3   OH238110   6.679   0.504   2.745 -0.3207  0.2746 -0.9829
12722TIP3    H138111   6.590   0.493   2.779 -0.0423  0.4600 -0.1683
12722TIP3    H238112   6.682   0.595   2.714 -0.5645  0.1156 -1.4834
12723TIP3   OH238113   5.953   5.476   6.415 -0.5476 -0.5295 -0.3204
12723TIP3    H138114   5.871   5.432   6.440 -1.0058  0.0328 -0.8200
12723TIP3    H238115   5.930   5.528   6.339  0.4459 -0.9118 -0.8995
12724TIP3   OH238116   6.205   5.077   2.494 -0.6500  0.8955  0.4837
12724TIP3    H138117   6.212   5.169   2.517 -0.6293  1.0965 -0.3039
12724TIP3    H238118   6.295   5.044   2.501 -0.4807  1.1854 -0.2292
12725TIP3   OH238119   4.321   3.439   6.306  0.1379  0.3198  0.0373
12725TIP3    H138120   4.342   3.367   6.246  0.2233  0.6288 -0.3029
12725TIP3    H238121   4.396   3.497   6.302  0.8478 -0.4229  1.6368
12726TIP3   OH238122   1.418   3.835   4.594  0.8336 -0.0290  0.1523
12726TIP3    H138123   1.494   3.793   4.635 -0.2239 -0.9741  1.2300
12726TIP3    H238124   1.404   3.915   4.645  0.7855 -0.1387  0.3142
12727TIP3   OH238125   6.749   3.796   5.487  0.4072 -0.4160 -0.1742
12727TIP3    H138126   6.767   3.845   5.567  1.8364 -0.8166 -0.2389
12727TIP3    H238127   6.671   3.839   5.451  2.1403  2.5271 -0.7647
12728TIP3   OH238128   6.770   5.387   1.689  0.2484 -0.7283 -0.2919
12728TIP3    H138129   6.705   5.457   1.694  1.8922  1.1810 -3.0325
12728TIP3    H238130   6.736   5.328   1.622  1.2409  0.2874 -1.7482
12729TIP3   OH238131   4.821   5.281   2.733 -0.1313  0.4290  0.6360
12729TIP3    H138132   4.766   5.256   2.659 -0.0819 -1.0261  1.0551
12729TIP3    H238133   4.902   5.314   2.693  0.4339 -1.5937  0.0019
12730TIP3   OH238134   4.357   4.263   3.211 -0.3334  0.2358  0.1256
12730TIP3    H138135   4.313   4.210   3.278  0.7896 -0.8541  0.0220
12730TIP3    H238136   4.378   4.345   3.256  1.1303 -0.7834  1.3945
12731TIP3   OH238137   8.139   7.565   4.859 -0.3958 -0.4625  0.1484
12731TIP3    H138138   8.192   7.525   4.927  0.5359 -0.3768 -0.5088
12731TIP3    H238139   8.127   7.496   4.794  0.8880  0.1821 -0.8025
12732TIP3   OH238140   2.630   4.325   2.452  0.0271 -0.0136  0.0961
12732TIP3    H138141   2.546   4.371   2.453  0.9820  1.8440 -0.3230
12732TIP3    H238142   2.638   4.293   2.362 -0.1600 -0.0687  0.0973
12733TIP3   OH238143   5.786   5.735   5.632 -0.0892  0.1157  0.2140
12733TIP3    H138144   5.847   5.722   5.704 -0.4837 -0.7670  0.4011
12733TIP3    H238145   5.704   5.696   5.663 -0.5160  0.5337 -0.3610
12734TIP3   OH238146   2.583   6.255   6.414  0.4186  0.2652 -0.1860
12734TIP3    H138147   2.655   6.302   6.456 -0.1948 -0.4295  1.7393
12734TIP3    H238148   2.614   6.237   6.325  1.8255  1.6766 -0.0183
12735TIP3   OH238149   5.788   1.725   4.290 -0.5377  0.0890 -0.1055
12735TIP3    H138150   5.777   1.711   4.196 -1.1654 -0.4076  0.0385
12735TIP3    H238151   5.859   1.667   4.315  3.1337  3.6550 -1.1285
12736TIP3   OH238152   3.446   4.116   1.857  0.2333 -0.3886 -0.2323
12736TIP3    H138153   3.437   4.176   1.932  0.3547 -1.1568  0.4041
12736TIP3    H238154   3.378   4.050   1.872  0.6317 -0.8553 -0.5086
12737TIP3   OH238155   7.431   1.214   6.560 -0.3223 -0.5216  0.5664
12737TIP3    H138156   7.445   1.123   6.584 -1.6255 -1.0047 -0.3665
12737TIP3    H238157   7.340   1.232   6.586  0.7527  1.4312  3.4055
12738TIP3   OH238158   6.224   6.753   6.753 -0.1175  0.1691 -0.4807
12738TIP3    H138159   6.211   6.843   6.781  0.7065 -0.0648  0.7628
12738TIP3    H238160   6.182   6.747   6.667 -0.9376  1.4901 -0.1860
12739TIP3   OH238161   6.872   2.111   6.402 -0.0153  0.1196  0.4433
12739TIP3    H138162   6.882   2.206   6.401 -1.2211  0.5062 -5.2555
12739TIP3    H238163   6.790   2.095   6.355  0.3330 -3.7757  0.8764
12740TIP3   OH238164   6.444   2.261   6.149  0.4912 -0.6879 -0.0195
12740TIP3    H138165   6.447   2.288   6.057  1.9169 -2.8682 -0.6980
12740TIP3    H238166   6.524   2.298   6.187  0.6264 -0.9663 -0.0307
12741TIP3   OH238167   3.626   7.548   4.560  0.1115 -0.0914  0.2658
12741TIP3    H138168   3.645   7.501   4.642  1.4238  1.0957  0.6790
12741TIP3    H238169   3.709   7.586   4.535 -0.6274  0.8579 -0.8075
12742TIP3   OH238170   6.168   4.007   2.092 -0.5817 -0.3465 -0.7713
12742TIP3    H138171   6.098   3.971   2.146  0.5163 -0.6168  0.5541
12742TIP3    H238172   6.233   4.037   2.156 -0.1451  1.2607 -1.9111
12743TIP3   OH238173   6.432   4.164   4.206  0.1201  0.3310 -0.5679
12743TIP3    H138174   6.380   4.086   4.226  2.7318 -1.2067  0.6889
12743TIP3    H238175   6.397   4.231   4.265  0.1484 -0.9148  0.9304
12744TIP3   OH238176   1.786   4.776   0.735  0.5668  0.7614  0.1083
12744TIP3    H138177   1.691   4.793   0.733  0.6283  1.1839  0.5608
12744TIP3    H238178   1.826   4.857   0.703  0.7448  0.1152 -1.4124
12745TIP3   OH238179   2.985   0.849   3.992  0.1832 -0.2014 -0.2406
12745TIP3    H138180   2.951   0.920   4.046 -2.3869 -2.3350  1.2215
12745TIP3    H238181   2.995   0.888   3.905  1.1272  2.4742  0.9538
12746TIP3   OH238182   3.025   0.869   5.211 -0.0488 -0.1501  0.1952
12746TIP3    H138183   2.939   0.873   5.252 -0.5839 -0.1540 -0.8881
12746TIP3    H238184   3.029   0.784   5.169 -0.4852  0.7197 -1.7363
12747TIP3   OH238185   2.992   4.233   5.025 -0.1418 -0.6999 -0.3260
12747TIP3    H138186   3.001   4.173   4.951  1.0981  0.7562 -1.4195
12747TIP3    H238187   3.067   4.214   5.081 -0.7751 -1.4205  0.2950
12748TIP3   OH238188   3.839   1.958   0.411  0.2487  0.4934  0.4277
12748TIP3    H138189   3.880   1.926   0.331 -0.6476  0.8008 -0.1732
12748TIP3    H238190   3.745   1.958   0.391 -0.0083  0.3208  1.5733
12749TIP3   OH238191   3.264   4.444   2.677 -0.3477  0.0699 -0.2856
12749TIP3    H138192   3.189   4.430   2.619 -2.1093 -1.1422  2.0671
12749TIP3    H238193   3.295   4.531   2.656 -0.9325 -0.2784 -2.9254
12750TIP3   OH238194   7.663   2.680   3.476  0.3822  0.1729 -0.5962
12750TIP3    H138195   7.575   2.672   3.441 -0.1064  1.7492  0.1403
12750TIP3    H238196   7.720   2.672   3.400 -0.5553  1.7466 -1.5370
12751TIP3   OH238197   4.831   0.397   6.387  0.2934 -0.2115 -0.2295
12751TIP3    H138198   4.847   0.489   6.368 -2.0850  0.1279 -0.9839
12751TIP3    H238199   4.918   0.358   6.397  1.3337  2.2011  0.6709
12752TIP3   OH238200   0.753   6.287   4.430  0.1947 -0.0143  0.7210
12752TIP3    H138201   0.699   6.255   4.502 -0.2463  0.3983  0.5746
12752TIP3    H238202   0.751   6.217   4.365  1.3443 -0.7884  1.4779
12753TIP3   OH238203   6.102   1.475   5.850 -0.4300 -0.0919  0.1818
12753TIP3    H138204   6.099   1.455   5.943  2.1313  0.0543  0.3680
12753TIP3    H238205   6.100   1.389   5.807 -0.4029 -0.2106  0.4183
12754TIP3   OH238206   7.222   4.056   1.048 -1.0082 -0.0114 -0.0618
12754TIP3    H138207   7.155   4.120   1.023  1.2634  1.5530 -2.7497
12754TIP3    H238208   7.215   3.987   0.983 -1.3748 -0.9549  0.9492
12755TIP3   OH238209   2.312   1.632   0.461 -0.8053 -0.6449 -0.0012
12755TIP3    H138210   2.383   1.646   0.524  0.5264 -0.1857 -1.5317
12755TIP3    H238211   2.234   1.667   0.504  0.0346 -0.4715  1.4367
12756TIP3   OH238212   6.242   0.920   2.395  0.1966 -0.4810 -0.2040
12756TIP3    H138213   6.209   0.835   2.425 -1.7133  0.2940  0.0614
12756TIP3    H238214   6.315   0.940   2.454 -0.3639 -1.2115  0.7772
12757TIP3   OH238215   6.479   4.699   2.292  0.3655  0.3379 -0.6495
12757TIP3    H138216   6.520   4.706   2.378 -1.0643  1.4002 -0.0172
12757TIP3    H238217   6.515   4.618   2.255  1.8394  0.4380  0.4758
12758TIP3   OH238218   1.583   3.623   4.266 -0.0923 -0.1945 -0.1228
12758TIP3    H138219   1.538   3.607   4.349  1.8906  0.4455  1.1449
12758TIP3    H238220   1.644   3.550   4.258  0.6491  0.4326 -0.3293
12759TIP3   OH238221   7.523   6.592   3.808  0.0763  0.0995  0.2339
12759TIP3    H138222   7.578   6.515   3.796 -0.8779 -0.4308 -0.9229
12759TIP3    H238223   7.543   6.648   3.732  1.4538  1.4843  1.5233
12760TIP3   OH238224   4.619   3.658   3.532 -0.4912 -0.8820 -0.2297
12760TIP3    H138225   4.561   3.724   3.494 -0.2959 -0.7902 -0.3709
12760TIP3    H238226   4.689   3.708   3.574 -0.2749 -0.9965 -0.4443
12761TIP3   OH238227   3.255   0.211   2.824  0.2760  0.1068 -0.3074
12761TIP3    H138228   3.342   0.251   2.828  0.2586  0.4897 -2.5787
12761TIP3    H238229   3.270   0.119   2.842  0.8646  0.4595  1.1320
12762TIP3   OH238230   5.091   6.822   2.520  1.0371  0.2330  0.7155
12762TIP3    H138231   5.096   6.911   2.487  2.2248  0.6148  1.8340
12762TIP3    H238232   5.067   6.769   2.444  1.1621  1.3966 -0.1540
12763TIP3   OH238233   0.886   0.621   5.849 -0.4470 -0.1073 -0.1595
12763TIP3    H138234   0.837   0.687   5.801  0.5872  0.0603 -1.0374
12763TIP3    H238235   0.855   0.629   5.939 -1.4772  0.4786 -0.5452
12764TIP3   OH238236   3.023   0.285   0.315  0.3297 -0.6334 -0.5474
12764TIP3    H138237   3.057   0.300   0.226  0.9322 -0.2833 -0.2597
12764TIP3    H238238   3.008   0.372   0.350  0.3796 -0.7679 -0.1906
12765TIP3   OH238239   1.372   7.671   6.300 -0.2464  0.4458 -0.3148
12765TIP3    H138240   1.333   7.689   6.386  0.1431 -0.2772  0.0223
12765TIP3    H238241   1.416   7.587   6.311 -0.1990  0.3434 -1.2309
12766TIP3   OH238242   0.165   6.765   0.973 -0.1214 -0.0090  0.3167
12766TIP3    H138243   0.241   6.821   0.990  0.8829 -1.2596  0.1398
12766TIP3    H238244   0.166   6.750   0.879 -0.0078 -0.7898  0.4307
12767TIP3   OH238245   2.269   7.719   5.194 -0.0318  0.0922  0.1363
12767TIP3    H138246   2.177   7.708   5.216  0.0884 -0.1813  0.5170
12767TIP3    H238247   2.270   7.732   5.099 -0.5288  0.9958  0.2526
12768TIP3   OH238248   1.690   5.216   3.554  0.1058  0.0237  0.2891
12768TIP3    H138249   1.739   5.298   3.547 -0.3606  0.2752 -0.1908
12768TIP3    H238250   1.720   5.164   3.479  0.4653 -0.2807  0.6436
12769TIP3   OH238251   8.215   4.243   4.178  0.3570  0.1777 -0.3858
12769TIP3    H138252   8.177   4.228   4.264  0.8786  0.3975 -0.1157
12769TIP3    H238253   8.250   4.157   4.152  1.3413  0.3897  0.1871
12770TIP3   OH238254   1.097   3.274   3.614 -0.0917  0.2746  0.3929
12770TIP3    H138255   1.085   3.368   3.631  0.2677  0.3524  0.2276
12770TIP3    H238256   1.134   3.271   3.525 -0.3644 -0.0375  0.2903
12771TIP3   OH238257   3.855   2.496   2.721 -0.8856  0.0282  0.0962
12771TIP3    H138258   3.884   2.568   2.778  3.0766 -1.5170  0.3332
12771TIP3    H238259   3.899   2.513   2.637 -2.8667 -0.2355 -1.0494
12772TIP3   OH238260   3.935   7.353   2.144 -0.3150 -0.3249  0.1929
12772TIP3    H138261   3.865   7.357   2.209 -0.4350 -0.7510  0.0994
12772TIP3    H238262   4.000   7.416   2.174 -0.1269 -0.8828  1.0228
12773TIP3   OH238263   6.963   3.939   2.617 -0.3951 -0.0639 -0.3998
12773TIP3    H138264   6.946   3.955   2.710  1.8209 -3.3366  0.7849
12773TIP3    H238265   6.892   3.881   2.590 -0.3054 -0.2276 -0.2942
12774TIP3   OH238266   3.306   6.266   5.373 -0.2969 -0.3369  0.2717
12774TIP3    H138267   3.329   6.173   5.371  0.8330 -0.1586  2.2605
12774TIP3    H238268   3.219   6.270   5.333  0.5811 -1.8796 -2.0224
12775TIP3   OH238269   5.649   2.145   3.420  0.1267 -0.6775  0.3335
12775TIP3    H138270   5.585   2.187   3.477 -0.4138 -0.0722 -0.6737
12775TIP3    H238271   5.703   2.218   3.387  1.0056 -1.1178  0.7552
12776TIP3   OH238272   4.507   4.634   2.470 -0.6538  0.6177  0.6322
12776TIP3    H138273   4.583   4.641   2.411 -1.7933 -0.4940 -1.0667
12776TIP3    H238274   4.545   4.632   2.558  1.2355  0.7902 -0.1212
12777TIP3   OH238275   7.182   5.811   4.430 -0.1606  0.0553  0.0009
12777TIP3    H138276   7.242   5.832   4.358 -1.8755 -0.3146 -1.6250
12777TIP3    H238277   7.236   5.818   4.509  1.6251  1.2137 -1.2375
12778TIP3   OH238278   1.806   2.825   2.024  0.2048 -0.5308  0.2429
12778TIP3    H138279   1.730   2.799   2.076  0.3918 -0.8526  0.3614
12778TIP3    H238280   1.822   2.750   1.966 -0.4348  0.1028 -0.7913
12779TIP3   OH238281   0.195   6.290   5.306  0.4412 -0.0154 -0.0885
12779TIP3    H138282   0.240   6.254   5.382  0.2244  0.2015  0.1447
12779TIP3    H238283   0.198   6.221   5.240  1.4561  0.1355 -0.2096
12780TIP3   OH238284   5.229   4.016   5.877  0.3735 -0.5521 -0.0797
12780TIP3    H138285   5.239   3.992   5.969 -1.2804 -0.3714  0.1637
12780TIP3    H238286   5.159   3.960   5.844  0.8031 -0.4725 -1.1923
12781TIP3   OH238287   7.225   3.157   1.367  0.4561 -0.6807  0.5717
12781TIP3    H138288   7.164   3.173   1.295 -0.1009 -0.9526  0.9702
12781TIP3    H238289   7.174   3.107   1.430  1.2124 -1.2525  0.7451
12782TIP3   OH238290   0.360   3.550   4.583 -0.1460 -0.1318 -0.0140
12782TIP3    H138291   0.343   3.468   4.630  2.6606 -1.9790 -1.8696
12782TIP3    H238292   0.421   3.597   4.639  2.2144 -1.7559 -1.0567
12783TIP3   OH238293   2.747   5.160   4.204  0.2797 -0.2650 -0.7289
12783TIP3    H138294   2.740   5.215   4.282 -1.7274 -0.6353 -0.5952
12783TIP3    H238295   2.780   5.218   4.136 -2.9863  1.5430 -0.9289
12784TIP3   OH238296   7.844   0.590   2.555  0.1615  0.1726  0.3078
12784TIP3    H138297   7.788   0.662   2.582  0.6645  0.8075 -0.3120
12784TIP3    H238298   7.810   0.563   2.470  1.6649  1.5645 -0.8073
12785TIP3   OH238299   5.672   4.063   2.667 -0.9234 -0.4208  0.3598
12785TIP3    H138300   5.580   4.040   2.655 -1.1413  1.4052 -2.1964
12785TIP3    H238301   5.717   4.019   2.596 -0.2159  0.7525  0.0659
12786TIP3   OH238302   1.978   3.821   1.942  0.5553 -0.1623 -0.4109
12786TIP3    H138303   1.909   3.755   1.944 -0.9844  1.3779  0.2371
12786TIP3    H238304   2.014   3.821   2.030 -1.1394  1.4647  0.3605
12787TIP3   OH238305   7.948   3.911   1.991 -0.2655  0.2438 -0.1477
12787TIP3    H138306   7.986   3.959   2.064 -1.6173  1.7942 -0.3980
12787TIP3    H238307   7.860   3.889   2.020  0.0251 -1.3961 -0.3828
12788TIP3   OH238308   0.442   4.962   6.150  0.1843 -0.6364  0.0974
12788TIP3    H138309   0.383   4.892   6.120 -0.5730  0.3963 -0.8928
12788TIP3    H238310   0.529   4.921   6.148  0.0748 -0.9436 -2.6869
12789TIP3   OH238311   7.000   7.036   6.292 -0.1860  0.5759 -0.9319
12789TIP3    H138312   7.041   7.117   6.323 -1.6078  1.4530 -1.2543
12789TIP3    H238313   6.925   7.023   6.350 -1.0947  0.5677 -2.0631
12790TIP3   OH238314   1.013   0.185   5.989  0.4739  0.6467  0.9795
12790TIP3    H138315   1.051   0.272   5.998  2.5596 -0.3424  2.7091
12790TIP3    H238316   0.951   0.178   6.061  0.0905  0.7940  0.6658
12791TIP3   OH238317   4.806   1.958   3.710 -1.0529  0.7691 -0.4201
12791TIP3    H138318   4.783   1.896   3.780  0.2946  0.2389 -0.4069
12791TIP3    H238319   4.844   1.903   3.642  2.1171  1.6892  0.4191
12792TIP3   OH238320   0.818   5.599   3.019  0.5664 -0.5826 -0.1440
12792TIP3    H138321   0.744   5.632   3.069  0.8066  1.2411 -0.8878
12792TIP3    H238322   0.869   5.547   3.082  0.5098  1.0665  1.3505
12793TIP3   OH238323   7.742   7.738   3.091 -0.0990 -0.0652 -0.5306
12793TIP3    H138324   7.683   7.695   3.152  1.6416 -1.1970  0.4324
12793TIP3    H238325   7.786   7.806   3.143  1.3714 -1.0148 -0.4617
12794TIP3   OH238326   0.057   3.878   5.833 -0.0367  0.3775  0.2909
12794TIP3    H138327   0.066   3.957   5.886  1.1732  0.0716  0.5650
12794TIP3    H238328  -0.014   3.829   5.874  0.6864  0.2877  1.4617
12795TIP3   OH238329   3.933   7.039   6.200  0.1871  0.4130  0.0940
12795TIP3    H138330   3.959   6.998   6.282  0.0334  2.7304  1.4073
12795TIP3    H238331   4.003   7.017   6.138 -0.8698 -3.3900  0.0446
12796TIP3   OH238332   7.517   0.756   0.883 -0.1001 -0.2058 -0.2848
12796TIP3    H138333   7.534   0.695   0.811 -0.3753 -1.0813  0.3771
12796TIP3    H238334   7.435   0.799   0.859 -0.7679 -1.2745 -0.0093
12797TIP3   OH238335   1.428   1.795   2.568 -0.2668  0.1745  0.2461
12797TIP3    H138336   1.467   1.707   2.566  1.5092  0.8701  1.8163
12797TIP3    H238337   1.366   1.795   2.496 -0.3332 -2.3859  0.2180
12798TIP3   OH238338   7.763   5.313   4.710 -0.2488  0.1842  0.5473
12798TIP3    H138339   7.857   5.311   4.729  0.4758 -2.0032 -2.4750
12798TIP3    H238340   7.733   5.396   4.745  1.9763 -0.5697  4.8809
12799TIP3   OH238341   7.633   4.831   3.636 -0.2109 -0.2584 -0.4483
12799TIP3    H138342   7.721   4.797   3.655  0.2288  0.9326 -0.2274
12799TIP3    H238343   7.583   4.755   3.607  1.0944 -0.8579 -1.2328
12800TIP3   OH238344   2.213   4.849   4.962  0.6663 -0.2913  0.5680
12800TIP3    H138345   2.289   4.808   4.922  0.5139  0.7865 -0.8895
12800TIP3    H238346   2.249   4.908   5.028  1.1414  0.6054 -0.4767
12801TIP3   OH238347   6.555   3.655   2.597 -0.3043 -0.3863 -0.1775
12801TIP3    H138348   6.492   3.717   2.560 -0.0883 -0.0985 -0.0562
12801TIP3    H238349   6.500   3.589   2.640 -0.5952 -1.1223 -1.5941
12802TIP3   OH238350   4.523   6.275   3.002  0.3953 -0.4363  0.4003
12802TIP3    H138351   4.475   6.335   3.060  0.0120 -0.9803  0.6598
12802TIP3    H238352   4.577   6.223   3.062 -1.2769 -2.1814  0.4833
12803TIP3   OH238353   2.197   0.918   6.597  0.4226  0.3126 -0.0359
12803TIP3    H138354   2.191   0.860   6.673  0.9387  0.0311 -0.2010
12803TIP3    H238355   2.121   0.975   6.603  0.7578  0.6680  1.0067
12804TIP3   OH238356   8.032   5.319   4.710  0.0609  0.5968 -0.1440
12804TIP3    H138357   8.049   5.313   4.804 -0.3130  0.7423 -0.0642
12804TIP3    H238358   8.113   5.355   4.673 -0.2591  1.8494  0.3076
12805TIP3   OH238359   4.952   5.891   4.184 -0.0837 -0.1599 -0.2551
12805TIP3    H138360   4.884   5.903   4.249  0.4451  1.6767  0.0338
12805TIP3    H238361   5.023   5.948   4.213  1.2802 -1.4193 -0.9649
12806TIP3   OH238362   3.665   6.101   4.589  0.5050  0.4521 -0.1625
12806TIP3    H138363   3.604   6.028   4.588  1.5526 -0.4629  0.8029
12806TIP3    H238364   3.609   6.179   4.583 -0.8225 -0.3184  1.4564
12807TIP3   OH238365   0.451   2.313   0.834 -0.0881 -0.4712 -0.0317
12807TIP3    H138366   0.368   2.352   0.860  0.1731  1.1596 -1.4572
12807TIP3    H238367   0.516   2.356   0.889  0.0076 -0.1790 -0.3639
12808TIP3   OH238368   1.933   4.393   3.216 -0.4256  0.1672  0.5819
12808TIP3    H138369   1.998   4.348   3.271  0.2446 -0.5986 -0.7856
12808TIP3    H238370   1.984   4.454   3.164 -0.6577 -0.9256 -1.0010
12809TIP3   OH238371   1.513   1.565   0.596 -0.2200 -0.1453  0.5159
12809TIP3    H138372   1.428   1.522   0.585 -0.1263 -0.7647  1.9157
12809TIP3    H238373   1.494   1.658   0.585 -0.6989 -0.4045 -1.1324
12810TIP3   OH238374   7.595   3.151   0.916  0.7814  0.2196 -0.0651
12810TIP3    H138375   7.608   3.206   0.993  0.8051  0.6169 -0.3493
12810TIP3    H238376   7.502   3.125   0.921  1.0371 -0.6066  0.6431
12811TIP3   OH238377   1.726   0.318   5.378 -0.2080  0.2790  0.2405
12811TIP3    H138378   1.808   0.273   5.357 -0.1165  0.0211  1.0959
12811TIP3    H238379   1.733   0.339   5.471 -0.6036  1.3479  0.0456
12812TIP3   OH238380   0.121   5.276   3.924  0.8765  0.1422 -0.1817
12812TIP3    H138381   0.042   5.238   3.885  2.4326 -1.4105 -2.0144
12812TIP3    H238382   0.168   5.315   3.849  1.6695  1.4341  0.9359
12813TIP3   OH238383   5.991   1.261   2.626  0.5195 -0.0946  0.2436
12813TIP3    H138384   6.035   1.195   2.680 -0.5143  0.0839  1.3384
12813TIP3    H238385   5.898   1.240   2.632 -0.1050  2.5993  2.3297
12814TIP3   OH238386   2.113   6.569   5.423  0.1527 -0.2412  0.1224
12814TIP3    H138387   2.044   6.526   5.473 -1.2772  1.2220 -0.4876
12814TIP3    H238388   2.192   6.519   5.443 -0.9103 -1.4589  1.5202
12815TIP3   OH238389   4.296   7.734   4.098 -0.0807 -0.3183  0.2535
12815TIP3    H138390   4.247   7.775   4.027 -1.2559 -1.9647  0.0580
12815TIP3    H238391   4.247   7.755   4.177 -1.2832 -2.0693  0.0447
12816TIP3   OH238392   5.539   5.543   5.532  0.1805  0.0496 -0.3583
12816TIP3    H138393   5.605   5.474   5.524  1.9686  1.4956  1.0026
12816TIP3    H238394   5.513   5.541   5.624  0.3616  1.2254 -0.2622
12817TIP3   OH238395   4.031   6.863   5.806  0.0949 -0.3056  0.3322
12817TIP3    H138396   4.071   6.900   5.884  0.4656  1.4651 -0.6319
12817TIP3    H238397   4.078   6.905   5.733 -1.3289 -0.6433 -0.8324
12818TIP3   OH238398   7.524   0.196   3.471  0.6087  0.7235  0.4722
12818TIP3    H138399   7.433   0.212   3.497  0.9135  0.6813  1.6447
12818TIP3    H238400   7.575   0.221   3.548  1.4687 -0.8511  0.4656
12819TIP3   OH238401   0.220   5.159   2.772 -0.1142 -0.2848  0.0038
12819TIP3    H138402   0.196   5.078   2.817 -0.1788 -0.6536 -0.6813
12819TIP3    H238403   0.210   5.227   2.839 -2.0253 -0.5553  0.0687
12820TIP3   OH238404   7.088   6.259   6.433  0.0754 -0.0876 -0.0710
12820TIP3    H138405   7.103   6.353   6.445  1.0712 -0.4571  2.1861
12820TIP3    H238406   7.006   6.242   6.479 -0.2460 -0.2987 -0.7084
12821TIP3   OH238407   3.771   5.954   4.259 -0.3099  0.6301 -0.5088
12821TIP3    H138408   3.682   5.989   4.247 -0.2016  0.8708 -0.6152
12821TIP3    H238409   3.823   5.998   4.192 -0.1006  0.5200 -0.4187
12822TIP3   OH238410   2.505   3.528   6.243  0.3254 -0.3811 -0.4555
12822TIP3    H138411   2.501   3.616   6.206  0.2092 -0.0456  0.3361
12822TIP3    H238412   2.453   3.474   6.183 -0.2689  0.2484 -0.5145
12823TIP3   OH238413   8.149   3.448   4.551  0.0471  0.1923  0.2993
12823TIP3    H138414   8.078   3.508   4.527 -0.4191 -0.9192 -1.2303
12823TIP3    H238415   8.211   3.453   4.479 -0.1348 -1.3360 -0.0063
12824TIP3   OH238416   1.594   4.801   1.419  0.1900  0.3910 -0.0124
12824TIP3    H138417   1.657   4.784   1.489  0.6841 -1.3723 -0.8136
12824TIP3    H238418   1.604   4.726   1.360 -0.4770  1.6188 -1.7677
12825TIP3   OH238419   0.919   5.262   0.496 -0.2454  0.0551  0.0082
12825TIP3    H138420   0.926   5.194   0.428 -1.8083 -1.0227  0.8523
12825TIP3    H238421   0.825   5.272   0.510  0.0257  0.7134  1.5504
12826TIP3   OH238422   7.537   3.002   6.688 -0.0077 -0.2284 -0.9364
12826TIP3    H138423   7.524   3.023   6.596  2.7350 -0.5790 -1.4997
12826TIP3    H238424   7.552   3.086   6.731  1.5073 -0.2459 -1.3835
12827TIP3   OH238425   8.092   6.790   3.177  0.6068  0.2399 -0.2688
12827TIP3    H138426   8.083   6.863   3.116 -1.5956 -1.2548 -1.8802
12827TIP3    H238427   8.164   6.738   3.142  2.2611  1.5721  0.9487
12828TIP3   OH238428   4.695   7.526   2.573 -0.2447  0.8196 -0.3687
12828TIP3    H138429   4.756   7.599   2.587 -2.6790  3.0636 -0.6718
12828TIP3    H238430   4.662   7.539   2.485  0.5056 -1.7614 -1.1083
12829TIP3   OH238431   4.261   3.735   2.966 -0.3474 -0.5921 -0.2392
12829TIP3    H138432   4.200   3.804   2.990 -0.4623 -1.2041  1.3505
12829TIP3    H238433   4.335   3.780   2.926 -1.2665  0.2605 -1.0314
12830TIP3   OH238434   6.003   3.856   1.616 -0.2313  0.2446 -0.0972
12830TIP3    H138435   5.909   3.872   1.610 -0.3773 -0.2982  0.5481
12830TIP3    H238436   6.024   3.874   1.708  0.2180  0.0190 -0.1554
12831TIP3   OH238437   6.713   7.559   2.822  0.0464 -0.2079 -0.0673
12831TIP3    H138438   6.699   7.642   2.777  0.2779  0.6661  1.4199
12831TIP3    H238439   6.782   7.577   2.885 -1.1018 -1.0459  1.4996
12832TIP3   OH238440   5.010   1.803   2.414  0.4534  0.1093 -0.0381
12832TIP3    H138441   5.031   1.791   2.322  0.3548  2.5754 -0.4419
12832TIP3    H238442   4.915   1.788   2.419  0.3582  0.5508 -0.4608
12833TIP3   OH238443   7.571   2.230   1.300 -0.8383  0.3856 -0.1107
12833TIP3    H138444   7.622   2.166   1.252  0.9132  0.9634  0.9146
12833TIP3    H238445   7.530   2.284   1.231 -0.1721 -0.1470 -0.9454
12834TIP3   OH238446   5.350   0.341   6.255  0.1086  0.2784  0.5698
12834TIP3    H138447   5.372   0.425   6.296 -0.0638 -0.0879  1.4374
12834TIP3    H238448   5.258   0.349   6.232 -0.2942 -0.1560  1.9225
12835TIP3   OH238449   1.571   1.116   3.717  0.2252 -0.0568  0.6941
12835TIP3    H138450   1.487   1.162   3.726 -0.0704 -0.1223 -1.2512
12835TIP3    H238451   1.557   1.033   3.762 -1.2501 -0.6146 -0.6754
12836TIP3   OH238452   1.469   4.651   2.739 -0.1037 -0.0821  0.1779
12836TIP3    H138453   1.543   4.699   2.703 -1.5441  2.0255 -0.1444
12836TIP3    H238454   1.429   4.608   2.663 -0.2724  0.3184  0.0348
12837TIP3   OH238455   2.543   3.042   3.189  0.2005 -0.2157  0.1679
12837TIP3    H138456   2.631   3.017   3.158  0.6418 -0.3954  1.4996
12837TIP3    H238457   2.509   2.962   3.228 -0.5353 -0.1158 -0.2589
12838TIP3   OH238458   4.565   6.104   0.223 -0.1753 -0.5046 -1.0362
12838TIP3    H138459   4.599   6.022   0.188 -1.7362 -1.2886 -0.7884
12838TIP3    H238460   4.491   6.079   0.277 -0.3718  1.0361 -0.5350
12839TIP3   OH238461   6.662   4.916   6.434 -0.2341  0.2770 -0.0077
12839TIP3    H138462   6.721   4.858   6.484 -0.5016 -0.2554 -0.3053
12839TIP3    H238463   6.712   4.997   6.423  1.5855 -1.0979 -2.6658
12840TIP3   OH238464   4.143   0.726   6.562 -0.4508 -0.0645  0.0532
12840TIP3    H138465   4.160   0.662   6.493 -3.0785 -0.4944 -0.2820
12840TIP3    H238466   4.108   0.802   6.515  1.8534  1.3971  0.5339
12841TIP3   OH238467   6.676   0.469   4.441 -0.6156  0.0364 -1.0506
12841TIP3    H138468   6.738   0.535   4.473  1.6765 -0.9027 -3.2250
12841TIP3    H238469   6.660   0.413   4.517  1.2321  0.3209 -0.3855
12842TIP3   OH238470   2.361   3.130   2.648  0.1103 -0.3621  0.1127
12842TIP3    H138471   2.349   3.207   2.703 -0.3562 -1.7926  2.1184
12842TIP3    H238472   2.322   3.155   2.564 -1.5376  1.0374  1.2093
12843TIP3   OH238473   2.031   5.080   0.569 -0.5883 -0.3971  0.1859
12843TIP3    H138474   1.986   5.156   0.532 -0.6028 -0.2181  0.5711
12843TIP3    H238475   2.121   5.109   0.581 -0.7789 -0.1725  1.1050
12844TIP3   OH238476   0.880   0.460   1.999  0.2605  0.0026  0.8028
12844TIP3    H138477   0.838   0.538   1.965  1.7909  1.8198  2.8309
12844TIP3    H238478   0.972   0.470   1.976  0.6039 -0.8211  1.7456
12845TIP3   OH238479   3.277   1.730   6.304 -0.9037 -0.0579 -0.3540
12845TIP3    H138480   3.363   1.769   6.318 -1.3389  0.2563  1.7185
12845TIP3    H238481   3.290   1.670   6.230  0.1174  2.8718 -2.7756
12846TIP3   OH238482   1.477   2.616   4.748  0.3305 -0.5622  0.4292
12846TIP3    H138483   1.495   2.709   4.740  2.9756 -1.0871 -0.8212
12846TIP3    H238484   1.552   2.581   4.796 -0.9340 -1.9907  1.4850
12847TIP3   OH238485   0.186   2.455   0.189 -0.0138  0.4722 -0.2976
12847TIP3    H138486   0.219   2.462   0.279 -0.7990  1.5219 -0.0742
12847TIP3    H238487   0.144   2.370   0.186  1.9549 -0.5472 -0.3467
12848TIP3   OH238488   3.682   2.993   3.661  0.5816 -0.2711 -0.0999
12848TIP3    H138489   3.606   2.956   3.617  0.3027 -0.5362  0.5922
12848TIP3    H238490   3.742   2.919   3.670  0.6386 -0.2167 -0.0325
12849TIP3   OH238491   4.498   2.372   4.697  0.4170  0.1447 -0.1595
12849TIP3    H138492   4.536   2.379   4.610  0.7975  0.9164  0.0586
12849TIP3    H238493   4.403   2.367   4.682  0.3814  1.4942 -0.5891
12850TIP3   OH238494   3.818   6.197   6.537 -0.5188  0.1905  0.0595
12850TIP3    H138495   3.736   6.223   6.580 -0.9180 -0.0974 -0.5242
12850TIP3    H238496   3.791   6.161   6.453  0.2103  0.0758 -0.1311
12851TIP3   OH238497   1.759   1.784   0.084  0.0852  0.5279  0.0456
12851TIP3    H138498   1.779   1.833   0.004  1.9439 -1.1912 -0.6402
12851TIP3    H238499   1.810   1.828   0.152 -0.0579  0.9031 -0.0868
12852TIP3   OH238500   3.880   0.374   0.443 -0.0153  0.1182  0.9315
12852TIP3    H138501   3.848   0.288   0.471  2.0600 -1.5969 -1.5223
12852TIP3    H238502   3.870   0.373   0.348 -1.2551  3.2469  0.9337
12853TIP3   OH238503   3.812   1.549   0.207  0.8144  1.4491 -0.1481
12853TIP3    H138504   3.717   1.541   0.215  0.9618  0.5097  1.0858
12853TIP3    H238505   3.841   1.462   0.180  1.2486  2.0430 -1.7128
12854TIP3   OH238506   4.183   2.945   5.791 -0.0968 -0.2719 -0.0507
12854TIP3    H138507   4.164   2.861   5.749 -2.6503  0.5683 -0.7826
12854TIP3    H238508   4.198   2.923   5.883  1.0079 -1.6704 -0.5239
12855TIP3   OH238509   4.249   2.263   4.636 -0.1652  0.6591 -0.3954
12855TIP3    H138510   4.236   2.319   4.559 -2.9828 -1.7837 -1.9416
12855TIP3    H238511   4.277   2.179   4.600  3.2155  0.6607  1.7806
12856TIP3   OH238512   6.099   7.504   4.179 -0.0793 -0.1475 -0.3749
12856TIP3    H138513   6.007   7.527   4.184 -0.2948 -1.1084  0.4142
12856TIP3    H238514   6.110   7.468   4.091 -0.0732  1.4567 -1.0620
12857TIP3   OH238515   7.587   6.396   2.375 -0.2426 -0.3543 -0.5371
12857TIP3    H138516   7.654   6.419   2.310  0.7824  0.5667  0.8018
12857TIP3    H238517   7.634   6.344   2.440 -0.7403  0.5515  0.5712
12858TIP3   OH238518   4.438   5.427   5.786  0.1170  0.5866  0.4971
12858TIP3    H138519   4.392   5.483   5.724 -0.1352 -1.5447 -1.3833
12858TIP3    H238520   4.478   5.358   5.732 -0.3506 -1.5641  2.6962
12859TIP3   OH238521   6.924   6.914   4.287  0.2326  0.0038  0.0102
12859TIP3    H138522   6.991   6.952   4.230 -0.7014  0.9722 -0.4583
12859TIP3    H238523   6.939   6.955   4.372  0.5968 -0.2353  0.0684
12860TIP3   OH238524   7.122   2.252   3.257  0.1405  0.4468 -0.0360
12860TIP3    H138525   7.216   2.263   3.271  0.3281 -1.2489  0.2092
12860TIP3    H238526   7.082   2.317   3.316  1.1320  0.2619  0.8696
12861TIP3   OH238527   5.472   1.794   5.729  0.0295 -0.2828 -0.0620
12861TIP3    H138528   5.400   1.790   5.792  0.6143 -0.6575  0.5978
12861TIP3    H238529   5.464   1.714   5.678 -0.8033  0.3053 -0.8804
12862TIP3   OH238530   6.883   7.159   1.610 -0.2287  0.7297  0.4407
12862TIP3    H138531   6.816   7.207   1.560 -1.1492  2.2030  2.8947
12862TIP3    H238532   6.964   7.173   1.562 -1.2438  0.9914 -1.2842
12863TIP3   OH238533   4.868   7.746   6.740 -0.7619 -0.1778 -0.0422
12863TIP3    H138534   4.883   7.828   6.693 -2.2373 -0.6028 -1.3152
12863TIP3    H238535   4.794   7.764   6.797 -0.1098 -0.2022  0.8436
12864TIP3   OH238536   7.858   2.716   5.288 -0.1694 -0.6205  0.5732
12864TIP3    H138537   7.933   2.771   5.312 -0.1596  0.8373 -2.4205
12864TIP3    H238538   7.895   2.629   5.275  0.7797 -0.1853  0.2994
12865TIP3   OH238539   4.372   6.935   2.645  0.0447 -0.3150 -0.2241
12865TIP3    H138540   4.402   6.854   2.602  0.1013 -0.3053 -0.2035
12865TIP3    H238541   4.368   6.999   2.573 -2.3302 -0.9308 -0.7228
12866TIP3   OH238542   5.757   5.659   1.276  0.2762 -0.4547  0.0516
12866TIP3    H138543   5.672   5.673   1.318  0.7253  2.0702  0.2541
12866TIP3    H238544   5.736   5.605   1.199 -1.2557 -1.1174  0.8825
12867TIP3   OH238545   6.405   4.412   4.313 -0.3249 -0.2459  0.2290
12867TIP3    H138546   6.416   4.504   4.287  0.0384 -0.8500 -1.9204
12867TIP3    H238547   6.414   4.414   4.408 -0.6629  1.9902  0.2773
12868TIP3   OH238548   3.528   4.054   1.368  0.2238  0.1551 -0.0296
12868TIP3    H138549   3.477   4.006   1.434  1.4542 -1.2596 -0.0655
12868TIP3    H238550   3.542   3.990   1.298 -0.7215  1.5152 -1.5139
12869TIP3   OH238551   2.366   0.409   3.847 -0.1958  0.1902 -0.1583
12869TIP3    H138552   2.399   0.320   3.858 -2.0638 -0.3736  1.4545
12869TIP3    H238553   2.369   0.424   3.752  1.7476 -0.9086 -0.3256
12870TIP3   OH238554   1.089   1.421   4.676  0.0947 -0.7070  0.1726
12870TIP3    H138555   1.159   1.449   4.735 -0.6330 -0.0470  0.7473
12870TIP3    H238556   1.009   1.440   4.724 -0.5061 -0.6825 -0.8162
12871TIP3   OH238557   2.600   0.712   1.551  0.1443 -0.3077  0.0272
12871TIP3    H138558   2.513   0.699   1.513  0.3882 -2.5025  0.0666
12871TIP3    H238559   2.586   0.773   1.624 -1.2080  0.0003 -0.4633
12872TIP3   OH238560   7.961   7.548   0.117 -0.1558 -0.6978  0.2300
12872TIP3    H138561   7.953   7.599   0.197 -0.0571  1.4711 -1.0663
12872TIP3    H238562   7.871   7.536   0.087 -0.0917  0.2131 -0.3453
12873TIP3   OH238563   7.499   3.769   5.737 -0.1926  0.7740  0.0626
12873TIP3    H138564   7.484   3.675   5.746 -0.2921  0.8653  1.0012
12873TIP3    H238565   7.556   3.778   5.661 -0.3271 -0.0291 -0.1381
12874TIP3   OH238566   5.262   5.317   1.278  0.5755  1.2344 -0.3115
12874TIP3    H138567   5.338   5.336   1.333  0.8187 -3.1267  1.2937
12874TIP3    H238568   5.296   5.261   1.208 -1.0393 -1.7484  1.0503
12875TIP3   OH238569   0.617   6.639   6.571 -0.3533  0.6348 -0.3347
12875TIP3    H138570   0.654   6.565   6.523 -1.7630  0.4228 -1.1594
12875TIP3    H238571   0.628   6.616   6.663 -1.6715 -1.1102 -0.5662
12876TIP3   OH238572   5.374   7.224   5.864  0.7037 -0.1734  0.2951
12876TIP3    H138573   5.286   7.191   5.886  0.4131  1.2595  1.4328
12876TIP3    H238574   5.400   7.173   5.788 -1.3316 -0.3028 -0.3825
12877TIP3   OH238575   3.153   4.478   4.107  0.1134  0.1860  0.3393
12877TIP3    H138576   3.205   4.535   4.050  2.2504 -1.1548  0.8421
12877TIP3    H238577   3.167   4.513   4.195 -2.0493  1.3963  0.2828
12878TIP3   OH238578   7.926   0.898   1.893  0.0847 -0.8040  0.2150
12878TIP3    H138579   7.902   0.974   1.948  0.4133  0.5586 -1.4362
12878TIP3    H238580   7.940   0.935   1.806 -2.5703 -3.1835 -1.3718
12879TIP3   OH238581   3.491   3.155   5.427  0.6632 -0.1728  0.0039
12879TIP3    H138582   3.494   3.196   5.513  1.6860  0.4479 -0.3013
12879TIP3    H238583   3.399   3.160   5.400  0.4266  0.0825  0.8446
12880TIP3   OH238584   5.876   3.562   4.905  0.3299 -0.1926  0.2953
12880TIP3    H138585   5.823   3.526   4.977  1.3571 -0.9954  0.6800
12880TIP3    H238586   5.844   3.651   4.894 -0.5820 -0.4127  1.0223
12881TIP3   OH238587   3.991   7.099   0.461 -0.2181 -0.7740  0.3318
12881TIP3    H138588   4.082   7.070   0.452 -0.7348 -2.4515  0.2222
12881TIP3    H238589   3.940   7.019   0.462 -2.0003  0.1338 -2.7730
12882TIP3   OH238590   2.331   4.132   1.430 -0.2175  0.0544 -1.0910
12882TIP3    H138591   2.283   4.197   1.378  0.8541  0.5088 -1.5375
12882TIP3    H238592   2.278   4.120   1.509 -0.3711  1.5890 -0.9338
12883TIP3   OH238593   0.790   0.049   6.120 -0.2574 -0.2271 -0.3492
12883TIP3    H138594   0.781  -0.025   6.060  0.9885  0.6759 -1.7316
12883TIP3    H238595   0.763   0.014   6.205  2.1909 -2.8696 -0.5067
12884TIP3   OH238596   4.707   5.257   5.130 -0.2704  0.2385  0.4143
12884TIP3    H138597   4.645   5.197   5.088  0.4789 -1.4201  1.5882
12884TIP3    H238598   4.732   5.213   5.211  2.4278  0.8417  0.0030
12885TIP3   OH238599   8.014   2.183   1.207 -0.2133 -0.1800  0.1792
12885TIP3    H138600   8.101   2.146   1.189 -0.6597 -0.7262 -0.9039
12885TIP3    H238601   7.991   2.232   1.128 -0.6407  0.4828  0.6969
12886TIP3   OH238602   2.625   4.041   0.812  0.0143 -0.5179  0.3400
12886TIP3    H138603   2.644   4.134   0.820 -0.6911 -0.4239  1.0709
12886TIP3    H238604   2.624   4.024   0.718 -0.9403  0.4415  0.1620
12887TIP3   OH238605   7.748   7.235   5.797 -0.2905 -0.4689 -0.5432
12887TIP3    H138606   7.668   7.183   5.789 -0.5758 -0.2226  0.4782
12887TIP3    H238607   7.748   7.264   5.888  1.3013 -1.0044 -0.3431
12888TIP3   OH238608   3.352   0.463   2.023  0.0488 -0.3970  0.1368
12888TIP3    H138609   3.387   0.398   1.963  1.4901  0.9173 -0.5006
12888TIP3    H238610   3.291   0.414   2.078  1.6027 -2.4337  0.1504
12889TIP3   OH238611   5.205   5.877   3.477  0.1396  0.2702  0.3279
12889TIP3    H138612   5.127   5.929   3.458 -0.4193 -1.2610 -2.0989
12889TIP3    H238613   5.173   5.787   3.486  1.3463 -0.0507  2.0700
12890TIP3   OH238614   5.800   1.650   5.853  0.4503  0.0422 -0.7364
12890TIP3    H138615   5.895   1.644   5.854  0.3955 -0.9354 -0.7542
12890TIP3    H238616   5.782   1.731   5.806  1.2852  0.9509  0.4514
12891TIP3   OH238617   5.999   0.643   4.627  0.0788 -0.2938 -0.0565
12891TIP3    H138618   6.025   0.627   4.718  0.9512 -0.4018 -0.3204
12891TIP3    H238619   5.980   0.737   4.624 -0.2095 -0.3390  0.3009
12892TIP3   OH238620   5.036   2.529   6.694 -0.2086 -0.5207 -0.1625
12892TIP3    H138621   4.967   2.516   6.759 -0.1280 -3.1630 -0.4740
12892TIP3    H238622   5.095   2.455   6.708  0.2298 -0.7301 -2.7216
12893TIP3   OH238623   0.328   7.716   0.097  0.4168  0.4564 -0.1711
12893TIP3    H138624   0.418   7.738   0.119  0.6785 -0.8653  0.1074
12893TIP3    H238625   0.331   7.692   0.004  0.6785 -1.2214  0.2479
12894TIP3   OH238626   7.986   7.708   0.673  0.6348  0.3979  0.0364
12894TIP3    H138627   8.015   7.797   0.692  2.1997  0.1964 -1.1905
12894TIP3    H238628   7.986   7.703   0.578  0.2929 -0.8270  0.0869
12895TIP3   OH238629   3.647   5.283   0.721  0.4441  0.0709  0.1926
12895TIP3    H138630   3.660   5.228   0.799 -2.0492  1.0595  1.3953
12895TIP3    H238631   3.629   5.220   0.651 -0.9883 -0.7495  1.2426
12896TIP3   OH238632   4.300   3.808   5.271  0.1306 -0.4341  0.1768
12896TIP3    H138633   4.266   3.856   5.196  0.4490 -0.9785 -0.3270
12896TIP3    H238634   4.293   3.869   5.344 -0.0673  0.1464 -0.3193
12897TIP3   OH238635   4.102   7.269   1.939 -0.0004  0.2104 -0.2255
12897TIP3    H138636   4.064   7.322   2.009 -0.6402 -0.7075  0.1463
12897TIP3    H238637   4.191   7.302   1.930  0.5537 -0.4872  1.9322
12898TIP3   OH238638   4.107   5.560   3.462 -0.1142 -0.6574 -0.1028
12898TIP3    H138639   4.086   5.569   3.369 -0.3914  3.1956  0.1774
12898TIP3    H238640   4.023   5.540   3.503 -0.2072 -1.2327 -0.5577
12899TIP3   OH238641   7.909   4.525   6.720 -0.3279  0.0049 -0.4441
12899TIP3    H138642   7.933   4.473   6.797 -0.7581  1.5380  0.7749
12899TIP3    H238643   7.843   4.473   6.676 -2.1348  0.2816  1.7748
12900TIP3   OH238644   2.661   3.205   3.865  0.9710  0.4490 -0.0544
12900TIP3    H138645   2.626   3.281   3.913 -0.6300  0.2099 -0.7944
12900TIP3    H238646   2.653   3.229   3.773 -1.9036 -1.5006 -0.4373
12901TIP3   OH238647   1.738   6.214   2.140  0.0928 -0.5553 -0.4212
12901TIP3    H138648   1.712   6.296   2.097  0.6966 -1.2785 -2.2614
12901TIP3    H238649   1.741   6.150   2.069  2.7958 -1.4318  0.3798
12902TIP3   OH238650   8.075   3.959   5.193  0.1358 -0.2772 -0.0755
12902TIP3    H138651   8.166   3.931   5.179  0.5454  0.6697  0.5704
12902TIP3    H238652   8.080   4.054   5.201 -0.6415 -0.3361  1.7108
12903TIP3   OH238653   4.301   6.065   2.913  0.6847  0.2066 -0.3147
12903TIP3    H138654   4.382   6.050   2.866  0.9561  2.1789 -0.5767
12903TIP3    H238655   4.328   6.086   3.002  0.4693  0.7493 -0.3710
12904TIP3   OH238656   5.861   0.995   6.479  0.3055 -0.2790  0.1674
12904TIP3    H138657   5.862   0.939   6.401  1.7394 -0.4708  0.2788
12904TIP3    H238658   5.811   0.946   6.543 -0.6374 -0.2550 -0.5332
12905TIP3   OH238659   0.055   5.801   3.093  0.0729  0.4070  0.2967
12905TIP3    H138660   0.150   5.790   3.090  0.0267  0.1824 -1.3110
12905TIP3    H238661   0.032   5.783   3.184  1.4698 -0.4403  0.5175
12906TIP3   OH238662   0.185   4.773   3.708 -0.8275  0.2268  0.7288
12906TIP3    H138663   0.179   4.760   3.614  0.3620  0.7929  0.5681
12906TIP3    H238664   0.098   4.805   3.733 -0.6986  1.5211 -0.4014
12907TIP3   OH238665   5.023   6.160   3.800  0.1817 -0.0223  0.4965
12907TIP3    H138666   5.115   6.140   3.813  0.7952  1.0556 -1.8001
12907TIP3    H238667   4.993   6.097   3.735  0.1021  1.4347 -0.9416
12908TIP3   OH238668   6.782   2.488   5.727 -0.2986  0.6562 -0.0471
12908TIP3    H138669   6.747   2.419   5.783 -1.7064  1.2293 -0.1975
12908TIP3    H238670   6.857   2.523   5.777  1.4202 -1.9087 -0.6082
12909TIP3   OH238671   2.550   3.552   4.295 -0.1424  0.4724  0.0412
12909TIP3    H138672   2.514   3.616   4.356 -1.6281 -0.3762  0.1026
12909TIP3    H238673   2.645   3.557   4.308 -0.2613  2.2420  0.4310
12910TIP3   OH238674   0.551   5.521   5.680  0.0021 -0.0055 -0.2254
12910TIP3    H138675   0.506   5.606   5.673  2.6502  1.4978 -0.3600
12910TIP3    H238676   0.644   5.542   5.669  0.6525 -3.2151 -2.3731
12911TIP3   OH238677   6.352   4.228   0.439  0.0376  0.6849  0.8168
12911TIP3    H138678   6.370   4.220   0.345 -0.1627  0.4655  0.7984
12911TIP3    H238679   6.261   4.203   0.449  0.7570 -2.0539  1.4332
12912TIP3   OH238680   4.594   1.078   5.399  0.3754 -0.0546  0.2874
12912TIP3    H138681   4.606   1.114   5.311  0.2978 -0.4161  0.1306
12912TIP3    H238682   4.566   0.988   5.386  1.1851 -0.3756  0.6944
12913TIP3   OH238683   7.630   2.116   0.313 -0.2608  0.8990 -0.2503
12913TIP3    H138684   7.553   2.172   0.305 -0.8661  0.1124 -0.0753
12913TIP3    H238685   7.615   2.067   0.394 -1.0996 -1.4919 -1.7234
12914TIP3   OH238686   2.833   1.729   4.828  0.2005  0.0151 -0.0104
12914TIP3    H138687   2.917   1.688   4.806  0.8720  0.4494  1.6398
12914TIP3    H238688   2.769   1.683   4.773  1.0289 -2.7804  1.1990
12915TIP3   OH238689   0.179   5.606   1.393 -0.7634  0.1463  0.5957
12915TIP3    H138690   0.242   5.534   1.397  1.2245  1.8030  1.3248
12915TIP3    H238691   0.200   5.660   1.470 -1.2545  2.1849 -0.6270
12916TIP3   OH238692   6.220   3.221   6.630 -0.3933 -0.8033  0.3773
12916TIP3    H138693   6.183   3.294   6.680 -0.1151 -1.9139  2.3132
12916TIP3    H238694   6.165   3.146   6.653 -0.0088 -1.4338 -0.7059
12917TIP3   OH238695   8.247   1.159   3.689  0.6778  0.1082 -0.1344
12917TIP3    H138696   8.235   1.069   3.661  1.7332 -0.3174  0.7033
12917TIP3    H238697   8.176   1.207   3.648 -1.4897 -1.5468  1.4498
12918TIP3   OH238698   2.775   4.185   5.323  0.0141  0.0189 -0.5378
12918TIP3    H138699   2.865   4.214   5.340  0.0986 -0.8856  0.6649
12918TIP3    H238700   2.762   4.112   5.383 -2.1112  1.2348  0.5714
12919TIP3   OH238701   5.006   2.873   1.876 -0.4373 -0.1760  0.6071
12919TIP3    H138702   5.016   2.798   1.817  1.2235 -0.1609  0.8139
12919TIP3    H238703   4.969   2.942   1.822  2.7618  0.4460 -1.0086
12920TIP3   OH238704   1.489   2.238   2.467 -0.1545  0.1470 -0.0139
12920TIP3    H138705   1.400   2.209   2.445  0.3124 -0.7780 -0.7735
12920TIP3    H238706   1.499   2.322   2.423 -0.4590 -0.0180 -0.4052
12921TIP3   OH238707   1.905   4.332   2.664  0.0664  0.2108  0.0176
12921TIP3    H138708   1.928   4.377   2.582 -0.7088  1.9493  0.6975
12921TIP3    H238709   1.964   4.370   2.729 -0.7877  0.4579  0.6642
12922TIP3   OH238710   1.861   6.501   5.516  0.2289  0.4242 -0.1331
12922TIP3    H138711   1.910   6.423   5.540  0.1713  0.8102  1.3512
12922TIP3    H238712   1.775   6.468   5.489  1.5006 -0.3640 -3.8407
12923TIP3   OH238713   6.123   5.589   1.859 -0.6132 -0.0055 -0.4901
12923TIP3    H138714   6.118   5.521   1.926 -0.9150 -0.4586 -0.9685
12923TIP3    H238715   6.080   5.665   1.899 -1.5935 -0.5444 -0.4824
12924TIP3   OH238716   4.985   5.700   2.921  0.3165 -0.0629  0.1244
12924TIP3    H138717   4.980   5.734   3.010  0.6652 -0.2819  0.2338
12924TIP3    H238718   4.939   5.616   2.925 -0.8587  0.5536 -0.2313
12925TIP3   OH238719   7.514   1.044   2.213  0.2782 -0.0695  0.1398
12925TIP3    H138720   7.519   0.999   2.297 -0.9791  0.7366  0.6763
12925TIP3    H238721   7.441   1.002   2.167 -0.0149  0.4842  0.0852
12926TIP3   OH238722   3.767   0.441   0.880 -0.4726  0.2374  0.5074
12926TIP3    H138723   3.802   0.504   0.943  1.7511  0.6838 -1.0774
12926TIP3    H238724   3.697   0.487   0.835  0.0936  1.0279  0.4326
12927TIP3   OH238725   5.234   5.985   0.289  0.6684 -0.1077  0.2724
12927TIP3    H138726   5.227   5.908   0.346 -1.9564 -0.2333 -0.0806
12927TIP3    H238727   5.284   6.048   0.341  2.3042 -1.7653  0.8346
12928TIP3   OH238728   0.906   0.077   5.728 -0.5555 -0.1504  0.3052
12928TIP3    H138729   0.964   0.113   5.795  1.8909  0.6283 -2.0709
12928TIP3    H238730   0.830   0.136   5.729  0.9968  1.9662  0.1144
12929TIP3   OH238731   6.358   1.863   5.012  0.4893 -0.0204  0.0222
12929TIP3    H138732   6.294   1.924   4.979 -0.3007 -1.0052 -0.3146
12929TIP3    H238733   6.349   1.785   4.957  1.1651 -0.6049  0.6985
12930TIP3   OH238734   6.924   5.320   6.182 -0.3519  0.7291 -0.1244
12930TIP3    H138735   6.964   5.306   6.097 -0.0913  0.7830 -0.0115
12930TIP3    H238736   6.950   5.409   6.207 -0.7855  0.8745 -0.1814
12931TIP3   OH238737   4.007   0.607   0.017  0.0163  0.6199  0.0947
12931TIP3    H138738   4.052   0.549  -0.045 -0.9144 -0.9251  0.7872
12931TIP3    H238739   4.075   0.635   0.078  0.5467  0.5005 -0.4382
12932TIP3   OH238740   0.832   5.982   2.209  0.2845 -0.1180 -0.0384
12932TIP3    H138741   0.926   5.964   2.205  0.4951  0.7230  0.7979
12932TIP3    H238742   0.794   5.921   2.147  1.5635  0.7221 -1.7475
12933TIP3   OH238743   4.213   0.453   0.467  0.5270  0.3742 -0.7883
12933TIP3    H138744   4.269   0.455   0.545  1.2456  1.2904 -1.3067
12933TIP3    H238745   4.124   0.449   0.502  0.8631 -3.1176  0.0684
12934TIP3   OH238746   0.565   7.105   0.230 -0.4949  0.2711  0.8400
12934TIP3    H138747   0.627   7.175   0.208  0.6191 -0.7970  0.4514
12934TIP3    H238748   0.481   7.137   0.196  0.6555 -0.1687 -2.9414
12935TIP3   OH238749   2.157   7.688   1.739 -0.3679 -0.1714 -0.4735
12935TIP3    H138750   2.087   7.747   1.714  1.5547  2.1216 -0.8586
12935TIP3    H238751   2.192   7.655   1.656  0.3245  0.3629 -0.4004
12936TIP3   OH238752   0.862   2.848   2.845 -0.2173 -0.6555  0.0240
12936TIP3    H138753   0.885   2.883   2.759  2.7427 -0.8518  0.6587
12936TIP3    H238754   0.835   2.758   2.828  0.0217 -0.5930 -0.7131
12937TIP3   OH238755   0.197   7.411   5.640 -0.2975 -0.0562 -0.5583
12937TIP3    H138756   0.136   7.483   5.620  0.7867  0.8667 -0.6537
12937TIP3    H238757   0.152   7.360   5.707 -1.1752  0.6072 -0.6135
12938TIP3   OH238758   7.689   0.049   3.097 -0.1787  0.0630  0.4849
12938TIP3    H138759   7.767   0.038   3.043 -0.1385  0.8612  0.3750
12938TIP3    H238760   7.645   0.126   3.062  0.3059  1.1497  2.1351
12939TIP3   OH238761   6.528   3.368   6.788 -0.5712  0.3143  0.5449
12939TIP3    H138762   6.455   3.424   6.761 -1.5111 -1.5431 -1.0102
12939TIP3    H238763   6.583   3.361   6.710  1.1091  1.3487  1.5720
12940TIP3   OH238764   3.249   3.289   2.625  0.6445 -0.6913  0.0863
12940TIP3    H138765   3.168   3.318   2.666 -0.9551 -1.5815 -2.2633
12940TIP3    H238766   3.318   3.325   2.681 -1.2890  1.9433  0.9523
12941TIP3   OH238767   2.603   3.671   5.382 -0.5654  0.3816 -0.1861
12941TIP3    H138768   2.535   3.608   5.404 -0.5180  0.4874  0.2671
12941TIP3    H238769   2.681   3.638   5.425 -0.3724  0.3710 -0.5367
12942TIP3   OH238770   0.616   3.745   2.770 -0.4409 -0.5311 -0.0085
12942TIP3    H138771   0.646   3.821   2.821 -2.3364 -0.4130  0.9964
12942TIP3    H238772   0.556   3.782   2.705  0.3400 -0.9504 -1.0147
12943TIP3   OH238773   0.220   2.529   0.653 -0.2226  0.1369  0.0444
12943TIP3    H138774   0.230   2.579   0.733  2.4864 -0.5582  0.2486
12943TIP3    H238775   0.226   2.594   0.583 -0.4631  0.5080  0.3661
12944TIP3   OH238776   1.700   6.182   0.118 -0.2072  0.3534  0.3264
12944TIP3    H138777   1.696   6.217   0.029  0.1411  1.4490  0.7332
12944TIP3    H238778   1.609   6.159   0.138 -0.1712 -0.6800 -0.6012
12945TIP3   OH238779   5.640   5.394   6.223 -0.3266  0.3795  0.0030
12945TIP3    H138780   5.631   5.317   6.167 -1.2825 -0.2314  0.9760
12945TIP3    H238781   5.571   5.385   6.289  3.4144 -1.3518  4.1805
12946TIP3   OH238782   4.991   1.025   3.715  0.4190 -0.1230  0.4150
12946TIP3    H138783   5.024   1.111   3.741  2.1343 -0.5648 -0.1508
12946TIP3    H238784   5.067   0.981   3.678 -0.7205 -1.4442 -0.4412
12947TIP3   OH238785   0.952   5.142   0.097 -0.3313 -0.2877  0.6383
12947TIP3    H138786   0.964   5.047   0.085 -0.6715 -0.1632 -1.0027
12947TIP3    H238787   1.020   5.167   0.159  0.3351 -1.4778  0.4288
12948TIP3   OH238788   5.995   2.015   5.172  0.2749 -0.0485 -0.3140
12948TIP3    H138789   5.909   1.993   5.136 -0.3248  0.1928  0.8859
12948TIP3    H238790   6.047   1.936   5.162 -0.6322 -0.7703  0.4348
12949TIP3   OH238791   6.149   6.930   2.780 -0.7361  0.0129 -0.1532
12949TIP3    H138792   6.166   6.947   2.688 -0.2090 -0.9050 -0.2383
12949TIP3    H238793   6.073   6.985   2.801 -1.1138 -0.0648 -1.2382
12950TIP3   OH238794   4.644   7.416   1.985 -0.4319 -0.2029 -0.0171
12950TIP3    H138795   4.550   7.431   1.987 -0.2751  1.2420 -1.3473
12950TIP3    H238796   4.656   7.330   2.026 -2.6587 -1.9445 -2.6483
12951TIP3   OH238797   3.947   5.437   1.824 -0.1257  0.1148 -0.2531
12951TIP3    H138798   3.904   5.522   1.825 -0.7769 -0.2154 -0.2680
12951TIP3    H238799   3.970   5.423   1.732 -0.4437  0.0549 -0.3218
12952TIP3   OH238800   5.956   7.337   0.669 -0.2174  0.2456 -0.0276
12952TIP3    H138801   5.867   7.303   0.663  0.3233 -1.2274  0.0906
12952TIP3    H238802   6.000   7.305   0.590  0.9535 -1.3384  1.2028
12953TIP3   OH238803   4.460   5.397   5.489  0.7162  0.6774 -0.2016
12953TIP3    H138804   4.541   5.424   5.444  1.4280  1.3338  1.4174
12953TIP3    H238805   4.453   5.303   5.470  1.2795  0.8247 -1.2246
12954TIP3   OH238806   5.327   3.540   2.833 -0.2169  0.0330  0.6217
12954TIP3    H138807   5.243   3.561   2.874 -0.3999 -1.7213  1.2584
12954TIP3    H238808   5.304   3.480   2.762  0.5224 -1.2449  1.4048
12955TIP3   OH238809   0.713   2.029   1.261  0.3115  0.8411 -0.6597
12955TIP3    H138810   0.745   2.010   1.174  2.6461  0.3692  0.2387
12955TIP3    H238811   0.643   1.966   1.276 -0.5485  1.3352 -2.3733
12956TIP3   OH238812   6.403   1.979   0.449 -0.2344 -0.5599 -0.0717
12956TIP3    H138813   6.383   2.071   0.438 -1.5512 -0.7369  0.7181
12956TIP3    H238814   6.411   1.967   0.543 -2.0358 -1.6153 -0.0039
12957TIP3   OH238815   0.747   2.917   0.255  0.8161 -0.2910 -0.2804
12957TIP3    H138816   0.841   2.899   0.250  1.4141  1.9068  1.5731
12957TIP3    H238817   0.734   2.956   0.341 -2.0081 -1.4219 -0.0849
12958TIP3   OH238818   3.709   0.586   0.463  0.2595  0.2758 -0.0910
12958TIP3    H138819   3.635   0.548   0.511 -0.2587  1.6514  0.2447
12958TIP3    H238820   3.765   0.511   0.443 -0.3297 -0.5560  1.2159
12959TIP3   OH238821   0.341   1.301   2.890 -0.3935  0.3663  0.0235
12959TIP3    H138822   0.354   1.238   2.961 -1.7220 -1.8908 -1.6434
12959TIP3    H238823   0.413   1.284   2.829  0.0041  1.4259  0.1605
12960TIP3   OH238824   3.272   0.576   3.409 -0.2010  0.2752 -0.0456
12960TIP3    H138825   3.306   0.646   3.465  0.5420 -0.0471 -0.0821
12960TIP3    H238826   3.318   0.587   3.326 -1.9051  1.2788 -0.9261
12961TIP3   OH238827   3.528   6.403   1.493 -0.4586  0.0831 -0.0874
12961TIP3    H138828   3.450   6.431   1.446 -1.8418 -3.0117  0.0887
12961TIP3    H238829   3.505   6.411   1.585  0.0968  0.7329  0.0028
12962TIP3   OH238830   5.437   3.016   6.472  0.4524 -0.0819 -0.3843
12962TIP3    H138831   5.465   3.099   6.433  0.6595  0.4252  0.8013
12962TIP3    H238832   5.342   3.020   6.472  0.4303 -0.3872 -1.4468
12963TIP3   OH238833   8.034   5.058   4.182 -0.3673  0.1736 -0.3387
12963TIP3    H138834   7.975   5.124   4.146  0.2707  0.5682 -0.6840
12963TIP3    H238835   8.006   5.048   4.273 -1.9433 -0.7674 -0.8873
12964TIP3   OH238836   7.542   4.814   2.298  0.1437 -0.0018  0.5441
12964TIP3    H138837   7.540   4.737   2.240  1.2533 -0.6247  1.3047
12964TIP3    H238838   7.514   4.781   2.383  0.4098  0.4855  0.8265
12965TIP3   OH238839   7.819   2.502   2.198 -0.7070 -0.3860 -0.2687
12965TIP3    H138840   7.794   2.493   2.106 -0.7305 -1.4029 -0.1807
12965TIP3    H238841   7.797   2.417   2.237 -1.6760  0.3787  0.9210
12966TIP3   OH238842   5.731   7.075   3.043 -0.3517 -0.0534  0.3400
12966TIP3    H138843   5.760   7.145   3.101 -1.8442 -0.0250  1.0990
12966TIP3    H238844   5.648   7.106   3.008 -0.7128 -1.1580  0.1775
12967TIP3   OH238845   1.782   3.155   3.782 -0.6108 -0.3187  0.5535
12967TIP3    H138846   1.763   3.062   3.769 -0.9470 -0.0595 -1.0788
12967TIP3    H238847   1.747   3.197   3.703 -0.0697  1.1372  1.0688
12968TIP3   OH238848   2.622   6.997   4.044  0.2814  0.1699 -0.2668
12968TIP3    H138849   2.702   7.049   4.034  0.1112  0.1691 -1.8032
12968TIP3    H238850   2.651   6.916   4.086  0.7028  1.0680  1.2591
12969TIP3   OH238851   2.561   3.441   6.745 -0.1865 -0.1147  0.8637
12969TIP3    H138852   2.518   3.446   6.660  2.0471  0.9826 -0.2905
12969TIP3    H238853   2.607   3.357   6.743 -0.1519 -0.0991  1.0110
12970TIP3   OH238854   4.676   0.522   1.410  0.6363 -0.8360 -0.2783
12970TIP3    H138855   4.641   0.490   1.327 -1.0397  1.2960 -0.4519
12970TIP3    H238856   4.747   0.581   1.386 -1.1499  1.3916 -0.3989
12971TIP3   OH238857   0.703   1.379   6.500 -0.6480 -0.2318  0.4849
12971TIP3    H138858   0.798   1.392   6.495 -0.6222 -0.2279  0.9762
12971TIP3    H238859   0.689   1.293   6.459 -0.5057  0.0529 -0.1661
12972TIP3   OH238860   1.866   4.431   4.691 -0.7241 -0.0821  0.0794
12972TIP3    H138861   1.933   4.363   4.680 -2.2696 -1.5473 -0.6407
12972TIP3    H238862   1.792   4.402   4.638 -1.7026  1.8487  0.2844
12973TIP3   OH238863   1.597   3.146   2.827  0.1912 -0.1502 -0.3226
12973TIP3    H138864   1.665   3.213   2.837 -1.6558  1.5301  2.3110
12973TIP3    H238865   1.564   3.157   2.738  2.5114 -0.2545 -1.2668
12974TIP3   OH238866   0.093   2.922   5.111 -0.3863 -0.2749  0.4650
12974TIP3    H138867   0.050   2.998   5.072 -0.8325 -0.1537  1.1622
12974TIP3    H238868   0.122   2.952   5.197  0.9248 -0.4203  0.0860
12975TIP3   OH238869   3.122   1.815   1.050  0.2422  0.1145 -0.7515
12975TIP3    H138870   3.192   1.757   1.079 -0.3001 -0.4098 -0.4565
12975TIP3    H238871   3.095   1.862   1.129 -2.3026 -2.4524  0.0518
12976TIP3   OH238872   0.254   4.350   2.196 -0.1323  0.1597  0.6635
12976TIP3    H138873   0.211   4.294   2.130 -1.0099  0.7350  0.7295
12976TIP3    H238874   0.342   4.364   2.161 -0.9887  1.6125 -1.1659
12977TIP3   OH238875   2.548   6.302   5.975  0.3046 -0.0853  0.1050
12977TIP3    H138876   2.626   6.254   5.948 -0.6858 -2.9919  1.8840
12977TIP3    H238877   2.496   6.237   6.024 -2.4196  2.1744  0.4611
12978TIP3   OH238878   5.375   2.456   4.616 -0.5724  0.0269  0.4791
12978TIP3    H138879   5.429   2.378   4.626  1.5695  1.2948 -0.6159
12978TIP3    H238880   5.285   2.422   4.615  0.2243 -2.3060  0.9634
12979TIP3   OH238881   7.562   7.399   4.146  0.8437 -0.0117  0.5959
12979TIP3    H138882   7.501   7.461   4.185  2.6153  1.3104  1.3737
12979TIP3    H238883   7.515   7.365   4.069 -1.1180  0.3922  1.5589
12980TIP3   OH238884   1.784   6.773   4.628  0.0627  0.2957  0.0983
12980TIP3    H138885   1.702   6.725   4.622 -0.6220  1.2498  1.3780
12980TIP3    H238886   1.769   6.853   4.578  0.2769  0.3931  0.1842
12981TIP3   OH238887   0.404   3.907   1.579  0.3461  0.7806 -0.3047
12981TIP3    H138888   0.352   3.867   1.650 -0.5859  1.8638 -0.3531
12981TIP3    H238889   0.426   3.833   1.522 -2.0900  0.3912 -0.8757
12982TIP3   OH238890   5.121   3.695   0.826 -0.8771 -0.3555 -0.0419
12982TIP3    H138891   5.083   3.767   0.877  1.4132  0.2740  0.9087
12982TIP3    H238892   5.104   3.617   0.877 -1.6415 -0.2275 -0.0872
12983TIP3   OH238893   0.290   3.334   6.694 -0.0104 -1.0650 -0.0524
12983TIP3    H138894   0.354   3.378   6.750 -0.7034  1.8627 -1.3697
12983TIP3    H238895   0.206   3.369   6.722 -0.4856 -0.5279 -1.9946
12984TIP3   OH238896   4.790   6.677   0.620  0.0274  0.0559  0.2245
12984TIP3    H138897   4.783   6.590   0.659  0.9226 -0.5662 -0.9268
12984TIP3    H238898   4.849   6.725   0.678 -0.6298 -0.0261  0.9743
12985TIP3   OH238899   2.714   3.714   2.106  0.4257  0.2092  0.6156
12985TIP3    H138900   2.760   3.640   2.145  1.4635  0.8317  0.6063
12985TIP3    H238901   2.667   3.676   2.031  1.4140 -0.3460  0.2652
12986TIP3   OH238902   3.874   2.139   2.071 -0.5865  0.3699 -0.1655
12986TIP3    H138903   3.836   2.191   2.000  0.0741  0.9931 -0.0773
12986TIP3    H238904   3.827   2.166   2.149 -1.0342 -0.0165 -0.2975
12987TIP3   OH238905   0.808   4.607   6.460 -0.0291 -0.2997  0.3339
12987TIP3    H138906   0.787   4.514   6.452  0.8743 -0.4422 -0.5183
12987TIP3    H238907   0.891   4.609   6.508  1.7094 -0.1540 -2.4756
12988TIP3   OH238908   7.026   0.585   4.662 -0.2775  0.2016 -0.1380
12988TIP3    H138909   7.075   0.538   4.594 -1.8714 -1.1435 -0.4260
12988TIP3    H238910   6.949   0.618   4.616 -1.5824 -1.0626  1.0404
12989TIP3   OH238911   0.333   2.974   1.744 -0.0003  0.2559 -0.4751
12989TIP3    H138912   0.422   2.941   1.751  0.4498  1.7277  1.9049
12989TIP3    H238913   0.279   2.906   1.785 -0.0617 -0.7721 -2.1831
12990TIP3   OH238914   5.090   2.352   0.769 -0.2610  0.3158  0.2183
12990TIP3    H138915   5.108   2.410   0.696  1.9956 -0.2548  0.2444
12990TIP3    H238916   5.141   2.387   0.842 -0.6842 -0.3947  0.8828
12991TIP3   OH238917   7.996   0.890   2.623 -0.2776 -0.2969 -0.1410
12991TIP3    H138918   8.023   0.828   2.691  1.0772  0.3864 -0.0269
12991TIP3    H238919   8.056   0.873   2.550 -0.5898  0.1562 -0.5064
12992TIP3   OH238920   4.728   6.604   6.625  0.7160 -0.0028 -0.0826
12992TIP3    H138921   4.688   6.685   6.596  1.3823  0.6724  0.8326
12992TIP3    H238922   4.796   6.586   6.561 -1.2097 -1.3766 -1.8853
12993TIP3   OH238923   2.587   3.872   6.438  0.3832 -0.2628  0.3073
12993TIP3    H138924   2.614   3.930   6.367  1.8631 -1.9754 -0.6208
12993TIP3    H238925   2.579   3.929   6.514  2.8719  1.0364 -0.2919
12994TIP3   OH238926   4.302   6.521   2.126  0.2999  0.2647  0.4528
12994TIP3    H138927   4.353   6.574   2.065  2.4199 -0.3891  1.5337
12994TIP3    H238928   4.247   6.583   2.173  2.2905  1.4853  1.2841
12995TIP3   OH238929   5.353   1.460   6.376  0.1289 -0.1676  0.1650
12995TIP3    H138930   5.341   1.546   6.336 -1.0563  0.0806  1.0124
12995TIP3    H238931   5.336   1.474   6.469 -1.7088 -1.6107  0.1019
12996TIP3   OH238932   5.701   4.666   2.921  0.0274 -0.2422  0.0198
12996TIP3    H138933   5.762   4.725   2.876  0.3385  0.2859  1.0924
12996TIP3    H238934   5.614   4.695   2.893  0.2279 -0.6631 -1.1124
12997TIP3   OH238935   4.708   7.733   2.844 -0.2065  0.1238 -0.1230
12997TIP3    H138936   4.726   7.804   2.782 -0.5599 -0.7158 -1.2223
12997TIP3    H238937   4.632   7.762   2.894  0.3654  1.0102  0.2598
12998TIP3   OH238938   4.188   5.346   6.404 -0.0257 -0.2628  0.5085
12998TIP3    H138939   4.265   5.322   6.352 -0.5554 -0.7343 -0.0777
12998TIP3    H238940   4.140   5.264   6.413 -0.9391  0.2119  0.0575
12999TIP3   OH238941   0.865   3.133   4.237 -0.2888 -0.0553  0.6014
12999TIP3    H138942   0.890   3.082   4.160 -0.0357 -0.5094  0.9786
12999TIP3    H238943   0.800   3.196   4.204  0.9724  0.8235 -0.3067
13000TIP3   OH238944   1.694   7.822   2.670  0.1109 -0.3128 -0.4064
13000TIP3    H138945   1.708   7.728   2.668 -0.7411 -0.4411 -0.5931
13000TIP3    H238946   1.768   7.859   2.621  1.1792 -0.7812  0.7992
13001TIP3   OH238947   7.973   2.036   5.922  0.0013 -0.1325 -0.0344
13001TIP3    H138948   7.883   2.062   5.900  0.4334  0.6868 -0.8934
13001TIP3    H238949   8.020   2.118   5.931  1.3036 -0.5133 -2.3851
13002TIP3   OH238950   0.580   0.928   0.450  0.5694 -0.1992  0.5052
13002TIP3    H138951   0.538   0.912   0.365  0.0877 -0.8074  0.8493
13002TIP3    H238952   0.528   0.876   0.512  0.6189  0.6191  1.2443
13003TIP3   OH238953   1.419   4.112   2.843  0.2601  0.3749  0.0140
13003TIP3    H138954   1.430   4.205   2.827 -1.8838  0.5370 -0.7339
13003TIP3    H238955   1.364   4.106   2.921  1.1535 -0.3058  0.6237
13004TIP3   OH238956   4.457   6.092   6.420 -0.3526 -0.0011 -0.0663
13004TIP3    H138957   4.473   6.005   6.381 -0.6503  0.1461 -0.5190
13004TIP3    H238958   4.544   6.131   6.426 -0.3651  0.2486 -1.2381
13005TIP3   OH238959   7.034   1.908   0.735 -0.6495  0.0731 -0.1893
13005TIP3    H138960   7.046   1.940   0.824 -0.0407  0.1264 -0.2845
13005TIP3    H238961   7.123   1.899   0.700 -0.8951  2.2230 -1.5776
13006TIP3   OH238962   1.560   4.618   1.175  0.2801 -0.3569 -0.2961
13006TIP3    H138963   1.465   4.631   1.174  0.3243 -0.0028  0.1983
13006TIP3    H238964   1.580   4.584   1.087 -0.2526 -0.0779 -0.5285
13007TIP3   OH238965   6.471   7.684   3.908 -0.4854  1.4237  0.1808
13007TIP3    H138966   6.546   7.742   3.923 -0.0500  0.5137  1.7343
13007TIP3    H238967   6.490   7.641   3.825  0.6241  1.3437  0.4629
13008TIP3   OH238968   5.671   0.895   6.664 -0.3458  0.3906  0.3945
13008TIP3    H138969   5.624   0.846   6.597  0.6199  0.1093 -0.0867
13008TIP3    H238970   5.611   0.897   6.739 -1.5609  0.9619 -0.5622
13009TIP3   OH238971   3.382   7.391   3.486  0.5048  0.1651 -0.1969
13009TIP3    H138972   3.414   7.481   3.480  1.0406 -0.0211 -0.2015
13009TIP3    H238973   3.445   7.347   3.544  1.2288 -0.6243 -1.5317
13010TIP3   OH238974   4.209   3.298   3.883 -0.2137 -0.1628  0.2944
13010TIP3    H138975   4.209   3.207   3.912  1.1158 -0.3988 -0.4081
13010TIP3    H238976   4.201   3.349   3.965  1.8166 -0.8564  0.9792
13011TIP3   OH238977   5.249   7.426   1.419 -0.2328  0.3963 -0.8380
13011TIP3    H138978   5.315   7.360   1.398  0.4415  0.4239  1.0550
13011TIP3    H238979   5.180   7.378   1.465 -1.0904  0.5475 -1.9212
13012TIP3   OH238980   2.944   1.292   2.347 -0.3787  0.0595 -0.6841
13012TIP3    H138981   2.905   1.210   2.376  0.0021 -0.2865 -1.1409
13012TIP3    H238982   2.872   1.355   2.349 -1.2944 -0.8286 -2.6119
13013TIP3   OH238983   3.431   5.248   4.650  0.2421  0.3308  0.4530
13013TIP3    H138984   3.490   5.248   4.574  0.3293  0.8904  0.5142
13013TIP3    H238985   3.371   5.321   4.634 -0.0248  0.1676  0.7037
13014TIP3   OH238986   8.241   4.364   0.975 -0.0991  0.4652 -0.4865
13014TIP3    H138987   8.174   4.370   0.906 -0.2547  0.3214 -0.3487
13014TIP3    H238988   8.324   4.376   0.928 -0.0502 -1.6131 -1.0382
13015TIP3   OH238989   0.560   3.744   4.721  0.4684  0.0718  0.4385
13015TIP3    H138990   0.501   3.811   4.753  1.2643  1.3928 -0.7590
13015TIP3    H238991   0.634   3.792   4.683  0.9624 -1.4567 -0.6510
13016TIP3   OH238992   5.289   7.325   4.175 -0.3362  0.8102 -0.2742
13016TIP3    H138993   5.198   7.350   4.160 -0.0398  2.0072 -0.1666
13016TIP3    H238994   5.330   7.329   4.088 -0.3427  0.4212 -0.2986
13017TIP3   OH238995   4.804   3.735   6.131 -0.0132  0.2453  0.4334
13017TIP3    H138996   4.755   3.654   6.142  1.1911 -0.7732 -1.3393
13017TIP3    H238997   4.895   3.708   6.125  0.5734  1.8840  1.2468
13018TIP3   OH238998   4.283   0.429   3.654 -0.5626  0.0867 -0.1307
13018TIP3    H138999   4.372   0.461   3.667 -0.2743 -0.7348 -0.0281
13018TIP3    H239000   4.250   0.480   3.580  0.0507  0.2729 -0.2804
13019TIP3   OH239001   1.701   5.355   6.037 -0.0955 -0.4782  0.1408
13019TIP3    H139002   1.607   5.343   6.019 -0.1850 -1.0407  0.9317
13019TIP3    H239003   1.703   5.401   6.121  0.3429 -0.8407  0.3286
13020TIP3   OH239004   5.160   0.889   1.578  0.0886 -0.2671  0.2616
13020TIP3    H139005   5.070   0.870   1.606  0.1278 -0.8783 -0.0119
13020TIP3    H239006   5.203   0.804   1.578 -0.0374 -0.3998 -2.1512
13021TIP3   OH239007   0.187   3.888   6.622  0.2110  0.2620  0.9191
13021TIP3    H139008   0.137   3.832   6.681 -0.0249  0.1474  0.6115
13021TIP3    H239009   0.122   3.942   6.578  0.3069 -0.2415  0.1462
13022TIP3   OH239010   3.695   4.055   6.522  0.2438 -0.4101 -0.4674
13022TIP3    H139011   3.658   4.075   6.436 -2.5709 -1.5517  0.3708
13022TIP3    H239012   3.619   4.036   6.577  2.1140 -2.9909  1.4440
13023TIP3   OH239013   7.806   0.619   6.242  0.2599  0.4968 -0.2622
13023TIP3    H139014   7.801   0.713   6.258  1.0257  0.6069 -0.6098
13023TIP3    H239015   7.721   0.597   6.203  0.0225  1.0162 -0.0466
13024TIP3   OH239016   5.720   3.988   5.289 -0.1425  0.2213 -0.2678
13024TIP3    H139017   5.760   4.051   5.348  0.5165 -0.7381  0.3408
13024TIP3    H239018   5.677   4.041   5.222  2.8657  1.3677 -1.4965
13025TIP3   OH239019   4.480   2.148   2.381  0.1138  0.1833 -0.2188
13025TIP3    H139020   4.430   2.164   2.460 -0.1937  0.9970 -0.5652
13025TIP3    H239021   4.490   2.053   2.377  1.7159  0.2088  1.7593
13026TIP3   OH239022   0.404   4.154   4.292  0.6961  0.0625 -0.1340
13026TIP3    H139023   0.324   4.207   4.290  1.4169  1.2821  1.0228
13026TIP3    H239024   0.410   4.124   4.382  0.6871 -1.4235 -0.6136
13027TIP3   OH239025   5.010   0.373   1.379  0.3762  0.0692 -0.0620
13027TIP3    H139026   4.986   0.391   1.470 -0.4558 -1.2386  0.0043
13027TIP3    H239027   4.974   0.286   1.362 -1.9453  1.3489 -2.4702
13028TIP3   OH239028   1.794   3.597   1.934  0.3021  0.3162  0.4794
13028TIP3    H139029   1.775   3.600   2.028 -0.4510 -1.6872  0.4412
13028TIP3    H239030   1.833   3.511   1.920 -0.3067  0.2688 -1.1614
13029TIP3   OH239031   7.394   5.988   0.105 -0.0274 -0.5658 -0.9433
13029TIP3    H139032   7.425   5.898   0.115  0.7849 -0.1440  0.4947
13029TIP3    H239033   7.469   6.043   0.128 -0.6296  0.4945 -1.4092
13030TIP3   OH239034   7.884   4.024   2.603 -0.0224 -0.1928 -0.3550
13030TIP3    H139035   7.906   3.932   2.589  1.3562  0.3123 -1.7475
13030TIP3    H239036   7.813   4.041   2.541  1.2395  0.2105 -1.7516
13031TIP3   OH239037   5.659   1.529   5.641 -0.5739  0.1221 -0.0425
13031TIP3    H139038   5.664   1.551   5.734  1.2340  1.5260 -0.4170
13031TIP3    H239039   5.750   1.516   5.614 -1.1812 -2.5467 -1.1543
13032TIP3   OH239040   7.916   6.696   3.598  0.3702 -0.3493 -0.7664
13032TIP3    H139041   7.904   6.604   3.619 -0.6281 -0.5275 -1.9863
13032TIP3    H239042   7.933   6.697   3.504  1.0005  0.6724 -0.6631
13033TIP3   OH239043   0.339   7.617   1.826 -0.4597  0.4180 -0.3866
13033TIP3    H139044   0.356   7.609   1.732 -0.7878 -0.4869 -0.3780
13033TIP3    H239045   0.246   7.596   1.835 -0.6350  1.3464  0.0422
13034TIP3   OH239046   1.833   5.049   0.753 -0.2741 -0.1556 -0.0139
13034TIP3    H139047   1.909   5.076   0.703 -0.2698  0.2140  0.1911
13034TIP3    H239048   1.807   5.127   0.802 -1.5891  0.1209 -1.1005
13035TIP3   OH239049   1.831   4.250   6.062  0.0353  0.1278  0.3350
13035TIP3    H139050   1.872   4.334   6.085  0.2508 -0.0096  0.4604
13035TIP3    H239051   1.875   4.186   6.118  0.2632 -0.1491 -0.1505
13036TIP3   OH239052   6.415   3.318   0.352  0.0517  0.5292 -0.2453
13036TIP3    H139053   6.485   3.382   0.369  1.1365 -0.8747  0.7878
13036TIP3    H239054   6.458   3.248   0.303 -0.8405  0.0389 -0.3400
13037TIP3   OH239055   0.932   4.700   3.227  0.1264  0.4053  0.4119
13037TIP3    H139056   0.950   4.792   3.247 -1.5762  0.9291 -0.2763
13037TIP3    H239057   0.888   4.666   3.305  2.1182 -0.3047  1.2864
13038TIP3   OH239058   2.314   7.013   3.185  0.3189  0.0897 -1.1879
13038TIP3    H139059   2.326   6.923   3.156  0.7239 -0.1244 -0.3841
13038TIP3    H239060   2.227   7.037   3.154 -0.2498 -0.9586 -0.4505
13039TIP3   OH239061   7.974   2.400   0.992  0.0120  0.7798  0.4953
13039TIP3    H139062   7.907   2.362   0.935  1.4346 -2.2118  0.6576
13039TIP3    H239063   7.924   2.446   1.059 -1.8035  0.6334 -0.6877
13040TIP3   OH239064   3.352   4.191   2.120  0.1751 -0.6603 -0.8084
13040TIP3    H139065   3.345   4.283   2.144  0.5928 -0.3069 -1.9557
13040TIP3    H239066   3.270   4.152   2.149 -0.0063  0.0797 -0.3138
13041TIP3   OH239067   0.598   6.535   4.446  0.3094 -0.0350  0.0430
13041TIP3    H139068   0.644   6.456   4.417  1.1507  0.1183  0.9407
13041TIP3    H239069   0.574   6.579   4.365  0.3016 -0.9387 -0.4637
13042TIP3   OH239070   6.653   5.326   0.317  0.0337  0.2352  0.1657
13042TIP3    H139071   6.579   5.361   0.367 -0.9047 -0.6326 -0.5587
13042TIP3    H239072   6.613   5.294   0.236  0.8376 -2.3082  0.6945
13043TIP3   OH239073   6.887   1.407   2.736 -0.0078  0.2592 -0.4840
13043TIP3    H139074   6.938   1.384   2.659  1.4228 -0.4746  0.6306
13043TIP3    H239075   6.871   1.501   2.727 -0.2779  0.0902 -1.8966
13044TIP3   OH239076   6.029   4.310   3.643  0.3440  0.0304  0.7920
13044TIP3    H139077   6.079   4.368   3.700 -0.2593  0.9184  0.4411
13044TIP3    H239078   6.013   4.362   3.564  1.6891 -1.3823 -0.4736
13045TIP3   OH239079   4.932   1.048   0.336 -0.6039 -0.1079  0.3615
13045TIP3    H139080   5.014   1.000   0.339  0.6473  1.8770  0.0210
13045TIP3    H239081   4.879   1.001   0.272  1.5695  0.3968 -1.9747
13046TIP3   OH239082   5.557   4.860   4.608 -0.4990  0.4448  0.3593
13046TIP3    H139083   5.468   4.839   4.638 -0.0097 -1.6332  0.5350
13046TIP3    H239084   5.573   4.797   4.538  0.3942  1.6242 -0.5223
13047TIP3   OH239085   5.618   2.461   1.338  0.2351 -0.3250  0.8698
13047TIP3    H139086   5.634   2.381   1.288  1.8423 -0.5683  1.6807
13047TIP3    H239087   5.590   2.431   1.424 -0.1725  0.0194  0.8618
13048TIP3   OH239088   2.427   6.058   4.375 -0.4503  0.3756 -0.1532
13048TIP3    H139089   2.508   6.032   4.332 -0.3241 -0.2087  0.4326
13048TIP3    H239090   2.452   6.131   4.433  0.5044 -2.1940  2.9648
13049TIP3   OH239091   3.172   4.259   0.442  0.1909 -0.0820  0.4195
13049TIP3    H139092   3.129   4.196   0.499 -0.9950 -0.0818 -0.4294
13049TIP3    H239093   3.197   4.331   0.500 -0.4274 -0.3504  1.0277
13050TIP3   OH239094   6.252   0.612   0.849 -0.0541  0.2604  0.4986
13050TIP3    H139095   6.251   0.592   0.942 -0.8750  2.7801  1.1182
13050TIP3    H239096   6.165   0.588   0.818  0.4560 -1.2567  0.1796
13051TIP3   OH239097   4.743   0.942   1.077  0.2074  0.2320  0.2682
13051TIP3    H139098   4.650   0.928   1.062  0.0146  1.0349  0.6875
13051TIP3    H239099   4.780   0.853   1.085 -0.6397 -0.0755  0.8443
13052TIP3   OH239100   0.406   0.777   2.951  0.6774  0.0030  0.1213
13052TIP3    H139101   0.371   0.739   3.031  1.0497  2.3688  1.5165
13052TIP3    H239102   0.500   0.783   2.965  1.0043 -1.2707 -1.3144
13053TIP3   OH239103   5.379   7.410   5.584 -0.0379 -0.4384  0.2206
13053TIP3    H139104   5.385   7.369   5.498  0.6181 -0.1314  0.1159
13053TIP3    H239105   5.425   7.351   5.643 -0.2392 -0.5084  0.3058
13054TIP3   OH239106   5.360   4.860   5.594 -0.2969  0.4933 -0.0249
13054TIP3    H139107   5.387   4.951   5.586 -1.3259  0.7099 -1.4427
13054TIP3    H239108   5.428   4.810   5.548 -0.0924  0.6026  0.1578
13055TIP3   OH239109   0.385   0.719   0.593 -0.1011 -0.1213 -0.3323
13055TIP3    H139110   0.400   0.719   0.498  1.7699 -2.6515 -0.1562
13055TIP3    H239111   0.290   0.722   0.602 -0.3702 -0.8139 -2.3514
13056TIP3   OH239112   8.098   2.831   0.030  0.1759  0.3197  0.4572
13056TIP3    H139113   8.159   2.787   0.090 -0.6337  0.3563  1.3368
13056TIP3    H239114   8.044   2.885   0.087 -0.7021  0.2602 -0.2946
13057TIP3   OH239115   2.184   5.950   5.356 -0.3506 -0.7400 -0.0579
13057TIP3    H139116   2.138   6.026   5.391  2.3940 -0.0422  2.3793
13057TIP3    H239117   2.253   5.986   5.302  0.2450 -1.5408  0.1491
13058TIP3   OH239118   8.180   5.580   2.106 -0.1177  0.7003  0.4032
13058TIP3    H139119   8.210   5.582   2.015  0.4650  0.7300  0.5884
13058TIP3    H239120   8.085   5.590   2.101 -0.0660  0.9182 -0.1902
13059TIP3   OH239121   5.397   7.101   5.606  0.1813 -0.0667  0.1631
13059TIP3    H139122   5.465   7.068   5.548  0.0859 -0.2941  0.1797
13059TIP3    H239123   5.321   7.114   5.549 -0.1087 -0.8982  0.3484
13060TIP3   OH239124   5.517   6.105   1.272  0.4007  0.4436 -0.0764
13060TIP3    H139125   5.450   6.171   1.256  0.3501  0.1544 -1.2151
13060TIP3    H239126   5.582   6.148   1.327  0.0696  1.2400 -0.3017
13061TIP3   OH239127   6.918   2.808   5.680  0.4156  0.0042  0.1546
13061TIP3    H139128   7.002   2.762   5.687  0.5860  0.0028 -1.4942
13061TIP3    H239129   6.942   2.900   5.669  0.3882 -0.2378 -2.8011
13062TIP3   OH239130   0.281   3.876   1.836  0.3974  0.5138  0.7321
13062TIP3    H139131   0.269   3.857   1.930 -1.7373  3.2595  1.1211
13062TIP3    H239132   0.218   3.819   1.792  1.1121 -0.4774  0.9397
13063TIP3   OH239133   2.453   2.469   3.851  0.2919 -0.4018 -0.6476
13063TIP3    H139134   2.366   2.465   3.889  1.7567 -2.9926  2.9236
13063TIP3    H239135   2.458   2.393   3.793  0.1562 -0.0867 -1.0868
13064TIP3   OH239136   2.506   2.956   3.809 -0.7058  0.5008 -0.3968
13064TIP3    H139137   2.569   3.024   3.832 -0.4150  1.4676 -3.6283
13064TIP3    H239138   2.550   2.874   3.835  1.1851  1.2480 -1.0192
13065TIP3   OH239139   3.360   7.200   2.986  0.0405 -0.1126 -0.8159
13065TIP3    H139140   3.390   7.291   2.988 -0.5678  0.0756  0.5666
13065TIP3    H239141   3.439   7.148   3.003  0.3913  0.1331 -1.6325
13066TIP3   OH239142   4.276   2.133   6.355 -0.1599 -0.0884  0.3675
13066TIP3    H139143   4.251   2.137   6.262  0.1640 -1.4238  0.1984
13066TIP3    H239144   4.298   2.223   6.378 -2.3328  0.6518 -0.2456
13067TIP3   OH239145   5.194   3.911   6.128 -0.3898 -0.0713 -0.5526
13067TIP3    H139146   5.133   3.840   6.109 -0.3978 -0.4483  0.7492
13067TIP3    H239147   5.140   3.977   6.173  0.2529 -0.7433  1.3227
13068TIP3   OH239148   1.714   7.372   4.118 -0.1724 -0.3368  0.2490
13068TIP3    H139149   1.802   7.371   4.156 -1.0135 -0.5009  2.3088
13068TIP3    H239150   1.655   7.363   4.193 -1.9833  0.3965 -1.0134
13069TIP3   OH239151   6.700   6.528   0.063  0.1713 -0.2246  0.2420
13069TIP3    H139152   6.710   6.474  -0.015  2.0061  1.2798 -0.6413
13069TIP3    H239153   6.605   6.543   0.070 -0.2143 -2.0668 -0.4613
13070TIP3   OH239154   7.547   6.505   4.735  0.0861 -0.0987 -0.2328
13070TIP3    H139155   7.599   6.431   4.703  1.0101  0.1494  0.6362
13070TIP3    H239156   7.489   6.527   4.662  0.9973 -0.5846 -1.1258
13071TIP3   OH239157   0.988   4.345   0.618  0.1955  0.6043 -0.5696
13071TIP3    H139158   0.969   4.353   0.524  0.0228  0.0410 -0.5859
13071TIP3    H239159   0.963   4.430   0.655 -2.0360  0.0541 -0.6570
13072TIP3   OH239160   6.691   2.857   3.944  0.5092 -0.0216 -0.2603
13072TIP3    H139161   6.700   2.942   3.986 -1.9905 -0.0245  0.3900
13072TIP3    H239162   6.703   2.793   4.014  0.0699 -0.1297 -0.2788
13073TIP3   OH239163   2.627   4.201   1.181  0.2287 -0.1670  0.3716
13073TIP3    H139164   2.590   4.219   1.095  0.2172 -1.2572  0.1349
13073TIP3    H239165   2.551   4.183   1.236  0.2502  0.2836  0.5480
13074TIP3   OH239166   3.220   7.716   0.883  0.4013  0.2589  0.2920
13074TIP3    H139167   3.152   7.671   0.934 -0.3352  0.1007 -0.7829
13074TIP3    H239168   3.241   7.794   0.934 -1.3764  0.8753  0.1586
13075TIP3   OH239169   6.084   6.347   3.729  0.3494 -0.5053  0.0838
13075TIP3    H139170   6.159   6.389   3.685 -0.2580 -0.4833 -0.9623
13075TIP3    H239171   6.121   6.271   3.773  1.2967  0.5034  1.1245
13076TIP3   OH239172   7.678   6.518   0.425 -0.4270  0.1383 -0.4319
13076TIP3    H139173   7.614   6.462   0.380  0.3336 -0.8775 -0.2715
13076TIP3    H239174   7.631   6.550   0.502 -0.8790 -0.2408 -0.5423
13077TIP3   OH239175   2.993   5.564   2.349  0.0987 -0.1645  0.4911
13077TIP3    H139176   3.037   5.607   2.276 -5.1142  3.1629 -1.2561
13077TIP3    H239177   3.030   5.605   2.427  0.2769  2.4628 -0.8422
13078TIP3   OH239178   2.946   4.664   5.955 -0.4780  0.2036  0.8287
13078TIP3    H139179   2.852   4.662   5.940 -0.2753 -1.0098 -0.4492
13078TIP3    H239180   2.980   4.591   5.904  1.4296  2.0143 -0.6453
13079TIP3   OH239181   3.554   6.337   4.480  0.3578  0.3789 -0.1992
13079TIP3    H139182   3.576   6.429   4.496 -1.3317  0.7609  0.1335
13079TIP3    H239183   3.560   6.327   4.385  0.7674  0.7571 -0.2176
13080TIP3   OH239184   2.736   6.630   0.593 -0.2859 -0.4005  0.3258
13080TIP3    H139185   2.703   6.684   0.521  0.8120  1.5549  1.2011
13080TIP3    H239186   2.659   6.610   0.646 -0.8814 -0.6328 -0.6110
13081TIP3   OH239187   3.939   1.525   2.237  1.0862  0.4106 -0.0831
13081TIP3    H139188   3.953   1.437   2.271  0.6659 -0.2264 -1.5245
13081TIP3    H239189   3.854   1.552   2.272  0.9336  0.0076 -0.1467
13082TIP3   OH239190   7.460   5.371   4.177 -0.2292 -0.0175  0.1131
13082TIP3    H139191   7.364   5.369   4.170 -0.3549  3.9112 -2.3199
13082TIP3    H239192   7.477   5.387   4.270 -2.2137  2.3545  0.1647
13083TIP3   OH239193   6.826   0.530   1.182  0.6951 -0.4887 -0.1925
13083TIP3    H139194   6.871   0.493   1.259  2.1341 -0.9200 -1.2055
13083TIP3    H239195   6.794   0.615   1.212 -0.2666 -1.3641  1.3781
13084TIP3   OH239196   6.006   1.989   0.425 -0.3270  0.0133 -0.2805
13084TIP3    H139197   6.040   2.055   0.364  0.1502  2.0667  2.0843
13084TIP3    H239198   5.941   1.941   0.373  1.9057 -0.1648 -3.1880
13085TIP3   OH239199   7.725   5.499   2.882  0.2184  0.0858 -0.0637
13085TIP3    H139200   7.713   5.483   2.976  0.9619 -0.8201 -0.1075
13085TIP3    H239201   7.722   5.412   2.843  1.0789  0.3502 -0.7403
13086TIP3   OH239202   3.151   6.960   3.019  0.0693  0.4146 -0.5390
13086TIP3    H139203   3.089   6.927   3.084  1.1697  0.0449  0.3769
13086TIP3    H239204   3.180   7.044   3.054  1.3586 -0.2024 -0.0229
13087TIP3   OH239205   3.142   6.020   1.904 -0.5599 -0.2085 -0.4418
13087TIP3    H139206   3.073   6.004   1.969 -0.1564 -0.6674 -0.1186
13087TIP3    H239207   3.113   6.098   1.858 -0.7852  0.2118  0.3908
13088TIP3   OH239208   4.434   2.415   0.182 -0.3940  0.1215 -0.0464
13088TIP3    H139209   4.501   2.483   0.183  1.7014 -1.8152  1.0397
13088TIP3    H239210   4.479   2.336   0.152 -1.8472 -1.5516  1.8392
13089TIP3   OH239211   3.954   7.370   6.232  0.9744 -0.3781  0.0042
13089TIP3    H139212   3.976   7.367   6.325  2.0904  1.1158 -0.1887
13089TIP3    H239213   3.965   7.280   6.202  0.7726 -0.8444  1.2664
13090TIP3   OH239214   8.067   2.692   1.085  0.2223 -0.1946 -0.1483
13090TIP3    H139215   8.083   2.601   1.113 -0.5720 -0.7136 -1.3134
13090TIP3    H239216   7.974   2.706   1.100 -0.1188 -0.3059 -1.9168
13091TIP3   OH239217   5.360   2.282   2.581  0.7037 -0.7150  0.6607
13091TIP3    H139218   5.391   2.345   2.516  0.9461  0.4391  1.8439
13091TIP3    H239219   5.375   2.197   2.540 -1.3523 -0.0378 -1.7748
13092TIP3   OH239220   3.978   3.756   3.385  0.6453 -0.0211 -0.3791
13092TIP3    H139221   3.928   3.738   3.463  3.5637 -1.5811  1.3049
13092TIP3    H239222   3.937   3.703   3.316 -1.6702  1.0178  0.1082
13093TIP3   OH239223   5.907   6.400   2.050  0.3601  0.0921  0.0295
13093TIP3    H139224   5.900   6.308   2.075  0.6878 -0.3723 -1.5150
13093TIP3    H239225   5.821   6.421   2.013  0.5503  0.1652 -0.3750
13094TIP3   OH239226   5.259   5.777   3.161  0.1378 -0.5139  0.2328
13094TIP3    H139227   5.266   5.700   3.105  1.3489  0.6143 -1.2773
13094TIP3    H239228   5.349   5.797   3.186 -0.0664  0.7452  0.0693
13095TIP3   OH239229   4.362   3.140   2.475 -0.0229  0.2865  0.1388
13095TIP3    H139230   4.280   3.093   2.490  0.1427 -0.3637 -0.9229
13095TIP3    H239231   4.388   3.170   2.562 -1.3852  0.5159  0.4898
13096TIP3   OH239232   7.479   2.589   6.544  0.3969  0.2412 -0.5603
13096TIP3    H139233   7.538   2.533   6.594 -0.6406 -0.3898 -0.0153
13096TIP3    H239234   7.403   2.602   6.601  0.7273  2.4772 -0.5290
13097TIP3   OH239235   8.049   5.550   0.818  0.3210  0.0225 -0.1708
13097TIP3    H139236   8.114   5.571   0.885  1.0893 -2.0049 -0.2207
13097TIP3    H239237   8.062   5.616   0.750  1.1604  0.6573  0.5846
13098TIP3   OH239238   3.950   5.298   3.790 -0.0266 -0.3335  0.4759
13098TIP3    H139239   3.883   5.236   3.761 -0.2513 -0.3886  1.1022
13098TIP3    H239240   3.904   5.355   3.852 -0.1441  1.2115 -0.9486
13099TIP3   OH239241   7.293   7.385   4.925  0.1258  0.0088  0.0175
13099TIP3    H139242   7.205   7.405   4.956  0.3035  0.4893  0.2389
13099TIP3    H239243   7.321   7.310   4.977 -0.5827 -0.8950 -0.8678
13100TIP3   OH239244   7.302   5.472   6.294 -0.0890 -0.0686  0.1118
13100TIP3    H139245   7.338   5.480   6.205  0.1928 -1.7039  0.0526
13100TIP3    H239246   7.266   5.383   6.298 -1.8754  0.6254  1.0136
13101TIP3   OH239247   6.873   4.985   0.015 -0.4645 -0.7690 -0.2938
13101TIP3    H139248   6.822   5.055  -0.027  2.0115  0.6704 -1.0941
13101TIP3    H239249   6.827   4.970   0.098 -2.5987 -0.1336 -1.2684
13102TIP3   OH239250   5.720   0.596   4.549  1.0886  0.4533 -0.2551
13102TIP3    H139251   5.661   0.569   4.619  1.9455  0.2222  0.4023
13102TIP3    H239252   5.807   0.591   4.588  1.7328 -1.0361 -1.7473
13103TIP3   OH239253   4.770   3.551   1.947  0.2961 -0.3513 -0.2757
13103TIP3    H139254   4.683   3.542   1.985  0.9172 -1.8099  0.9255
13103TIP3    H239255   4.824   3.584   2.019  1.1107 -1.2697 -0.4499
13104TIP3   OH239256   6.252   3.869   0.307  0.2505  0.3399  0.4302
13104TIP3    H139257   6.260   3.779   0.339  1.2456  0.4510  0.5293
13104TIP3    H239258   6.176   3.904   0.354  0.3122 -0.2138  0.9562
13105TIP3   OH239259   2.648   1.745   1.208 -0.3261 -0.0930 -0.0486
13105TIP3    H139260   2.689   1.830   1.191  0.2827 -1.1251 -5.3476
13105TIP3    H239261   2.556   1.765   1.225  0.0002  1.6743 -0.1747
13106TIP3   OH239262   7.256   2.429   6.062  0.2185  0.1862  0.0705
13106TIP3    H139263   7.216   2.514   6.046  0.8453  0.1925 -1.7274
13106TIP3    H239264   7.292   2.435   6.150 -2.2205  0.7510  1.1005
13107TIP3   OH239265   2.291   2.146   5.283 -0.3375 -0.5426 -0.8296
13107TIP3    H139266   2.298   2.206   5.208 -2.3027 -1.3730 -1.7605
13107TIP3    H239267   2.319   2.062   5.249  1.2704 -0.4306  0.1459
13108TIP3   OH239268   4.622   1.536   5.571 -0.5969  0.4503 -0.3677
13108TIP3    H139269   4.569   1.564   5.646 -0.7300  0.5761 -0.5084
13108TIP3    H239270   4.568   1.470   5.527 -0.2181 -0.1524  0.0532
13109TIP3   OH239271   8.203   7.809   0.486  0.0174 -0.0386 -0.4733
13109TIP3    H139272   8.243   7.733   0.528 -0.6320 -0.2189 -0.1667
13109TIP3    H239273   8.273   7.846   0.432 -0.3766 -2.4143 -2.7997
13110TIP3   OH239274   2.598   1.959   0.897  0.0744  0.0829  0.2683
13110TIP3    H139275   2.688   1.969   0.927  0.3353 -0.1331 -0.4374
13110TIP3    H239276   2.605   1.946   0.802 -0.6316 -0.9202  0.3397
13111TIP3   OH239277   5.678   3.730   3.761  0.1248 -0.6413 -0.8654
13111TIP3    H139278   5.683   3.826   3.756 -1.3213 -0.5297 -0.6296
13111TIP3    H239279   5.739   3.707   3.832 -0.5343  0.2430  0.0228
13112TIP3   OH239280   0.312   0.288   4.073  0.5233  0.0724  0.0085
13112TIP3    H139281   0.345   0.250   4.154 -1.0663 -0.6697  0.3512
13112TIP3    H239282   0.352   0.375   4.069  0.8931 -0.0087  1.4029
13113TIP3   OH239283   6.656   5.686   0.315 -0.0568  0.5512 -0.2493
13113TIP3    H139284   6.739   5.639   0.302 -0.9850 -1.1671 -0.2602
13113TIP3    H239285   6.675   5.749   0.385  1.0511 -0.3983  0.3483
13114TIP3   OH239286   7.897   2.101   2.963  0.0400  0.8315 -0.3537
13114TIP3    H139287   7.986   2.116   2.931 -0.1380  2.3521 -0.1940
13114TIP3    H239288   7.898   2.010   2.994  1.4274  0.7106 -0.6832
13115TIP3   OH239289   3.703   0.501   1.828 -0.2910  0.2092  0.1424
13115TIP3    H139290   3.632   0.439   1.843  0.0970  0.2268  2.4844
13115TIP3    H239291   3.661   0.586   1.827 -0.4982  0.1029 -0.1272
13116TIP3   OH239292   0.370   5.174   3.412 -0.5815  0.5136 -0.1181
13116TIP3    H139293   0.339   5.083   3.417  0.0624  0.2918 -0.1291
13116TIP3    H239294   0.332   5.207   3.331  2.1868 -0.9198 -2.1745
13117TIP3   OH239295   6.118   5.244   2.983 -0.0179  0.5149 -0.4469
13117TIP3    H139296   6.166   5.282   3.057 -0.8210  0.3374  0.1756
13117TIP3    H239297   6.159   5.158   2.970  0.3871  0.7100 -0.4705
13118TIP3   OH239298   2.751   6.842   6.598 -0.1152 -0.1296 -0.2699
13118TIP3    H139299   2.706   6.786   6.535  0.0215 -0.2569 -0.2550
13118TIP3    H239300   2.714   6.818   6.683  1.1195 -1.3999 -0.0433
13119TIP3   OH239301   8.120   2.531   3.464  0.7613  0.1031 -0.1041
13119TIP3    H139302   8.184   2.461   3.477  1.7104  1.4024  3.3418
13119TIP3    H239303   8.172   2.611   3.468 -0.7903  1.1234  0.1421
13120TIP3   OH239304   4.923   2.223   5.587 -0.1456  0.1188 -0.6279
13120TIP3    H139305   4.831   2.251   5.584 -0.2000  0.1301  0.6072
13120TIP3    H239306   4.960   2.253   5.504 -0.9822  1.1299 -0.6610
13121TIP3   OH239307   6.948   1.974   0.073  0.3686  0.1115 -0.0224
13121TIP3    H139308   6.995   1.916   0.133  0.6726  0.8850  0.5065
13121TIP3    H239309   7.018   2.019   0.024  0.1166 -1.0335 -1.4807
13122TIP3   OH239310   7.224   1.080   4.401 -0.0739  1.0241  0.4381
13122TIP3    H139311   7.277   1.156   4.425  0.7456  1.7205 -2.9993
13122TIP3    H239312   7.280   1.028   4.343 -2.1885  0.3662 -1.1849
13123TIP3   OH239313   6.855   6.430   4.272  0.2609 -0.4303  0.2026
13123TIP3    H139314   6.774   6.395   4.234  0.1078  1.3308 -1.1917
13123TIP3    H239315   6.826   6.487   4.343  0.4224 -1.3789  1.0683
13124TIP3   OH239316   4.433   2.461   1.991  0.2457 -0.0861  0.1012
13124TIP3    H139317   4.439   2.443   2.085  0.9676 -0.6869 -0.0551
13124TIP3    H239318   4.349   2.424   1.965 -0.1813  0.5099  0.5926
13125TIP3   OH239319   1.560   0.297   2.448 -0.2995 -0.2893 -0.2995
13125TIP3    H139320   1.576   0.353   2.523  2.4792 -0.4874 -0.6390
13125TIP3    H239321   1.614   0.334   2.378  0.2203 -2.3115 -1.0420
13126TIP3   OH239322   4.367   2.775   4.084  0.2397 -0.5334 -0.0247
13126TIP3    H139323   4.461   2.785   4.071  0.1926  0.4508  0.3337
13126TIP3    H239324   4.328   2.807   4.003  0.1665  0.3041  0.3363
13127TIP3   OH239325   5.992   3.820   5.082  0.4433  0.3255  0.2092
13127TIP3    H139326   5.899   3.822   5.105 -0.1204 -1.4133 -1.6357
13127TIP3    H239327   6.018   3.729   5.096  2.0262  0.8737  1.1200
13128TIP3   OH239328   6.456   5.279   1.048 -0.9129  0.4078 -0.4167
13128TIP3    H139329   6.454   5.374   1.037 -0.9058  0.2404 -2.1545
13128TIP3    H239330   6.369   5.250   1.024 -1.2384  0.0260  1.0974
13129TIP3   OH239331   5.162   5.859   4.486 -0.0891 -0.2608  0.1679
13129TIP3    H139332   5.087   5.800   4.478  0.1138 -0.6940  1.2263
13129TIP3    H239333   5.214   5.844   4.407 -0.3192 -1.1121  0.1757
13130TIP3   OH239334   4.823   7.251   1.462  0.1123 -0.0646  0.3568
13130TIP3    H139335   4.746   7.197   1.483 -0.6187  0.6590 -0.3809
13130TIP3    H239336   4.787   7.326   1.414  1.2883  0.2564 -0.0514
13131TIP3   OH239337   5.312   6.806   5.970  0.8598  0.3295  0.3571
13131TIP3    H139338   5.253   6.731   5.963  0.9440  0.0811  1.9035
13131TIP3    H239339   5.275   6.872   5.911  0.3434 -0.6391 -0.4239
13132TIP3   OH239340   0.580   4.863   6.443 -0.8358 -0.0091  0.2254
13132TIP3    H139341   0.590   4.946   6.396 -0.8893 -0.0186  0.1969
13132TIP3    H239342   0.594   4.796   6.377  0.9252 -0.0492  0.5910
13133TIP3   OH239343   8.215   6.724   3.445  0.1396  0.5706  0.2560
13133TIP3    H139344   8.207   6.781   3.522  4.7554  1.7622  0.1147
13133TIP3    H239345   8.173   6.773   3.374  1.3878  2.4608  0.7717
13134TIP3   OH239346   0.550   4.689   3.817  0.1163  0.6675  0.3680
13134TIP3    H139347   0.604   4.682   3.738  1.2404 -4.9387  1.2567
13134TIP3    H239348   0.611   4.714   3.886 -0.0931  1.7531  0.1851
13135TIP3   OH239349   2.449   0.456   0.034  0.3508 -0.4681 -1.1330
13135TIP3    H139350   2.484   0.538  -0.001 -0.8239  0.0144 -1.1941
13135TIP3    H239351   2.376   0.482   0.090  1.2163 -1.3314  0.5036
13136TIP3   OH239352   7.248   3.955   3.058 -0.0357 -0.3308  0.0358
13136TIP3    H139353   7.303   4.000   3.121 -1.1302 -0.4277  1.1078
13136TIP3    H239354   7.308   3.925   2.990  1.0419  0.5952  0.5497
13137TIP3   OH239355   8.247   6.658   3.015 -0.2396 -0.4156 -0.0297
13137TIP3    H139356   8.259   6.709   2.934 -1.1382  0.1249  0.1583
13137TIP3    H239357   8.322   6.599   3.017  2.1061  2.3385  0.8366
13138TIP3   OH239358   7.086   0.272   5.616  0.1248  0.3364  0.7379
13138TIP3    H139359   7.000   0.244   5.584  0.1086 -0.5844  1.5418
13138TIP3    H239360   7.066   0.321   5.696  0.2588  1.5048  0.0876
13139TIP3   OH239361   6.265   7.173   0.770 -0.3958 -0.1217 -0.2826
13139TIP3    H139362   6.309   7.095   0.805 -1.1689 -0.7127 -0.5904
13139TIP3    H239363   6.173   7.148   0.768 -0.2933 -0.7876 -4.3163
13140TIP3   OH239364   2.836   3.161   2.844  0.0037  0.3395  0.0780
13140TIP3    H139365   2.752   3.175   2.889  0.0545  2.0201 -0.2674
13140TIP3    H239366   2.833   3.220   2.769 -0.4744 -3.0668 -2.8204
13141TIP3   OH239367   6.278   2.979   5.557 -0.3710  0.1177  0.0068
13141TIP3    H139368   6.252   2.904   5.612  1.7711  0.1235  1.1685
13141TIP3    H239369   6.374   2.977   5.559 -0.2592  2.1000 -1.0817
13142TIP3   OH239370   7.849   1.719   2.610 -0.8673  0.7318 -0.5817
13142TIP3    H139371   7.890   1.798   2.574 -0.9060  1.3936  0.7778
13142TIP3    H239372   7.918   1.653   2.608 -0.6671  0.9509 -1.2140
13143TIP3   OH239373   0.504   6.994   5.829 -0.7934 -0.0429 -0.2509
13143TIP3    H139374   0.422   6.944   5.829 -0.0504 -1.4571  2.1414
13143TIP3    H239375   0.485   7.069   5.886 -0.8152  0.3809 -0.8143
13144TIP3   OH239376   2.439   3.934   5.888  0.6183 -0.1993  0.3624
13144TIP3    H139377   2.435   4.017   5.936 -0.0120 -0.3988  0.6652
13144TIP3    H239378   2.441   3.868   5.957 -2.0350 -0.5838  0.1717
13145TIP3   OH239379   6.000   3.503   1.308 -0.1854 -0.5823  0.1057
13145TIP3    H139380   6.093   3.517   1.328 -0.6601  0.4567  1.8232
13145TIP3    H239381   5.974   3.432   1.366 -0.9227  0.5578  1.2435
13146TIP3   OH239382   0.282   4.616   3.912 -0.3348  0.0911  0.3733
13146TIP3    H139383   0.373   4.617   3.941 -0.0630  0.3105 -0.4564
13146TIP3    H239384   0.278   4.682   3.843 -1.2603  0.4886  0.7845
13147TIP3   OH239385   6.719   0.537   0.868  0.4345 -0.3820 -0.3759
13147TIP3    H139386   6.695   0.611   0.923  1.8602  1.0434 -1.5620
13147TIP3    H239387   6.717   0.572   0.779  1.9115 -1.5265 -0.9122
13148TIP3   OH239388   1.994   6.995   5.932 -0.7798  0.3530  0.2271
13148TIP3    H139389   1.966   7.082   5.963  1.7103  0.9232  1.1324
13148TIP3    H239390   2.012   6.946   6.011 -0.7111 -0.4995 -0.3050
13149TIP3   OH239391   4.899   4.935   4.332 -0.5834  0.0497 -0.3869
13149TIP3    H139392   4.953   5.013   4.321 -1.7841  0.6126 -2.7835
13149TIP3    H239393   4.870   4.939   4.423  0.2167  1.8284 -0.1735
13150TIP3   OH239394   2.131   6.003   5.682  0.1666  0.2397  0.7665
13150TIP3    H139395   2.215   6.048   5.681  0.3921 -0.0639 -1.5426
13150TIP3    H239396   2.077   6.051   5.619 -0.8754 -0.4352  1.1129
13151TIP3   OH239397   1.167   4.877   3.069  0.3198 -0.3166  0.4851
13151TIP3    H139398   1.248   4.906   3.027  0.6797  2.0460  2.5864
13151TIP3    H239399   1.195   4.807   3.128  0.8360  0.4093  1.1165
13152TIP3   OH239400   3.946   6.180   6.064 -0.2660 -0.3941  0.1143
13152TIP3    H139401   3.949   6.098   6.016  0.6786 -0.9813  1.1268
13152TIP3    H239402   4.032   6.220   6.050  0.1343 -0.7070  1.4823
13153TIP3   OH239403   8.144   1.647   3.662 -0.3234 -0.3161  0.3444
13153TIP3    H139404   8.061   1.677   3.698  0.4373  2.2207  0.2052
13153TIP3    H239405   8.203   1.644   3.738 -0.0721 -0.2461  0.1527
13154TIP3   OH239406   6.894   2.923   0.214  0.3989  0.2018  0.5168
13154TIP3    H139407   6.868   3.010   0.183  0.7126 -0.0761 -0.5837
13154TIP3    H239408   6.969   2.901   0.159 -1.3504 -1.9276 -1.2256
13155TIP3   OH239409   5.129   5.262   6.040 -0.3504  0.2195 -0.0335
13155TIP3    H139410   5.170   5.345   6.064  0.3756  0.4910 -2.0748
13155TIP3    H239411   5.193   5.196   6.067  0.9534  0.5774 -2.0249
13156TIP3   OH239412   1.499   0.548   6.335 -0.7657 -0.5209  0.0411
13156TIP3    H139413   1.546   0.581   6.411 -0.5710  0.8141 -0.6267
13156TIP3    H239414   1.561   0.490   6.291  0.3857  1.3695 -0.9358
13157TIP3   OH239415   3.735   0.073   6.174 -0.6790  0.0485 -0.1590
13157TIP3    H139416   3.740   0.070   6.269 -0.2892  1.9559 -0.0609
13157TIP3    H239417   3.715   0.165   6.155 -0.7715 -0.3052 -1.9135
13158TIP3   OH239418   5.029   1.370   6.480  0.1992  0.2039  0.1733
13158TIP3    H139419   4.990   1.443   6.528 -1.1721 -0.3430 -0.0899
13158TIP3    H239420   5.120   1.367   6.511 -0.0726  1.2165  1.1146
13159TIP3   OH239421   1.143   0.576   5.764  0.3427 -0.8787  0.7591
13159TIP3    H139422   1.212   0.584   5.829  0.0335 -0.7011  1.0704
13159TIP3    H239423   1.064   0.607   5.809  0.1207 -0.7891  0.3141
13160TIP3   OH239424   4.331   3.999   5.462  0.4825 -0.7125  0.4063
13160TIP3    H139425   4.240   4.009   5.489  0.3175 -1.7876  0.2946
13160TIP3    H239426   4.364   4.089   5.456 -1.4462 -0.0418 -2.6692
13161TIP3   OH239427   2.637   3.209   2.609  0.4608  0.0815 -0.1601
13161TIP3    H139428   2.554   3.162   2.598 -0.0629  1.3256 -1.9944
13161TIP3    H239429   2.625   3.260   2.690 -0.4427 -0.0054 -0.2280
13162TIP3   OH239430   7.131   5.105   3.920 -0.0305 -0.4503 -0.0447
13162TIP3    H139431   7.135   5.115   3.825 -0.2760 -0.6094 -0.0736
13162TIP3    H239432   7.220   5.082   3.946 -0.6040 -3.6663 -0.6110
13163TIP3   OH239433   3.288   7.349   4.567 -0.2274  0.5879 -0.6245
13163TIP3    H139434   3.264   7.418   4.629  1.0327 -0.2051  0.8168
13163TIP3    H239435   3.281   7.268   4.618 -1.7384 -0.3967 -2.2964
13164TIP3   OH239436   3.897   3.350   3.887 -0.0949  0.2183 -0.6365
13164TIP3    H139437   3.968   3.290   3.861  0.0849  0.4598 -0.7149
13164TIP3    H239438   3.817   3.300   3.873  0.0706 -0.1249 -0.3645
13165TIP3   OH239439   8.051   2.194   6.711 -0.2787 -0.0895  0.0586
13165TIP3    H139440   8.130   2.167   6.664  0.3712  1.1040  0.4243
13165TIP3    H239441   8.022   2.115   6.757  0.1376 -0.7883 -0.8440
13166TIP3   OH239442   4.690   6.389   1.327 -0.1551 -0.0028 -0.7915
13166TIP3    H139443   4.722   6.440   1.252 -0.2958  1.2623 -0.0307
13166TIP3    H239444   4.634   6.322   1.288  1.2321 -0.5440 -1.9401
13167TIP3   OH239445   6.075   7.319   2.543  0.3230  0.1677 -0.0690
13167TIP3    H139446   6.102   7.399   2.588  2.2389 -0.8314  0.6393
13167TIP3    H239447   6.127   7.318   2.463  1.9436 -1.3878  0.9355
13168TIP3   OH239448   2.710   7.291   1.669  0.0000 -0.3578  0.1372
13168TIP3    H139449   2.709   7.385   1.654 -1.2183 -0.6086 -1.7165
13168TIP3    H239450   2.768   7.279   1.744 -1.7202  2.0657  1.9871
13169TIP3   OH239451   0.385   6.700   2.786 -0.1117 -0.1117  0.2166
13169TIP3    H139452   0.447   6.709   2.714  1.0838 -0.2569  1.2113
13169TIP3    H239453   0.424   6.750   2.858 -1.7597  0.8730  0.4901
13170TIP3   OH239454   2.797   7.220   4.007 -0.4664 -0.8397  0.1623
13170TIP3    H139455   2.868   7.250   4.063  0.2409 -0.6458 -0.8024
13170TIP3    H239456   2.805   7.273   3.928 -1.4299 -1.1127 -0.1353
13171TIP3   OH239457   6.975   5.096   4.689 -0.2423 -0.2201  0.5192
13171TIP3    H139458   6.997   5.135   4.773  0.8976 -0.1829  0.2164
13171TIP3    H239459   6.992   5.002   4.701  0.7503 -0.1053  0.0838
13172TIP3   OH239460   4.431   4.481   5.224  0.2829 -0.2951 -0.7239
13172TIP3    H139461   4.362   4.415   5.230  0.4866 -0.5250 -0.8653
13172TIP3    H239462   4.404   4.538   5.152 -1.1335  1.2529  0.9190
13173TIP3   OH239463   1.770   5.987   4.836 -0.5061 -0.5156  0.4164
13173TIP3    H139464   1.847   5.984   4.893  0.1587  0.2964 -0.4033
13173TIP3    H239465   1.737   6.076   4.845  0.4226  0.0883 -1.4432
13174TIP3   OH239466   6.459   7.177   2.044 -0.0863  0.1661 -0.0394
13174TIP3    H139467   6.478   7.141   2.131 -0.5002  0.8223  0.3284
13174TIP3    H239468   6.373   7.142   2.021  0.5083 -0.9208 -0.6907
13175TIP3   OH239469   0.057   1.639   1.025 -0.3373  0.3281 -0.1103
13175TIP3    H139470   0.004   1.616   1.102  0.8562 -0.7750  0.4220
13175TIP3    H239471   0.054   1.561   0.969  0.4107  0.3779 -0.2344
13176TIP3   OH239472   1.661   4.240   4.181  0.6307 -0.2369  0.0518
13176TIP3    H139473   1.634   4.233   4.090  1.2870 -1.3508 -0.0786
13176TIP3    H239474   1.601   4.304   4.219 -1.6361 -1.9400 -0.4327
13177TIP3   OH239475   0.111   1.860   0.712 -0.2606  0.2198 -0.3150
13177TIP3    H139476   0.165   1.920   0.662  0.4134  0.6471  0.8974
13177TIP3    H239477   0.024   1.900   0.711 -0.1666  0.4177 -0.8104
13178TIP3   OH239478   4.399   4.793   5.887  0.1764 -0.0443 -0.5823
13178TIP3    H139479   4.481   4.805   5.935 -0.1925 -4.1475  1.5335
13178TIP3    H239480   4.426   4.778   5.796  1.6319  0.1031 -0.2049
13179TIP3   OH239481   3.148   6.060   4.836 -0.0861  0.5972 -0.5528
13179TIP3    H139482   3.055   6.082   4.832 -0.4630 -0.4882  1.2150
13179TIP3    H239483   3.181   6.107   4.912  0.9060  1.1791 -1.3184
13180TIP3   OH239484   1.420   7.679   4.004  0.0587  0.1210 -0.5122
13180TIP3    H139485   1.511   7.691   3.977  0.8297 -1.6576  1.0254
13180TIP3    H239486   1.389   7.605   3.952 -0.3516  0.3928 -0.6626
13181TIP3   OH239487   3.615   5.810   2.840  0.1189  0.1394  0.0286
13181TIP3    H139488   3.683   5.798   2.773  0.5634  0.5670  0.3967
13181TIP3    H239489   3.651   5.768   2.918 -0.4138 -0.3895 -0.0055
13182TIP3   OH239490   7.084   4.653   4.917  0.1410  0.2513  0.5731
13182TIP3    H139491   7.143   4.600   4.864 -1.3110  0.3330 -1.2236
13182TIP3    H239492   7.133   4.672   4.996  1.7912 -1.2744 -0.0240
13183TIP3   OH239493   2.466   7.440   5.447  0.2809 -0.3489 -0.3448
13183TIP3    H139494   2.382   7.422   5.406  0.7851 -0.9245 -1.1499
13183TIP3    H239495   2.443   7.476   5.533 -0.7967  0.7515 -1.0546
13184TIP3   OH239496   1.785   6.869   3.643  0.2113 -0.0618  0.9007
13184TIP3    H139497   1.767   6.784   3.605 -0.9233  0.2279  0.7429
13184TIP3    H239498   1.872   6.861   3.682  0.6242 -0.9013 -0.1767
13185TIP3   OH239499   2.947   5.691   4.366  0.1738  0.2615 -0.3723
13185TIP3    H139500   2.910   5.778   4.383  0.3007  0.6162 -1.7405
13185TIP3    H239501   3.024   5.686   4.423 -0.0661  0.8868  0.0134
13186TIP3   OH239502   3.898   1.326   4.664 -0.0603 -0.0549  0.3339
13186TIP3    H139503   3.876   1.236   4.688  0.1644 -0.4737 -0.9588
13186TIP3    H239504   3.985   1.320   4.626 -0.4177  0.5457 -0.6193
13187TIP3   OH239505   2.512   1.448   0.306  0.2097 -0.2527  0.4880
13187TIP3    H139506   2.464   1.368   0.327  0.6233 -0.7826 -0.4780
13187TIP3    H239507   2.445   1.515   0.298 -0.1630 -0.5456  1.1133
13188TIP3   OH239508   1.495   4.389   2.838  0.4604  0.0467 -0.1704
13188TIP3    H139509   1.585   4.378   2.869  1.2671  2.3938 -1.5049
13188TIP3    H239510   1.461   4.463   2.888 -1.0397 -1.2615  0.8456
13189TIP3   OH239511   4.200   1.841   5.911  0.1367  0.4306  0.5553
13189TIP3    H139512   4.292   1.850   5.938  1.0557 -0.9121 -1.7765
13189TIP3    H239513   4.191   1.749   5.888 -2.0091  0.4110  1.2807
13190TIP3   OH239514   1.304   6.166   3.016 -1.2111 -0.0014  0.5557
13190TIP3    H139515   1.350   6.134   3.093 -0.8381 -0.3031  0.2093
13190TIP3    H239516   1.310   6.262   3.023  1.0525 -0.0141 -0.3984
13191TIP3   OH239517   7.723   3.697   1.090  0.2840 -0.3484  0.0653
13191TIP3    H139518   7.794   3.727   1.034  0.3159 -0.8319 -0.1607
13191TIP3    H239519   7.667   3.773   1.102  0.9499  0.0883  0.4116
13192TIP3   OH239520   1.175   1.191   6.203 -0.1866  0.4619  0.1932
13192TIP3    H139521   1.081   1.204   6.216 -0.3446 -0.4609  0.0926
13192TIP3    H239522   1.182   1.153   6.116 -0.0354 -2.3223  1.3109
13193TIP3   OH239523   2.039   6.347   0.398 -1.0504 -0.6635 -0.1541
13193TIP3    H139524   2.035   6.337   0.493 -1.0502 -1.0063 -0.1912
13193TIP3    H239525   1.960   6.305   0.366 -0.7781 -1.0286 -0.3475
13194TIP3   OH239526   4.815   3.819   3.621 -0.1801 -0.1389 -0.1473
13194TIP3    H139527   4.900   3.776   3.615  0.7590  1.5599  0.2585
13194TIP3    H239528   4.806   3.867   3.539 -0.6759 -0.1640 -0.1130
13195TIP3   OH239529   7.259   5.194   6.291 -0.3730  0.0562 -0.4838
13195TIP3    H139530   7.338   5.151   6.325 -0.6865  2.3527  3.7484
13195TIP3    H239531   7.187   5.141   6.324 -0.6670  1.7680  1.7989
13196TIP3   OH239532   1.926   0.349   5.814  0.6679 -0.0015 -0.4777
13196TIP3    H139533   1.984   0.368   5.739  2.4202 -0.0669  0.7932
13196TIP3    H239534   1.855   0.297   5.776 -0.3029  2.6463 -2.6873
13197TIP3   OH239535   7.297   2.968   2.782  0.4260 -0.2058  0.1776
13197TIP3    H139536   7.280   3.062   2.773 -1.0274 -0.5447 -0.9432
13197TIP3    H239537   7.216   2.932   2.818  1.5023 -0.8627  2.1346
13198TIP3   OH239538   6.185   4.422   5.611  0.8136  0.0250 -0.0937
13198TIP3    H139539   6.193   4.491   5.677  2.0834  1.3492 -1.5496
13198TIP3    H239540   6.226   4.346   5.652 -0.9098 -0.0357  1.6721
13199TIP3   OH239541   2.807   2.359   5.960  0.2146  0.8134 -0.2765
13199TIP3    H139542   2.811   2.274   5.915  0.6376  0.5656  0.2112
13199TIP3    H239543   2.893   2.368   6.001  0.3805  1.7638 -0.8206
13200TIP3   OH239544   0.176   2.853   2.737  0.0518 -0.1567 -0.4150
13200TIP3    H139545   0.210   2.772   2.775 -1.2577  0.4586  2.3268
13200TIP3    H239546   0.088   2.829   2.706  0.8386 -0.4737 -2.5667
13201TIP3   OH239547   1.408   0.475   5.380  0.4707  0.0158  0.1109
13201TIP3    H139548   1.360   0.509   5.306  0.4239  0.5158  0.3672
13201TIP3    H239549   1.438   0.388   5.352  1.3118  0.5974 -0.8648
13202TIP3   OH239550   7.235   1.298   3.771  0.3627 -0.9344  0.2810
13202TIP3    H139551   7.328   1.305   3.749  1.4821 -3.6863  3.3169
13202TIP3    H239552   7.216   1.205   3.762 -1.8259 -0.5655  0.7017
13203TIP3   OH239553   1.419   1.420   2.487  0.1938  0.1576  0.1326
13203TIP3    H139554   1.336   1.420   2.440 -0.0807  2.1891  0.5094
13203TIP3    H239555   1.472   1.354   2.442 -1.6709 -1.3898  0.0540
13204TIP3   OH239556   2.681   3.774   0.865  0.6645  0.2739 -0.4161
13204TIP3    H139557   2.716   3.862   0.876  2.8111 -0.5804 -0.0350
13204TIP3    H239558   2.734   3.719   0.923 -0.7848 -1.2564 -0.4437
13205TIP3   OH239559   0.837   5.843   6.048  0.3115 -0.0248  0.2922
13205TIP3    H139560   0.923   5.804   6.030 -0.4739 -2.1516  0.8001
13205TIP3    H239561   0.783   5.817   5.973 -0.8606 -2.1087  1.7426
13206TIP3   OH239562   1.852   1.316   4.966  0.4153  0.3682  0.3780
13206TIP3    H139563   1.773   1.369   4.955 -0.3129 -0.7125  0.2736
13206TIP3    H239564   1.821   1.226   4.968  1.7480 -0.1655 -0.8062
13207TIP3   OH239565   3.732   6.265   3.321  0.0649  0.4537  0.4979
13207TIP3    H139566   3.646   6.302   3.301  0.3913  1.5076  0.9569
13207TIP3    H239567   3.724   6.172   3.300 -1.2776  0.4742  0.8364
13208TIP3   OH239568   8.314   0.036   0.627  0.5913 -0.0583  0.3968
13208TIP3    H139569   8.316   0.038   0.531  0.3171  1.4703  0.3943
13208TIP3    H239570   8.235   0.086   0.650  0.7652 -0.2399  1.4244
13209TIP3   OH239571   4.345   2.356   0.426  0.8707 -0.3583  0.4370
13209TIP3    H139572   4.376   2.374   0.337  0.9898 -1.5892  0.2132
13209TIP3    H239573   4.273   2.418   0.438  2.5152  1.6696  0.4921
13210TIP3   OH239574   1.863   6.721   1.610  0.3216  0.4655  0.2665
13210TIP3    H139575   1.948   6.700   1.572 -0.3095  0.4210 -1.2029
13210TIP3    H239576   1.819   6.772   1.542 -1.3726 -0.7592  0.3828
13211TIP3   OH239577   0.656   1.367   1.576  0.4570  0.2849  0.0024
13211TIP3    H139578   0.613   1.305   1.517 -1.3803  0.3102  1.1972
13211TIP3    H239579   0.709   1.423   1.519  1.6973 -1.9792 -1.1633
13212TIP3   OH239580   6.471   0.145   0.999  0.5178 -0.2711 -0.2208
13212TIP3    H139581   6.445   0.216   0.940 -0.9665  0.6359  1.4020
13212TIP3    H239582   6.557   0.171   1.032  1.2970 -0.7214 -1.8262
13213TIP3   OH239583   1.646   2.642   5.583  0.0110  0.0120 -0.1844
13213TIP3    H139584   1.679   2.577   5.645  0.2036 -0.2777 -0.5857
13213TIP3    H239585   1.615   2.714   5.638 -0.5723 -0.5816  0.2869
13214TIP3   OH239586   4.793   5.267   5.575 -0.0147 -0.2741 -0.0030
13214TIP3    H139587   4.785   5.226   5.489 -2.6353  0.1363 -0.0268
13214TIP3    H239588   4.808   5.359   5.557 -0.6620 -0.1715 -0.0498
13215TIP3   OH239589   4.141   4.253   2.342  0.4936  0.0836  0.1118
13215TIP3    H139590   4.171   4.335   2.302  0.9513  0.0277  0.3274
13215TIP3    H239591   4.058   4.234   2.300  2.1194 -1.3478 -2.7897
13216TIP3   OH239592   6.119   6.849   3.696 -0.5495 -0.1541  0.4232
13216TIP3    H139593   6.027   6.872   3.703 -0.8900 -0.5154 -2.0008
13216TIP3    H239594   6.134   6.788   3.768 -2.5292 -1.0315  0.1619
13217TIP3   OH239595   1.739   5.641   0.890 -0.0909 -0.1007  0.2419
13217TIP3    H139596   1.806   5.677   0.948  0.0727  2.2499 -1.2766
13217TIP3    H239597   1.691   5.578   0.945  2.1368 -0.4821  1.8956
13218TIP3   OH239598   0.029   6.190   4.575  0.4510 -0.4284 -0.5268
13218TIP3    H139599   0.041   6.280   4.605  1.7110 -1.2772  1.8023
13218TIP3    H239600  -0.042   6.156   4.629 -0.1687 -0.7959 -1.5498
13219TIP3   OH239601   4.674   0.259   3.472 -0.4714 -1.2368  0.4541
13219TIP3    H139602   4.601   0.203   3.447 -0.8139 -0.3211 -0.7046
13219TIP3    H239603   4.740   0.199   3.505 -0.6943 -2.3750 -1.0530
13220TIP3   OH239604   6.373   5.529   2.013  0.5940  0.3288  0.5165
13220TIP3    H139605   6.309   5.482   1.960  0.4085 -0.0479  1.0599
13220TIP3    H239606   6.441   5.465   2.032  0.6613  0.4600  0.7271
13221TIP3   OH239607   1.840   4.450   2.179 -0.4043  0.3506  0.2286
13221TIP3    H139608   1.747   4.429   2.184 -0.0773 -0.8534  2.0753
13221TIP3    H239609   1.864   4.430   2.088 -1.1094 -3.3127  0.6923
13222TIP3   OH239610   0.693   0.909   5.364  0.4738 -0.0678 -0.1284
13222TIP3    H139611   0.781   0.905   5.402  1.3610 -0.0349 -2.0667
13222TIP3    H239612   0.636   0.876   5.434  2.0204 -0.2240  1.1363
13223TIP3   OH239613   5.614   2.185   4.992 -0.3955 -0.4068  0.0279
13223TIP3    H139614   5.612   2.090   5.003  0.5501 -0.3930  0.3559
13223TIP3    H239615   5.594   2.199   4.899 -0.7524 -0.9045  0.0236
13224TIP3   OH239616   0.404   2.995   3.652  0.2725 -0.3465  0.5169
13224TIP3    H139617   0.381   3.013   3.743 -1.4539  0.3494 -0.0183
13224TIP3    H239618   0.445   3.075   3.621 -1.5024  0.4150 -0.0104
13225TIP3   OH239619   4.474   1.245   4.524  0.0592 -0.4215  0.2909
13225TIP3    H139620   4.478   1.220   4.617 -1.6993  1.4794  0.9723
13225TIP3    H239621   4.383   1.227   4.499  0.2627 -0.0067 -0.7815
13226TIP3   OH239622   2.300   7.154   1.942  0.3246 -0.1611 -0.4438
13226TIP3    H139623   2.264   7.066   1.943  0.9053 -0.3964  0.6062
13226TIP3    H239624   2.239   7.206   1.995  2.7007 -1.0989  3.6237
13227TIP3   OH239625   0.037   4.836   0.203  0.0178 -0.5110 -0.4464
13227TIP3    H139626   0.032   4.932   0.202 -0.5058 -0.5265 -1.7706
13227TIP3    H239627   0.112   4.817   0.259 -0.6905  0.6178  0.9608
13228TIP3   OH239628   7.809   6.998   0.138 -0.4068 -0.2467 -0.5668
13228TIP3    H139629   7.748   6.932   0.106  0.6280 -1.5449  0.0709
13228TIP3    H239630   7.804   7.068   0.073 -2.1451 -0.5536 -0.8183
13229TIP3   OH239631   1.814   5.265   0.927 -0.5413  1.0257  0.2535
13229TIP3    H139632   1.824   5.245   1.021  1.3889  0.9763  0.0902
13229TIP3    H239633   1.720   5.278   0.915 -1.0808 -0.9511  1.7874
13230TIP3   OH239634   3.433   5.645   3.653 -0.0918  0.4034  0.1733
13230TIP3    H139635   3.471   5.732   3.662 -0.6662  0.5103  1.9860
13230TIP3    H239636   3.440   5.606   3.740 -1.9711 -0.4698 -0.0047
13231TIP3   OH239637   3.670   1.148   0.494  0.0654  0.3066 -0.1710
13231TIP3    H139638   3.717   1.087   0.438  1.0309  0.6711  0.2119
13231TIP3    H239639   3.739   1.194   0.542 -0.7198 -1.1326  2.5548
13232TIP3   OH239640   7.727   6.598   0.860 -0.1455  0.1875 -0.4233
13232TIP3    H139641   7.726   6.666   0.793  0.0078  1.8369  1.1598
13232TIP3    H239642   7.819   6.592   0.887  0.0540 -1.5382 -1.3435
13233TIP3   OH239643   6.656   7.053   5.338  0.1079  0.1292  0.3939
13233TIP3    H139644   6.716   7.034   5.410 -0.4781 -2.3361  0.3125
13233TIP3    H239645   6.571   7.066   5.380  0.2601  1.4477  0.3333
13234TIP3   OH239646   0.908   6.810   2.690  0.7464 -0.1996  0.1251
13234TIP3    H139647   0.914   6.798   2.595  0.0498 -2.9318  0.3458
13234TIP3    H239648   0.977   6.873   2.711 -0.4521  2.1808 -2.3929
13235TIP3   OH239649   5.935   3.398   6.584  0.6239 -0.2685 -0.3922
13235TIP3    H139650   5.988   3.345   6.524  0.9609 -1.3211  0.7747
13235TIP3    H239651   5.984   3.398   6.666 -0.8617 -0.7710  0.5538
13236TIP3   OH239652   5.210   4.247   6.197 -0.6985  0.5585  0.1083
13236TIP3    H139653   5.236   4.320   6.140  0.9328 -0.6486 -0.7803
13236TIP3    H239654   5.186   4.288   6.280 -0.1287  2.1286 -0.4743
13237TIP3   OH239655   4.689   2.186   2.766 -0.1839 -0.0793  0.0613
13237TIP3    H139656   4.605   2.162   2.804 -0.4982  1.0569  0.1007
13237TIP3    H239657   4.743   2.213   2.840  0.1674 -0.6233  0.0148
13238TIP3   OH239658   2.291   5.274   3.631 -0.4701  0.6153  0.1515
13238TIP3    H139659   2.205   5.232   3.635  0.8112 -2.1959  0.4876
13238TIP3    H239660   2.311   5.296   3.722 -0.5950  0.8103  0.1339
13239TIP3   OH239661   7.274   2.545   0.374 -0.0294 -0.0359 -0.2641
13239TIP3    H139662   7.230   2.532   0.291 -0.8121 -1.0314  0.2849
13239TIP3    H239663   7.216   2.505   0.439  1.5050 -1.0916  0.5253
13240TIP3   OH239664   7.940   1.955   4.764  0.1545  0.3296  0.3968
13240TIP3    H139665   7.874   2.023   4.779  0.8418  1.3589 -0.9949
13240TIP3    H239666   7.964   1.965   4.672  1.0148 -1.1572  0.4305
13241TIP3   OH239667   2.464   4.815   3.999 -0.3072 -0.2036  0.6201
13241TIP3    H139668   2.488   4.888   4.057 -0.4312  1.5910 -1.4495
13241TIP3    H239669   2.391   4.773   4.043  0.2842  0.3990  2.2759
13242TIP3   OH239670   5.384   4.461   5.036 -0.0647 -0.5214  0.1954
13242TIP3    H139671   5.345   4.546   5.014  1.6787  0.0361 -0.9488
13242TIP3    H239672   5.477   4.479   5.048 -0.1375 -1.6746  3.6031
13243TIP3   OH239673   7.790   0.808   4.787  0.1278  0.5178 -0.3103
13243TIP3    H139674   7.820   0.866   4.857  1.7407  0.8874 -1.2809
13243TIP3    H239675   7.817   0.851   4.706 -0.9808 -0.3136 -1.1521
13244TIP3   OH239676   4.426   7.194   5.403 -0.5306  0.1260 -0.2442
13244TIP3    H139677   4.499   7.209   5.463 -0.4128 -0.2248 -0.2947
13244TIP3    H239678   4.357   7.155   5.457 -0.1079 -1.0194 -0.4909
13245TIP3   OH239679   0.540   3.460   2.897  0.2333 -0.4782  0.4335
13245TIP3    H139680   0.532   3.504   2.812  1.7764  0.0071  0.5129
13245TIP3    H239681   0.452   3.426   2.915 -0.8722  1.9651  0.0271
13246TIP3   OH239682   4.869   3.734   4.591 -0.8086  0.3029  0.7514
13246TIP3    H139683   4.845   3.665   4.653 -0.8393 -1.0223 -0.6785
13246TIP3    H239684   4.963   3.745   4.602 -0.5461 -1.0195 -0.0057
13247TIP3   OH239685   4.414   6.484   3.139 -0.0767 -0.2374 -0.2599
13247TIP3    H139686   4.325   6.478   3.105 -0.6105 -1.1143  1.1882
13247TIP3    H239687   4.415   6.566   3.188  0.4260  0.5857 -1.6079
13248TIP3   OH239688   1.897   1.674   2.249 -0.7030  0.1477  0.6915
13248TIP3    H139689   1.870   1.681   2.341  2.7058  1.3723  1.7370
13248TIP3    H239690   1.916   1.581   2.236 -1.2776 -0.0440  1.1608
13249TIP3   OH239691   6.972   1.343   1.576  0.3747 -0.2309  0.2436
13249TIP3    H139692   6.885   1.315   1.549  0.5717 -2.9582  2.0393
13249TIP3    H239693   7.032   1.297   1.518  0.6637  0.5929 -0.1245
13250TIP3   OH239694   0.155   0.682   3.464  0.2696 -0.1047  0.3317
13250TIP3    H139695   0.097   0.746   3.424  1.4185  0.6255 -0.2274
13250TIP3    H239696   0.096   0.617   3.504 -0.9314  1.5119  1.2961
13251TIP3   OH239697   1.645   6.030   5.740 -0.1294  0.6970  0.1322
13251TIP3    H139698   1.687   5.945   5.737 -2.6287 -0.6383  0.2466
13251TIP3    H239699   1.585   6.030   5.665 -1.1121  1.7829  0.8735
13252TIP3   OH239700   1.328   5.363   0.188 -0.1724  0.7797 -0.4373
13252TIP3    H139701   1.237   5.370   0.217  0.0413 -0.3620  0.6050
13252TIP3    H239702   1.356   5.277   0.219  0.8504  0.5286 -1.9484
13253TIP3   OH239703   2.172   0.948   1.991  0.5179  0.1394  0.3038
13253TIP3    H139704   2.135   1.035   1.978 -0.9471 -0.6064 -0.8096
13253TIP3    H239705   2.103   0.900   2.037  0.6898 -0.8665 -0.4662
13254TIP3   OH239706   7.175   7.304   2.270 -0.2899 -0.2610 -0.1575
13254TIP3    H139707   7.178   7.211   2.252  0.1188 -0.2175 -0.3150
13254TIP3    H239708   7.149   7.345   2.188  2.6123  0.0303 -1.0396
13255TIP3   OH239709   7.430   1.651   0.028 -0.1114 -0.0945 -0.1549
13255TIP3    H139710   7.414   1.733  -0.018 -4.1310  0.7793  2.3652
13255TIP3    H239711   7.355   1.596   0.006 -0.0811 -1.1446  2.1100
13256TIP3   OH239712   5.542   6.821   0.227 -0.3616  0.0768 -0.2999
13256TIP3    H139713   5.517   6.742   0.179 -0.8134  0.5116 -0.8029
13256TIP3    H239714   5.617   6.856   0.179  0.1711 -0.3232  0.2296
13257TIP3   OH239715   3.741   6.901   4.013 -0.5403  0.0872 -0.1394
13257TIP3    H139716   3.805   6.831   4.026 -2.0661 -1.3060  0.3115
13257TIP3    H239717   3.784   6.980   4.044  1.8679 -0.3023 -2.2316
13258TIP3   OH239718   6.399   0.266  -0.002 -0.3973 -0.8314 -0.0397
13258TIP3    H139719   6.327   0.205   0.011 -0.3373 -0.7213  0.8722
13258TIP3    H239720   6.374   0.345   0.047 -0.5450 -0.0493 -1.3202
13259TIP3   OH239721   2.089   0.203   5.017  0.2099 -0.1584  0.3073
13259TIP3    H139722   2.081   0.265   5.090  2.2288 -1.1494  1.4438
13259TIP3    H239723   2.062   0.119   5.053 -2.1760 -0.0777 -1.1304
13260TIP3   OH239724   1.517   1.883   1.604 -0.1903 -0.1914  0.0142
13260TIP3    H139725   1.568   1.803   1.600  1.1346  0.3748  2.9724
13260TIP3    H239726   1.578   1.951   1.574 -0.4889  0.0145 -0.1265
13261TIP3   OH239727   6.063   4.946   3.358  0.0293 -0.1750 -0.1329
13261TIP3    H139728   5.998   5.015   3.375  0.0539 -0.1525 -0.1299
13261TIP3    H239729   6.069   4.898   3.441 -0.9086 -0.9580 -0.4913
13262TIP3   OH239730   0.158   4.372   3.954 -0.5414 -0.3080  0.3907
13262TIP3    H139731   0.212   4.447   3.928 -0.3137 -0.1990  1.1624
13262TIP3    H239732   0.073   4.390   3.913 -0.1133 -0.2978 -0.5233
13263TIP3   OH239733   5.946   2.568   3.018  0.7194 -0.8841 -0.0873
13263TIP3    H139734   5.851   2.579   3.018  0.9439  1.7434 -0.0389
13263TIP3    H239735   5.971   2.571   2.926  0.9810  2.0868 -0.0211
13264TIP3   OH239736   6.669   3.163   0.440  0.6536  0.0727 -0.4334
13264TIP3    H139737   6.655   3.200   0.527 -0.7455 -1.9108  0.2458
13264TIP3    H239738   6.677   3.069   0.455  1.2362 -0.2257 -2.3770
13265TIP3   OH239739   4.170   1.486   5.615 -0.4794  0.1262  0.7240
13265TIP3    H139740   4.086   1.477   5.659 -1.2028  2.4046 -0.0374
13265TIP3    H239741   4.186   1.581   5.615 -0.6477  0.3554 -4.0653
13266TIP3   OH239742   6.078   0.914   4.868  0.2618  0.1084 -1.3221
13266TIP3    H139743   6.073   1.007   4.890  1.2173 -0.4112  1.4254
13266TIP3    H239744   5.997   0.877   4.901 -0.1022 -0.0614 -2.3815
13267TIP3   OH239745   8.001   2.672   5.923  0.5192  0.0255  0.2590
13267TIP3    H139746   7.987   2.595   5.869  1.0822  0.6344 -0.7822
13267TIP3    H239747   8.052   2.731   5.868 -1.0732  1.7254  0.4937
13268TIP3   OH239748   0.985   4.246   2.960  0.4458 -0.3356  0.3445
13268TIP3    H139749   0.897   4.249   2.999 -0.0142 -0.5223 -0.6322
13268TIP3    H239750   0.990   4.328   2.910 -0.4578 -1.7423 -2.2091
13269TIP3   OH239751   7.280   1.095   5.268 -0.6555 -0.0917 -0.5255
13269TIP3    H139752   7.331   1.024   5.229 -1.7244 -1.1336 -0.0965
13269TIP3    H239753   7.336   1.131   5.336 -0.2770 -0.8596 -0.4234
13270TIP3   OH239754   5.538   0.871   5.736  0.1360  0.6605 -0.5302
13270TIP3    H139755   5.611   0.906   5.787 -0.2577 -2.3297  2.3984
13270TIP3    H239756   5.574   0.796   5.689 -0.3553  1.2338 -1.8962
13271TIP3   OH239757   1.617   5.038   5.038  0.2268  0.8344 -0.3981
13271TIP3    H139758   1.676   5.111   5.056  0.6129  0.4406 -0.0778
13271TIP3    H239759   1.672   4.961   5.038 -0.0570  0.6193 -1.5121
13272TIP3   OH239760   3.482   2.754   5.778 -0.0005 -0.2603  0.2379
13272TIP3    H139761   3.414   2.686   5.784  1.1782 -1.5845 -0.5688
13272TIP3    H239762   3.473   2.788   5.689  1.1275 -1.3291 -0.3285
13273TIP3   OH239763   1.281   1.417   0.857 -0.7846 -0.1521 -0.4611
13273TIP3    H139764   1.193   1.416   0.818 -0.8457 -1.0704 -0.3104
13273TIP3    H239765   1.269   1.378   0.944  0.0212 -1.7211 -1.0157
13274TIP3   OH239766   1.285   0.946   6.265  0.1731 -0.1629  0.1814
13274TIP3    H139767   1.280   0.910   6.353  1.9638 -0.1737  0.3096
13274TIP3    H239768   1.271   1.040   6.276 -0.5762 -0.2833  0.3341
13275TIP3   OH239769   0.664   4.829   4.594  0.1224  0.2290  0.0197
13275TIP3    H139770   0.633   4.752   4.642  0.6933  1.0263  1.7311
13275TIP3    H239771   0.609   4.901   4.627  0.8306  0.8703 -0.1853
13276TIP3   OH239772   8.243   5.877   2.791  0.3384 -0.0172  0.0980
13276TIP3    H139773   8.207   5.794   2.762 -0.5994 -0.2140  1.7185
13276TIP3    H239774   8.265   5.863   2.883 -1.1861  1.9160  0.8215
13277TIP3   OH239775   0.130   1.008   4.019  0.2032 -0.2744 -0.2185
13277TIP3    H139776   0.201   0.990   3.959 -0.7233 -0.7753 -1.1927
13277TIP3    H239777   0.058   0.953   3.989  0.4814 -2.6184  2.9113
13278TIP3   OH239778   1.239   2.636   6.454 -0.3595 -0.3949  0.2558
13278TIP3    H139779   1.299   2.701   6.492 -0.8237 -0.7329  1.6532
13278TIP3    H239780   1.152   2.669   6.476 -0.6300 -0.9192 -0.0092
13279TIP3   OH239781   2.122   1.061   1.067 -0.3449  0.1390 -0.0082
13279TIP3    H139782   2.082   1.065   0.980  0.5758 -1.3006 -0.5311
13279TIP3    H239783   2.119   0.968   1.091 -1.3380  0.5985  1.8877
13280TIP3   OH239784   5.871   1.603   2.834 -0.3302 -0.1851  0.2935
13280TIP3    H139785   5.916   1.608   2.919 -0.3875 -2.0123  0.4781
13280TIP3    H239786   5.941   1.591   2.770 -0.3429  0.3748  0.1707
13281TIP3   OH239787   5.801   6.676   0.715 -0.4208  0.3541  0.5598
13281TIP3    H139788   5.778   6.768   0.725  1.1925  0.8010  0.5171
13281TIP3    H239789   5.889   6.670   0.752 -0.5305 -1.1938  0.6227
13282TIP3   OH239790   1.167   3.103   0.095  0.1390  0.2440 -0.4675
13282TIP3    H139791   1.166   3.010   0.118 -0.2470  0.1811 -0.7305
13282TIP3    H239792   1.144   3.148   0.176  0.0921  0.1002 -0.3994
13283TIP3   OH239793   5.220   1.933   5.979  0.4207  0.2195 -0.3444
13283TIP3    H139794   5.224   1.838   5.971 -2.3378  0.1434 -2.1261
13283TIP3    H239795   5.167   1.948   6.056  1.8490  0.3981  0.6424
13284TIP3   OH239796   7.745   4.555   4.223  0.2464  0.2874 -0.3045
13284TIP3    H139797   7.688   4.618   4.268 -0.3628  1.0260 -2.0404
13284TIP3    H239798   7.800   4.519   4.293 -3.0346 -1.2824  1.7388
13285TIP3   OH239799   5.277   0.237   4.549 -0.4631 -0.1843 -0.0876
13285TIP3    H139800   5.212   0.214   4.483 -0.9751  0.8218  0.0353
13285TIP3    H239801   5.345   0.284   4.501 -2.0992  2.9567  0.3599
13286TIP3   OH239802   6.050   5.858   1.048  0.4853  0.4899  0.0059
13286TIP3    H139803   5.971   5.872   1.101  0.1884  0.8279 -0.5193
13286TIP3    H239804   6.106   5.802   1.102  0.3933  1.2231  0.8916
13287TIP3   OH239805   5.225   2.297   6.677 -0.2637 -0.3266 -0.8445
13287TIP3    H139806   5.283   2.340   6.614  1.4766 -0.2277  0.7510
13287TIP3    H239807   5.284   2.262   6.744 -2.0717 -0.0049  1.0082
13288TIP3   OH239808   6.944   7.598   5.666  0.5380  0.5124  0.2709
13288TIP3    H139809   6.927   7.504   5.674  0.0445  0.6343  0.6099
13288TIP3    H239810   7.032   7.602   5.627  0.5484 -0.0879  0.2187
13289TIP3   OH239811   8.283   1.184   4.597 -0.3639 -0.7507  0.0093
13289TIP3    H139812   8.331   1.199   4.679  0.9309  0.7213 -0.9622
13289TIP3    H239813   8.201   1.233   4.609 -0.4728 -1.0785  0.6611
13290TIP3   OH239814   0.105   7.573   1.086  0.8753  0.0439  0.1536
13290TIP3    H139815   0.153   7.520   1.150  1.9367  1.1877  0.3477
13290TIP3    H239816   0.166   7.643   1.063 -0.7064  1.5544  0.3860
13291TIP3   OH239817   1.204   7.810   2.338 -0.1092 -0.1096  0.3453
13291TIP3    H139818   1.110   7.825   2.349  0.1362  0.3666  2.2433
13291TIP3    H239819   1.211   7.722   2.301 -1.2959 -0.2585  0.4454
13292TIP3   OH239820   5.083   7.299   0.389 -0.3524 -0.0805 -0.1629
13292TIP3    H139821   4.992   7.325   0.403 -0.2523  0.0134  0.3471
13292TIP3    H239822   5.124   7.375   0.349 -0.0303  0.6329  1.4339
13293TIP3   OH239823   2.876   1.505   5.290 -0.4820  0.1708 -0.2858
13293TIP3    H139824   2.802   1.553   5.326  1.2662  2.2451  0.7441
13293TIP3    H239825   2.893   1.546   5.205 -0.5987 -0.4227 -0.6039
13294TIP3   OH239826   3.952   1.387   5.753 -0.1031 -0.2300 -0.2583
13294TIP3    H139827   4.008   1.319   5.791 -1.2669 -1.6210 -0.9596
13294TIP3    H239828   3.936   1.448   5.825  0.3156 -1.1211  0.6127
13295TIP3   OH239829   4.293   4.069   1.623 -0.4174  0.1631 -0.5439
13295TIP3    H139830   4.205   4.070   1.585 -0.8776 -0.5318  0.4720
13295TIP3    H239831   4.348   4.030   1.555 -1.1614 -0.7268 -0.6567
13296TIP3   OH239832   6.793   5.279   2.413  0.2453 -0.4575 -0.2295
13296TIP3    H139833   6.838   5.307   2.333 -0.4526 -0.8937 -0.7890
13296TIP3    H239834   6.707   5.322   2.407  0.0481 -0.8085  0.0972
13297TIP3   OH239835   4.167   6.893   0.709 -0.1964 -0.1413 -0.4460
13297TIP3    H139836   4.160   6.988   0.711  0.5219 -0.0902  0.1096
13297TIP3    H239837   4.234   6.875   0.643  0.5962 -0.1880  0.3528
13298TIP3   OH239838   0.642   0.876   2.629 -0.0933  0.2164 -0.1664
13298TIP3    H139839   0.649   0.783   2.651 -2.7431 -0.6057 -2.3315
13298TIP3    H239840   0.557   0.902   2.665  0.2430  1.5794 -0.3333
13299TIP3   OH239841   0.032   4.944   3.483  0.2811 -0.2872  0.0423
13299TIP3    H139842   0.046   5.002   3.557  2.0740  0.0717 -0.5495
13299TIP3    H239843   0.042   5.000   3.406 -2.0112 -0.5492 -0.5310
13300TIP3   OH239844   4.495   4.498   0.204 -0.4948 -0.3799  0.0395
13300TIP3    H139845   4.565   4.543   0.251 -1.0925  0.8171 -0.1728
13300TIP3    H239846   4.414   4.541   0.233 -1.1206 -1.4673 -0.0135
13301TIP3   OH239847   0.071   6.813   4.881 -0.3697  0.0484  0.0576
13301TIP3    H139848  -0.008   6.842   4.927  0.1124  0.5162  0.6039
13301TIP3    H239849   0.065   6.855   4.796  0.1316  1.5106  0.7034
13302TIP3   OH239850   5.980   7.026   3.416 -0.4254  0.1118  0.3968
13302TIP3    H139851   6.032   7.034   3.496  1.9885  0.5197 -1.1068
13302TIP3    H239852   5.966   7.116   3.387 -1.6379 -0.0140  0.5221
13303TIP3   OH239853   0.071   0.964   6.303 -0.7768 -0.0516 -0.2841
13303TIP3    H139854   0.112   0.888   6.260  2.0582  0.2195  1.6446
13303TIP3    H239855   0.013   0.925   6.368  1.0635 -0.6925  1.0648
13304TIP3   OH239856   1.366   2.859   0.513  0.5393 -0.4828 -0.2769
13304TIP3    H139857   1.332   2.776   0.547  1.3820 -0.1646  1.4556
13304TIP3    H239858   1.374   2.914   0.590  0.0639  1.2100 -1.3929
13305TIP3   OH239859   3.094   3.038   6.238 -0.0646 -0.4622 -0.0235
13305TIP3    H139860   3.056   3.030   6.151 -0.4133 -1.6916  0.2299
13305TIP3    H239861   3.021   3.059   6.296  0.0821 -0.1565  0.0557
13306TIP3   OH239862   6.730   3.834   0.231 -0.0663  0.6943 -0.5845
13306TIP3    H139863   6.686   3.917   0.251 -1.0007  0.3202 -1.0662
13306TIP3    H239864   6.807   3.860   0.181 -0.4553  1.2653 -0.8984
13307TIP3   OH239865   6.418   0.805   5.407  0.2472  0.1243  1.0082
13307TIP3    H139866   6.412   0.866   5.334  1.2654 -0.5751  0.3058
13307TIP3    H239867   6.505   0.820   5.444  0.9569 -1.5998  0.1421
13308TIP3   OH239868   5.416   2.132   0.573 -0.0551 -0.4770 -0.0710
13308TIP3    H139869   5.497   2.107   0.617  0.9032  0.9939 -0.9043
13308TIP3    H239870   5.433   2.220   0.538 -1.1140 -1.1076 -2.4103
13309TIP3   OH239871   2.173   6.972   2.921  0.1409  0.4301  0.2325
13309TIP3    H139872   2.171   6.876   2.915 -0.9461  0.4048  0.8191
13309TIP3    H239873   2.263   6.995   2.899 -0.2145 -0.5265 -2.6304
13310TIP3   OH239874   0.924   2.792   0.862  0.0635  0.1246 -0.1295
13310TIP3    H139875   0.869   2.777   0.786  0.4288  0.2996 -0.4326
13310TIP3    H239876   0.897   2.879   0.894  0.3046  0.3015 -0.4013
13311TIP3   OH239877   0.926   7.542   2.559 -0.4023  0.9786  0.3198
13311TIP3    H139878   0.888   7.460   2.526  1.0032  1.5247 -3.0291
13311TIP3    H239879   0.852   7.602   2.567 -1.0730  0.1998  0.0344
13312TIP3   OH239880   4.518   4.464   6.057 -0.1406  0.0775  0.2764
13312TIP3    H139881   4.528   4.381   6.009  1.3011 -0.3060  1.1401
13312TIP3    H239882   4.428   4.490   6.043  0.0691 -0.3067 -2.1463
13313TIP3   OH239883   4.479   5.744   4.409 -0.6576  1.0242  0.6680
13313TIP3    H139884   4.487   5.686   4.484 -1.3890  0.8492  0.6172
13313TIP3    H239885   4.385   5.755   4.397 -0.5661  0.6468 -0.5341
13314TIP3   OH239886   3.316   0.767   6.387  0.0090  0.3172  0.2769
13314TIP3    H139887   3.326   0.848   6.337  0.5289  0.7811  1.1205
13314TIP3    H239888   3.405   0.734   6.397  0.0834  0.9497  2.0540
13315TIP3   OH239889   3.727   0.148   5.880  0.6321 -0.3484  0.2742
13315TIP3    H139890   3.680   0.065   5.867  0.9894 -0.9957  2.7226
13315TIP3    H239891   3.734   0.185   5.792 -1.7883 -1.6783 -0.5781
13316TIP3   OH239892   1.112   1.319   1.612  0.2788  0.1233  0.0510
13316TIP3    H139893   1.144   1.268   1.686  2.2240  0.2558 -0.6428
13316TIP3    H239894   1.018   1.304   1.611  0.3826 -0.8781  1.7771
13317TIP3   OH239895   2.510   4.522   1.900 -0.1843  0.8404 -0.1900
13317TIP3    H139896   2.485   4.526   1.808  1.1641  0.6804 -0.5845
13317TIP3    H239897   2.458   4.450   1.936  0.2276  0.0436 -1.1397
13318TIP3   OH239898   3.844   2.389   4.790 -0.0039  0.8142  0.0643
13318TIP3    H139899   3.932   2.375   4.825 -0.6249 -1.2426  0.9303
13318TIP3    H239900   3.835   2.484   4.785  1.8548  1.0824  0.9875
13319TIP3   OH239901   2.897   1.097   4.099 -0.1363  0.5001  0.0986
13319TIP3    H139902   2.983   1.134   4.118 -0.2816  0.5012  0.7538
13319TIP3    H239903   2.850   1.168   4.054 -0.3196  1.0339  1.1094
13320TIP3   OH239904   0.062   7.136   5.594 -0.3584  0.4332 -0.3654
13320TIP3    H139905   0.061   7.198   5.521 -1.6154  0.7547 -0.1106
13320TIP3    H239906  -0.021   7.153   5.640  0.8086  0.9014  1.6757
13321TIP3   OH239907   6.659   5.915   2.240 -0.2706  0.2235 -0.2399
13321TIP3    H139908   6.750   5.932   2.265 -0.8363  0.9862  1.4051
13321TIP3    H239909   6.635   5.991   2.186 -0.5122  1.0165  0.9541
13322TIP3   OH239910   6.455   0.454   2.888 -0.3753 -0.3805  0.1469
13322TIP3    H139911   6.497   0.510   2.954 -1.1251 -0.9982  1.1859
13322TIP3    H239912   6.425   0.378   2.937 -2.3604 -0.1510 -0.5911
13323TIP3   OH239913   1.298   1.946   1.066 -0.1415 -0.0404 -0.0958
13323TIP3    H139914   1.240   1.887   1.018 -1.6605  0.3734  1.1316
13323TIP3    H239915   1.249   1.967   1.146  1.0161  1.6523  0.2110
13324TIP3   OH239916   4.832   7.301   6.654 -0.3442 -0.9519 -0.1357
13324TIP3    H139917   4.888   7.262   6.722 -0.3286  0.7617  0.9131
13324TIP3    H239918   4.844   7.245   6.578  3.7964 -0.0911 -0.3858
13325TIP3   OH239919   8.037   5.141   1.119  0.2844 -0.3415  0.2555
13325TIP3    H139920   7.967   5.110   1.176 -0.0855 -1.4206 -0.7643
13325TIP3    H239921   7.994   5.163   1.037  0.8522  0.9468  0.2695
13326TIP3   OH239922   4.183   0.457   4.113 -0.6391  0.2351 -0.2467
13326TIP3    H139923   4.127   0.393   4.069  0.0893 -0.1655 -0.6237
13326TIP3    H239924   4.266   0.453   4.065 -0.5832  1.4760 -0.2749
13327TIP3   OH239925   8.061   0.850   0.417 -0.0906 -0.2988 -0.2332
13327TIP3    H139926   8.119   0.887   0.483 -1.1894  0.5928  0.2593
13327TIP3    H239927   8.033   0.925   0.364  0.0018 -0.8581 -1.0967
13328TIP3   OH239928   6.114   4.061   6.355  0.2029 -0.1628 -0.3055
13328TIP3    H139929   6.060   3.997   6.309  1.3559 -1.3627 -0.0649
13328TIP3    H239930   6.056   4.135   6.372 -0.7346 -0.4364 -2.0828
13329TIP3   OH239931   5.946   1.494   5.557 -0.4651  0.7458 -0.7988
13329TIP3    H139932   6.004   1.418   5.555 -1.1640  0.2074 -1.6672
13329TIP3    H239933   5.979   1.551   5.488  0.3031  1.4418  0.1172
13330TIP3   OH239934   4.647   5.512   1.688 -0.1823  0.3893 -0.9251
13330TIP3    H139935   4.554   5.491   1.676 -0.1122 -0.2786 -0.3672
13330TIP3    H239936   4.647   5.595   1.735 -0.5801 -0.9782  1.6773
13331TIP3   OH239937   6.077   6.894   4.937  0.3082  0.2218 -0.0069
13331TIP3    H139938   6.151   6.836   4.954  0.7827  0.6667 -0.5144
13331TIP3    H239939   6.104   6.978   4.975  0.6508  0.7619 -1.3923
13332TIP3   OH239940   2.421   1.583   6.444 -0.5156 -0.0193  0.3362
13332TIP3    H139941   2.332   1.576   6.476 -0.7061  1.1601  0.1186
13332TIP3    H239942   2.412   1.622   6.357  0.2051  0.0195  0.2723
13333TIP3   OH239943   4.432   1.867   2.283  0.2807 -0.1247 -0.0900
13333TIP3    H139944   4.367   1.849   2.214  0.0044  0.6252 -0.0389
13333TIP3    H239945   4.516   1.860   2.238  0.0927  0.6357 -0.5844
13334TIP3   OH239946   7.404   2.938   0.946 -0.0771  0.2158 -0.0219
13334TIP3    H139947   7.378   2.883   0.871  0.5027  0.3384 -0.3244
13334TIP3    H239948   7.322   2.973   0.980 -0.3553  0.0983 -0.5564
13335TIP3   OH239949   3.088   3.064   2.819 -0.2109 -0.3096 -0.3647
13335TIP3    H139950   3.000   3.094   2.843 -0.3711 -0.5775 -0.6081
13335TIP3    H239951   3.147   3.126   2.861 -0.5462  1.3060 -2.1455
13336TIP3   OH239952   6.654   5.168   1.220 -0.0342  0.0597  0.0636
13336TIP3    H139953   6.636   5.076   1.202 -1.7183 -0.0130  1.7391
13336TIP3    H239954   6.600   5.216   1.159 -1.2489 -0.1271  0.9503
13337TIP3   OH239955   1.807   4.558   1.351  0.4765  0.0148  0.5842
13337TIP3    H139956   1.833   4.630   1.293 -0.2529 -0.6148 -0.5613
13337TIP3    H239957   1.778   4.602   1.431  0.8313  0.9484  0.2147
13338TIP3   OH239958   3.740   2.119   1.011  0.0103  0.0302 -0.3662
13338TIP3    H139959   3.743   2.033   1.053 -0.1396 -0.3033 -1.0391
13338TIP3    H239960   3.810   2.168   1.053 -0.4270 -0.1481  0.6091
13339TIP3   OH239961   7.184   6.673   2.205 -0.5342 -0.3391  0.2317
13339TIP3    H139962   7.217   6.597   2.254  2.3186  1.1858  0.8424
13339TIP3    H239963   7.203   6.653   2.114  2.6950  0.6399  0.5827
13340TIP3   OH239964   2.299   0.975   3.345 -0.0342 -0.9734  0.0965
13340TIP3    H139965   2.356   1.002   3.273 -1.2651  1.2189 -0.1321
13340TIP3    H239966   2.352   0.987   3.424 -0.3247  1.7951 -0.0416
13341TIP3   OH239967   5.069   7.093   3.550 -0.1423 -0.3880  0.3650
13341TIP3    H139968   5.156   7.107   3.514 -0.2640 -2.4482 -0.9172
13341TIP3    H239969   5.083   7.078   3.644  0.6870  0.7673  0.4399
13342TIP3   OH239970   2.202   2.592   0.799  0.0466 -0.3830 -0.1790
13342TIP3    H139971   2.174   2.638   0.879 -1.2217 -1.5501  0.0701
13342TIP3    H239972   2.287   2.554   0.822  0.4031  0.5519  0.1021
13343TIP3   OH239973   1.523   5.467   3.230  0.1562  0.5241  0.2174
13343TIP3    H139974   1.488   5.556   3.241 -0.8154  0.0721  0.8534
13343TIP3    H239975   1.614   5.474   3.260  0.5859  1.6481 -1.2067
13344TIP3   OH239976   1.694   0.456   2.254 -0.0535  0.1635  0.4539
13344TIP3    H139977   1.785   0.427   2.252  0.2163  0.9545 -1.3388
13344TIP3    H239978   1.699   0.550   2.238 -1.2297 -0.0073 -1.1669
13345TIP3   OH239979   1.134   1.958   5.370 -0.4131 -0.2438  0.6046
13345TIP3    H139980   1.043   1.978   5.394 -0.4213 -0.4511  0.7404
13345TIP3    H239981   1.128   1.926   5.280 -0.3306  0.9866  0.1324
13346TIP3   OH239982   1.299   1.389   0.488  0.5775  0.4247  0.3848
13346TIP3    H139983   1.257   1.413   0.405  0.5153  0.1592  0.3392
13346TIP3    H239984   1.365   1.324   0.463  0.8030  0.6093  0.4983
13347TIP3   OH239985   6.767   5.444   6.750 -0.3550  0.2910  0.4599
13347TIP3    H139986   6.767   5.417   6.658  0.5024  2.3051 -0.1917
13347TIP3    H239987   6.725   5.530   6.749 -1.8165 -0.3485  2.2199
13348TIP3   OH239988   6.844   0.824   3.424 -0.3825  0.0237 -0.2800
13348TIP3    H139989   6.760   0.829   3.470 -0.1509 -2.6357  0.6535
13348TIP3    H239990   6.872   0.733   3.437  1.8367  0.3816 -2.0146
13349TIP3   OH239991   8.231   4.044   1.919  0.0173  0.6072  0.6499
13349TIP3    H139992   8.161   3.979   1.913 -0.4275  1.1944 -1.0059
13349TIP3    H239993   8.217   4.101   1.844  2.3554  0.6842  0.2059
13350TIP3   OH239994   1.868   6.079   6.140  0.3663  0.1239 -0.4333
13350TIP3    H139995   1.822   6.162   6.154 -0.7442 -0.5600  0.1306
13350TIP3    H239996   1.894   6.081   6.048  2.0510  1.9003 -0.0150
13351TIP3   OH239997   7.238   6.902   1.840  0.3498  0.5154  0.2060
13351TIP3    H139998   7.204   6.911   1.751  0.2010  0.9269  0.3043
13351TIP3    H239999   7.325   6.941   1.836  0.1111  1.0713  0.3824
13352TIP3   OH240000   1.411   5.996   6.551  0.6056 -0.3686  0.5723
13352TIP3    H140001   1.385   5.905   6.566  4.0305 -1.4075  0.9767
13352TIP3    H240002   1.418   6.004   6.456  1.2276 -0.8503  0.5715
13353TIP3   OH240003   3.418   7.665   2.368  0.2579  0.3622  0.2755
13353TIP3    H140004   3.466   7.629   2.443 -0.7625  0.8440  1.1806
13353TIP3    H240005   3.399   7.589   2.313 -1.1794 -0.4161  1.7672
13354TIP3   OH240006   7.636   6.539   6.104 -0.3784  0.1198 -0.3690
13354TIP3    H140007   7.710   6.545   6.164 -0.5998 -0.2237 -0.0596
13354TIP3    H240008   7.674   6.512   6.020 -0.0399  0.8180 -0.4520
13355TIP3   OH240009   4.349   0.982   0.854  0.4608 -0.1297  0.0359
13355TIP3    H140010   4.312   0.894   0.855  0.8517 -0.3013 -0.1158
13355TIP3    H240011   4.374   0.997   0.763  0.4094  0.1312  0.0631
13356TIP3   OH240012   4.650   7.703   4.438 -0.0856 -0.3970 -0.1868
13356TIP3    H140013   4.576   7.674   4.492 -0.5351  1.3443  0.1850
13356TIP3    H240014   4.614   7.706   4.349 -0.4115  0.2506 -0.0366
13357TIP3   OH240015   7.795   4.178   1.807  0.8531  0.0475 -0.3771
13357TIP3    H140016   7.722   4.173   1.745  0.0809 -1.7246  0.6034
13357TIP3    H240017   7.760   4.229   1.881  1.0991  0.4074 -0.5037
13358TIP3   OH240018   0.431   5.199   0.744 -0.3519 -0.5411  0.2230
13358TIP3    H140019   0.344   5.172   0.773 -0.4013  1.0669  1.7862
13358TIP3    H240020   0.491   5.143   0.792 -0.4958 -1.3662 -0.5367
13359TIP3   OH240021   3.660   1.422   6.577  0.1307 -0.3547 -0.1078
13359TIP3    H140022   3.586   1.457   6.628 -0.2139 -2.8505  1.3093
13359TIP3    H240023   3.621   1.397   6.493 -0.0280  0.7940 -0.3881
13360TIP3   OH240024   5.431   4.461   4.252  0.0814  0.0822  0.2533
13360TIP3    H140025   5.357   4.401   4.242  1.3682 -1.4152 -0.8504
13360TIP3    H240026   5.410   4.534   4.195 -1.0972  0.2928  0.9130
13361TIP3   OH240027   2.168   5.632   1.136  0.3663 -0.0218 -0.6260
13361TIP3    H140028   2.172   5.544   1.172  0.3811  0.3523  0.3059
13361TIP3    H240029   2.122   5.622   1.052  0.1853 -0.8744 -0.4275
13362TIP3   OH240030   7.368   2.157   1.853  0.1346  0.0728 -0.7036
13362TIP3    H140031   7.398   2.176   1.764  1.3157 -0.4208 -0.4235
13362TIP3    H240032   7.377   2.240   1.900  0.0681  0.1822 -0.8808
13363TIP3   OH240033   0.937   6.660   6.198  0.1940 -0.8408  0.1817
13363TIP3    H140034   0.940   6.734   6.260 -0.5012 -0.0987 -0.6389
13363TIP3    H240035   1.027   6.629   6.195  0.1438 -1.2887  2.0097
13364TIP3   OH240036   7.084   2.685   3.945 -0.0952  0.1917 -0.4962
13364TIP3    H140037   7.001   2.692   3.993 -0.2541 -0.8761 -0.6049
13364TIP3    H240038   7.104   2.776   3.919 -0.5488  0.6305  0.6528
13365TIP3   OH240039   2.553   2.294   6.038 -0.0073 -0.3881 -0.1380
13365TIP3    H140040   2.630   2.348   6.016 -0.1489  0.5478  1.5183
13365TIP3    H240041   2.589   2.208   6.057  0.7522  0.2232  1.3334
13366TIP3   OH240042   7.081   6.647   3.629  0.1253 -0.3576  0.3681
13366TIP3    H140043   7.087   6.554   3.652 -0.4694 -0.3047  0.7525
13366TIP3    H240044   7.049   6.690   3.709  2.2964  0.4728  0.8627
13367TIP3   OH240045   1.817   4.078   2.000 -0.6395 -0.0614 -0.7630
13367TIP3    H140046   1.740   4.028   2.028 -0.1030  0.1011  1.1694
13367TIP3    H240047   1.884   4.011   1.983  0.2584 -0.1449  2.3763
13368TIP3   OH240048   4.203   5.359   6.063 -0.1149 -0.1346 -0.3446
13368TIP3    H140049   4.152   5.339   5.984 -0.7630  0.2946 -0.0416
13368TIP3    H240050   4.191   5.453   6.076  0.8473 -0.0071 -0.3259
13369TIP3   OH240051   3.250   4.972   3.678 -0.0202  0.1515  0.3735
13369TIP3    H140052   3.217   4.897   3.728 -2.5056  0.0613 -1.2585
13369TIP3    H240053   3.236   4.949   3.587  3.4311  0.7620 -0.4445
13370TIP3   OH240054   3.315   3.468   3.324  0.1863  0.1018 -0.2474
13370TIP3    H140055   3.349   3.472   3.413  0.7115  1.6442 -0.4918
13370TIP3    H240056   3.364   3.398   3.282 -1.0212 -1.6041  1.0240
13371TIP3   OH240057   4.079   3.337   6.240 -0.2093 -0.1046  0.2175
13371TIP3    H140058   4.163   3.359   6.281  0.0223 -0.8146  0.1290
13371TIP3    H240059   4.064   3.246   6.264  0.3717 -0.8317 -1.9839
13372TIP3   OH240060   1.566   4.303   3.567  0.0047  0.5860  0.2000
13372TIP3    H140061   1.590   4.235   3.630 -0.2221  1.5287  1.3279
13372TIP3    H240062   1.492   4.266   3.519 -0.0367 -0.0133  0.7175
13373TIP3   OH240063   3.033   7.323   1.785 -0.0572 -0.1658  0.2277
13373TIP3    H140064   3.057   7.409   1.819  0.2205  0.2922 -1.0384
13373TIP3    H240065   2.967   7.290   1.845  1.0944  0.1622  1.7208
13374TIP3   OH240066   7.389   7.200   5.114  1.2336  0.1803 -0.0907
13374TIP3    H140067   7.461   7.164   5.062  1.1684 -0.8698  0.5112
13374TIP3    H240068   7.429   7.228   5.196  1.2892  1.5739 -0.5776
13375TIP3   OH240069   8.212   7.561   6.151  0.0971  0.2032 -0.0690
13375TIP3    H140070   8.271   7.633   6.177  1.4213 -0.7677 -0.2596
13375TIP3    H240071   8.155   7.599   6.084 -0.0668  1.4042  0.7183
13376TIP3   OH240072   6.354   3.764   1.002 -0.1336  0.0147  0.3816
13376TIP3    H140073   6.306   3.701   0.948 -0.9382 -0.3492  1.4810
13376TIP3    H240074   6.400   3.710   1.066 -0.3691  0.5092  0.9787
13377TIP3   OH240075   1.779   2.153   3.493  0.2300 -0.9130  0.1107
13377TIP3    H140076   1.756   2.114   3.408  0.1259  0.3843 -0.4815
13377TIP3    H240077   1.823   2.234   3.471  0.1636 -0.5317  1.3101
13378TIP3   OH240078   5.269   7.750   0.088 -0.0001  0.1185  0.3573
13378TIP3    H140079   5.215   7.826   0.069  0.2530  0.2480  0.1611
13378TIP3    H240080   5.352   7.767   0.045 -0.2201 -0.6418 -0.3917
13379TIP3   OH240081   0.291   5.957   4.066  0.0384 -0.0363  0.1613
13379TIP3    H140082   0.251   5.883   4.112  0.8370  0.2028  1.2836
13379TIP3    H240083   0.375   5.970   4.111  0.7978  0.3060 -1.2809
13380TIP3   OH240084   3.786   5.661   0.447 -0.4354  0.1959  0.4550
13380TIP3    H140085   3.839   5.617   0.381  0.6885 -0.7489  1.9143
13380TIP3    H240086   3.711   5.604   0.459  0.5395 -0.9034  1.6468
13381TIP3   OH240087   5.115   4.332   1.700 -0.0013  1.1854 -0.4846
13381TIP3    H140088   5.154   4.244   1.694  1.2119  1.6656  0.0997
13381TIP3    H240089   5.071   4.344   1.616  2.5053  1.2248 -1.8948
13382TIP3   OH240090   2.688   7.329   1.130  0.1369 -0.4174  0.4861
13382TIP3    H140091   2.665   7.390   1.060 -0.4730 -0.3747  0.7203
13382TIP3    H240092   2.613   7.269   1.135  0.6245 -1.0464  0.4122
13383TIP3   OH240093   3.788   4.804   0.066 -0.5052 -0.0745  0.4263
13383TIP3    H140094   3.804   4.898   0.061 -1.6927  0.2319  1.6650
13383TIP3    H240095   3.860   4.765   0.017  1.6228  1.3303  2.2142
13384TIP3   OH240096   6.908   4.429   6.079 -0.1296  0.0224  0.1093
13384TIP3    H140097   6.990   4.389   6.050 -0.5073 -1.7049  1.2331
13384TIP3    H240098   6.841   4.386   6.026 -0.7674 -2.7230  2.8539
13385TIP3   OH240099   8.007   2.513   1.659  0.4336  0.0024 -0.0954
13385TIP3    H140100   8.072   2.477   1.599  0.9492  1.4580 -0.4558
13385TIP3    H240101   8.045   2.596   1.688 -1.6163  1.3419 -1.0012
13386TIP3   OH240102   7.881   0.388   1.754  0.1117 -0.2079 -0.7008
13386TIP3    H140103   7.975   0.372   1.745  0.0773  0.5014 -2.8844
13386TIP3    H240104   7.842   0.301   1.757  0.8499 -0.5129  0.6828
13387TIP3   OH240105   4.726   1.058   6.024  1.0316 -0.2235  0.2969
13387TIP3    H140106   4.744   1.121   5.955  1.1208 -0.7289 -0.1473
13387TIP3    H240107   4.630   1.050   6.026  1.0770 -1.4592 -0.9301
13388TIP3   OH240108   7.505   6.838   5.965 -0.0828 -0.0160 -0.1115
13388TIP3    H140109   7.478   6.912   5.910 -2.5805 -0.8399 -0.1513
13388TIP3    H240110   7.432   6.775   5.958  1.5215 -2.0811  0.6511
13389TIP3   OH240111   1.948   2.761   2.563  0.4527  0.0378 -0.0726
13389TIP3    H140112   1.930   2.846   2.523  0.6312  0.5263  0.8447
13389TIP3    H240113   1.895   2.761   2.643 -0.2012 -1.0692 -0.4916
13390TIP3   OH240114   3.427   4.637   3.470 -0.2333 -0.2216  0.4007
13390TIP3    H140115   3.515   4.660   3.441 -1.0356  1.0698 -1.1725
13390TIP3    H240116   3.421   4.542   3.457  1.0741 -0.4203  1.0538
13391TIP3   OH240117   4.296   1.279   2.005 -0.3161 -0.1569  0.2476
13391TIP3    H140118   4.229   1.261   1.939 -1.8371  1.9168  1.1279
13391TIP3    H240119   4.321   1.193   2.037 -1.8958 -1.0477 -0.7635
13392TIP3   OH240120   6.335   0.332   4.187 -0.3829 -0.0982 -0.1848
13392TIP3    H140121   6.323   0.347   4.281  0.5388  2.4554 -0.3989
13392TIP3    H240122   6.430   0.325   4.176 -0.2952  1.7456 -1.1041
13393TIP3   OH240123   7.453   6.487   4.996 -0.3135  0.2745  0.1521
13393TIP3    H140124   7.481   6.570   5.034  1.4560 -0.5100  0.6198
13393TIP3    H240125   7.503   6.480   4.915 -1.5851  0.3493 -0.6720
13394TIP3   OH240126   5.101   1.042   6.652 -0.1270 -0.4986  0.2980
13394TIP3    H140127   5.169   1.087   6.704  0.5727  1.1832 -1.9181
13394TIP3    H240128   5.023   1.097   6.663  0.2546  0.3469 -1.0361
13395TIP3   OH240129   1.872   3.349   1.898  0.1429 -0.3303  0.2332
13395TIP3    H140130   1.885   3.360   1.804  0.8926 -0.2615  0.3397
13395TIP3    H240131   1.801   3.285   1.905  0.5880 -0.9019 -0.3799
13396TIP3   OH240132   5.313   5.474   2.371 -0.0640 -0.4299 -0.0278
13396TIP3    H140133   5.239   5.528   2.341 -2.5360 -3.2433  0.5323
13396TIP3    H240134   5.329   5.413   2.299  0.5506 -0.9740  0.5616
13397TIP3   OH240135   6.813   2.004   2.291 -0.4571 -0.2888 -0.1775
13397TIP3    H140136   6.873   2.053   2.236  0.5392  0.1604  1.2640
13397TIP3    H240137   6.731   2.053   2.288  0.0500  0.5786 -0.0375
13398TIP3   OH240138   0.972   6.851   1.248  0.6286  0.9940 -0.4989
13398TIP3    H140139   1.060   6.866   1.212 -0.2338 -0.0829 -3.3226
13398TIP3    H240140   0.944   6.768   1.209 -2.4363  2.3014 -1.3328
13399TIP3   OH240141   6.179   1.078   3.736 -0.1977 -0.8558  0.9433
13399TIP3    H140142   6.101   1.133   3.744 -0.1683 -0.8008  0.8587
13399TIP3    H240143   6.216   1.102   3.650 -0.4807 -1.3934  0.6679
13400TIP3   OH240144   5.333   3.809   5.180 -0.4182  0.3933 -0.1658
13400TIP3    H140145   5.311   3.859   5.102 -0.0181  0.7425 -0.0596
13400TIP3    H240146   5.369   3.874   5.241 -1.1313  0.2018  0.4730
13401TIP3   OH240147   1.243   2.563   2.525 -0.3180 -0.1863 -0.3911
13401TIP3    H140148   1.229   2.472   2.551 -1.0114  0.0282  0.0140
13401TIP3    H240149   1.188   2.614   2.584 -0.0130  0.4950 -0.6770
13402TIP3   OH240150   6.834   5.783   2.981 -0.8215  0.5676 -0.2333
13402TIP3    H140151   6.884   5.784   3.062 -2.2705  0.0766  0.7072
13402TIP3    H240152   6.856   5.867   2.939 -0.6938  1.2208  1.0778
13403TIP3   OH240153   5.126   7.059   1.651  0.3742 -0.2752  0.7570
13403TIP3    H140154   5.140   7.068   1.745 -1.0609  0.5811  0.9258
13403TIP3    H240155   5.052   6.998   1.644 -0.1843  0.4490  0.2441
13404TIP3   OH240156   5.320   5.922   2.748  0.1734 -0.1591 -0.2384
13404TIP3    H140157   5.398   5.977   2.748  0.0605  0.0020 -0.3003
13404TIP3    H240158   5.259   5.968   2.805  0.3432 -0.5988  0.3177
13405TIP3   OH240159   7.198   5.455   1.037  0.1202 -0.0340 -0.2393
13405TIP3    H140160   7.195   5.462   0.942  0.3255 -1.1980 -0.3457
13405TIP3    H240161   7.140   5.382   1.057 -0.1742  0.4092  0.5644
13406TIP3   OH240162   5.867   5.686   2.667 -0.0996 -0.3858  0.8263
13406TIP3    H140163   5.932   5.693   2.598  1.2638 -0.3967  2.0721
13406TIP3    H240164   5.829   5.598   2.655 -0.3912 -0.1226 -0.3126
13407TIP3   OH240165   0.049   4.789   2.736  1.1048  0.2951 -0.1446
13407TIP3    H140166   0.143   4.773   2.742  0.7484 -1.3712  2.4769
13407TIP3    H240167   0.026   4.831   2.819 -0.6676 -0.5817 -0.1399
13408TIP3   OH240168   1.533   3.202   5.923 -0.3333  0.2217 -0.5488
13408TIP3    H140169   1.452   3.152   5.926 -0.4212  0.3673 -0.5263
13408TIP3    H240170   1.508   3.291   5.947 -0.2851  0.4104 -1.1870
13409TIP3   OH240171   1.298   7.214   1.054 -0.2914 -0.2577 -0.0760
13409TIP3    H140172   1.320   7.289   0.998  0.7558 -0.7429 -0.3538
13409TIP3    H240173   1.205   7.223   1.070 -0.3717  0.5961 -0.8692
13410TIP3   OH240174   0.341   0.593   4.832 -0.2693  0.4642  0.4329
13410TIP3    H140175   0.248   0.588   4.809 -0.3649  0.7441  0.7453
13410TIP3    H240176   0.348   0.671   4.887  0.1271  0.3656  0.5268
13411TIP3   OH240177   4.053   4.183   0.959  0.5319 -0.0298  0.3025
13411TIP3    H140178   4.039   4.201   0.866  0.9289  0.5172  0.3416
13411TIP3    H240179   4.141   4.215   0.976  0.0609  0.8916  1.1061
13412TIP3   OH240180   5.658   6.246   0.662 -0.1160 -0.5693 -0.5343
13412TIP3    H140181   5.607   6.325   0.677 -0.0508 -0.2452 -1.8889
13412TIP3    H240182   5.650   6.196   0.744 -1.8788 -0.1300 -0.4006
13413TIP3   OH240183   2.692   2.521   1.956 -0.0985 -0.6706 -0.1103
13413TIP3    H140184   2.779   2.502   1.921 -0.1030  0.0474 -0.5392
13413TIP3    H240185   2.637   2.531   1.879 -0.1486  0.7701  0.0928
13414TIP3   OH240186   3.454   7.287   4.167 -0.1441 -0.2677  0.6974
13414TIP3    H140187   3.440   7.355   4.102 -2.6856 -0.5492  0.8410
13414TIP3    H240188   3.462   7.206   4.116  0.8837 -0.1413  0.6307
13415TIP3   OH240189   0.887   5.851   1.198  0.3088  0.3504  0.4192
13415TIP3    H140190   0.850   5.918   1.256 -2.8816 -0.6366 -0.3174
13415TIP3    H240191   0.860   5.878   1.110 -1.7632 -2.2069  0.1642
13416TIP3   OH240192   0.035   0.323   1.609 -0.4972 -0.1443  0.3882
13416TIP3    H140193  -0.027   0.292   1.675 -1.4843  0.4381 -0.2334
13416TIP3    H240194   0.030   0.257   1.539  0.3352 -0.6119  0.7536
13417TIP3   OH240195   5.238   5.917   2.204 -0.4164 -0.2422  0.0017
13417TIP3    H140196   5.211   5.966   2.127  0.0866 -2.5750 -1.7615
13417TIP3    H240197   5.329   5.944   2.218 -0.0545 -0.8332 -1.1129
13418TIP3   OH240198   1.668   1.570   4.051 -0.0034  0.0153  0.7646
13418TIP3    H140199   1.618   1.579   3.970  0.5210  3.4444  0.6650
13418TIP3    H240200   1.758   1.556   4.021  0.0355  0.2888  0.7450
13419TIP3   OH240201   4.561   1.866   0.090  0.2512  0.1617  0.2254
13419TIP3    H140202   4.527   1.919   0.018  0.6271  0.6887  0.4279
13419TIP3    H240203   4.526   1.906   0.169 -0.3319 -0.5414  0.3365
13420TIP3   OH240204   2.580   5.909   2.136  0.4588 -0.1340  0.1005
13420TIP3    H140205   2.624   5.930   2.219  0.5620 -0.3828  0.1089
13420TIP3    H240206   2.600   5.817   2.120  1.0628  0.1003 -0.5770
13421TIP3   OH240207   2.100   5.705   1.856 -0.2598  0.3239 -0.0816
13421TIP3    H140208   2.163   5.777   1.865 -0.8740  0.6647  2.0784
13421TIP3    H240209   2.014   5.747   1.863 -0.7675 -0.2147 -2.3640
13422TIP3   OH240210   3.353   1.952   1.279  0.1948  1.0175  0.4631
13422TIP3    H140211   3.418   1.913   1.221 -0.3280 -0.9589  1.0915
13422TIP3    H240212   3.391   2.035   1.307  0.7311  1.7284 -2.1382
13423TIP3   OH240213   0.324   6.973   0.383  0.0665 -0.1320 -0.6768
13423TIP3    H140214   0.257   6.930   0.330 -0.6578  1.0636 -0.7553
13423TIP3    H240215   0.360   7.041   0.325  2.8211 -2.0233 -1.3947
13424TIP3   OH240216   4.877   4.083   4.980 -0.4400 -0.0559 -0.2687
13424TIP3    H140217   4.936   4.018   4.941 -0.2737 -0.1543  0.1349
13424TIP3    H240218   4.932   4.160   4.995 -0.6880  0.2538 -0.9416
13425TIP3   OH240219   2.203   6.604   2.230 -0.4344 -0.3512  0.1386
13425TIP3    H140220   2.161   6.518   2.240  0.9057 -1.3697 -2.1110
13425TIP3    H240221   2.152   6.648   2.162 -0.4515  0.1734  0.4916
13426TIP3   OH240222   5.456   2.817   5.903 -0.1149  0.5140  0.1608
13426TIP3    H140223   5.437   2.801   5.995 -0.2105  0.6603  0.1665
13426TIP3    H240224   5.526   2.883   5.904  1.1194 -0.7530  0.1625
13427TIP3   OH240225   0.170   4.283   3.125  0.3841 -0.3429 -0.5890
13427TIP3    H140226   0.083   4.308   3.094  0.4546 -0.0731 -0.5677
13427TIP3    H240227   0.177   4.190   3.102  0.5772 -0.0611 -1.7050
13428TIP3   OH240228   7.135   1.295   6.343  0.2273  0.3607 -0.1878
13428TIP3    H140229   7.118   1.338   6.427  1.4757  1.3128 -0.4025
13428TIP3    H240230   7.152   1.204   6.366 -0.4693  0.3824  0.4737
13429TIP3   OH240231   2.297   5.250   3.161 -0.0840 -0.3128 -0.0978
13429TIP3    H140232   2.363   5.267   3.229 -0.1167 -0.1704 -0.1008
13429TIP3    H240233   2.345   5.258   3.078 -0.3783  1.1432 -0.1604
13430TIP3   OH240234   0.167   3.680   2.833  0.0564 -0.2604 -0.3465
13430TIP3    H140235   0.174   3.749   2.767 -1.1153  0.5671  0.3789
13430TIP3    H240236   0.193   3.600   2.785  0.9706  0.5757 -1.3115
13431TIP3   OH240237   1.657   5.936   6.676 -0.2725  0.0910 -0.1125
13431TIP3    H140238   1.582   5.923   6.617 -0.7586 -1.3775  0.7785
13431TIP3    H240239   1.726   5.882   6.638 -0.5054 -0.6503  0.4994
13432TIP3   OH240240   3.352   5.108   5.963 -0.1601  0.6275  0.0940
13432TIP3    H140241   3.293   5.136   6.032 -0.9270  0.4140 -0.4693
13432TIP3    H240242   3.339   5.013   5.957  0.4089  0.5426  0.1256
13433TIP3   OH240243   2.546   0.906   2.394 -0.5793 -0.4455 -0.2117
13433TIP3    H140244   2.534   0.948   2.479  2.4685 -0.8088  0.4782
13433TIP3    H240245   2.560   0.979   2.334  0.8087 -0.2889  0.2775
13434TIP3   OH240246   6.960   3.544  -0.017 -0.2912  0.4951 -0.2445
13434TIP3    H140247   6.897   3.549   0.055  0.5974 -1.5872  0.7460
13434TIP3    H240248   7.043   3.526   0.025  0.4175  0.1120 -1.7501
13435TIP3   OH240249   3.980   2.454   5.368 -0.4036  0.0885 -0.2302
13435TIP3    H140250   4.062   2.492   5.400 -0.1400  0.6176 -1.4928
13435TIP3    H240251   4.008   2.384   5.309 -0.8860 -1.0128  0.8197
13436TIP3   OH240252   5.767   3.763   0.041 -0.1171 -0.1851  0.3880
13436TIP3    H140253   5.734   3.691  -0.013 -1.0841  0.1445  0.5136
13436TIP3    H240254   5.745   3.737   0.131  0.9474 -0.4564  0.5762
13437TIP3   OH240255   0.815   2.074   3.839  0.2025  0.0354  0.1013
13437TIP3    H140256   0.887   2.132   3.864  0.0143 -1.0059  3.6226
13437TIP3    H240257   0.742   2.100   3.896 -1.2643 -0.8445 -1.3030
13438TIP3   OH240258   3.233   0.674   2.565 -0.2922 -0.4214  0.5299
13438TIP3    H140259   3.324   0.665   2.594 -0.2613 -0.6429  0.3667
13438TIP3    H240260   3.238   0.729   2.487 -0.4431  0.7329  1.3124
13439TIP3   OH240261   3.870   0.733   4.078  0.0027 -0.0152 -0.3237
13439TIP3    H140262   3.844   0.765   3.991  0.4580  3.2886  0.6066
13439TIP3    H240263   3.797   0.678   4.106 -2.4120  2.6542 -0.9429
13440TIP3   OH240264   6.988   5.058   4.986  0.4220  0.0570 -0.3447
13440TIP3    H140265   7.054   5.020   5.044  0.6051 -1.2608 -1.3853
13440TIP3    H240266   7.010   5.152   4.984  1.2052 -0.0864  0.6656
13441TIP3   OH240267   4.368   0.770   3.944  0.5187  0.2058  0.0747
13441TIP3    H140268   4.287   0.720   3.937 -0.1267  1.1377  0.5567
13441TIP3    H240269   4.355   0.824   4.023  0.5922  2.1220 -1.1613
13442TIP3   OH240270   0.143   7.244   2.572 -0.2319  0.1130 -0.1519
13442TIP3    H140271   0.060   7.254   2.525  0.1863 -0.3982 -1.0036
13442TIP3    H240272   0.154   7.327   2.618  0.0864  1.2473 -2.1619
13443TIP3   OH240273   8.153   6.730   5.525 -0.0389  0.5356 -0.2395
13443TIP3    H140274   8.231   6.782   5.544 -0.7381  1.2228  0.8545
13443TIP3    H240275   8.185   6.659   5.469  1.2622  1.1152 -0.2740
13444TIP3   OH240276   7.833   4.070   4.623  0.1939 -0.3831 -0.5703
13444TIP3    H140277   7.805   4.145   4.675  1.8991  0.3699 -0.6638
13444TIP3    H240278   7.769   4.065   4.552 -1.2712 -0.4793  0.7122
13445TIP3   OH240279   5.326   0.608   6.368 -0.4588  0.2760 -0.1913
13445TIP3    H140280   5.272   0.567   6.436 -1.3006 -1.3600 -1.7704
13445TIP3    H240281   5.266   0.666   6.321 -0.2232  0.3721 -0.3781
13446TIP3   OH240282   0.201   6.504   6.733 -0.2282  0.3647 -0.1301
13446TIP3    H140283   0.277   6.447   6.720 -1.8794 -2.1156  0.3774
13446TIP3    H240284   0.151   6.496   6.652 -0.9511  0.2662  0.3111
13447TIP3   OH240285   2.783   1.842   2.286 -0.3542 -0.3346 -0.1290
13447TIP3    H140286   2.691   1.833   2.310 -0.3456  0.2904  0.1696
13447TIP3    H240287   2.793   1.935   2.264  0.2569 -0.3478  0.0731
13448TIP3   OH240288   7.298   5.882   6.094 -0.1554  0.0439 -0.1225
13448TIP3    H140289   7.347   5.964   6.078  0.8625 -0.6201 -0.5315
13448TIP3    H240290   7.212   5.898   6.056 -0.2407  1.2149  0.5182
13449TIP3   OH240291   1.184   6.176   5.814  0.3542 -0.7720  0.0478
13449TIP3    H140292   1.158   6.084   5.822 -1.8294 -0.0697  2.1509
13449TIP3    H240293   1.107   6.226   5.839  2.2207  1.5919  1.6245
13450TIP3   OH240294   3.565   7.597  -0.002  0.3338  1.1833  0.3349
13450TIP3    H140295   3.561   7.507   0.033 -1.6019  1.3341  0.6082
13450TIP3    H240296   3.518   7.650   0.062  2.4809  2.6797  0.8064
13451TIP3   OH240297   1.066   1.318   2.115 -0.5695  0.1599 -0.8332
13451TIP3    H140298   0.982   1.276   2.136 -0.4182 -0.7757 -1.9612
13451TIP3    H240299   1.042   1.410   2.097 -1.2470  0.0645 -0.4672
13452TIP3   OH240300   7.304   6.675   1.106  0.1273  0.2282 -0.2119
13452TIP3    H140301   7.369   6.614   1.138  0.7863  1.1013  0.1618
13452TIP3    H240302   7.351   6.729   1.042 -0.0994  1.1415  0.3691
13453TIP3   OH240303   6.838   6.281   0.597  0.2394 -0.3858 -0.4892
13453TIP3    H140304   6.774   6.285   0.669 -0.3972  0.7923 -1.0985
13453TIP3    H240305   6.908   6.341   0.623  0.4338 -0.6284 -0.4515
13454TIP3   OH240306   0.018   7.520   5.856  0.5420  0.2581 -0.5626
13454TIP3    H140307   0.034   7.501   5.948 -0.5186 -0.3557 -0.4912
13454TIP3    H240308   0.043   7.612   5.846  0.2240  0.4701  0.4582
13455TIP3   OH240309   1.566   5.211   1.784  0.2488 -0.0455  0.2345
13455TIP3    H140310   1.601   5.297   1.810  1.6055 -0.7952  1.0067
13455TIP3    H240311   1.641   5.166   1.744 -0.3499 -0.9991  0.1546
13456TIP3   OH240312   7.867   5.444   6.451 -0.4194  0.0749  0.1130
13456TIP3    H140313   7.961   5.434   6.442 -0.7154 -1.1548 -2.4035
13456TIP3    H240314   7.845   5.520   6.398 -0.9380 -0.1100  0.0557
13457TIP3   OH240315   2.292   5.113   6.168 -0.1257 -0.3418 -0.0314
13457TIP3    H140316   2.275   5.079   6.080  0.6384 -1.2877  0.1809
13457TIP3    H240317   2.261   5.045   6.227  1.4684 -0.7239  0.3972
13458TIP3   OH240318   1.995   1.102   3.785 -0.2316  0.1655  0.1712
13458TIP3    H140319   2.005   1.016   3.824  0.0084  0.4549  0.7578
13458TIP3    H240320   1.926   1.144   3.836  0.8529  0.9609  1.0392
13459TIP3   OH240321   7.816   4.593   2.056  0.3433  0.1167 -0.3801
13459TIP3    H140322   7.726   4.624   2.066  0.4932  0.5719 -0.4590
13459TIP3    H240323   7.858   4.611   2.140  0.3800 -0.0317 -0.3665
13460TIP3   OH240324   1.378   1.225   3.344  0.5093 -0.1643  0.1729
13460TIP3    H140325   1.315   1.228   3.416 -0.6142 -0.1858 -0.7742
13460TIP3    H240326   1.444   1.291   3.366 -0.2658  0.4049  0.8189
13461TIP3   OH240327   7.160   3.480   5.687  0.4539 -0.2975  0.5132
13461TIP3    H140328   7.182   3.567   5.655 -1.7081 -0.8197 -2.9413
13461TIP3    H240329   7.105   3.495   5.764  1.6081  1.2793  1.0572
13462TIP3   OH240330   3.015   2.698   5.989 -0.3993  0.4743  0.5505
13462TIP3    H140331   2.929   2.667   5.959  0.1270 -0.8588  0.3616
13462TIP3    H240332   3.071   2.693   5.911 -0.3961  2.4268  0.3767
13463TIP3   OH240333   1.621   7.785   4.260 -0.0538  0.0934 -0.3904
13463TIP3    H140334   1.528   7.795   4.279  0.1422 -0.0325  0.7234
13463TIP3    H240335   1.648   7.709   4.312  0.9695  1.0141  0.4700
13464TIP3   OH240336   2.181   0.108   5.735  0.6799 -0.3304 -0.3812
13464TIP3    H140337   2.150   0.046   5.669  1.1009 -0.8830 -0.0692
13464TIP3    H240338   2.262   0.069   5.768  0.0834 -0.4623  0.9920
13465TIP3   OH240339   1.370   3.711   1.682  0.3071 -0.0252  0.4658
13465TIP3    H140340   1.278   3.709   1.659  0.7266  0.1259 -1.3831
13465TIP3    H240341   1.416   3.681   1.604  1.8106 -0.5740  1.4952
13466TIP3   OH240342   4.010   1.433   1.322  0.3929  0.7422 -0.3690
13466TIP3    H140343   3.943   1.501   1.320  0.0283  0.5427  1.7724
13466TIP3    H240344   4.031   1.424   1.415  2.1641 -0.4109 -0.8274
13467TIP3   OH240345   3.029   2.813   3.861 -0.2591  0.8348  0.2261
13467TIP3    H140346   2.994   2.861   3.935 -1.5689  3.2729 -1.7950
13467TIP3    H240347   3.116   2.785   3.889 -0.4537  2.2013  2.4116
13468TIP3   OH240348   5.839   4.327   0.407 -0.3892 -0.2374  0.0767
13468TIP3    H140349   5.795   4.413   0.403 -2.3143 -1.0529  1.8005
13468TIP3    H240350   5.783   4.270   0.354  1.2372 -0.3558 -1.5998
13469TIP3   OH240351   7.467   2.900   3.199  0.1056 -0.3681  0.4975
13469TIP3    H140352   7.489   2.850   3.120  0.8297 -2.2089  1.8107
13469TIP3    H240353   7.375   2.924   3.186  0.8765  1.7468 -2.0730
13470TIP3   OH240354   0.922   4.401   0.017  0.2817 -0.3979 -0.2795
13470TIP3    H140355   0.907   4.311   0.046  0.5343 -0.2378  0.3749
13470TIP3    H240356   0.846   4.423  -0.036 -0.7491 -0.3225  1.1959
13471TIP3   OH240357   4.396   6.171   6.746 -0.0578  0.0613 -0.6033
13471TIP3    H140358   4.425   6.234   6.680  0.6064  0.7286  0.3033
13471TIP3    H240359   4.473   6.157   6.802 -0.8957  0.3367  0.6711
13472TIP3   OH240360   4.878   2.608   0.357  0.0577  0.0383 -0.6554
13472TIP3    H140361   4.944   2.644   0.415 -0.1439 -0.7305  0.0647
13472TIP3    H240362   4.919   2.608   0.271  1.1857 -0.8994 -0.1386
13473TIP3   OH240363   5.526   4.931   2.541 -0.3470  0.1593 -0.0147
13473TIP3    H140364   5.510   4.963   2.452  0.7375 -0.0792 -0.3192
13473TIP3    H240365   5.616   4.898   2.538 -0.0358  0.8297  1.3789
13474TIP3   OH240366   0.063   7.166   4.549 -0.2519  0.1875 -0.5632
13474TIP3    H140367   0.150   7.205   4.557  0.8625 -2.1334 -0.6735
13474TIP3    H240368   0.036   7.187   4.459  0.2049  0.8693 -0.5490
13475TIP3   OH240369   7.193   7.354   0.145  0.2181 -0.2088  0.3422
13475TIP3    H140370   7.175   7.329   0.054  0.5738 -0.6024  0.3741
13475TIP3    H240371   7.107   7.364   0.185  0.0182  1.4550 -0.4232
13476TIP3   OH240372   0.212   2.251   5.506 -0.3813  0.3479  0.4434
13476TIP3    H140373   0.192   2.175   5.561  0.1437  0.1520  0.3700
13476TIP3    H240374   0.292   2.286   5.543 -0.3635  0.5833  0.1788
13477TIP3   OH240375   2.728   6.256   4.279 -0.3662 -0.0475 -0.1354
13477TIP3    H140376   2.667   6.246   4.352  1.8086  0.8322  1.9788
13477TIP3    H240377   2.787   6.180   4.287  0.5807  0.6575 -0.2182
13478TIP3   OH240378   8.249   6.924   4.622 -0.0727  0.0305  0.5792
13478TIP3    H140379   8.296   7.002   4.591  0.4875 -1.2291 -2.0226
13478TIP3    H240380   8.157   6.945   4.609  0.0970  0.0722 -0.6850
13479TIP3   OH240381   6.642   5.489   4.701  0.1056 -0.1976 -0.1017
13479TIP3    H140382   6.628   5.526   4.788  3.1497  0.1980  0.3294
13479TIP3    H240383   6.652   5.395   4.717  0.2451 -0.1802 -0.0867
13480TIP3   OH240384   0.728   5.913   5.514  0.2979  0.0796  0.4664
13480TIP3    H140385   0.808   5.862   5.499  0.0487 -0.8876  2.1621
13480TIP3    H240386   0.660   5.865   5.467  0.6940  1.0145 -1.1515
13481TIP3   OH240387   6.849   0.963   5.270  0.7170 -0.7891  0.2122
13481TIP3    H140388   6.868   0.898   5.202  0.2810  0.2873 -0.9521
13481TIP3    H240389   6.935   0.998   5.294  0.7832 -0.3445 -0.6332
13482TIP3   OH240390   1.752   5.280   6.398  0.1822  0.0948 -0.4067
13482TIP3    H140391   1.671   5.267   6.350  0.6336 -1.3135 -0.8213
13482TIP3    H240392   1.792   5.357   6.357  0.0004 -0.3810 -1.5053
13483TIP3   OH240393   5.114   0.528   3.243  0.2015 -0.1294  0.1667
13483TIP3    H140394   5.105   0.619   3.270 -0.1877 -0.6261  1.8851
13483TIP3    H240395   5.158   0.531   3.159  0.6779  1.6191  0.4490
13484TIP3   OH240396   5.051   1.896   4.635 -0.0381 -0.2410 -0.0287
13484TIP3    H140397   5.034   1.973   4.689 -1.9880 -1.0163  0.5218
13484TIP3    H240398   4.994   1.907   4.559  0.9942 -0.2924 -0.8364
13485TIP3   OH240399   5.099   7.325   1.117 -0.3046 -0.3659  0.0049
13485TIP3    H140400   5.151   7.263   1.065  1.5689  2.3189 -1.5573
13485TIP3    H240401   5.150   7.406   1.116 -3.7588  2.0208 -0.2230
13486TIP3   OH240402   0.046   0.790   1.174  0.4354  0.7224  0.5144
13486TIP3    H140403  -0.006   0.870   1.187  0.0175  1.1140 -2.7640
13486TIP3    H240404   0.092   0.805   1.092  1.5605 -1.8377  0.6018
13487TIP3   OH240405   3.781   4.086   1.479 -0.4246  0.5121 -0.6806
13487TIP3    H140406   3.710   4.071   1.416 -0.3807 -1.2274 -0.3629
13487TIP3    H240407   3.745   4.147   1.542 -1.2326  0.5760 -1.1907
13488TIP3   OH240408   7.733   7.408   0.995  0.4479 -0.4297  0.0286
13488TIP3    H140409   7.822   7.390   1.026  0.1976 -0.8907  0.4988
13488TIP3    H240410   7.745   7.444   0.907  1.0622 -1.2779 -0.2454
13489TIP3   OH240411   4.091   0.043   6.782  0.2879  0.0619  0.1454
13489TIP3    H140412   4.132   0.121   6.744  0.7438 -0.8642 -1.3427
13489TIP3    H240413   4.006   0.038   6.739  0.8280 -1.0277 -0.8361
13490TIP3   OH240414   2.989   0.458   5.174 -0.0259  0.2277 -0.1920
13490TIP3    H140415   3.000   0.496   5.262 -0.6522  0.5585 -0.2544
13490TIP3    H240416   3.011   0.530   5.115  0.2525  0.0460 -0.3092
13491TIP3   OH240417   3.046   4.166   5.762  0.4873 -0.0909 -0.2741
13491TIP3    H140418   3.104   4.103   5.803  1.3155  0.2683 -0.8485
13491TIP3    H240419   2.972   4.114   5.731  1.7734 -1.0571 -1.9501
13492TIP3   OH240420   3.243   0.995   5.317 -0.3211 -0.2970  0.6770
13492TIP3    H140421   3.185   1.064   5.348 -0.1690  0.6559 -1.0627
13492TIP3    H240422   3.185   0.924   5.291 -0.5496 -0.3240  1.2452
13493TIP3   OH240423   4.040   6.728   1.646 -0.1148  0.3286  0.0087
13493TIP3    H140424   4.068   6.727   1.554 -2.5974  1.2610 -0.8675
13493TIP3    H240425   4.035   6.636   1.671 -0.2924  0.0164 -1.1118
13494TIP3   OH240426   2.353   0.541   0.299 -0.1095 -0.3446 -0.0683
13494TIP3    H140427   2.404   0.548   0.380  0.0735  0.3642 -0.2386
13494TIP3    H240428   2.263   0.527   0.328  0.1113 -1.2005  0.2387
13495TIP3   OH240429   4.909   2.448   2.009  0.4238  0.4350  0.5439
13495TIP3    H140430   4.963   2.406   2.076 -0.6911 -3.1173 -0.5358
13495TIP3    H240431   4.832   2.480   2.057  1.1891  1.0368  1.3955
13496TIP3   OH240432   3.855   7.300   0.608  1.1849 -0.1153  1.6770
13496TIP3    H140433   3.907   7.223   0.584 -1.0142 -2.0879  2.8620
13496TIP3    H240434   3.841   7.346   0.525  1.7363 -1.5182  0.7713
13497TIP3   OH240435   1.585   5.053   4.744 -0.5991  0.1904  0.6768
13497TIP3    H140436   1.604   5.058   4.838  4.0760  0.3703 -0.0204
13497TIP3    H240437   1.547   4.966   4.732  0.2648 -0.5128  2.6101
13498TIP3   OH240438   4.402   0.573   5.366 -0.0622 -0.3239  0.5912
13498TIP3    H140439   4.466   0.552   5.299 -0.5558  0.5369 -0.1768
13498TIP3    H240440   4.404   0.498   5.426  1.3068 -0.5124  0.3289
13499TIP3   OH240441   0.630   0.242   6.612 -0.1012  0.0114 -0.6262
13499TIP3    H140442   0.684   0.312   6.648 -0.1224  1.3146 -2.9658
13499TIP3    H240443   0.654   0.238   6.519 -0.5232 -2.7093 -0.7154
13500TIP3   OH240444   7.335   2.852   4.166  0.4675 -0.8908  0.0451
13500TIP3    H140445   7.277   2.866   4.241  0.6806  0.7549 -0.0697
13500TIP3    H240446   7.421   2.881   4.196  0.2915  1.1513 -1.2276
13501TIP3   OH240447   5.132   4.461   5.462 -0.2486  0.5247  0.1915
13501TIP3    H140448   5.064   4.518   5.427 -0.8601 -0.4687 -0.2803
13501TIP3    H240449   5.100   4.372   5.445  1.3069  0.0401 -0.3310
13502TIP3   OH240450   4.351   5.070   0.519  0.1209 -0.3196 -0.7640
13502TIP3    H140451   4.274   5.119   0.491  0.4534 -0.0368 -1.2001
13502TIP3    H240452   4.338   4.982   0.483 -0.3246 -0.4705 -0.2495
13503TIP3   OH240453   5.365   2.796   0.864 -0.6566  0.0857  0.1795
13503TIP3    H140454   5.271   2.784   0.852 -0.6196 -1.7186  1.3261
13503TIP3    H240455   5.405   2.739   0.798 -0.3210  1.6936 -1.0596
13504TIP3   OH240456   2.339   0.490   2.782  0.3522  0.4583  0.0150
13504TIP3    H140457   2.366   0.495   2.874 -0.4309 -0.9474  0.3579
13504TIP3    H240458   2.409   0.441   2.739  1.1149  1.8032 -0.3420
13505TIP3   OH240459   3.404   3.591   2.430  0.4807  0.2813 -0.4910
13505TIP3    H140460   3.452   3.577   2.511  0.3560  0.3942 -0.3980
13505TIP3    H240461   3.449   3.536   2.366  1.0055  0.7140 -0.5053
13506TIP3   OH240462   2.720   7.135   2.316 -0.3731  0.0361 -0.0844
13506TIP3    H140463   2.706   7.040   2.310 -0.7521 -0.2542  3.3678
13506TIP3    H240464   2.805   7.149   2.274 -0.3046 -1.8218 -0.6805
13507TIP3   OH240465   5.729   2.788   3.812  0.2118  0.1001 -0.7065
13507TIP3    H140466   5.691   2.875   3.796  1.6473  0.6034 -1.5982
13507TIP3    H240467   5.780   2.769   3.733 -0.1006 -1.5940 -0.5419
13508TIP3   OH240468   0.956   0.361   3.932  0.1125  0.7473 -0.4859
13508TIP3    H140469   0.871   0.372   3.888 -1.2319 -1.3371  1.3729
13508TIP3    H240470   0.999   0.293   3.881 -1.1239 -1.1247  0.8614
13509TIP3   OH240471   6.372   1.212   4.207  0.3179  0.6785 -0.4840
13509TIP3    H140472   6.368   1.157   4.286  2.7669  0.3226 -0.5150
13509TIP3    H240473   6.383   1.150   4.135 -1.4071  1.0321 -1.1117
13510TIP3   OH240474   5.325   1.699   1.081  0.2856 -0.3463  0.5535
13510TIP3    H140475   5.299   1.788   1.106 -0.1808 -0.4502  0.4377
13510TIP3    H240476   5.341   1.705   0.986  1.4797 -0.0934  0.7451
13511TIP3   OH240477   5.574   0.216   3.606  0.8868  0.8005 -0.2257
13511TIP3    H140478   5.632   0.202   3.531  0.1558 -0.4514 -0.5877
13511TIP3    H240479   5.564   0.311   3.612  1.0140  0.9192 -1.6749
13512TIP3   OH240480   1.211   4.216   1.725 -0.1960  0.5293 -0.0210
13512TIP3    H140481   1.270   4.191   1.653 -1.4059  0.3312 -0.9769
13512TIP3    H240482   1.142   4.266   1.682 -0.5255  1.0898  1.1403
13513TIP3   OH240483   1.863   6.152   0.344 -0.3875  0.2669 -0.1788
13513TIP3    H140484   1.797   6.103   0.393 -0.1739  0.1931  0.0412
13513TIP3    H240485   1.822   6.171   0.260 -0.7997  0.4937  0.0701
13514TIP3   OH240486   0.746   7.674   4.146  0.0223 -0.5204 -0.0157
13514TIP3    H140487   0.818   7.655   4.085  0.8650  1.6927  0.1842
13514TIP3    H240488   0.785   7.667   4.233 -0.1498  0.1287  0.1182
13515TIP3   OH240489   6.437   2.130   3.322 -0.2113 -0.2014  0.4407
13515TIP3    H140490   6.431   2.038   3.297 -0.9089 -0.3258  1.0477
13515TIP3    H240491   6.349   2.165   3.306  0.2252  0.5324 -0.4410
13516TIP3   OH240492   4.155   1.015   3.440  0.7295  0.4101 -0.0128
13516TIP3    H140493   4.229   0.955   3.431 -0.2623 -1.0716  1.1339
13516TIP3    H240494   4.162   1.074   3.365  2.3881 -0.4376 -0.5725
13517TIP3   OH240495   7.623   6.820   2.544 -0.3791  0.0162 -0.5026
13517TIP3    H140496   7.543   6.812   2.492 -1.7950  2.7349  1.0456
13517TIP3    H240497   7.657   6.907   2.523 -0.7051  1.0123  2.5486
13518TIP3   OH240498   0.013   1.308   6.179 -0.5538  0.3889  0.3690
13518TIP3    H140499   0.058   1.254   6.243  1.5071 -2.0606 -2.8088
13518TIP3    H240500  -0.065   1.257   6.155 -0.3897  0.4123 -0.2486
13519TIP3   OH240501   2.298   1.990   0.709  0.8410 -0.9350 -0.8450
13519TIP3    H140502   2.392   1.978   0.693  1.3761  0.3295  1.0550
13519TIP3    H240503   2.277   2.073   0.666  1.0698 -0.2115  0.4117
13520TIP3   OH240504   7.237   5.345   0.737 -0.4611 -0.2038  0.6645
13520TIP3    H140505   7.257   5.252   0.723 -1.7751 -0.5158  0.7437
13520TIP3    H240506   7.320   5.390   0.723  0.1932 -1.3929  0.6181
13521TIP3   OH240507   7.502   4.622   3.497 -0.0070  0.5201  0.4327
13521TIP3    H140508   7.447   4.653   3.425  0.3079  2.4576  0.9813
13521TIP3    H240509   7.562   4.560   3.456 -0.4644  0.8563 -0.7984
13522TIP3   OH240510   2.170   4.143   4.595  0.4052  0.4303  0.4469
13522TIP3    H140511   2.195   4.228   4.631 -0.3694  0.6416  0.5102
13522TIP3    H240512   2.158   4.160   4.501  1.9826 -0.0176  0.1352
13523TIP3   OH240513   7.365   3.520   1.714  0.3111 -0.3424 -0.0563
13523TIP3    H140514   7.292   3.480   1.762  0.2963 -0.6843 -0.3567
13523TIP3    H240515   7.410   3.574   1.779 -0.6068  0.4075 -0.0344
13524TIP3   OH240516   7.185   5.056   1.200  0.5003  0.3664 -0.3537
13524TIP3    H140517   7.221   5.121   1.260 -0.0699  1.3196 -0.9994
13524TIP3    H240518   7.094   5.046   1.228 -0.1643  1.8105 -1.7914
13525TIP3   OH240519   6.514   7.445   3.429  0.4038  0.1022  0.0159
13525TIP3    H140520   6.514   7.540   3.421  2.3567  0.1353  0.0179
13525TIP3    H240521   6.579   7.426   3.498  0.9316 -1.2622 -0.8133
13526TIP3   OH240522   0.990   3.339   5.628 -0.1265 -0.0508 -0.3354
13526TIP3    H140523   1.043   3.390   5.566 -0.2527 -0.3035 -0.6498
13526TIP3    H240524   1.054   3.285   5.674 -0.2514 -1.4500 -1.7400
13527TIP3   OH240525   0.336   3.769   4.410 -0.3170  0.0645 -0.1118
13527TIP3    H140526   0.377   3.732   4.332  0.9415  1.8257 -0.3382
13527TIP3    H240527   0.326   3.694   4.469 -0.6146 -1.1637 -1.6424
13528TIP3   OH240528   0.679   2.083   3.384 -0.5075  0.2624  0.2003
13528TIP3    H140529   0.660   2.037   3.466 -0.9397 -0.6523 -0.3915
13528TIP3    H240530   0.597   2.129   3.364 -0.6069  0.0008 -0.0112
13529TIP3   OH240531   3.842   1.587   2.715  0.1174  0.1593  0.5386
13529TIP3    H140532   3.938   1.585   2.723 -0.0071 -0.0701  2.4141
13529TIP3    H240533   3.813   1.508   2.761 -1.0254  0.8265  1.0064
13530TIP3   OH240534   0.712   7.418   6.176 -0.4666  0.0684  0.0700
13530TIP3    H140535   0.625   7.457   6.167 -0.2130  0.5397 -0.3594
13530TIP3    H240536   0.708   7.338   6.124 -0.5200  0.2910 -0.2685
13531TIP3   OH240537   2.162   0.275   3.600 -0.4974  0.1236  0.3649
13531TIP3    H140538   2.153   0.239   3.511  1.9090  0.3741 -0.0518
13531TIP3    H240539   2.201   0.204   3.651 -1.3783  0.1590  1.1024
13532TIP3   OH240540   1.338   3.639   0.928  0.4926  0.6172 -0.1714
13532TIP3    H140541   1.433   3.634   0.923  0.4572 -1.0419  0.1061
13532TIP3    H240542   1.309   3.630   0.837  0.5630 -2.8390  0.0016
13533TIP3   OH240543   6.462   6.118   5.656 -0.3086 -0.1846  0.1366
13533TIP3    H140544   6.485   6.210   5.672  1.4068 -0.7654  1.4513
13533TIP3    H240545   6.545   6.071   5.666 -1.0068 -1.8116 -1.2389
13534TIP3   OH240546   4.867   5.763   6.070 -0.0641  0.2005  0.3568
13534TIP3    H140547   4.960   5.749   6.052  0.4075  1.2672  1.8165
13534TIP3    H240548   4.842   5.836   6.012 -0.0424 -0.1852 -0.1448
13535TIP3   OH240549   4.137   3.785   0.253  0.2891  0.6556 -0.2443
13535TIP3    H140550   4.191   3.838   0.312  1.4030 -1.1339  0.4196
13535TIP3    H240551   4.193   3.711   0.229 -1.6645 -1.0125  0.0381
13536TIP3   OH240552   3.058   1.270   5.768  0.1794  0.3429 -0.0468
13536TIP3    H140553   3.135   1.283   5.824 -0.5666  2.7646  0.5484
13536TIP3    H240554   3.060   1.343   5.707 -0.3123 -0.9665 -1.7126
13537TIP3   OH240555   4.709   2.494   5.818 -0.7425  0.3368 -0.2502
13537TIP3    H140556   4.701   2.498   5.722 -1.4968  1.2816 -0.1607
13537TIP3    H240557   4.790   2.542   5.836 -0.5165  0.0240 -0.4250
13538TIP3   OH240558   5.860   3.569   3.605  0.2900 -0.0397 -0.1122
13538TIP3    H140559   5.834   3.535   3.519 -1.6373 -1.9485  1.1287
13538TIP3    H240560   5.788   3.626   3.631 -0.7180 -1.9575  1.5213
13539TIP3   OH240561   6.019   5.259   3.973  0.4452  0.5014 -0.2701
13539TIP3    H140562   5.949   5.321   3.956  1.1818  1.4329  0.0372
13539TIP3    H240563   5.982   5.197   4.036  0.2167  1.5676  0.6606
13540TIP3   OH240564   4.987   0.433   5.771 -0.1836 -0.2206 -0.5871
13540TIP3    H140565   4.990   0.474   5.858  0.9296  0.6209 -1.0049
13540TIP3    H240566   5.079   0.417   5.749 -0.4127  0.1379 -1.8813
13541TIP3   OH240567   8.277   3.345   2.996 -0.0025 -0.3837  0.3506
13541TIP3    H140568   8.300   3.365   2.905  0.2067  0.2250  0.5316
13541TIP3    H240569   8.287   3.250   3.003 -0.4607 -0.4914 -0.3807
13542TIP3   OH240570   4.770   1.069   2.594 -0.6348 -0.3598  0.0631
13542TIP3    H140571   4.691   1.025   2.626  0.2128 -2.0866 -0.1256
13542TIP3    H240572   4.739   1.120   2.518 -1.6320 -0.7218  0.2080
13543TIP3   OH240573   7.889   6.561   6.559  0.0076  0.2165 -0.5352
13543TIP3    H140574   7.951   6.514   6.504  0.3218  0.5369 -0.4635
13543TIP3    H240575   7.831   6.494   6.593  0.1263 -0.0499 -0.8501
13544TIP3   OH240576   7.752   4.629   4.689  0.2396  0.2748 -0.1309
13544TIP3    H140577   7.809   4.704   4.702  1.0035  0.2006 -2.5435
13544TIP3    H240578   7.810   4.553   4.687 -0.3980 -0.2841  1.1084
13545TIP3   OH240579   0.470   1.660   6.076 -0.3672 -0.1649 -0.2327
13545TIP3    H140580   0.409   1.586   6.076  0.7049 -1.0741 -0.5828
13545TIP3    H240581   0.432   1.722   6.139 -1.3336 -0.9611 -0.0024
13546TIP3   OH240582   0.697   2.424   3.441  0.2355 -0.3940  0.5493
13546TIP3    H140583   0.694   2.336   3.477  1.8137 -1.1537 -1.0333
13546TIP3    H240584   0.758   2.418   3.367  2.5195  2.5829  1.9673
13547TIP3   OH240585   7.945   3.146   6.117  0.0329 -0.3385  0.0361
13547TIP3    H140586   7.924   3.140   6.024  0.7081  0.4949 -0.1760
13547TIP3    H240587   7.991   3.064   6.137 -0.5436 -0.7376 -0.2366
13548TIP3   OH240588   7.549   2.063   3.422 -0.1237 -0.4588 -0.0869
13548TIP3    H140589   7.554   2.138   3.482 -1.0050 -0.5519  0.1139
13548TIP3    H240590   7.594   2.093   3.343  2.7495 -0.9731  1.2228
13549TIP3   OH240591   6.397   3.090   6.418 -0.4769 -0.0006  0.2604
13549TIP3    H140592   6.375   3.157   6.354  3.6942  0.1281 -1.3679
13549TIP3    H240593   6.376   3.129   6.502  0.5415  2.8571 -0.7088
13550TIP3   OH240594   4.882   5.707   5.337 -0.0857 -0.0451  0.4293
13550TIP3    H140595   4.922   5.742   5.258 -0.4105 -1.5807 -0.4579
13550TIP3    H240596   4.955   5.691   5.397  0.4417 -1.0588 -0.4612
13551TIP3   OH240597   7.554   1.186   5.414  0.4234 -0.4993  0.3902
13551TIP3    H140598   7.605   1.171   5.493 -0.4545 -1.0428  0.8691
13551TIP3    H240599   7.469   1.216   5.445  0.5471  0.7507 -0.4071
13552TIP3   OH240600   4.818   4.869   5.469 -0.4967 -0.1620  0.2725
13552TIP3    H140601   4.743   4.890   5.526 -1.2958  3.3624 -1.7557
13552TIP3    H240602   4.894   4.878   5.527 -1.4482 -0.6208  1.6589
13553TIP3   OH240603   7.997   6.398   5.404 -0.3341  0.1226  0.0392
13553TIP3    H140604   7.966   6.394   5.314  2.5827 -0.4114 -1.0435
13553TIP3    H240605   7.930   6.352   5.455 -1.6542 -0.2612 -1.9420
13554TIP3   OH240606   0.489   1.938   4.792 -0.4017 -0.0112 -0.1796
13554TIP3    H140607   0.409   1.961   4.746  0.1266 -0.3830 -1.3108
13554TIP3    H240608   0.555   1.928   4.723  0.8229  1.0748  0.7589
13555TIP3   OH240609   4.394   5.166   1.373  0.0107 -0.4844  0.2974
13555TIP3    H140610   4.394   5.127   1.460 -0.9881 -1.0429  0.0562
13555TIP3    H240611   4.428   5.097   1.316  0.6650 -0.1188  0.2284
13556TIP3   OH240612   1.393   1.851   4.059 -0.5472  0.2054  0.1885
13556TIP3    H140613   1.424   1.776   4.109  0.6559 -0.3045 -1.2417
13556TIP3    H240614   1.452   1.922   4.084 -1.2760  0.5230  1.0510
13557TIP3   OH240615   6.279   4.475   0.566  0.2943 -0.4895  0.0113
13557TIP3    H140616   6.250   4.487   0.475 -1.5182 -0.7847  0.5063
13557TIP3    H240617   6.300   4.381   0.572 -1.8197 -0.9857  0.4423
13558TIP3   OH240618   5.456   5.698   6.122  0.2007  0.4561 -0.1374
13558TIP3    H140619   5.404   5.738   6.192 -1.2925  0.1940 -1.0571
13558TIP3    H240620   5.547   5.707   6.151 -0.3800  0.4050  1.7882
13559TIP3   OH240621   7.411   2.871   5.321 -0.6524 -0.1292  0.8287
13559TIP3    H140622   7.472   2.830   5.259 -0.4370  1.4556 -0.0404
13559TIP3    H240623   7.324   2.852   5.285 -0.5038  1.8049 -0.6917
13560TIP3   OH240624   0.058   6.102   1.288 -0.7089 -0.5251 -0.3752
13560TIP3    H140625   0.141   6.084   1.246 -1.5043 -1.2385 -1.7196
13560TIP3    H240626   0.019   6.015   1.302 -1.5206 -0.1791 -0.4160
13561TIP3   OH240627   7.620   7.105   2.517  0.0868 -0.4717 -0.1093
13561TIP3    H140628   7.661   7.170   2.573  0.7395  0.0854 -1.2111
13561TIP3    H240629   7.530   7.136   2.507  0.7720  1.1053 -1.8150
13562TIP3   OH240630   1.172   0.195   0.166  0.4944  0.3784  0.2621
13562TIP3    H140631   1.227   0.151   0.101  0.1276 -0.3129  0.4082
13562TIP3    H240632   1.221   0.273   0.190  0.8104  0.4457 -0.5707
13563TIP3   OH240633   8.210   1.448   4.766  0.5201 -0.3206  0.2460
13563TIP3    H140634   8.165   1.389   4.826 -0.6679  1.7625  1.5156
13563TIP3    H240635   8.164   1.531   4.775  1.7095  0.6591 -1.9528
13564TIP3   OH240636   3.684   1.004   2.433  0.5256  0.0282 -0.2329
13564TIP3    H140637   3.712   0.981   2.345  0.1149  0.6622 -0.5420
13564TIP3    H240638   3.620   1.074   2.420 -0.1669 -0.4494  0.5243
13565TIP3   OH240639   2.454   4.303   2.992 -0.0985 -0.4010  0.3693
13565TIP3    H140640   2.403   4.223   2.977 -2.5576  1.5609 -3.0335
13565TIP3    H240641   2.526   4.298   2.930  0.6388 -0.5962  1.2186
13566TIP3   OH240642   4.647   0.151   6.648  0.2761 -0.2218  0.1781
13566TIP3    H140643   4.725   0.207   6.653 -0.8155  1.2829  2.2861
13566TIP3    H240644   4.674   0.068   6.685  1.2143 -0.1632 -0.3549
13567TIP3   OH240645   2.486   1.739   1.821  0.6058  1.0807  0.0179
13567TIP3    H140646   2.396   1.766   1.806  0.7951  2.2443  0.8352
13567TIP3    H240647   2.489   1.647   1.792 -0.7222  1.1477 -0.3875
13568TIP3   OH240648   5.044   0.261   0.465 -0.4665 -0.4250 -0.4513
13568TIP3    H140649   5.016   0.328   0.402  0.1155 -0.3326 -0.6150
13568TIP3    H240650   5.120   0.299   0.508 -0.5740 -0.6865 -0.0290
13569TIP3   OH240651   5.266   5.482   0.564  0.3887  0.1488 -0.1949
13569TIP3    H140652   5.307   5.399   0.541 -0.7117 -0.3871 -0.3091
13569TIP3    H240653   5.314   5.513   0.641  1.0108 -0.4287 -0.3442
13570TIP3   OH240654   4.443   5.635   5.970 -0.4244 -0.1716  0.0032
13570TIP3    H140655   4.527   5.600   6.002 -0.4213 -0.1194  0.0507
13570TIP3    H240656   4.424   5.582   5.892 -0.1816  0.0361 -0.1994
13571TIP3   OH240657   0.892   3.396   2.855  0.0128 -0.7081 -0.2375
13571TIP3    H140658   0.830   3.384   2.928  0.6938 -2.0013  0.1621
13571TIP3    H240659   0.849   3.458   2.797 -0.8888 -0.2367  0.8957
13572TIP3   OH240660   4.470   4.988   6.110 -0.1280  1.0054  0.2162
13572TIP3    H140661   4.375   4.981   6.101  0.0136  1.2866 -2.0134
13572TIP3    H240662   4.496   5.055   6.047  1.5074  1.3867  1.2262
13573TIP3   OH240663   3.762   2.309   2.974 -0.5133  0.9504  0.2821
13573TIP3    H140664   3.791   2.398   2.954  2.0530  0.5516  1.8331
13573TIP3    H240665   3.843   2.257   2.973 -1.6742 -0.9767  1.4174
13574TIP3   OH240666   3.490   4.486   6.716  0.3678 -0.5482  0.4690
13574TIP3    H140667   3.483   4.397   6.752 -1.2268 -0.3875  0.6324
13574TIP3    H240668   3.567   4.482   6.658 -0.5360 -2.4615 -0.7127
13575TIP3   OH240669   0.286   4.387   6.743  0.0790 -0.1591 -0.2827
13575TIP3    H140670   0.324   4.332   6.675  2.6138  2.1572 -0.9115
13575TIP3    H240671   0.316   4.350   6.825 -0.0170 -0.8928 -0.5694
13576TIP3   OH240672   2.982   3.001  -0.034 -0.4181 -0.2209  0.2179
13576TIP3    H140673   3.004   3.066   0.032 -0.6429 -0.1187  0.1932
13576TIP3    H240674   2.929   2.936   0.012 -1.4782  0.4038 -0.0941
13577TIP3   OH240675   3.860   4.858   1.217  0.1411  0.1616  0.4492
13577TIP3    H140676   3.792   4.805   1.177  0.2197 -0.1418  0.7068
13577TIP3    H240677   3.840   4.948   1.191  1.3246 -0.2058 -1.9210
13578TIP3   OH240678   3.717   0.285   4.240 -0.0544 -0.4732 -0.2125
13578TIP3    H140679   3.752   0.263   4.153 -1.0243  1.7699 -1.2711
13578TIP3    H240680   3.794   0.296   4.295  0.7586  0.3895 -1.4493
13579TIP3   OH240681   1.013   0.427   1.709  0.1549  0.1712 -0.0304
13579TIP3    H140682   1.023   0.431   1.613  1.1754 -2.0368 -0.0734
13579TIP3    H240683   1.086   0.478   1.743  0.5144 -0.0720 -0.4295
13580TIP3   OH240684   3.272   2.492   3.231 -0.4695 -0.0727  0.0559
13580TIP3    H140685   3.197   2.527   3.185 -1.0367 -2.7011 -1.1735
13580TIP3    H240686   3.235   2.446   3.307  0.0251 -0.1456  0.2600
13581TIP3   OH240687   4.388   0.222   4.506 -0.0558 -0.2815  0.2053
13581TIP3    H140688   4.351   0.194   4.422 -0.8776 -2.1316  1.1128
13581TIP3    H240689   4.444   0.149   4.532 -1.4511 -0.7079  2.2131
13582TIP3   OH240690   2.985   3.465   6.748 -0.5791 -0.3812  0.4670
13582TIP3    H140691   3.061   3.523   6.735 -0.6002 -0.2758  0.8093
13582TIP3    H240692   2.936   3.471   6.666  0.0792 -0.8889  0.0203
13583TIP3   OH240693   1.095   7.288   0.393 -0.3387 -0.0089 -0.1710
13583TIP3    H140694   1.109   7.379   0.418  0.4166 -0.3942  0.8636
13583TIP3    H240695   1.000   7.279   0.387 -0.5642  0.1728  2.3462
13584TIP3   OH240696   7.702   4.585   0.440  0.4257 -0.5037 -0.2215
13584TIP3    H140697   7.628   4.620   0.391  0.6156  2.2579  1.2479
13584TIP3    H240698   7.665   4.514   0.492 -0.7217 -0.5356 -1.0524
13585TIP3   OH240699   6.824   6.678   4.381  0.0518 -0.6191  0.7380
13585TIP3    H140700   6.742   6.654   4.423  0.9996 -2.2351  1.8263
13585TIP3    H240701   6.813   6.769   4.354 -2.9194 -1.4377 -1.2894
13586TIP3   OH240702   1.514   7.626   2.344  0.6785  0.0629  0.5175
13586TIP3    H140703   1.447   7.565   2.314  0.2915  0.4225  0.6380
13586TIP3    H240704   1.519   7.612   2.439  2.0034 -1.1754  0.2959
13587TIP3   OH240705   6.970   2.318   5.943 -0.3101  0.3094 -0.2195
13587TIP3    H140706   6.974   2.257   5.870  0.8017 -0.6988  0.6399
13587TIP3    H240707   6.991   2.403   5.904 -0.8808 -0.0056 -1.2539
13588TIP3   OH240708   2.871   2.983   4.003  0.1490  0.1881 -0.0203
13588TIP3    H140709   2.804   2.928   4.045  0.1389 -1.0538 -1.5573
13588TIP3    H240710   2.825   3.063   3.978 -0.3842 -0.0053  0.3269
13589TIP3   OH240711   1.389   0.700   3.513 -0.9842  0.0455 -0.1450
13589TIP3    H140712   1.481   0.675   3.523 -1.3655 -0.9583  1.2922
13589TIP3    H240713   1.391   0.781   3.462  0.6514 -0.2656 -0.6295
13590TIP3   OH240714   7.425   0.558   4.501  0.1815 -0.3002 -0.6724
13590TIP3    H140715   7.459   0.497   4.436  0.2895 -1.6825  0.6068
13590TIP3    H240716   7.503   0.586   4.550 -0.0182 -0.1235 -0.4542
13591TIP3   OH240717   6.106   0.424   0.039 -0.2106 -0.0428 -0.0534
13591TIP3    H140718   6.164   0.446   0.112  1.7439 -0.7981 -1.2759
13591TIP3    H240719   6.122   0.331   0.024  0.9885  0.4704 -2.6241
13592TIP3   OH240720   7.418   1.361   5.008  0.6223  0.1169  0.0991
13592TIP3    H140721   7.422   1.302   4.933 -0.7354  0.0374  0.0642
13592TIP3    H240722   7.469   1.438   4.981 -0.1525  0.2462 -1.0667
13593TIP3   OH240723   8.282   2.052   1.873 -0.1835  0.3823 -0.0868
13593TIP3    H140724   8.305   2.018   1.786 -0.5524 -0.0338 -0.0247
13593TIP3    H240725   8.200   2.099   1.859 -0.5319 -0.1474  0.1322
13594TIP3   OH240726   3.252   5.767   6.569  0.3802  0.5532  0.0938
13594TIP3    H140727   3.239   5.809   6.484 -0.5424 -0.4461 -0.2729
13594TIP3    H240728   3.310   5.693   6.550  0.0704  0.2537  0.3048
13595TIP3   OH240729   3.452   3.265   2.890 -0.0766 -0.3514 -0.5148
13595TIP3    H140730   3.362   3.270   2.923 -0.7746 -1.8326 -2.0401
13595TIP3    H240731   3.471   3.172   2.886  1.3569 -0.0738 -0.6944
13596TIP3   OH240732   8.178   5.030   0.813  0.8735  0.3040  0.1405
13596TIP3    H140733   8.118   5.103   0.830  0.4442  0.1320 -0.5635
13596TIP3    H240734   8.138   4.955   0.857  1.6548  0.6114  1.4272
13597TIP3   OH240735   1.067   5.652   5.927  1.0464  0.0809  0.4600
13597TIP3    H140736   1.075   5.623   5.836 -0.0929 -1.3203  0.7664
13597TIP3    H240737   1.012   5.586   5.969  1.3909  0.7900  2.1375
13598TIP3   OH240738   2.244   4.443   3.629  0.1000 -0.8511 -0.3984
13598TIP3    H140739   2.209   4.492   3.704 -0.6521 -2.3451  0.2574
13598TIP3    H240740   2.244   4.352   3.658  3.9373 -1.0673 -0.6034
13599TIP3   OH240741   1.977   0.793   2.098  0.4892  0.1353  0.6311
13599TIP3    H140742   1.888   0.795   2.134 -0.1155 -2.1006 -0.5642
13599TIP3    H240743   2.018   0.717   2.138  1.0614 -0.2082 -0.5690
13600TIP3   OH240744   5.263   1.753   4.864 -0.2525  0.1874 -0.0917
13600TIP3    H140745   5.306   1.824   4.911  0.7474 -0.9929  0.8405
13600TIP3    H240746   5.256   1.682   4.928  0.6426 -1.2698 -1.5247
13601TIP3   OH240747   2.477   2.467   4.515 -0.1915  0.0253  0.3008
13601TIP3    H140748   2.468   2.479   4.609 -1.3410  2.4204 -0.0173
13601TIP3    H240749   2.564   2.503   4.494 -0.8770  1.7364  0.2162
13602TIP3   OH240750   3.027   5.921   2.694  0.7877  0.3771 -0.5123
13602TIP3    H140751   3.031   5.850   2.631 -0.3811 -0.8905  0.7767
13602TIP3    H240752   3.014   5.878   2.779  1.9195  2.0224  0.5791
13603TIP3   OH240753   3.269   3.560   6.740 -0.3051  0.1093 -0.1431
13603TIP3    H140754   3.297   3.635   6.687 -1.0968  0.5904  0.1040
13603TIP3    H240755   3.260   3.595   6.829  0.4750 -0.5645  0.2144
13604TIP3   OH240756   6.430   7.404   1.822 -0.0382 -0.1133  0.0541
13604TIP3    H140757   6.401   7.426   1.733  0.4855 -3.4586 -1.1015
13604TIP3    H240758   6.348   7.395   1.872 -0.6423 -1.8802 -1.1442
13605TIP3   OH240759   5.118   2.754   2.088  0.0312 -0.1221 -0.4786
13605TIP3    H140760   5.098   2.818   2.020  1.6757  1.5653  0.5461
13605TIP3    H240761   5.204   2.719   2.064  1.2188  1.4057  1.3016
13606TIP3   OH240762   4.173   5.972   1.288  0.1334 -0.2753  0.4767
13606TIP3    H140763   4.098   6.002   1.236  0.3579  0.7910  0.7573
13606TIP3    H240764   4.184   6.038   1.356  0.1388 -1.4146  1.6164
13607TIP3   OH240765   6.017   1.009   5.882  0.2164  0.4202 -0.2758
13607TIP3    H140766   6.059   1.025   5.797  0.1071 -0.4745 -0.5165
13607TIP3    H240767   6.084   1.031   5.947  1.4083 -1.7264 -0.6607
13608TIP3   OH240768   1.504   0.779   0.195 -0.9318  0.1928 -0.1226
13608TIP3    H140769   1.454   0.796   0.115 -1.2297  0.4230  0.1107
13608TIP3    H240770   1.456   0.826   0.263  0.3206  1.5353 -0.1163
13609TIP3   OH240771   5.945   6.696   1.920 -0.2925  0.0419 -0.3902
13609TIP3    H140772   5.968   6.608   1.893 -2.3975 -0.7175  0.0649
13609TIP3    H240773   5.920   6.687   2.012 -2.1146  0.7496 -0.7743
13610TIP3   OH240774   3.275   7.763   2.126  0.5723  0.4329 -0.0832
13610TIP3    H140775   3.287   7.684   2.177 -1.8565  1.3342  2.1287
13610TIP3    H240776   3.355   7.814   2.141  1.3814 -0.7997 -0.0626
13611TIP3   OH240777   3.943   5.951   1.090  0.1628  0.3182  0.4077
13611TIP3    H140778   3.854   5.968   1.059 -1.4035 -3.0306  2.4622
13611TIP3    H240779   3.987   5.911   1.015 -0.4970  0.7500 -0.2289
13612TIP3   OH240780   5.323   7.613   4.810  0.4051  0.3539 -0.2745
13612TIP3    H140781   5.383   7.650   4.874  0.7841  0.0248 -0.4339
13612TIP3    H240782   5.290   7.689   4.762 -0.8430  0.7261  1.1113
13613TIP3   OH240783   4.681   7.121   2.108  0.4991 -0.3887 -0.0473
13613TIP3    H140784   4.726   7.165   2.180  0.2276  1.5900 -1.0241
13613TIP3    H240785   4.751   7.098   2.047  0.9063 -3.3154  1.3816
13614TIP3   OH240786   0.510   5.959   4.253 -0.0878 -0.3530  0.7468
13614TIP3    H140787   0.570   6.029   4.227 -0.8421 -0.5800 -1.8575
13614TIP3    H240788   0.564   5.900   4.305  2.0552 -0.6290 -1.6217
13615TIP3   OH240789   2.283   5.442   6.678 -0.2382 -0.4899  0.0137
13615TIP3    H140790   2.357   5.438   6.617 -0.2594 -1.7002  0.0509
13615TIP3    H240791   2.324   5.435   6.765 -0.3832 -1.0902  0.0365
13616TIP3   OH240792   6.103   5.346   4.401 -0.1831 -0.3529  0.8731
13616TIP3    H140793   6.160   5.272   4.385 -0.2522 -0.2416  0.0662
13616TIP3    H240794   6.054   5.322   4.480 -0.3800 -1.2752  0.4887
13617TIP3   OH240795   3.905   3.693   3.890 -0.1537  0.2205  0.1604
13617TIP3    H140796   3.936   3.617   3.840 -0.7665 -1.6495  2.4697
13617TIP3    H240797   3.982   3.722   3.939 -0.3361  0.0131  0.5700
13618TIP3   OH240798   5.235   0.516   5.511 -0.0564 -0.2559 -0.4838
13618TIP3    H140799   5.202   0.546   5.426 -0.2451 -0.9811 -0.6727
13618TIP3    H240800   5.190   0.433   5.527 -1.5070  0.7710  1.2250
13619TIP3   OH240801   8.016   3.660   6.382  0.1496 -0.2449  0.6556
13619TIP3    H140802   7.981   3.585   6.334  0.9522 -0.5065  0.4578
13619TIP3    H240803   8.060   3.622   6.458  0.8613 -0.0115  0.3711
13620TIP3   OH240804   4.289   6.161   5.286  0.1426  0.1542 -0.3056
13620TIP3    H140805   4.351   6.190   5.353 -1.3816 -0.1550  1.2985
13620TIP3    H240806   4.249   6.082   5.323  0.1657 -0.7791 -2.1637
13621TIP3   OH240807   2.780   2.795   6.221  0.2921 -0.2162  0.1682
13621TIP3    H140808   2.696   2.826   6.256 -0.8409  0.3486 -2.7182
13621TIP3    H240809   2.786   2.837   6.135  1.3709 -3.6858 -1.6299
13622TIP3   OH240810   6.621   4.596   0.799  0.5984 -0.1346  0.1806
13622TIP3    H140811   6.627   4.503   0.779  0.3180 -0.2529  0.6277
13622TIP3    H240812   6.583   4.599   0.887 -1.5166  0.4408 -0.6986
13623TIP3   OH240813   7.836   1.290   5.562 -0.2367  0.1450  0.2446
13623TIP3    H140814   7.911   1.317   5.614  0.4330  1.3058 -1.2308
13623TIP3    H240815   7.871   1.279   5.473 -1.8377  0.9102 -0.5287
13624TIP3   OH240816   1.683   0.103   3.037 -0.0751  0.1849  0.0590
13624TIP3    H140817   1.640   0.137   3.116  1.1083  2.7023 -0.2728
13624TIP3    H240818   1.699   0.010   3.057 -0.1571  0.6422  2.6326
13625TIP3   OH240819   3.469   1.412   2.747  0.1786 -0.1414 -0.3727
13625TIP3    H140820   3.446   1.497   2.785  0.3146 -0.0413 -0.5124
13625TIP3    H240821   3.468   1.351   2.821 -0.6713 -0.1691 -0.3985
13626TIP3   OH240822   1.148   2.971   3.217  0.5019 -0.3365 -0.6921
13626TIP3    H140823   1.146   3.002   3.307 -0.5578 -0.2159 -0.7466
13626TIP3    H240824   1.068   3.005   3.177 -0.7758 -3.0980 -0.7607
13627TIP3   OH240825   5.387   1.781   4.470  0.1479  0.1543  0.3348
13627TIP3    H140826   5.324   1.714   4.498 -0.6535  1.3766  1.5850
13627TIP3    H240827   5.442   1.736   4.406  0.1141 -1.9232  1.6425
13628TIP3   OH240828   5.583   4.789   0.578 -0.9244  0.3731 -0.8009
13628TIP3    H140829   5.665   4.828   0.546 -2.2718 -0.1062 -5.5370
13628TIP3    H240830   5.585   4.699   0.546 -2.1024 -0.6119  1.6354
13629TIP3   OH240831   7.163   0.668   0.084  0.3593  0.4531 -0.1452
13629TIP3    H140832   7.208   0.624   0.156  0.8559  0.0272 -0.7020
13629TIP3    H240833   7.233   0.705   0.031 -0.0104  0.9466 -0.3027
13630TIP3   OH240834   6.122   4.162   1.022 -0.4703  0.1391  0.3810
13630TIP3    H140835   6.186   4.126   1.083 -0.3280 -1.6882 -0.7526
13630TIP3    H240836   6.038   4.128   1.052 -1.2679  3.5956  2.6632
13631TIP3   OH240837   7.255   5.670   3.954 -0.9004  0.4559 -0.7089
13631TIP3    H140838   7.245   5.655   3.860 -0.4497 -0.3131 -0.6400
13631TIP3    H240839   7.194   5.609   3.995 -2.1342  1.7627 -0.5184
13632TIP3   OH240840   2.456   4.210   3.932  0.2860 -0.4176 -0.3235
13632TIP3    H140841   2.526   4.263   3.894  1.2325 -1.0094  0.5643
13632TIP3    H240842   2.452   4.237   4.023 -0.1944 -0.8699 -0.2078
13633TIP3   OH240843   1.861   7.348   3.367  0.1564 -0.1712  0.0472
13633TIP3    H140844   1.812   7.267   3.359  0.4888 -0.5639  1.6473
13633TIP3    H240845   1.952   7.324   3.350  0.3276 -0.2488  1.0408
13634TIP3   OH240846   6.477   6.021   2.753  0.3198  0.2433  0.1428
13634TIP3    H140847   6.535   5.983   2.686 -0.6084  0.5901 -0.8923
13634TIP3    H240848   6.462   6.111   2.723  1.7058  1.1761  2.0466
13635TIP3   OH240849   0.092   2.850   4.229  0.3131  0.0698 -0.5772
13635TIP3    H140850   0.131   2.937   4.221 -0.3263  0.4166 -0.0193
13635TIP3    H240851   0.009   2.865   4.275 -0.0222 -0.7763 -0.8850
13636TIP3   OH240852   8.304   5.456   3.575 -0.0170  0.5566  0.0360
13636TIP3    H140853   8.244   5.494   3.511 -0.9420 -1.7812 -0.5855
13636TIP3    H240854   8.261   5.467   3.659 -0.1922  0.9767 -0.1045
13637TIP3   OH240855   3.001   2.711   3.319  0.0952  0.0543 -0.8828
13637TIP3    H140856   2.964   2.799   3.311 -1.0036 -0.3356 -0.2587
13637TIP3    H240857   2.987   2.687   3.410  2.1014 -0.0403 -0.5502
13638TIP3   OH240858   2.633   5.048   3.789 -0.4333 -0.5795  0.0981
13638TIP3    H140859   2.564   5.052   3.723  0.9113  2.2239 -1.3175
13638TIP3    H240860   2.714   5.039   3.739  0.5702  0.8233  1.3519
13639TIP3   OH240861   6.382   4.900   6.367  0.1261 -0.0890  0.1812
13639TIP3    H140862   6.355   4.981   6.324 -0.9316 -1.3138 -1.5749
13639TIP3    H240863   6.475   4.913   6.386 -0.2692  1.9660  1.0324
13640TIP3   OH240864   7.825   0.609   1.942 -0.5390  0.2514  0.2586
13640TIP3    H140865   7.873   0.688   1.916  0.4685 -0.6668 -0.7834
13640TIP3    H240866   7.823   0.555   1.863 -0.5767 -1.0733  1.1334
13641TIP3   OH240867   6.621   5.098   2.041  0.6338 -0.0702  0.0614
13641TIP3    H140868   6.606   5.083   2.134  0.0696 -2.1914 -0.3255
13641TIP3    H240869   6.533   5.102   2.003  0.8388  1.4213 -0.3310
13642TIP3   OH240870   5.085   6.512   4.785  0.4961 -0.4938 -0.5506
13642TIP3    H140871   4.994   6.500   4.756  0.7061  0.0566 -1.4607
13642TIP3    H240872   5.138   6.493   4.708  1.0447  1.4440 -0.7156
13643TIP3   OH240873   5.610   3.004   1.418  0.1686 -0.4676 -0.5980
13643TIP3    H140874   5.656   3.024   1.336 -0.4562  0.0074 -0.8349
13643TIP3    H240875   5.595   3.089   1.459 -0.5236 -0.6149 -0.5348
13644TIP3   OH240876   0.628   2.197   6.172  0.4298 -0.0304  0.7317
13644TIP3    H140877   0.590   2.115   6.140  0.0862  0.5844 -0.4630
13644TIP3    H240878   0.701   2.215   6.113  0.4564  0.5660  0.9380
13645TIP3   OH240879   0.931   3.118   3.119 -0.4772  0.1477 -0.3228
13645TIP3    H140880   0.892   3.205   3.107 -0.5909  0.3804  1.5644
13645TIP3    H240881   0.860   3.057   3.102 -1.2317  0.5254  1.2890
13646TIP3   OH240882   4.676   0.387   4.577  0.3966  0.0055  0.7525
13646TIP3    H140883   4.627   0.469   4.579  0.1171 -0.0975 -0.7197
13646TIP3    H240884   4.660   0.351   4.490 -0.1817 -2.0498  1.6388
13647TIP3   OH240885   2.939   5.270   1.378 -0.3122  0.2326  0.1192
13647TIP3    H140886   3.018   5.318   1.401  0.1167 -0.0539 -0.7215
13647TIP3    H240887   2.884   5.275   1.456  1.3167 -1.1842  1.4340
13648TIP3   OH240888   5.903   0.270   2.669  0.2081 -0.2286 -0.0100
13648TIP3    H140889   5.850   0.237   2.741  0.7771  1.4422  1.2332
13648TIP3    H240890   5.852   0.341   2.631  0.1769 -0.7071 -0.8969
13649TIP3   OH240891   0.564   0.245   0.904  0.5689 -0.3051  0.0147
13649TIP3    H140892   0.604   0.288   0.828  1.0515  0.2250  0.5541
13649TIP3    H240893   0.628   0.257   0.974 -0.8022  1.1712  1.0770
13650TIP3   OH240894   1.333   2.758   1.898  0.0625 -0.3317 -0.8227
13650TIP3    H140895   1.358   2.801   1.817  0.7960 -1.7380 -1.3766
13650TIP3    H240896   1.317   2.667   1.873  1.7292 -1.1438  0.8104
13651TIP3   OH240897   6.173   6.127   1.640 -0.1752 -0.1927 -0.2943
13651TIP3    H140898   6.176   6.046   1.589  0.9713 -0.3864  0.0467
13651TIP3    H240899   6.105   6.179   1.598 -2.7380 -2.2768  0.9532
13652TIP3   OH240900   0.189   2.696   2.329 -0.0732 -0.2635 -0.1613
13652TIP3    H140901   0.182   2.674   2.237  1.0954  0.3581 -0.4113
13652TIP3    H240902   0.145   2.624   2.374 -0.9676 -0.3919 -1.2057
13653TIP3   OH240903   1.803   3.605   5.020  0.6422  0.5374 -0.5864
13653TIP3    H140904   1.818   3.630   5.111 -1.1730 -0.0469 -0.0933
13653TIP3    H240905   1.853   3.669   4.970  0.8243  1.5235  0.7918
13654TIP3   OH240906   7.408   2.780   2.573  0.4560 -0.8714  0.0789
13654TIP3    H140907   7.393   2.840   2.646 -2.3677 -1.3199 -0.0428
13654TIP3    H240908   7.402   2.693   2.611  1.5654 -1.1173 -0.2732
13655TIP3   OH240909   0.154   6.858   3.216  0.0534 -0.6987 -0.4005
13655TIP3    H140910   0.117   6.875   3.129  2.6315  3.3346 -0.9817
13655TIP3    H240911   0.096   6.904   3.276 -0.2364 -1.1874 -0.3020
13656TIP3   OH240912   7.223   6.289   4.333  0.4367  0.0493  0.3120
13656TIP3    H140913   7.223   6.244   4.417  0.7934 -0.5546 -0.0021
13656TIP3    H240914   7.191   6.223   4.271  1.5259  0.0325 -0.2483
13657TIP3   OH240915   1.804   2.732   1.206 -0.1066 -0.6141 -0.5978
13657TIP3    H140916   1.808   2.811   1.260 -0.3602 -1.0078  0.0103
13657TIP3    H240917   1.711   2.717   1.190 -0.1764 -1.6481  0.6063
13658TIP3   OH240918   3.188   1.077   0.748 -0.3942 -0.0481 -0.4213
13658TIP3    H140919   3.264   1.083   0.690 -0.1399  2.1669  0.0667
13658TIP3    H240920   3.154   1.166   0.753 -1.7390 -0.5905  1.0900
13659TIP3   OH240921   3.407   0.905   3.227  0.4838  0.2544 -0.4057
13659TIP3    H140922   3.456   0.987   3.225  0.5982  0.1809 -1.6054
13659TIP3    H240923   3.423   0.865   3.141 -1.0056 -0.1615 -0.5258
13660TIP3   OH240924   5.703   6.177   6.458 -0.4553  0.6965 -0.0450
13660TIP3    H140925   5.653   6.239   6.405 -0.4756  1.2667  0.6312
13660TIP3    H240926   5.639   6.108   6.480 -0.7836  1.1069  0.2988
13661TIP3   OH240927   8.138   4.384   0.480  0.4858 -0.4874  0.6220
13661TIP3    H140928   8.164   4.476   0.482 -0.8355 -0.0406 -0.7739
13661TIP3    H240929   8.209   4.340   0.434 -0.1211  0.3260 -1.1801
13662TIP3   OH240930   6.884   4.179   1.711  0.0343  0.2468 -0.5621
13662TIP3    H140931   6.869   4.219   1.626  1.3119  0.4334 -0.7175
13662TIP3    H240932   6.830   4.229   1.772 -0.2499  0.6357 -1.1332
13663TIP3   OH240933   4.625   2.060   4.507  0.3542  0.4749 -0.2630
13663TIP3    H140934   4.677   2.138   4.525  0.6925 -0.0675  1.2263
13663TIP3    H240935   4.675   1.988   4.544 -0.8692 -0.2141  0.1212
13664TIP3   OH240936   5.692   2.347   6.712  0.0857  0.3982 -0.1133
13664TIP3    H140937   5.727   2.391   6.789  0.3620 -0.0282  0.0036
13664TIP3    H240938   5.600   2.374   6.709  0.7158  2.6557 -1.2157
13665TIP3   OH240939   3.240   2.652   6.607  0.7730  0.0335  0.0740
13665TIP3    H140940   3.151   2.682   6.626  0.7412 -0.1068  0.1476
13665TIP3    H240941   3.274   2.717   6.546  1.0104  0.6844  0.8947
13666TIP3   OH240942   6.003   7.330   6.495 -0.0219 -0.1545  0.4623
13666TIP3    H140943   6.064   7.381   6.442  1.0783  0.0943  1.9093
13666TIP3    H240944   5.977   7.257   6.438  0.9453  0.2217 -0.4931
13667TIP3   OH240945   3.850   1.604   6.486 -0.0995  0.7388  0.0697
13667TIP3    H140946   3.779   1.546   6.513  1.0814 -1.3758 -1.1134
13667TIP3    H240947   3.807   1.672   6.434 -1.2721 -0.5513 -0.7154
13668TIP3   OH240948   1.241   6.471   5.371  0.5798 -0.5783 -0.3097
13668TIP3    H140949   1.310   6.433   5.424  0.5177 -1.0224 -0.5390
13668TIP3    H240950   1.181   6.399   5.354  1.1444 -0.7235 -1.8673
13669TIP3   OH240951   5.127   5.305   2.864  0.1490 -0.4255 -0.2370
13669TIP3    H140952   5.102   5.305   2.771  1.3674 -0.1708 -0.5759
13669TIP3    H240953   5.222   5.299   2.863  0.2238  0.3650  0.9887
13670TIP3   OH240954   4.985   1.198   5.993  0.2313 -0.3290  0.4840
13670TIP3    H140955   4.903   1.217   5.948 -0.0798 -0.2158  1.0944
13670TIP3    H240956   4.960   1.180   6.083  0.7930 -1.1051  0.4965
13671TIP3   OH240957   1.693   2.478   6.020 -0.5305  0.1826 -0.3823
13671TIP3    H140958   1.783   2.496   6.047 -0.3526  0.8768 -1.3659
13671TIP3    H240959   1.646   2.463   6.102  0.8700 -2.2335  0.0735
13672TIP3   OH240960   7.589   1.488   1.818 -0.4958 -0.3712 -0.7546
13672TIP3    H140961   7.566   1.542   1.894 -0.3043  1.6368 -2.0486
13672TIP3    H240962   7.504   1.463   1.781 -0.6180  0.4946 -1.0945
13673TIP3   OH240963   2.548   0.275   2.241  0.0922  0.0687  0.5894
13673TIP3    H140964   2.587   0.191   2.265 -0.1426  0.2128  1.4801
13673TIP3    H240965   2.622   0.335   2.235  0.1347  0.0694  1.1115
13674TIP3   OH240966   6.996   4.392   6.341 -0.0586  0.3262 -0.0276
13674TIP3    H140967   7.035   4.409   6.256  0.4997  0.9336  0.3393
13674TIP3    H240968   6.937   4.318   6.326  0.3412  0.1614 -0.8474
13675TIP3   OH240969   2.765   7.433   6.783 -0.1148 -0.3548  0.1937
13675TIP3    H140970   2.674   7.452   6.761  0.0598  1.1535  0.6812
13675TIP3    H240971   2.801   7.396   6.703 -0.6261  0.9685 -0.6833
13676TIP3   OH240972   6.117   3.079   0.884 -0.0505 -0.5964  0.1367
13676TIP3    H140973   6.122   2.996   0.837  2.0373 -0.2167 -0.3805
13676TIP3    H240974   6.205   3.115   0.881  0.2681 -0.5166  4.3763
13677TIP3   OH240975   1.814   7.153   0.476  0.5591  0.1954 -0.1153
13677TIP3    H140976   1.775   7.136   0.563  0.3873 -0.1387 -0.2546
13677TIP3    H240977   1.768   7.231   0.444  0.4758  0.1967  0.0064
13678TIP3   OH240978   6.740   3.951   6.047 -0.2100 -0.6738 -0.8605
13678TIP3    H140979   6.719   3.945   6.140  0.2149  0.5660 -0.6688
13678TIP3    H240980   6.834   3.930   6.043  0.0553  0.4864 -0.8463
13679TIP3   OH240981   0.968   4.910   0.604  0.2346 -0.4429  0.0481
13679TIP3    H140982   0.884   4.885   0.565  0.8777 -2.1898 -0.3162
13679TIP3    H240983   0.993   4.990   0.558 -0.8896 -0.2820 -0.3179
13680TIP3   OH240984   0.672   6.570   5.696  0.3607 -0.1116 -0.1357
13680TIP3    H140985   0.639   6.659   5.709 -0.0704 -0.4853  1.6664
13680TIP3    H240986   0.757   6.582   5.653  0.2677  1.1642  0.0018
13681TIP3   OH240987   6.709   6.879   0.984 -0.0574  0.3256  0.5695
13681TIP3    H140988   6.657   6.944   0.936  1.8902  1.0843 -0.6402
13681TIP3    H240989   6.672   6.795   0.957 -1.0598  0.8507  0.2581
13682TIP3   OH240990   1.210   5.638   3.116  0.5056 -0.1438 -0.1763
13682TIP3    H140991   1.219   5.699   3.189 -1.4917  0.8085 -0.6620
13682TIP3    H240992   1.130   5.590   3.134  0.6052 -0.7150 -1.1735
13683TIP3   OH240993   0.715   4.197   2.558  0.2037  0.3514 -0.0664
13683TIP3    H140994   0.704   4.289   2.537 -0.9894  0.3596  0.4920
13683TIP3    H240995   0.668   4.151   2.488 -1.9119  0.3077  1.2977
13684TIP3   OH240996   2.029   4.114   2.284 -0.0256 -0.0181  0.0751
13684TIP3    H140997   2.064   4.028   2.257 -0.5298 -0.5282  1.0044
13684TIP3    H240998   1.935   4.108   2.264 -0.2138 -0.0093  0.9417
13685TIP3   OH240999   7.310   0.734   3.296 -0.2122 -0.0082  0.3255
13685TIP3    H141000   7.404   0.719   3.285 -0.6260 -2.2884 -0.6629
13685TIP3    H241001   7.276   0.744   3.207 -0.9793  0.2583  0.6352
13686TIP3   OH241002   0.268   1.198   4.978 -0.1321  0.4938  0.4298
13686TIP3    H141003   0.284   1.120   4.925 -0.1560  0.3499  0.6345
13686TIP3    H241004   0.334   1.262   4.948  1.8069 -0.5454  2.2476
13687TIP3   OH241005   2.596   0.901   2.912 -0.7483 -0.1953 -0.2946
13687TIP3    H141006   2.658   0.830   2.925 -1.6655 -0.9049  0.2773
13687TIP3    H241007   2.521   0.860   2.870 -1.2496  0.4550 -0.0430
13688TIP3   OH241008   1.030   5.297   5.776  0.5592 -0.0346 -0.4222
13688TIP3    H141009   1.087   5.301   5.854  1.3310 -0.2605 -0.9621
13688TIP3    H241010   0.989   5.211   5.781 -2.3535  1.2976  1.7355
13689TIP3   OH241011   5.060   2.810   2.354  0.4845 -0.1668  0.4866
13689TIP3    H141012   4.972   2.843   2.334  0.8169  0.2545 -0.3672
13689TIP3    H241013   5.087   2.765   2.274  1.5818  0.9183  0.2024
13690TIP3   OH241014   2.974   2.672   6.354 -0.1838  0.1073 -0.2202
13690TIP3    H141015   2.901   2.702   6.299  0.4090 -0.2274 -1.2319
13690TIP3    H241016   3.050   2.722   6.322 -0.0535  0.8088  1.1433
13691TIP3   OH241017   7.356   5.787   4.946 -0.6076 -0.0541 -0.0417
13691TIP3    H141018   7.432   5.820   4.898  0.7365 -0.7920  1.4696
13691TIP3    H241019   7.358   5.834   5.029 -1.4353 -0.5476  0.2641
13692TIP3   OH241020   2.042   5.307   6.701 -0.6047  0.7599  0.0630
13692TIP3    H141021   2.132   5.340   6.698 -0.3733  0.1182 -0.3535
13692TIP3    H241022   1.989   5.382   6.727  0.2523  0.7303  2.0802
13693TIP3   OH241023   1.153   0.119   1.080  0.2496  0.0310 -0.0728
13693TIP3    H141024   1.075   0.169   1.105  0.2318 -0.0146 -0.0366
13693TIP3    H241025   1.145   0.036   1.128 -1.4663 -1.4584 -2.6855
13694TIP3   OH241026   2.592   0.302   0.304  0.4730 -0.2475  0.1161
13694TIP3    H141027   2.570   0.369   0.240  0.6566  1.3812  1.6734
13694TIP3    H241028   2.688   0.296   0.300  0.5753  0.5856  0.8811
13695TIP3   OH241029   3.849   5.646   1.669  0.2598  0.6339  0.1639
13695TIP3    H141030   3.794   5.610   1.599 -0.2768  2.9064 -0.6803
13695TIP3    H241031   3.787   5.691   1.727  0.9683  1.0402  0.6240
13696TIP3   OH241032   6.650   0.953   5.439  0.2364  0.0112 -0.3131
13696TIP3    H141033   6.698   0.969   5.521 -0.4494 -0.6757  0.2411
13696TIP3    H241034   6.716   0.959   5.371  1.2486 -1.5128  0.4845
13697TIP3   OH241035   6.077   4.988   3.862  0.2615 -0.1271  0.4499
13697TIP3    H141036   6.149   4.953   3.809  0.4908 -2.3181  2.0416
13697TIP3    H241037   6.014   5.022   3.798  2.0081  0.4631 -1.0434
13698TIP3   OH241038   4.807   0.560   2.416 -0.3965 -0.4457  0.7142
13698TIP3    H141039   4.864   0.604   2.353 -1.1976 -1.0008 -0.4441
13698TIP3    H241040   4.860   0.488   2.450 -0.1646 -0.5281  0.1887
13699TIP3   OH241041   4.404   4.640   3.841  0.5091 -0.2862  0.2647
13699TIP3    H141042   4.372   4.599   3.921  1.3414  0.4068  0.9663
13699TIP3    H241043   4.478   4.693   3.869  1.0195 -0.2875 -1.0131
13700TIP3   OH241044   3.558   6.841   6.219 -0.4140  0.0130 -1.1759
13700TIP3    H141045   3.555   6.852   6.124  2.1813  0.5615 -1.2568
13700TIP3    H241046   3.549   6.930   6.253 -1.3154 -0.1805 -0.8925
13701TIP3   OH241047   0.613   5.364   6.683  0.1358 -0.3973  0.4981
13701TIP3    H141048   0.699   5.358   6.642  0.7341  0.7299  1.5324
13701TIP3    H241049   0.572   5.440   6.642 -0.8076 -1.4657 -0.6827
13702TIP3   OH241050   0.790   0.187   4.769  0.5399  0.4661  0.2462
13702TIP3    H141051   0.841   0.108   4.782  1.7438  1.2916  0.7295
13702TIP3    H241052   0.843   0.257   4.808 -0.4018  1.5336 -0.3141
13703TIP3   OH241053   5.013   2.893   6.629  0.2014  0.2993  0.2148
13703TIP3    H141054   5.090   2.935   6.591  0.5060  0.3107  0.8300
13703TIP3    H241055   4.987   2.827   6.565  1.2886 -0.3412  0.4248
13704TIP3   OH241056   3.738   4.666   4.686  0.1169  0.1302 -0.0881
13704TIP3    H141057   3.777   4.652   4.599  1.1792  1.7295  0.0702
13704TIP3    H241058   3.657   4.714   4.669  0.9919  1.6558 -0.1837
13705TIP3   OH241059   0.681   0.656   3.536  0.1409 -0.4360 -0.2012
13705TIP3    H141060   0.600   0.605   3.535 -0.5252  0.5467  0.6889
13705TIP3    H241061   0.654   0.745   3.513  1.1119 -0.2656 -0.7434
13706TIP3   OH241062   1.324   5.121   3.932 -0.5366 -0.2514 -0.0818
13706TIP3    H141063   1.413   5.155   3.920 -0.2454 -1.1003 -0.3553
13706TIP3    H241064   1.277   5.150   3.854 -0.2405 -0.6212 -0.4003
13707TIP3   OH241065   6.431   1.142   1.543 -0.0941 -0.5636  0.0824
13707TIP3    H141066   6.450   1.235   1.527  0.5859 -0.6287  0.4736
13707TIP3    H241067   6.345   1.142   1.586 -0.0669 -0.1131  0.1381
13708TIP3   OH241068   2.060   4.627   3.096  0.1068  0.0934  0.3163
13708TIP3    H141069   2.076   4.719   3.077  1.9764 -0.1615  0.4240
13708TIP3    H241070   2.123   4.605   3.165  1.6969 -1.8961 -1.5862
13709TIP3   OH241071   5.738   1.266   0.999 -0.0408  0.2524  0.6673
13709TIP3    H141072   5.828   1.269   0.968  0.0468 -1.0296  0.7440
13709TIP3    H241073   5.743   1.220   1.082 -0.7661  0.1469  0.6580
13710TIP3   OH241074   4.582   4.247   0.239 -0.2880  0.2119  0.0864
13710TIP3    H141075   4.558   4.214   0.152  1.4887 -0.1091 -0.3128
13710TIP3    H241076   4.535   4.330   0.247  0.0261  0.5675 -1.4620
13711TIP3   OH241077   0.146   1.395   1.975 -0.3388 -0.1262  0.1495
13711TIP3    H141078   0.070   1.448   1.999 -0.3190  0.0067 -0.0791
13711TIP3    H241079   0.191   1.379   2.058 -0.3861  0.1473  0.2290
13712TIP3   OH241080   7.315   6.349   3.933  0.2563  0.5289 -0.4061
13712TIP3    H141081   7.258   6.401   3.990 -0.2783  0.6976 -1.0809
13712TIP3    H241082   7.403   6.383   3.950  0.3842 -0.6401  1.6526
13713TIP3   OH241083   2.867   0.718   2.026  0.3897 -0.1232 -0.1225
13713TIP3    H141084   2.938   0.670   1.983  0.6250  0.0321  0.0868
13713TIP3    H241085   2.904   0.743   2.111  1.4091  3.1645 -1.3684
13714TIP3   OH241086   3.465   4.018   5.326 -0.1353 -0.3528  0.0818
13714TIP3    H141087   3.424   4.031   5.411  0.6883 -0.3560  0.4873
13714TIP3    H241088   3.546   3.971   5.344 -0.3436 -1.0774 -0.7925
13715TIP3   OH241089   5.455   1.491   1.524 -0.2213 -0.7844 -0.0716
13715TIP3    H141090   5.418   1.575   1.550 -1.3019 -0.3778 -2.5661
13715TIP3    H241091   5.497   1.457   1.603  0.3962  2.1507  0.9955
13716TIP3   OH241092   7.196   4.873   5.433 -0.2035 -0.4220  0.6308
13716TIP3    H141093   7.255   4.816   5.384 -0.7585 -0.5462  0.0901
13716TIP3    H241094   7.140   4.812   5.482 -1.2289 -0.3927 -0.4470
13717TIP3   OH241095   2.154   5.710   4.986 -0.3953 -0.6318 -0.0750
13717TIP3    H141096   2.143   5.720   5.081 -3.1959  0.0841 -0.3940
13717TIP3    H241097   2.142   5.798   4.950 -0.5657 -1.0848 -1.1767
13718TIP3   OH241098   4.926   1.434   1.505 -0.4577 -0.2918 -0.0658
13718TIP3    H141099   4.983   1.510   1.521 -1.0732  0.0691  0.4376
13718TIP3    H241100   4.882   1.419   1.589  0.2317 -1.6952  0.0735
13719TIP3   OH241101   6.211   3.615   5.311 -0.2221 -0.6888 -0.2018
13719TIP3    H141102   6.118   3.606   5.291 -0.5351 -0.0238  0.8563
13719TIP3    H241103   6.246   3.525   5.307 -0.6190 -0.7915 -1.8523
13720TIP3   OH241104   4.084   6.751   5.399  0.4324 -0.4012  0.7918
13720TIP3    H141105   4.145   6.816   5.435  1.9180 -1.9362  1.1554
13720TIP3    H241106   4.031   6.724   5.474 -0.0334  0.1974  0.6876
13721TIP3   OH241107   2.597   2.826   2.453  0.1577  0.2711  0.3863
13721TIP3    H141108   2.664   2.766   2.418 -1.0683  0.9444 -3.7380
13721TIP3    H241109   2.647   2.901   2.486  1.5395 -0.1215 -0.7069
13722TIP3   OH241110   0.840   1.702   0.562  0.2872  0.6974  0.4708
13722TIP3    H141111   0.925   1.724   0.601  0.3648  1.0442  0.1085
13722TIP3    H241112   0.796   1.651   0.630  0.5928  0.9227  0.8475
13723TIP3   OH241113   3.643   2.226   1.389  0.4201 -0.1070 -0.4443
13723TIP3    H141114   3.663   2.134   1.407 -1.5285  0.0013  2.9911
13723TIP3    H241115   3.708   2.275   1.440  0.3226  0.4356 -0.8287
13724TIP3   OH241116   2.547   3.736   2.459  0.1099 -0.1576 -0.0249
13724TIP3    H141117   2.487   3.668   2.490 -0.1544  0.1113  0.0554
13724TIP3    H241118   2.627   3.689   2.438 -0.2383 -0.5691 -0.4494
13725TIP3   OH241119   0.193   7.831   3.934 -0.5806 -0.1293 -0.0774
13725TIP3    H141120   0.152   7.759   3.982 -1.3937 -0.7176 -1.5578
13725TIP3    H241121   0.235   7.788   3.859 -1.2290  0.9232 -1.0857
13726TIP3   OH241122   3.938   7.572   0.773  0.3221  0.1578  0.0657
13726TIP3    H141123   3.927   7.626   0.852 -1.4175 -0.6558  0.4165
13726TIP3    H241124   3.868   7.508   0.778  2.3012 -2.2044 -0.3329
13727TIP3   OH241125   3.578   1.166   3.137 -0.0283 -0.1596 -0.1973
13727TIP3    H141126   3.542   1.205   3.057  1.0418  1.5623  0.1002
13727TIP3    H241127   3.666   1.138   3.113  0.1846  0.0798  0.2937
13728TIP3   OH241128   2.389   0.444   5.438 -0.8214  0.3800  0.3070
13728TIP3    H141129   2.482   0.466   5.445 -0.2969 -0.9348 -1.7752
13728TIP3    H241130   2.344   0.518   5.480  1.1311  0.9697  1.5024
13729TIP3   OH241131   2.475   6.875   1.371 -0.0620  0.0365 -0.4039
13729TIP3    H141132   2.397   6.882   1.426  0.9717 -0.1469  1.1355
13729TIP3    H241133   2.519   6.960   1.381  1.2209 -0.7218  0.8043
13730TIP3   OH241134   7.212   4.623   3.615  0.7030  0.7744 -0.2241
13730TIP3    H141135   7.274   4.589   3.550  1.7387  1.3884  0.4280
13730TIP3    H241136   7.149   4.552   3.626  1.1927  0.1908 -1.0130
13731TIP3   OH241137   7.894   3.837   0.915 -0.4366 -0.0889 -0.2113
13731TIP3    H141138   7.904   3.850   0.820 -0.7817 -1.2128 -0.4172
13731TIP3    H241139   7.984   3.832   0.948 -0.3114  0.5986 -0.4239
13732TIP3   OH241140   0.736   2.615   3.011 -0.2883  0.1223  0.8349
13732TIP3    H141141   0.771   2.702   3.031  0.0926  0.4852 -1.1408
13732TIP3    H241142   0.649   2.632   2.976 -0.2169 -0.2753  0.4529
13733TIP3   OH241143   0.958   4.630   0.693  0.1746  0.1199 -0.7430
13733TIP3    H141144   1.011   4.580   0.756 -0.5437 -1.1176 -1.0703
13733TIP3    H241145   0.978   4.721   0.712 -1.2883 -0.0713  2.5060
13734TIP3   OH241146   4.378   3.655   3.248 -0.0698  0.9721 -0.0748
13734TIP3    H141147   4.313   3.661   3.178 -0.4203  0.5101  0.2108
13734TIP3    H241148   4.445   3.595   3.214  0.5498  1.9517 -0.6316
13735TIP3   OH241149   0.725   4.966   4.353 -0.1938  0.3432  0.4098
13735TIP3    H141150   0.728   4.892   4.414 -2.1136 -1.4601 -1.4842
13735TIP3    H241151   0.658   4.941   4.290  0.1428  3.1054 -1.1779
13736TIP3   OH241152   6.351   4.011   0.874  0.3449  0.0619 -0.1566
13736TIP3    H141153   6.277   4.039   0.928  0.0911  0.1916 -0.5626
13736TIP3    H241154   6.367   3.921   0.900 -0.0590 -0.0159 -0.1736
13737TIP3   OH241155   5.109   6.112   0.055  0.1083 -0.2381 -0.2374
13737TIP3    H141156   5.151   6.082   0.135  2.8078  0.6431 -1.2327
13737TIP3    H241157   5.106   6.207   0.063  1.0877 -0.0771 -1.4404
13738TIP3   OH241158   2.067   4.934   5.986 -0.0291  0.3583  0.1414
13738TIP3    H141159   2.028   4.986   5.915 -1.5741 -0.0649  0.6624
13738TIP3    H241160   2.009   4.947   6.060  0.4275 -0.8773  0.7371
13739TIP3   OH241161   5.183   7.343   0.828  0.2496  0.1257  0.4645
13739TIP3    H141162   5.251   7.396   0.870 -0.1047  0.6374  0.4070
13739TIP3    H241163   5.106   7.401   0.825 -1.0984 -1.3544  3.1220
13740TIP3   OH241164   3.919   0.577   3.070  0.4332  0.6607  0.0825
13740TIP3    H141165   3.946   0.668   3.077  0.1237  0.8583 -1.0386
13740TIP3    H241166   3.975   0.541   3.001  1.0699 -0.2090  1.0260
13741TIP3   OH241167   0.092   1.728   2.335  0.3181 -0.1135  0.0436
13741TIP3    H141168   0.145   1.693   2.264  1.8615  2.1952 -0.0675
13741TIP3    H241169   0.056   1.810   2.301 -0.3984  0.1378  1.3222
13742TIP3   OH241170   0.891   3.847   6.179  0.1736  0.0371  0.0210
13742TIP3    H141171   0.812   3.803   6.148  0.0015 -0.2466  0.8290
13742TIP3    H241172   0.908   3.808   6.265  0.5229  0.9272  0.3691
13743TIP3   OH241173   6.785   3.237   2.769  1.1047 -0.5522  0.7399
13743TIP3    H141174   6.719   3.286   2.721 -0.1633 -0.7018  2.2234
13743TIP3    H241175   6.741   3.211   2.850  2.8054 -1.1948  1.5160
13744TIP3   OH241176   4.169   6.445   5.700  0.2710 -0.2303 -0.3097
13744TIP3    H141177   4.242   6.393   5.734  0.7295  0.6139  0.0476
13744TIP3    H241178   4.209   6.529   5.676 -0.5819  0.2483 -0.1120
13745TIP3   OH241179   2.931   6.014   4.261 -0.1529  0.1345  0.0098
13745TIP3    H141180   2.998   6.034   4.326  0.5804  0.2979 -0.7837
13745TIP3    H241181   2.977   6.017   4.177 -1.1207  0.1030 -0.5367
13746TIP3   OH241182   4.558   7.318   0.923  0.2039  0.4200 -0.3159
13746TIP3    H141183   4.636   7.313   0.979 -1.8043  2.5617  3.0236
13746TIP3    H241184   4.550   7.412   0.902  0.1921 -0.1495 -3.4311
13747TIP3   OH241185   5.656   1.962   5.147  0.1186  1.1893  0.2491
13747TIP3    H141186   5.704   1.880   5.142  1.5527  1.9925  0.4370
13747TIP3    H241187   5.657   1.985   5.240 -2.5286  0.1792  0.6425
13748TIP3   OH241188   6.040   0.570   3.322  0.6153 -0.2813 -0.5936
13748TIP3    H141189   6.134   0.581   3.310  0.4020 -0.1210 -2.3812
13748TIP3    H241190   6.032   0.500   3.387  1.9451  0.7652  0.7939
13749TIP3   OH241191   1.561   6.288   0.378  0.4740  0.0470 -0.0077
13749TIP3    H141192   1.518   6.367   0.346  3.2872  0.5228 -3.1514
13749TIP3    H241193   1.535   6.220   0.316  0.6716 -0.7557  0.7628
13750TIP3   OH241194   7.340   4.493   4.015  0.0673 -0.1677  0.4719
13750TIP3    H141195   7.285   4.538   4.079 -0.6639  1.4137 -1.1664
13750TIP3    H241196   7.317   4.401   4.025  0.6377 -0.1129  3.0365
13751TIP3   OH241197   1.242   1.039   5.267  0.2211  0.5701 -0.2230
13751TIP3    H141198   1.183   1.112   5.282  0.4412  0.8062 -0.5015
13751TIP3    H241199   1.221   0.976   5.337 -1.3975 -0.0085 -1.1676
13752TIP3   OH241200   3.124   2.538   0.117  0.6985 -0.0028 -0.0901
13752TIP3    H141201   3.042   2.535   0.068  0.4696  1.3340  0.1630
13752TIP3    H241202   3.175   2.464   0.085  0.4662  0.6802 -2.1819
13753TIP3   OH241203   3.714   1.759   6.303 -0.3138  1.1077 -0.0844
13753TIP3    H141204   3.643   1.741   6.241 -0.3669  1.0226  0.0025
13753TIP3    H241205   3.789   1.779   6.247  0.1361 -0.7680 -0.2138
13754TIP3   OH241206   1.633   0.181   0.001 -0.3010  0.2046  0.3043
13754TIP3    H141207   1.636   0.086  -0.014 -0.2257  0.2843 -0.2060
13754TIP3    H241208   1.618   0.190   0.095  1.7375 -0.3185  0.7333
13755TIP3   OH241209   0.635   6.578   0.071  0.1753  0.5757  0.1594
13755TIP3    H141210   0.569   6.642   0.096  0.5923  0.8559  0.5630
13755TIP3    H241211   0.688   6.623   0.005 -1.0146 -0.2114 -1.4139
13756TIP3   OH241212  -0.022   1.556   5.086 -0.3757 -0.6095 -0.3898
13756TIP3    H141213  -0.018   1.618   5.159 -0.6541 -0.9503 -0.0856
13756TIP3    H241214   0.060   1.570   5.038 -0.3935 -0.0727 -0.2685
13757TIP3   OH241215   1.246   6.556   1.632  0.4762  0.1883  0.4227
13757TIP3    H141216   1.242   6.460   1.632  0.1160  0.1995 -0.0681
13757TIP3    H241217   1.331   6.577   1.593 -0.3268  0.0775 -1.5240
13758TIP3   OH241218   3.825   1.169   3.469  0.2572  0.0952 -0.3281
13758TIP3    H141219   3.843   1.211   3.553  1.3116  1.2099 -1.0866
13758TIP3    H241220   3.735   1.193   3.448  0.4729  1.0252 -0.2040
13759TIP3   OH241221   3.680   1.816   2.717  0.1581 -0.2258  0.1470
13759TIP3    H141222   3.730   1.863   2.650 -0.4519 -0.7480 -0.6948
13759TIP3    H241223   3.729   1.735   2.731  0.9853  0.4261  1.3022
13760TIP3   OH241224   6.349   1.128   0.697  0.4357 -0.0545  0.3706
13760TIP3    H141225   6.341   1.223   0.692  0.2341 -0.1210 -1.8003
13760TIP3    H241226   6.426   1.108   0.643 -0.9211 -1.2379 -1.2374
13761TIP3   OH241227   1.957   7.345   1.302  0.5659 -0.2790 -0.1597
13761TIP3    H141228   1.913   7.391   1.230 -0.0874  0.0860  0.4541
13761TIP3    H241229   2.049   7.368   1.292  0.2813  1.0283  0.0075
13762TIP3   OH241230   0.937   2.563   5.413  0.2390 -0.0875  0.1786
13762TIP3    H141231   0.993   2.574   5.336 -0.3433  0.9093 -0.1192
13762TIP3    H241232   0.849   2.555   5.377  0.1099 -0.9683  0.6780
13763TIP3   OH241233   3.422   1.217   5.535 -0.3744 -0.4493 -0.3162
13763TIP3    H141234   3.428   1.309   5.561 -2.8164  0.2657 -1.9232
13763TIP3    H241235   3.508   1.195   5.500  0.1001  1.3531 -0.3373
13764TIP3   OH241236   4.287   7.157   3.258  0.3301  0.1007 -0.2879
13764TIP3    H141237   4.304   7.182   3.167  0.6542  1.6311  0.1570
13764TIP3    H241238   4.368   7.118   3.288 -0.3534 -2.1211 -1.1572
13765TIP3   OH241239   3.145   5.966   2.261 -0.6287  0.0361 -0.2630
13765TIP3    H141240   3.224   6.018   2.255 -0.6259 -0.0765 -1.4526
13765TIP3    H241241   3.089   6.013   2.323  0.2724  0.2241  0.4178
13766TIP3   OH241242   4.379   1.594   3.438 -0.1867  0.5907  0.1685
13766TIP3    H141243   4.354   1.665   3.379 -0.6686 -0.7608 -1.3331
13766TIP3    H241244   4.458   1.557   3.397 -0.2010 -0.0158  0.6818
13767TIP3   OH241245   0.790   2.890   3.957 -0.0126  0.0854 -0.0343
13767TIP3    H141246   0.879   2.877   3.988  0.0519 -0.2992 -0.3680
13767TIP3    H241247   0.794   2.873   3.863 -0.8334 -2.0734  0.2513
13768TIP3   OH241248   2.560   3.469   5.167  0.0301 -0.7989  0.1539
13768TIP3    H141249   2.613   3.416   5.228 -0.1585 -1.2401 -0.0652
13768TIP3    H241250   2.547   3.552   5.214  1.4502 -0.4371 -0.0422
13769TIP3   OH241251   4.471   3.544   1.547 -0.6036 -0.2899  0.3143
13769TIP3    H141252   4.451   3.452   1.559 -1.0222 -0.1805  0.4728
13769TIP3    H241253   4.549   3.559   1.600 -0.7033 -0.4859  0.5162
13770TIP3   OH241254   6.136   0.829   1.960  0.1188  0.2461  0.3611
13770TIP3    H141255   6.051   0.873   1.965 -0.1603 -0.1630 -0.4927
13770TIP3    H241256   6.157   0.807   2.051 -0.2478  1.1673  0.6735
13771TIP3   OH241257   6.922   2.172   5.443 -0.2421  0.0473  0.0109
13771TIP3    H141258   6.953   2.229   5.372 -0.7499 -0.9145 -1.0105
13771TIP3    H241259   6.955   2.085   5.420 -0.9191 -0.3847  0.6436
13772TIP3   OH241260   5.142   3.224   3.907  0.0621 -0.2744 -0.0207
13772TIP3    H141261   5.122   3.308   3.948  0.0180  0.1631 -0.9087
13772TIP3    H241262   5.077   3.163   3.943 -0.8557  0.4118 -0.4881
13773TIP3   OH241263   0.860   7.507   3.495  0.0900 -0.0411 -0.7203
13773TIP3    H141264   0.780   7.479   3.451 -0.1564  1.1248 -1.0428
13773TIP3    H241265   0.928   7.496   3.429  0.0123  0.0152 -0.8100
13774TIP3   OH241266   0.170   4.983   4.077  0.2434  0.7830 -0.0289
13774TIP3    H141267   0.204   4.931   4.004 -1.2605  0.7966 -0.7704
13774TIP3    H241268   0.113   4.923   4.125  1.4027  0.6953  1.3309
13775TIP3   OH241269   2.303   2.339   3.200 -0.3974 -0.8787 -0.3894
13775TIP3    H141270   2.245   2.288   3.142 -2.1063  1.2188 -0.6737
13775TIP3    H241271   2.246   2.408   3.234  1.6944  0.5697  0.2980
13776TIP3   OH241272   1.336   1.716   4.474 -0.0072  0.0671 -0.1886
13776TIP3    H141273   1.268   1.782   4.470  0.2768  0.5251  1.6576
13776TIP3    H241274   1.366   1.706   4.383 -2.7133 -0.4085 -1.1199
13777TIP3   OH241275   3.903   4.856   3.537 -0.5219  0.4247  0.3165
13777TIP3    H141276   3.944   4.927   3.488 -0.8410  0.0080 -0.5754
13777TIP3    H241277   3.873   4.897   3.619 -0.9598  1.3795 -0.3047
13778TIP3   OH241278   7.744   6.278   6.469 -0.0177  0.1171  0.2388
13778TIP3    H141279   7.652   6.261   6.489  0.0789  0.3150  0.8592
13778TIP3    H241280   7.792   6.209   6.517  0.3132  1.4585  1.9359
13779TIP3   OH241281   1.995   1.544   3.166 -0.6427  0.1611  0.3030
13779TIP3    H141282   1.956   1.556   3.253 -0.2852 -1.8342  0.7998
13779TIP3    H241283   1.931   1.581   3.105 -0.8404  1.7185  1.3927
13780TIP3   OH241284   5.336   3.838   0.785 -0.1135  0.1256 -0.1739
13780TIP3    H141285   5.267   3.772   0.783  1.6709 -1.8533  0.0176
13780TIP3    H241286   5.370   3.835   0.874 -0.3674  1.7578  0.0074
13781TIP3   OH241287   1.724   2.397   1.292 -0.6238 -0.4710 -0.5427
13781TIP3    H141288   1.809   2.391   1.335 -0.3371 -0.7394 -1.1349
13781TIP3    H241289   1.744   2.393   1.198 -1.3139 -0.9689 -0.6824
13782TIP3   OH241290   7.629   4.706   4.457  0.4112 -0.7804 -0.1116
13782TIP3    H141291   7.656   4.676   4.543 -0.0173 -1.2135 -0.1188
13782TIP3    H241292   7.646   4.800   4.457 -0.8642 -0.5271  0.9473
13783TIP3   OH241293   1.924   2.375   0.463  0.4724 -0.8681 -0.2443
13783TIP3    H141294   1.921   2.290   0.508  0.5293 -0.7194  0.0377
13783TIP3    H241295   1.918   2.440   0.533 -1.9021 -0.6153 -0.5937
13784TIP3   OH241296   3.507   2.042   0.866  0.0904 -0.4025 -0.0140
13784TIP3    H141297   3.561   2.112   0.903  0.4873 -0.1127 -1.0937
13784TIP3    H241298   3.542   1.962   0.904 -0.2706 -0.0333  1.1259
13785TIP3   OH241299   7.560   4.337   2.970 -0.3904 -0.1480 -0.0654
13785TIP3    H141300   7.498   4.347   2.898  0.8594 -0.3463 -1.1973
13785TIP3    H241301   7.505   4.335   3.048 -1.8055 -0.2184 -1.0232
13786TIP3   OH241302   1.739   3.644   2.199  0.1068 -0.3637  0.3982
13786TIP3    H141303   1.769   3.733   2.182 -0.6246 -0.1228  0.3747
13786TIP3    H241304   1.680   3.653   2.274  1.7295 -1.1270  1.8597
13787TIP3   OH241305   8.222   0.891   3.605 -0.1661  0.8370  0.6297
13787TIP3    H141306   8.139   0.853   3.576  1.4113 -0.8926 -2.0315
13787TIP3    H241307   8.254   0.831   3.672  0.9608 -1.1169 -1.5340
13788TIP3   OH241308   3.400   2.612   6.219 -0.3111  0.0892 -0.2106
13788TIP3    H141309   3.349   2.532   6.231 -3.4816  1.6347 -2.1018
13788TIP3    H241310   3.402   2.652   6.305 -0.8966 -0.8237  0.2445
13789TIP3   OH241311   7.388   1.128   1.203  0.1488 -0.6282  0.4363
13789TIP3    H141312   7.362   1.052   1.151  0.9335 -1.2094  0.8599
13789TIP3    H241313   7.462   1.096   1.255 -0.3510  0.0512  1.5934
13790TIP3   OH241314   7.036   0.301   1.569  0.1198  0.0782 -0.7856
13790TIP3    H141315   7.068   0.212   1.586  0.5767  0.2093 -0.9353
13790TIP3    H241316   7.041   0.344   1.654 -0.8747 -0.2672 -0.5335
13791TIP3   OH241317   4.312   5.843   5.847 -0.5660 -0.8921 -0.3624
13791TIP3    H141318   4.320   5.780   5.775  0.7114 -0.8031 -0.3190
13791TIP3    H241319   4.340   5.795   5.925 -0.7515 -0.6251 -0.1271
13792TIP3   OH241320   7.530   5.708   4.064 -0.3657  0.0049  0.5512
13792TIP3    H141321   7.443   5.706   4.024  0.3462  1.5513 -1.2612
13792TIP3    H241322   7.514   5.701   4.158 -2.4584  0.3990  0.2731
13793TIP3   OH241323   2.927   1.144   1.128  0.0313 -0.2221  0.6518
13793TIP3    H141324   2.877   1.201   1.187 -0.9191  1.5125 -1.6884
13793TIP3    H241325   2.861   1.103   1.073  1.0201  1.1637 -1.6963
13794TIP3   OH241326   6.738   3.881   2.164 -0.2013 -0.6152 -0.1805
13794TIP3    H141327   6.683   3.804   2.179 -2.1544  0.6455 -0.4933
13794TIP3    H241328   6.811   3.871   2.226 -0.7606 -2.3533  0.2536
13795TIP3   OH241329   8.024   1.209   6.399  0.2391  0.1627  0.6123
13795TIP3    H141330   8.032   1.130   6.347 -2.8756  0.7375 -1.0057
13795TIP3    H241331   8.010   1.179   6.488  0.5620 -1.0397  0.2671
13796TIP3   OH241332   3.155   5.146   6.133  0.0675  0.2392 -0.4137
13796TIP3    H141333   3.175   5.088   6.207 -0.2583 -0.2271 -0.6872
13796TIP3    H241334   3.060   5.160   6.139 -0.3476 -1.5793 -2.0150
13797TIP3   OH241335   1.194   4.191   0.434 -0.2032 -0.0121  0.4664
13797TIP3    H141336   1.217   4.177   0.526 -2.5220  0.2481  1.1593
13797TIP3    H241337   1.111   4.145   0.423 -0.7184  1.1913 -1.0832
13798TIP3   OH241338   5.380   0.984   3.311 -0.0029  0.0830 -0.1242
13798TIP3    H141339   5.448   0.979   3.243 -1.4307 -0.9551 -1.5530
13798TIP3    H241340   5.347   0.895   3.319 -2.6918  0.8971 -1.1139
13799TIP3   OH241341   2.092   5.460   4.833  0.4621 -0.4892 -0.6605
13799TIP3    H141342   2.137   5.544   4.847 -0.1510 -0.4498  1.4935
13799TIP3    H241343   2.159   5.402   4.797  1.7144  0.1441  0.5555
13800TIP3   OH241344   5.856   3.925   4.043  0.2407 -0.7935 -0.3784
13800TIP3    H141345   5.904   3.948   3.963  1.6741 -2.5705 -0.0922
13800TIP3    H241346   5.884   3.990   4.107 -0.2765  0.1362 -1.0570
13801TIP3   OH241347   1.472   5.832   1.095 -0.2465 -0.3321  0.6293
13801TIP3    H141348   1.408   5.802   1.029  0.1221 -3.8801  1.6417
13801TIP3    H241349   1.530   5.891   1.047 -1.1407 -1.2231 -1.7314
13802TIP3   OH241350   2.956   4.499   6.362 -0.2314  0.0488  0.7352
13802TIP3    H141351   3.004   4.582   6.354  1.4001 -0.9123  0.1706
13802TIP3    H241352   2.951   4.465   6.273 -1.9625  0.0928  0.7932
13803TIP3   OH241353   1.107   4.858   1.781 -0.0968  0.4567  0.0212
13803TIP3    H141354   1.017   4.851   1.812 -0.2303 -0.6207 -0.5568
13803TIP3    H241355   1.161   4.851   1.860 -0.4960  0.3258  0.2840
13804TIP3   OH241356   7.992   6.083   2.051  0.1165  0.4702 -0.3254
13804TIP3    H141357   8.080   6.045   2.048  0.3540  1.0466 -0.6735
13804TIP3    H241358   7.939   6.015   2.093  0.6811  0.0323 -0.3031
13805TIP3   OH241359   0.540   2.014   1.786  0.0087 -0.3117  0.0559
13805TIP3    H141360   0.550   2.026   1.692 -0.7661  1.1369  0.1281
13805TIP3    H241361   0.481   1.938   1.795 -0.6437  0.1039 -0.6525
13806TIP3   OH241362   6.541   0.209   1.513 -0.6192  0.0246  0.1390
13806TIP3    H141363   6.544   0.300   1.542  0.1225 -0.0781  0.4165
13806TIP3    H241364   6.521   0.214   1.420 -0.8182  0.4581  0.2002
13807TIP3   OH241365   8.026   7.653   5.341 -0.6667  0.5459 -0.5829
13807TIP3    H141366   8.116   7.675   5.315  0.0841 -0.8981  0.6086
13807TIP3    H241367   8.005   7.717   5.410 -0.2300  0.4002 -0.3066
13808TIP3   OH241368   6.360   6.237   6.132 -0.1409  0.1351 -0.1542
13808TIP3    H141369   6.347   6.237   6.038  0.2622 -1.1722 -0.2255
13808TIP3    H241370   6.454   6.254   6.143 -0.5791  2.8485  0.1329
13809TIP3   OH241371   7.069   1.480   3.874 -0.4229  0.6424  0.5983
13809TIP3    H141372   7.067   1.549   3.808 -1.6225  0.8424  0.8227
13809TIP3    H241373   7.121   1.410   3.834  0.3011  1.4210  0.1346
13810TIP3   OH241374   5.248   1.555   6.646 -0.4644  0.1817 -0.1615
13810TIP3    H141375   5.342   1.557   6.658 -0.4848 -0.1491  0.0794
13810TIP3    H241376   5.227   1.637   6.601 -0.1593  0.6177  0.4772
13811TIP3   OH241377   3.712   7.227   0.016  0.1872 -0.2047 -0.1829
13811TIP3    H141378   3.752   7.150   0.056 -0.3349  0.5487  1.8994
13811TIP3    H241379   3.777   7.258  -0.047  1.0056 -1.4885 -0.0116
13812TIP3   OH241380   1.311   4.262   3.391 -0.2840 -0.2033 -0.0113
13812TIP3    H141381   1.287   4.319   3.318 -0.0224 -0.0661  0.0117
13812TIP3    H241382   1.379   4.205   3.355  2.3251  2.0389  1.0160
13813TIP3   OH241383   2.855   6.981   2.942  0.8593  0.2530 -0.4459
13813TIP3    H141384   2.874   6.949   2.854  0.3987 -0.0989 -0.4247
13813TIP3    H241385   2.759   6.973   2.950  0.8714  0.4997 -0.0009
13814TIP3   OH241386   3.747   2.091   5.393  0.1076 -0.2223 -0.6239
13814TIP3    H141387   3.678   2.109   5.456  1.7915  1.6707  0.8264
13814TIP3    H241388   3.740   2.162   5.329  0.3113 -0.3705 -0.8114
13815TIP3   OH241389   7.334   4.260   1.615 -0.3865  0.2161 -0.1403
13815TIP3    H141390   7.250   4.230   1.652  0.1834 -0.0110  1.0363
13815TIP3    H241391   7.333   4.355   1.628 -1.7930  0.6840 -3.0237
13816TIP3   OH241392   3.943   4.844   6.575  0.0325  0.6760  0.3139
13816TIP3    H141393   3.856   4.883   6.567 -0.6191 -0.4294  1.5467
13816TIP3    H241394   3.963   4.811   6.488 -1.3053 -0.0640  0.2504
13817TIP3   OH241395   2.720   2.181   2.801 -0.0945 -0.3563 -0.2908
13817TIP3    H141396   2.753   2.258   2.846  0.5477 -0.5011 -0.5002
13817TIP3    H241397   2.646   2.212   2.749  0.7590  0.3176 -1.1347
13818TIP3   OH241398   0.935   2.809   2.085  0.3525  0.3945  0.4878
13818TIP3    H141399   0.881   2.749   2.136 -1.1683  1.7531  0.5779
13818TIP3    H241400   0.986   2.857   2.151  2.1441 -1.2319  0.3768
13819TIP3   OH241401   3.338   4.646   3.991 -0.3006 -0.0404  0.6031
13819TIP3    H141402   3.398   4.581   4.025 -0.2374  0.9708  2.6023
13819TIP3    H241403   3.343   4.719   4.053 -2.7449  0.5394  0.2650
13820TIP3   OH241404   2.147   5.275   2.925  0.2969 -0.5064  0.2847
13820TIP3    H141405   2.139   5.371   2.927  0.5377 -0.4475 -0.7364
13820TIP3    H241406   2.181   5.252   3.011  0.5568  0.3634  0.4300
13821TIP3   OH241407   3.637   6.912   5.418 -0.4908 -0.1661 -0.1864
13821TIP3    H141408   3.701   6.961   5.368 -0.8246  0.2816 -0.1840
13821TIP3    H241409   3.583   6.868   5.352 -0.1242 -0.6155 -0.1859
13822TIP3   OH241410   6.148   5.880   1.514  0.3411  0.3493  0.6299
13822TIP3    H141411   6.174   5.897   1.423  0.1115  3.3481  1.0440
13822TIP3    H241412   6.085   5.808   1.507 -0.1262  0.8966 -1.6547
13823TIP3   OH241413   2.347   6.920   3.543 -0.0885 -0.9246  0.4731
13823TIP3    H141414   2.290   6.941   3.617 -0.9517  0.2363 -0.4779
13823TIP3    H241415   2.412   6.991   3.543  0.3588 -1.3327  0.5602
13824TIP3   OH241416   4.788   0.462   3.327 -0.0772 -0.2283  0.0868
13824TIP3    H141417   4.752   0.389   3.378  1.0868  0.4952  2.0563
13824TIP3    H241418   4.712   0.497   3.280 -1.1594 -1.1563  1.0503
13825TIP3   OH241419   4.182   1.101   2.281  0.3796  0.0650  0.7434
13825TIP3    H141420   4.144   1.036   2.340 -2.6740  0.5033 -0.5683
13825TIP3    H241421   4.218   1.049   2.209 -1.7768 -0.2542 -0.1532
13826TIP3   OH241422   4.075   3.441   4.157  0.1772  0.5712 -0.3437
13826TIP3    H141423   4.141   3.502   4.190  0.3058  1.1731 -1.6487
13826TIP3    H241424   3.993   3.491   4.160  0.0086  0.2788  0.0109
13827TIP3   OH241425   7.612   4.067   0.815 -0.1894 -0.0197  0.4092
13827TIP3    H141426   7.633   3.982   0.854  0.4261 -1.0197 -1.9026
13827TIP3    H241427   7.691   4.119   0.827  0.3750 -0.6708 -0.3566
13828TIP3   OH241428   4.946   7.525   6.154 -0.3952  0.0715  0.0781
13828TIP3    H141429   4.994   7.526   6.071 -0.2866 -1.4113  0.0939
13828TIP3    H241430   4.986   7.453   6.204 -0.4234  0.9611  1.4491
13829TIP3   OH241431   0.896   0.272   2.912  0.1356  0.2414 -0.1996
13829TIP3    H141432   0.920   0.217   2.838 -0.4554 -0.0992 -0.1408
13829TIP3    H241433   0.829   0.223   2.959  1.4338 -0.1701  1.3420
13830TIP3   OH241434   0.289   0.430   0.399 -0.2186  0.2369 -0.3405
13830TIP3    H141435   0.284   0.380   0.480  1.3743  0.4909 -0.0621
13830TIP3    H241436   0.244   0.513   0.419 -1.1039 -0.2649 -0.1923
13831TIP3   OH241437   7.958   3.438   6.239  0.2087  0.0441 -0.6391
13831TIP3    H141438   8.035   3.381   6.245 -0.7709 -1.3623 -0.8383
13831TIP3    H241439   7.906   3.400   6.168 -0.7706  0.8282 -0.3593
13832TIP3   OH241440   3.301   4.473   2.364 -0.4512  0.1111 -0.4671
13832TIP3    H141441   3.311   4.384   2.396  2.5315  1.5663  3.4068
13832TIP3    H241442   3.346   4.473   2.279 -2.8634 -2.4660 -1.9312
13833TIP3   OH241443   8.024   0.516   2.104 -0.0462 -0.1364 -0.1800
13833TIP3    H141444   7.955   0.548   2.046  0.9558  1.4346 -0.5941
13833TIP3    H241445   8.026   0.579   2.176 -1.2000 -1.9993  1.5787
13834TIP3   OH241446   6.038   3.925   0.469 -0.2428 -0.5656 -0.6051
13834TIP3    H141447   5.944   3.946   0.465 -0.2634 -0.2832  0.6981
13834TIP3    H241448   6.044   3.856   0.535  0.5009 -0.2626 -0.3455
13835TIP3   OH241449   0.116   1.154   0.458  0.0086  0.2365 -0.5199
13835TIP3    H141450   0.201   1.114   0.441 -0.0440  0.1599 -0.6035
13835TIP3    H241451   0.124   1.244   0.427 -0.3314 -0.1101 -1.6771
13836TIP3   OH241452   2.578   6.681   6.419  0.4004 -0.4511  0.6923
13836TIP3    H141453   2.488   6.659   6.394 -0.1226  1.2453  0.9382
13836TIP3    H241454   2.631   6.612   6.379 -0.7435 -0.0125 -1.8179
13837TIP3   OH241455   7.424   4.738   6.241  0.1719 -0.2435 -0.5792
13837TIP3    H141456   7.417   4.816   6.185 -1.1364  0.8043  0.9522
13837TIP3    H241457   7.333   4.716   6.261  0.5169  1.4057  3.7148
13838TIP3   OH241458   0.796   0.703   4.814  0.2925  0.5167  0.7605
13838TIP3    H141459   0.831   0.767   4.753  1.3782 -0.7460  0.0174
13838TIP3    H241460   0.717   0.744   4.850 -0.4223  1.2724 -1.5434
13839TIP3   OH241461   6.994   7.709   6.233  0.0586  0.0651  0.0517
13839TIP3    H141462   7.019   7.714   6.325 -0.6810  0.3013  0.2539
13839TIP3    H241463   6.947   7.626   6.225  1.2958 -0.6095 -0.4307
13840TIP3   OH241464   4.262   2.656   0.170  0.0608 -0.0242  0.4549
13840TIP3    H141465   4.285   2.563   0.163  1.0939  0.3055 -0.8538
13840TIP3    H241466   4.167   2.656   0.186 -0.0234 -1.2941  0.0452
13841TIP3   OH241467   8.027   4.037   6.169 -0.1236 -0.4738  0.5606
13841TIP3    H141468   8.098   4.086   6.126 -1.3691  0.1356 -0.9044
13841TIP3    H241469   8.069   3.958   6.201  1.3612  0.1962  0.3605
13842TIP3   OH241470   4.541   5.995   4.141 -0.3162 -0.6283 -0.1001
13842TIP3    H141471   4.450   5.966   4.150 -0.5722  0.1757  0.0251
13842TIP3    H241472   4.592   5.932   4.191 -0.9065 -0.5883  0.5730
13843TIP3   OH241473   1.570   1.521   5.077  0.2417  0.5504  0.7425
13843TIP3    H141474   1.479   1.540   5.098  0.6055  0.9420  2.0709
13843TIP3    H241475   1.617   1.536   5.159  2.0485  3.9373 -0.7370
13844TIP3   OH241476   6.214   4.294   5.209 -0.4103  0.8479  0.2401
13844TIP3    H141477   6.263   4.225   5.166  0.3076  0.4131  1.6869
13844TIP3    H241478   6.230   4.372   5.156  1.2817  0.5571  0.2696
13845TIP3   OH241479   5.818   5.365   4.887 -0.8694 -0.3756  0.3108
13845TIP3    H141480   5.827   5.297   4.954 -1.6673 -0.0204  0.8008
13845TIP3    H241481   5.889   5.427   4.906 -1.2707 -0.1231  1.0269
13846TIP3   OH241482   0.408   6.003   3.464 -0.1687  0.5103  0.4792
13846TIP3    H141483   0.338   6.048   3.416  0.9071 -0.4523 -2.1821
13846TIP3    H241484   0.488   6.037   3.424  0.7188 -1.9523  0.0500
13847TIP3   OH241485   2.765   1.803   3.599  0.2103  0.0200  0.0964
13847TIP3    H141486   2.786   1.842   3.514 -0.8696 -1.6497 -0.9996
13847TIP3    H241487   2.672   1.821   3.612  0.1664 -0.4647  0.5134
13848TIP3   OH241488   0.709   1.835   3.011  0.1638  0.2940  0.1625
13848TIP3    H141489   0.740   1.782   2.937 -2.1292 -1.7600  0.5463
13848TIP3    H241490   0.651   1.900   2.972  1.5383  1.4147 -0.1123
13849TIP3   OH241491   0.220   6.322   0.879  0.0230 -0.4881  0.0940
13849TIP3    H141492   0.296   6.376   0.860 -0.5502  0.6822  1.0301
13849TIP3    H241493   0.199   6.279   0.796  1.1345 -0.1121 -0.3930
13850TIP3   OH241494   8.039   6.340   6.521 -0.2243  0.3605  0.2899
13850TIP3    H141495   8.043   6.260   6.468  3.8898  1.0071 -0.6531
13850TIP3    H241496   8.024   6.308   6.610  1.3392 -1.5483 -0.0574
13851TIP3   OH241497   7.696   2.730   1.497 -0.5980 -0.0786  0.2667
13851TIP3    H141498   7.710   2.785   1.419  0.6268  0.6815  0.9972
13851TIP3    H241499   7.687   2.641   1.462  3.8685 -0.4250 -0.6008
13852TIP3   OH241500   4.798   7.704   1.619 -1.1090  0.2073 -0.1537
13852TIP3    H141501   4.876   7.662   1.655 -0.2297  2.4034  0.6818
13852TIP3    H241502   4.726   7.671   1.673 -0.5664 -0.7375  0.0179
13853TIP3   OH241503   5.885   2.352   1.793  0.1988  0.5695  0.4734
13853TIP3    H141504   5.946   2.406   1.743  1.3547  0.4813  1.7384
13853TIP3    H241505   5.936   2.319   1.867  0.6349 -5.1660 -1.9284
13854TIP3   OH241506   5.656   7.377   6.458  0.9691  0.3465  0.1602
13854TIP3    H141507   5.670   7.434   6.533 -1.6434 -0.3769  1.3154
13854TIP3    H241508   5.711   7.301   6.475 -0.1823 -0.1669  1.8153
13855TIP3   OH241509   6.676   2.803   5.366 -0.0996 -0.0306  0.7215
13855TIP3    H141510   6.663   2.710   5.385  2.9321 -1.0085 -1.1832
13855TIP3    H241511   6.610   2.823   5.299 -0.7614 -0.8021  1.1169
13856TIP3   OH241512   3.456   6.769   3.845  0.0300  0.3945  0.0473
13856TIP3    H141513   3.538   6.785   3.797  0.4205  0.3097  0.6750
13856TIP3    H241514   3.431   6.680   3.820  0.4157  0.2207  0.2603
13857TIP3   OH241515   3.014   6.154   2.906  0.2942  0.0368 -0.0411
13857TIP3    H141516   3.062   6.185   2.830 -0.4138 -1.0759 -0.9823
13857TIP3    H241517   3.061   6.076   2.935  0.3701  0.2637  0.4591
13858TIP3   OH241518   2.556   2.910   5.700 -0.4390  0.5679 -0.1151
13858TIP3    H141519   2.624   2.905   5.634 -1.7619  2.9104 -1.8350
13858TIP3    H241520   2.488   2.851   5.670  0.2726 -0.8559  0.9646
13859TIP3   OH241521   2.129   5.597   6.489  0.1031  0.9821  0.2165
13859TIP3    H141522   2.166   5.536   6.552  0.0489  0.4262 -0.2812
13859TIP3    H241523   2.125   5.548   6.407 -1.4697  1.1190  0.1760
13860TIP3   OH241524   7.931   5.387   2.502 -0.4640  0.1511  0.7409
13860TIP3    H141525   7.990   5.391   2.577 -1.4170 -2.0268  1.7074
13860TIP3    H241526   7.909   5.478   2.483  1.8809  0.9232  1.3557
13861TIP3   OH241527   0.140   4.281   2.427 -0.5944 -0.0587 -0.7194
13861TIP3    H141528   0.050   4.313   2.420  0.2380  2.6591 -0.2126
13861TIP3    H241529   0.186   4.322   2.353  0.7418  0.7545  0.5029
13862TIP3   OH241530   7.915   7.134   3.719  0.1777 -0.5345 -0.1553
13862TIP3    H141531   7.840   7.087   3.754  1.4627 -0.6184  2.7865
13862TIP3    H241532   7.942   7.083   3.642 -1.7102 -1.4587 -0.2508
13863TIP3   OH241533   6.504   4.596   3.494  0.4801 -0.1746  0.3837
13863TIP3    H141534   6.434   4.587   3.429 -0.0326 -0.2344  0.9278
13863TIP3    H241535   6.556   4.516   3.484  0.6700  0.0183 -0.2446
13864TIP3   OH241536   3.834   0.116   5.027  0.0389 -0.2661 -0.5731
13864TIP3    H141537   3.881   0.157   5.100  1.1649 -0.5010 -1.1591
13864TIP3    H241538   3.817   0.026   5.057 -0.5793 -0.0115 -0.1296
13865TIP3   OH241539   1.669   0.182   1.136 -0.1581  0.2304 -0.4167
13865TIP3    H141540   1.587   0.208   1.179 -0.6373 -1.4520 -0.2491
13865TIP3    H241541   1.642   0.119   1.070  0.7908  1.3641 -1.9514
13866TIP3   OH241542   6.351   5.650   4.936 -0.2473 -0.4658 -0.2566
13866TIP3    H141543   6.324   5.741   4.923 -0.4159 -0.4197  0.3629
13866TIP3    H241544   6.333   5.608   4.852  1.0835  0.3649 -1.0005
13867TIP3   OH241545   7.009   6.197   0.332 -0.3089 -0.0011  0.1199
13867TIP3    H141546   7.074   6.127   0.334  1.1532  1.3079  0.6326
13867TIP3    H241547   7.047   6.263   0.275 -1.8160  0.2547 -0.6307
13868TIP3   OH241548   2.580   7.596   2.344 -0.3705  0.0069  0.1030
13868TIP3    H141549   2.630   7.518   2.367  0.1846  0.6762  1.3233
13868TIP3    H241550   2.488   7.568   2.348 -0.1674 -0.6688  0.1698
13869TIP3   OH241551   2.591   1.994   5.092 -0.1441 -0.2374  0.3349
13869TIP3    H141552   2.665   2.036   5.048 -0.9051  2.4331  1.3966
13869TIP3    H241553   2.523   1.990   5.025  0.0881 -0.1813  0.0955
13870TIP3   OH241554   2.228   4.551   3.300  0.6500  0.4510 -0.3609
13870TIP3    H141555   2.284   4.474   3.293 -0.1349 -0.0614 -1.1774
13870TIP3    H241556   2.275   4.609   3.360  0.8176 -1.0450  1.0302
13871TIP3   OH241557   4.874   4.829   0.173  0.0162  0.2242 -0.6601
13871TIP3    H141558   4.794   4.843   0.123  0.7586  2.2981 -1.3746
13871TIP3    H241559   4.924   4.765   0.122 -0.7095 -0.2957 -0.7368
13872TIP3   OH241560   4.246   1.994   4.290  0.0101  0.1111  0.3036
13872TIP3    H141561   4.230   1.975   4.382 -1.7550 -0.1664 -0.0337
13872TIP3    H241562   4.163   1.978   4.247  1.1246 -1.0103 -1.5695
13873TIP3   OH241563   6.722   2.428   0.741  0.3933  0.4313 -0.3807
13873TIP3    H141564   6.746   2.410   0.832  1.8263  1.0881 -0.5940
13873TIP3    H241565   6.639   2.382   0.728  0.5278 -0.2620  1.0400
13874TIP3   OH241566   4.464   1.077   1.109  0.5939  0.0246 -0.0358
13874TIP3    H141567   4.513   1.155   1.083 -0.8334  1.3556  1.0424
13874TIP3    H241568   4.404   1.060   1.036  0.9572 -0.1276 -0.3032
13875TIP3   OH241569   3.351   3.009   2.269  0.1417  0.1989 -0.1237
13875TIP3    H141570   3.389   2.936   2.318 -1.2253  0.1491  0.9367
13875TIP3    H241571   3.297   2.967   2.202  1.4484  0.2731 -1.2838
13876TIP3   OH241572   3.482   2.383   6.572 -0.0480 -0.1238 -0.2374
13876TIP3    H141573   3.574   2.394   6.550  0.2727  1.8236  1.7305
13876TIP3    H241574   3.483   2.354   6.663 -1.3979 -3.0259 -1.0063
13877TIP3   OH241575   7.885   0.014   3.536 -0.3789  0.0006  0.8832
13877TIP3    H141576   7.856   0.055   3.455  0.3564 -0.6316  0.2831
13877TIP3    H241577   7.837   0.060   3.605 -0.3786  1.1152  0.1635
13878TIP3   OH241578   6.519   6.902   1.835  0.5240  0.5119  0.2844
13878TIP3    H141579   6.495   6.826   1.888 -0.3164  1.2172  0.9540
13878TIP3    H241580   6.590   6.944   1.883 -0.7512  1.5863  1.3218
13879TIP3   OH241581   5.078   3.970   3.273 -0.1860  0.0639  0.3536
13879TIP3    H141582   5.169   3.985   3.247 -0.0341  1.4267  1.5234
13879TIP3    H241583   5.040   3.919   3.201  1.3813 -0.1541 -0.3516
13880TIP3   OH241584   1.415   7.432   0.867 -0.1182  0.2927 -0.7188
13880TIP3    H141585   1.471   7.507   0.851 -0.4520  0.5409 -0.7402
13880TIP3    H241586   1.457   7.360   0.821 -0.3114  0.6839 -1.5290
13881TIP3   OH241587   7.812   4.279   0.917 -0.1760  0.3775  0.1646
13881TIP3    H141588   7.836   4.322   0.835  0.3131 -1.4381 -0.6861
13881TIP3    H241589   7.848   4.335   0.986  2.4741  0.1570 -0.9505
13882TIP3   OH241590   6.547   3.771   0.630  0.1598 -0.1227 -0.3204
13882TIP3    H141591   6.537   3.865   0.612 -0.7579 -0.4800 -1.8706
13882TIP3    H241592   6.640   3.760   0.652  0.3086  1.1176 -0.2654
13883TIP3   OH241593  -0.005   2.360   3.747 -0.0240 -0.0336  0.2431
13883TIP3    H141594   0.072   2.323   3.704 -0.2873 -0.0811 -0.1987
13883TIP3    H241595   0.022   2.447   3.775  0.1846 -0.0392  0.0665
13884TIP3   OH241596   8.059   5.129   5.753 -0.1156 -0.2784 -0.0542
13884TIP3    H141597   7.977   5.116   5.800 -0.5219 -0.8637 -0.9047
13884TIP3    H241598   8.117   5.171   5.817 -1.5437  1.5689  0.1164
13885TIP3   OH241599   7.303   1.401   2.265 -0.6376  0.1763  0.2583
13885TIP3    H141600   7.235   1.464   2.289  1.3074  2.4345  0.1258
13885TIP3    H241601   7.383   1.436   2.304  1.5945  0.7747 -4.3056
13886TIP3   OH241602   3.253   7.763   4.308 -0.5366 -0.5641 -0.2968
13886TIP3    H141603   3.310   7.687   4.296 -1.3948 -1.1796 -0.5374
13886TIP3    H241604   3.171   7.738   4.266 -0.9436  0.3686 -0.0734
13887TIP3   OH241605   4.625   4.297   0.632  0.6024  0.2920  0.0896
13887TIP3    H141606   4.548   4.329   0.584  1.1149  1.9063  0.2759
13887TIP3    H241607   4.689   4.367   0.622  1.4612 -0.2921  1.3555
13888TIP3   OH241608   5.312   5.613   5.421 -0.1276  0.1684 -0.3094
13888TIP3    H141609   5.400   5.595   5.455 -0.0829  0.5496 -0.2156
13888TIP3    H241610   5.314   5.579   5.332 -0.1897 -0.6829  0.0071
13889TIP3   OH241611   5.629   6.169   3.756 -0.1072  0.0413  0.2756
13889TIP3    H141612   5.713   6.186   3.797 -0.3900 -0.5174  1.1097
13889TIP3    H241613   5.609   6.078   3.777  0.1595 -0.5856 -1.9011
13890TIP3   OH241614   3.465   3.073   6.651 -0.1011  0.0505 -0.4298
13890TIP3    H141615   3.371   3.059   6.647  0.0849 -2.2082  1.1364
13890TIP3    H241616   3.475   3.166   6.671 -2.0038  0.2298 -0.1619
13891TIP3   OH241617   5.486   4.754   2.746  0.0640 -0.7748  0.0635
13891TIP3    H141618   5.404   4.714   2.718 -0.6185 -0.4258  1.4732
13891TIP3    H241619   5.520   4.798   2.667 -0.5375 -1.8222 -0.7964
13892TIP3   OH241620   2.806   1.987   1.178  0.2176 -0.2174  0.1063
13892TIP3    H141621   2.770   2.059   1.125 -0.1532  1.1609  2.1130
13892TIP3    H241622   2.898   2.011   1.189  0.2326 -0.3626  0.2878
13893TIP3   OH241623   2.163   2.194   3.713 -0.1584  0.2386  0.6044
13893TIP3    H141624   2.155   2.243   3.631  2.1353 -0.0135  0.1612
13893TIP3    H241625   2.160   2.262   3.781  3.9509  1.3483 -0.0369
13894TIP3   OH241626   1.766   5.137   5.404  0.0424 -0.7639 -0.3418
13894TIP3    H141627   1.721   5.208   5.358  0.4997 -0.1181  0.1964
13894TIP3    H241628   1.840   5.179   5.448 -0.2917 -1.3872  0.8626
13895TIP3   OH241629   1.624   3.818   3.205  0.4624 -0.1672 -0.1419
13895TIP3    H141630   1.648   3.894   3.152  0.4203 -0.2337 -0.2561
13895TIP3    H241631   1.689   3.751   3.181 -1.4073 -1.2825 -2.5026
13896TIP3   OH241632   2.308   5.738   6.285  0.1029  0.2578 -0.5933
13896TIP3    H141633   2.227   5.752   6.335 -0.5324  1.3548 -1.8546
13896TIP3    H241634   2.357   5.820   6.295  0.9223 -0.2796 -0.1104
13897TIP3   OH241635   4.671   6.314   0.396 -0.7464  0.1455  0.9576
13897TIP3    H141636   4.654   6.276   0.482  1.3606 -2.5768  0.3125
13897TIP3    H241637   4.614   6.265   0.337 -2.1106  1.9343  0.7021
13898TIP3   OH241638   0.514   5.695   0.435 -0.4560  0.0256  0.1962
13898TIP3    H141639   0.571   5.713   0.510 -0.7434  0.7221  0.2609
13898TIP3    H241640   0.571   5.656   0.370  0.1714  0.9868  0.1522
13899TIP3   OH241641   3.083   3.798   0.532 -0.6516 -0.2887  0.3085
13899TIP3    H141642   3.006   3.802   0.475  0.5065  1.4117 -1.2894
13899TIP3    H241643   3.091   3.706   0.556 -2.4004 -0.7105 -0.5860
13900TIP3   OH241644   5.671   0.347   0.619  0.0635  0.0671 -0.5045
13900TIP3    H141645   5.714   0.327   0.536  0.3411 -1.0333 -0.1101
13900TIP3    H241646   5.685   0.441   0.631  2.3269 -0.2245 -0.4176
13901TIP3   OH241647   3.910   5.887   5.810  0.0788  0.0193 -0.3359
13901TIP3    H141648   3.851   5.908   5.883  0.8126  2.6933 -0.3796
13901TIP3    H241649   3.993   5.865   5.852 -0.1115 -0.7240 -0.3383
13902TIP3   OH241650   7.349   4.126   2.718 -0.0009 -0.6716 -0.1122
13902TIP3    H141651   7.423   4.112   2.659  0.8946 -0.3316  0.8834
13902TIP3    H241652   7.348   4.220   2.733 -1.7063 -0.4499 -1.4252
13903TIP3   OH241653   4.512   1.116   5.657 -0.1178 -0.1010 -0.4915
13903TIP3    H141654   4.510   1.192   5.599  1.7805  0.3527 -0.0359
13903TIP3    H241655   4.533   1.043   5.599  0.0044  0.0528 -0.6442
13904TIP3   OH241656   7.122   7.638   4.351 -0.5115 -0.5824  0.3567
13904TIP3    H141657   7.123   7.544   4.368 -0.3675 -0.6517 -0.0232
13904TIP3    H241658   7.131   7.645   4.256 -2.0785 -0.2354  0.1984
13905TIP3   OH241659   3.532   0.925   3.767 -0.0517  0.0118  0.0714
13905TIP3    H141660   3.449   0.901   3.809  0.3079  0.0650  0.8274
13905TIP3    H241661   3.529   0.882   3.682 -1.5535  1.3034 -0.5721
13906TIP3   OH241662   3.534   0.265   1.352  0.0229  0.2551  0.1069
13906TIP3    H141663   3.602   0.203   1.377 -0.0872  0.6145  1.3673
13906TIP3    H241664   3.527   0.324   1.427 -1.1244  0.6969 -0.3294
13907TIP3   OH241665   4.457   0.033   1.952 -0.2819  0.7209  0.4159
13907TIP3    H141666   4.545   0.044   1.987 -0.4465  0.3613  0.9667
13907TIP3    H241667   4.461   0.068   1.863  0.8822 -0.9103 -0.2136
13908TIP3   OH241668   1.330   1.302   3.078  0.3728 -0.5427 -0.1038
13908TIP3    H141669   1.374   1.298   3.163 -0.8967  0.0505  0.6104
13908TIP3    H241670   1.282   1.220   3.072 -1.5390  0.4190  0.9322
13909TIP3   OH241671   2.674   4.243   3.178  0.0108 -0.0684 -0.4398
13909TIP3    H141672   2.760   4.241   3.136  0.7999 -2.8162  1.0533
13909TIP3    H241673   2.613   4.267   3.108  1.6223 -1.2801 -2.3610
13910TIP3   OH241674   7.136   5.805   2.543 -0.1669  0.1849  0.3508
13910TIP3    H141675   7.169   5.795   2.454  0.2958 -1.9246  0.7084
13910TIP3    H241676   7.205   5.852   2.590 -0.1174  0.6946 -0.2216
13911TIP3   OH241677   2.977   0.992   4.439  0.1631  0.1773 -0.2662
13911TIP3    H141678   2.995   0.970   4.531  0.3870 -0.5888 -0.4898
13911TIP3    H241679   3.031   1.069   4.422 -1.5010  1.6849  0.8735
13912TIP3   OH241680   2.416   0.841   0.534  0.0693  0.9288 -0.5921
13912TIP3    H141681   2.388   0.750   0.533 -2.2732  1.5826 -0.7988
13912TIP3    H241682   2.500   0.840   0.580 -0.1765 -1.2339 -0.0760
13913TIP3   OH241683   3.987   4.519   0.254  0.0917  0.0670  0.0134
13913TIP3    H141684   3.913   4.557   0.301 -0.1715 -1.2914  0.7284
13913TIP3    H241685   3.947   4.464   0.186  0.4720  1.1082 -1.1003
13914TIP3   OH241686   5.598   1.654   6.225 -0.1100 -0.9258 -0.1099
13914TIP3    H141687   5.655   1.605   6.285  0.0346 -0.5191  0.0825
13914TIP3    H241688   5.658   1.695   6.163 -0.3050 -2.1741 -1.1732
13915TIP3   OH241689   5.109   5.660   2.165  0.0389  0.0533  0.3075
13915TIP3    H141690   5.153   5.745   2.175 -2.2971  1.3580  0.3228
13915TIP3    H241691   5.130   5.633   2.075 -1.3137  2.0477 -0.6971
13916TIP3   OH241692   6.103   5.581   0.357  0.3996  0.1373  0.7302
13916TIP3    H141693   6.076   5.584   0.449 -1.8651 -1.3142  0.1747
13916TIP3    H241694   6.035   5.531   0.313  1.8654  0.0585 -1.6269
13917TIP3   OH241695   3.522   3.657   1.120 -0.4647  0.2517  0.1600
13917TIP3    H141696   3.487   3.613   1.198 -1.1776  0.0873 -0.2482
13917TIP3    H241697   3.481   3.743   1.120 -1.3788 -0.1637 -0.6557
13918TIP3   OH241698   7.298   6.618   1.445  0.4438 -0.4573  0.0849
13918TIP3    H141699   7.282   6.705   1.482 -1.1289 -0.7843  0.2444
13918TIP3    H241700   7.294   6.632   1.350 -0.4484 -0.4494  0.1150
13919TIP3   OH241701   3.877   3.241   4.478  0.1881 -0.6230 -0.4937
13919TIP3    H141702   3.916   3.234   4.391  1.5975  1.0463 -0.0330
13919TIP3    H241703   3.882   3.334   4.500  0.7287 -1.1336  1.7681
13920TIP3   OH241704   1.306   2.823   1.476  0.8419 -0.4371 -0.7274
13920TIP3    H141705   1.234   2.804   1.537  1.1445 -0.1841 -0.2825
13920TIP3    H241706   1.311   2.746   1.420  1.1923 -1.1093  0.1980
13921TIP3   OH241707   2.363   5.802   2.307  0.5478  0.3559  0.4393
13921TIP3    H141708   2.426   5.808   2.379  0.1009  2.0693  0.7403
13921TIP3    H241709   2.331   5.891   2.296  0.6012  0.1371 -1.9195
13922TIP3   OH241710   3.804   5.897   3.571 -0.0813 -0.0656 -0.0331
13922TIP3    H141711   3.757   5.979   3.584 -0.3610  0.1182 -1.9110
13922TIP3    H241712   3.824   5.866   3.660 -0.0668  1.9581  0.7213
13923TIP3   OH241713   6.170   7.182   4.621 -0.2368  0.0309  0.4722
13923TIP3    H141714   6.149   7.090   4.638  0.8627 -0.5511 -1.0677
13923TIP3    H241715   6.199   7.216   4.706  0.8806 -1.5063  0.7568
13924TIP3   OH241716   1.653   2.020   2.891 -0.7128 -0.0186  0.1488
13924TIP3    H141717   1.618   1.932   2.883 -0.5656 -0.0449 -0.2614
13924TIP3    H241718   1.665   2.049   2.800 -0.1000  0.1540  0.2809
13925TIP3   OH241719   4.384   0.146   6.272  0.0209  0.1885 -0.1027
13925TIP3    H141720   4.290   0.151   6.288 -0.1320 -0.3150 -0.8133
13925TIP3    H241721   4.406   0.228   6.229 -0.0861  0.3081  0.0670
13926TIP3   OH241722   6.722   3.927   6.303 -0.1136  0.0719 -0.6547
13926TIP3    H141723   6.659   3.861   6.331 -0.3971 -0.0805 -1.5972
13926TIP3    H241724   6.806   3.898   6.338 -0.7151  0.8317  1.5235
13927TIP3   OH241725   0.960   5.709   4.620  0.6045  0.0978  0.3854
13927TIP3    H141726   0.973   5.751   4.535 -0.6304  0.4920  0.3678
13927TIP3    H241727   0.945   5.781   4.681  1.5379 -0.1805  0.9615
13928TIP3   OH241728   3.665   5.965   1.031 -0.3497 -0.1128  0.3020
13928TIP3    H141729   3.602   5.905   0.990  0.1999 -1.2463  1.0729
13928TIP3    H241730   3.612   6.017   1.091 -1.1023  1.3175 -1.4948
13929TIP3   OH241731   7.762   6.017   2.432  0.2138 -0.4095  0.1388
13929TIP3    H141732   7.834   6.069   2.468  0.0115 -0.3426  0.4540
13929TIP3    H241733   7.783   6.006   2.339  2.1266 -2.8409  0.7688
13930TIP3   OH241734   7.901   5.555   4.197  0.1439  0.3987 -0.1075
13930TIP3    H141735   7.919   5.631   4.252 -0.1304  0.2116  0.2483
13930TIP3    H241736   7.984   5.508   4.192  0.9736  1.9431 -2.2813
13931TIP3   OH241737   3.435   2.294   3.513  0.0044  0.3416  0.3286
13931TIP3    H141738   3.494   2.368   3.499  2.1182 -0.9038  1.9489
13931TIP3    H241739   3.464   2.228   3.451  0.8403 -0.5382  1.6208
13932TIP3   OH241740   3.057   5.066   5.826  0.1940  0.1796 -1.2023
13932TIP3    H141741   3.004   5.142   5.850  1.3893  0.3626  1.0949
13932TIP3    H241742   3.124   5.101   5.767  1.5840  1.2696  0.9192
13933TIP3   OH241743   0.467   3.666   0.921 -0.7262 -0.1195 -0.1374
13933TIP3    H141744   0.374   3.652   0.939 -0.6935  1.7379  1.8568
13933TIP3    H241745   0.478   3.761   0.927  0.9571 -0.0829 -2.3683
13934TIP3   OH241746   7.630   1.548   0.470 -0.1845  0.0726  0.5715
13934TIP3    H141747   7.611   1.596   0.389 -0.0084 -0.5069  0.1845
13934TIP3    H241748   7.544   1.531   0.508 -0.4696 -1.8984 -0.8044
13935TIP3   OH241749   1.097   1.123   3.014 -0.2394 -0.4035 -0.4500
13935TIP3    H141750   1.077   1.029   3.018  0.6730 -0.6259 -0.8999
13935TIP3    H241751   1.083   1.154   3.104  0.7901 -1.2549  0.0268
13936TIP3   OH241752   6.909   1.947   5.791  0.1194  0.0688 -0.3579
13936TIP3    H141753   6.960   2.023   5.764  0.2603  0.1294  0.0650
13936TIP3    H241754   6.832   1.948   5.734 -0.2069  0.9090  0.0760
13937TIP3   OH241755   3.299   1.713   5.726  0.0509  0.2041  0.3902
13937TIP3    H141756   3.262   1.769   5.658  1.4140 -0.2263 -0.7314
13937TIP3    H241757   3.373   1.763   5.761  0.1912 -0.1526  0.6068
13938TIP3   OH241758   3.898   4.849   2.174  0.1197  0.1564  0.2237
13938TIP3    H141759   3.933   4.760   2.172  0.6554  0.3620  0.4341
13938TIP3    H241760   3.843   4.851   2.253  1.2248  0.4294  0.9957
13939TIP3   OH241761   2.119   2.682   4.508 -0.2003 -0.4327  0.1042
13939TIP3    H141762   2.195   2.670   4.565 -0.9973 -0.3297  1.2439
13939TIP3    H241763   2.063   2.606   4.527  0.2150 -1.2542 -1.7497
13940TIP3   OH241764   6.728   2.100   2.815  0.1368  0.0591  0.0198
13940TIP3    H141765   6.741   2.183   2.859 -1.4470 -0.3396  1.3181
13940TIP3    H241766   6.682   2.045   2.878  2.2943 -2.3085 -0.2827
13941TIP3   OH241767   3.520   3.973   2.837  0.3708 -0.3813  0.3856
13941TIP3    H141768   3.489   3.969   2.927  2.0354  0.9991  1.0745
13941TIP3    H241769   3.444   4.001   2.786 -0.2236  0.2154  1.5675
13942TIP3   OH241770   2.998   2.446   1.615  0.2496 -0.4978  0.4524
13942TIP3    H141771   2.967   2.489   1.695 -0.0606 -1.8776  1.0939
13942TIP3    H241772   3.087   2.417   1.637 -0.1084 -1.5307  0.5612
13943TIP3   OH241773   3.755   0.541   4.574  0.0657 -0.7179  1.1067
13943TIP3    H141774   3.767   0.447   4.563  1.3948 -0.5720  1.1813
13943TIP3    H241775   3.841   0.579   4.554 -0.9175  0.6615 -0.8774
13944TIP3   OH241776   2.879   4.664   4.405 -0.0463  0.0837  0.0808
13944TIP3    H141777   2.821   4.683   4.478  0.5540 -2.4023  1.2990
13944TIP3    H241778   2.891   4.749   4.361 -1.4168  1.4034  2.0941
13945TIP3   OH241779   5.092   6.178   4.384 -0.4440  0.2319  0.2227
13945TIP3    H141780   5.004   6.214   4.376 -0.2556  1.1024  1.6992
13945TIP3    H241781   5.115   6.150   4.295 -1.6186  1.3796 -0.4723
13946TIP3   OH241782   2.900   5.322   5.722  0.1291 -0.4225  0.0648
13946TIP3    H141783   2.804   5.320   5.721  0.1285 -0.2965 -0.3781
13946TIP3    H241784   2.924   5.354   5.636  0.5704 -0.3043  0.2288
13947TIP3   OH241785   0.136   0.094   5.799 -0.2057  0.0808  0.0467
13947TIP3    H141786   0.078   0.168   5.821 -0.0651 -0.1066  1.0618
13947TIP3    H241787   0.091   0.017   5.833  0.7535 -0.0415  1.0804
13948TIP3   OH241788   5.161   2.589   4.361  0.8071 -0.2486  0.5126
13948TIP3    H141789   5.256   2.595   4.376  1.2831  0.6669 -2.3652
13948TIP3    H241790   5.136   2.674   4.327 -1.4011 -0.0044  2.4886
13949TIP3   OH241791   8.238   4.737   1.144 -0.5908  0.0866  0.0951
13949TIP3    H141792   8.181   4.752   1.219  1.5075 -1.0861  2.0763
13949TIP3    H241793   8.233   4.642   1.129 -1.5726  0.4039 -1.8049
13950TIP3   OH241794   5.915   5.291   1.898  0.0054 -0.1723  0.2589
13950TIP3    H141795   5.894   5.206   1.936 -0.8830  0.3388  0.9546
13950TIP3    H241796   6.009   5.301   1.912  0.8202 -2.3433 -2.5684
13951TIP3   OH241797   0.989   3.557   0.731 -0.1752  0.2811  0.6438
13951TIP3    H141798   1.031   3.589   0.810  1.5811 -0.2698 -0.0220
13951TIP3    H241799   1.026   3.611   0.661  0.7261 -1.3342 -0.1640
13952TIP3   OH241800   3.176   7.745   6.233 -0.1851 -0.7717 -0.7941
13952TIP3    H141801   3.218   7.683   6.173  2.1282 -0.4270  0.3664
13952TIP3    H241802   3.131   7.690   6.297 -0.6017 -1.1673 -1.4105
13953TIP3   OH241803   5.585   3.809   4.017 -0.2392  0.0839 -0.2368
13953TIP3    H141804   5.646   3.879   3.993 -0.2462  1.1627  2.5738
13953TIP3    H241805   5.536   3.844   4.091  0.7381 -3.3610  2.2832
13954TIP3   OH241806   7.899   1.887   0.977  0.2868  1.1910 -0.2094
13954TIP3    H141807   7.810   1.852   0.970  0.7041  0.3840 -2.2685
13954TIP3    H241808   7.893   1.974   0.937  0.6376  0.6574 -1.4608
13955TIP3   OH241809   5.333   4.015   4.687  0.4848 -0.0826 -0.4185
13955TIP3    H141810   5.355   4.107   4.700 -1.0603 -0.0744  3.1708
13955TIP3    H241811   5.297   4.011   4.598 -2.5061  3.5080  0.3967
13956TIP3   OH241812   0.951   4.298   6.245 -0.2626 -0.0094  0.1736
13956TIP3    H141813   0.992   4.385   6.242 -1.9074  0.8433  1.1130
13956TIP3    H241814   0.922   4.288   6.335 -2.1872 -0.5149 -0.4588
13957TIP3   OH241815   6.267   2.727   0.087  0.0401  0.1744 -0.0731
13957TIP3    H141816   6.196   2.719   0.150  1.1261 -1.4840  1.0179
13957TIP3    H241817   6.303   2.815   0.101 -0.1252  0.0533  1.2088
13958TIP3   OH241818   3.550   5.405   1.482 -0.5724  0.0585  0.1737
13958TIP3    H141819   3.631   5.445   1.453 -0.3738 -0.7973 -0.4853
13958TIP3    H241820   3.502   5.476   1.526 -1.1860  1.6314 -2.7952
13959TIP3   OH241821   7.327   3.118   5.453  0.5434 -0.1810  0.4705
13959TIP3    H141822   7.339   3.050   5.387  0.8371  0.0067  0.3280
13959TIP3    H241823   7.414   3.130   5.491  0.8019  1.1020 -0.4768
13960TIP3   OH241824   6.875   5.088   5.921  0.0809  0.1384  0.0164
13960TIP3    H141825   6.885   4.994   5.938  0.4019  0.1062 -0.3369
13960TIP3    H241826   6.836   5.122   6.001  0.8921 -0.1390  0.5506
13961TIP3   OH241827   2.842   1.546   3.931 -0.1942  0.2315  0.2337
13961TIP3    H141828   2.860   1.605   3.858  0.5049  0.1914  0.3632
13961TIP3    H241829   2.925   1.540   3.977 -0.4850 -0.1878  0.7114
13962TIP3   OH241830   7.148   0.194   4.201 -0.2225 -0.3838  0.3475
13962TIP3    H141831   7.110   0.109   4.222 -0.4615 -0.6591 -1.0947
13962TIP3    H241832   7.073   0.254   4.200 -0.3847 -0.5920 -0.7939
13963TIP3   OH241833   5.664   4.589   1.933  0.7834  0.3769 -0.3772
13963TIP3    H141834   5.683   4.652   2.002 -0.3196  0.6269 -0.2916
13963TIP3    H241835   5.585   4.622   1.891  0.2373 -0.8965 -0.3973
13964TIP3   OH241836   8.103   0.243   0.040 -0.4009 -0.3666 -0.3291
13964TIP3    H141837   8.174   0.247   0.103 -2.2542 -3.4856  2.2831
13964TIP3    H241838   8.085   0.334   0.018  1.9721  0.7153  1.7430
13965TIP3   OH241839   7.604   2.025   4.930  0.5543  0.0156  0.0593
13965TIP3    H141840   7.539   2.094   4.924 -0.0232 -0.6115 -1.2721
13965TIP3    H241841   7.686   2.066   4.902  0.2588  0.2299 -0.5055
13966TIP3   OH241842   1.751   3.741   2.743  0.2119  0.0492  0.2188
13966TIP3    H141843   1.683   3.720   2.679  1.2026  1.4932 -1.4155
13966TIP3    H241844   1.721   3.823   2.782  0.4639  0.1010  0.3036
13967TIP3   OH241845   0.806   4.339   2.222 -0.2394  0.0585 -0.0329
13967TIP3    H141846   0.799   4.340   2.317 -1.7587 -2.7401 -0.0071
13967TIP3    H241847   0.893   4.305   2.204 -0.4858 -0.8212  0.4016
13968TIP3   OH241848   7.496   5.830   3.768  0.0638  0.3939  0.0673
13968TIP3    H141849   7.444   5.761   3.811 -0.4685  0.7740  0.0325
13968TIP3    H241850   7.575   5.836   3.822  1.0384 -1.5936 -1.0155
13969TIP3   OH241851   2.252   0.479   1.731 -0.0423  0.1843 -0.2917
13969TIP3    H141852   2.346   0.489   1.716  0.7239 -0.1405  3.4842
13969TIP3    H241853   2.223   0.563   1.766 -1.6012  0.7875 -2.7436
13970TIP3   OH241854   6.173   2.211   3.200  0.3818 -0.2373  0.9932
13970TIP3    H141855   6.084   2.245   3.191  1.0010  1.1479 -0.3279
13970TIP3    H241856   6.179   2.141   3.135  0.3722 -0.0764  0.8183
13971TIP3   OH241857   4.622   5.434   4.286  0.0852 -0.3306 -0.1433
13971TIP3    H141858   4.628   5.522   4.248  1.7548 -1.0124 -1.5943
13971TIP3    H241859   4.599   5.378   4.212  0.3798 -1.3031  0.4922
13972TIP3   OH241860   1.887   6.551   1.249 -0.4669  0.2801  0.3952
13972TIP3    H141861   1.902   6.470   1.297 -0.0009 -0.4763 -1.0001
13972TIP3    H241862   1.967   6.567   1.200 -1.2243  0.5570 -0.8150
13973TIP3   OH241863   5.960   4.533   6.508 -1.0217  0.5549  0.0240
13973TIP3    H141864   6.050   4.553   6.482 -1.1869  1.1959 -0.0634
13973TIP3    H241865   5.959   4.543   6.603 -0.5459 -1.2869  0.2679
13974TIP3   OH241866   3.329   1.227   5.869  0.4006  0.1365  0.0144
13974TIP3    H141867   3.383   1.280   5.811  2.1260 -1.6042 -0.0788
13974TIP3    H241868   3.353   1.255   5.957  0.4109  0.3525 -0.0582
13975TIP3   OH241869   6.827   5.554   4.069  0.0974 -0.0983 -0.3175
13975TIP3    H141870   6.894   5.565   4.002  0.9572  1.4233  0.7472
13975TIP3    H241871   6.849   5.618   4.137 -1.4286 -0.7672  0.8769
13976TIP3   OH241872   5.946   3.878   6.249  0.2269  0.4741  0.0365
13976TIP3    H141873   5.867   3.932   6.250  0.2409  0.4915  0.3541
13976TIP3    H241874   5.927   3.809   6.186 -1.3456 -1.4623  2.4232
13977TIP3   OH241875   3.517   0.265   4.427 -0.1920 -0.3794  0.0580
13977TIP3    H141876   3.572   0.273   4.349  0.1868  0.1632  0.3739
13977TIP3    H241877   3.452   0.335   4.418 -1.4879 -1.6443 -0.8182
13978TIP3   OH241878   2.354   2.784   2.341 -0.2230 -0.1768 -0.0013
13978TIP3    H141879   2.431   2.834   2.366  0.1315 -0.2912 -0.8270
13978TIP3    H241880   2.388   2.707   2.296 -0.8189  0.5332 -1.7640
13979TIP3   OH241881   4.434   7.405   5.704 -0.3589  0.0939  0.4243
13979TIP3    H141882   4.352   7.371   5.740 -0.3814 -1.3766 -0.9216
13979TIP3    H241883   4.421   7.403   5.609  1.3925 -0.6166  0.1675
13980TIP3   OH241884   0.754   7.348   6.446  0.3906 -0.0161 -0.3958
13980TIP3    H141885   0.808   7.272   6.424  0.6569  0.4326 -1.3220
13980TIP3    H241886   0.732   7.388   6.362 -0.8277  0.2021 -0.0025
13981TIP3   OH241887   5.196   1.913   1.775  0.0900  0.0024  0.6111
13981TIP3    H141888   5.112   1.957   1.781  0.0277 -0.2454  1.8126
13981TIP3    H241889   5.261   1.983   1.771 -0.0036  0.2483  2.5435
13982TIP3   OH241890   7.765   1.709   6.343  0.2946  0.5481 -0.3662
13982TIP3    H141891   7.805   1.649   6.280  1.4163  1.6231 -0.7306
13982TIP3    H241892   7.789   1.674   6.429  0.1437 -0.0351 -0.5620
13983TIP3   OH241893   7.517   6.972   1.823 -0.0760  0.2204  0.3128
13983TIP3    H141894   7.599   7.022   1.823 -0.1482  0.3387  0.4302
13983TIP3    H241895   7.531   6.904   1.757 -0.2051  0.7669 -0.2898
13984TIP3   OH241896   7.481   3.512   2.532 -0.3795  0.1459 -0.3210
13984TIP3    H141897   7.506   3.441   2.591 -1.3534  0.5720  0.6136
13984TIP3    H241898   7.510   3.482   2.445  0.9069 -0.5568  0.3252
13985TIP3   OH241899   3.278   6.679   2.802 -0.1663  0.5176  0.5695
13985TIP3    H141900   3.242   6.626   2.730  0.6741  0.7612 -0.0451
13985TIP3    H241901   3.243   6.638   2.881  2.0091 -2.2563  0.2746
13986TIP3   OH241902   7.963   2.889   3.784  0.3808  0.1932 -0.0102
13986TIP3    H141903   7.999   2.978   3.775  2.1216 -0.2393  1.9341
13986TIP3    H241904   7.884   2.890   3.729  0.4236  2.8784 -0.1840
13987TIP3   OH241905   7.774   0.066   6.458  0.1775 -0.0823 -0.3783
13987TIP3    H141906   7.751   0.151   6.421 -1.1648 -0.0771  0.3941
13987TIP3    H241907   7.712   0.005   6.419  0.9762 -0.6796 -0.7431
13988TIP3   OH241908   7.460   4.842   0.472  0.2327  0.1938  0.6405
13988TIP3    H141909   7.495   4.825   0.384  1.1342 -0.7633  1.1601
13988TIP3    H241910   7.520   4.907   0.509  0.1697  0.1959  0.7383
13989TIP3   OH241911   3.531   1.232   6.080 -0.3368  0.2011 -0.2620
13989TIP3    H141912   3.570   1.161   6.132  0.5437  0.1654 -0.9400
13989TIP3    H241913   3.589   1.240   6.004  0.0162  2.1492  0.1769
13990TIP3   OH241914   8.086   1.414   2.902 -0.3335 -0.2356 -0.5521
13990TIP3    H141915   8.136   1.492   2.876  1.0327 -0.1804  1.9540
13990TIP3    H241916   8.100   1.352   2.831 -0.1394  1.2187 -1.8552
13991TIP3   OH241917   0.268   1.450   6.150 -0.3712 -0.0273  0.6166
13991TIP3    H141918   0.176   1.426   6.139 -0.0411 -0.5002 -1.7824
13991TIP3    H241919   0.313   1.368   6.172 -0.3107 -0.1276  0.1334
13992TIP3   OH241920   7.472   1.554   2.657  0.0932 -0.2653 -0.3306
13992TIP3    H141921   7.520   1.514   2.585  0.3173 -1.4133  0.4297
13992TIP3    H241922   7.541   1.579   2.720  0.1253  2.6771 -1.3592
13993TIP3   OH241923   2.728   5.978   2.411 -0.1095  0.3341  0.3502
13993TIP3    H141924   2.686   5.892   2.418 -1.6697  1.1259  1.2665
13993TIP3    H241925   2.762   5.996   2.498  1.5935  0.0116 -0.2141
13994TIP3   OH241926   1.390   3.655   0.675  0.5943 -0.0294 -0.3546
13994TIP3    H141927   1.332   3.728   0.652 -0.8961 -1.5958 -1.8439
13994TIP3    H241928   1.440   3.637   0.596  0.2997 -1.1737 -0.2965
13995TIP3   OH241929   5.702   7.750   3.641 -0.3222  0.6940  0.2942
13995TIP3    H141930   5.613   7.786   3.638 -0.0774  1.3563  0.7530
13995TIP3    H241931   5.736   7.776   3.727 -0.6341 -1.8938  1.2816
13996TIP3   OH241932   2.860   7.379   0.264 -0.5750  0.3401 -0.1218
13996TIP3    H141933   2.928   7.315   0.241 -1.5880 -0.6388 -0.4508
13996TIP3    H241934   2.808   7.389   0.185 -1.5326  0.1718  0.4761
13997TIP3   OH241935   4.581   3.793   6.410 -0.2689 -0.1106 -0.4568
13997TIP3    H141936   4.587   3.709   6.365 -0.3246  0.3649 -1.3635
13997TIP3    H241937   4.636   3.783   6.488 -1.6365 -1.5617  0.3650
13998TIP3   OH241938   1.121   3.034   5.320 -0.0214  0.4122  0.0998
13998TIP3    H141939   1.151   2.943   5.318 -0.2461  0.3324  0.2523
13998TIP3    H241940   1.195   3.085   5.289 -0.5302  0.0148 -1.9096
13999TIP3   OH241941   1.108   0.995   0.526  0.0678 -0.2431 -0.2949
13999TIP3    H141942   1.136   0.946   0.603 -0.3117 -1.5561 -0.9473
13999TIP3    H241943   1.018   1.021   0.544  0.4013  0.6015  0.2195
14000TIP3   OH241944   4.154   7.208   3.560 -0.5884  0.6113  0.0408
14000TIP3    H141945   4.201   7.229   3.479 -0.4750  0.5784  0.0976
14000TIP3    H241946   4.089   7.142   3.535 -0.8287  0.8996 -0.1053
14001TIP3   OH241947   5.390   0.747   1.392 -0.1216 -0.0359 -0.0484
14001TIP3    H141948   5.296   0.750   1.373 -0.1669  0.6204  0.2613
14001TIP3    H241949   5.426   0.693   1.322 -0.7505 -0.4278 -0.0803
14002TIP3   OH241950   5.649   1.606   2.478  0.1553 -0.1307  0.0151
14002TIP3    H141951   5.731   1.654   2.483  0.7722 -1.2347  2.4296
14002TIP3    H241952   5.676   1.514   2.472 -0.8647 -0.5187  0.9970
14003TIP3   OH241953   0.984   1.157   3.676 -0.6021 -0.3753  0.3201
14003TIP3    H141954   0.920   1.223   3.704  0.1982 -0.0067  1.3514
14003TIP3    H241955   1.024   1.194   3.598  0.3162  0.7100  1.2673
14004TIP3   OH241956   7.630   7.783   3.554  0.1966 -0.5565  0.4476
14004TIP3    H141957   7.672   7.717   3.608 -0.3678 -1.7604 -0.5395
14004TIP3    H241958   7.616   7.740   3.469  0.6041  1.1029 -0.5126
14005TIP3   OH241959   6.712   1.942   2.584  0.5948 -0.3027 -0.0386
14005TIP3    H141960   6.757   1.994   2.651  0.6032  0.1657 -0.4028
14005TIP3    H241961   6.620   1.944   2.610  0.8612 -2.0363  1.2294
14006TIP3   OH241962   6.390   1.137   4.489  0.1644  0.9937 -0.2465
14006TIP3    H141963   6.451   1.096   4.551  0.7298  2.0427 -0.0893
14006TIP3    H241964   6.332   1.066   4.462 -1.9573  1.0113  3.5912
14007TIP3   OH241965   0.920   3.696   1.052 -0.7627 -0.0076  0.3491
14007TIP3    H141966   0.990   3.661   1.106  2.9641  1.8579 -2.8149
14007TIP3    H241967   0.881   3.766   1.105  2.9381  2.0005  0.7392
14008TIP3   OH241968   0.638   3.369   5.963  0.2107 -0.2683  0.4113
14008TIP3    H141969   0.710   3.314   5.934 -0.0788 -0.4392  0.0071
14008TIP3    H241970   0.664   3.398   6.050  1.0703  0.2255 -0.0017
14009TIP3   OH241971   7.899   6.500   5.683 -0.3197  0.0656  0.4369
14009TIP3    H141972   7.823   6.558   5.678  1.0486  1.9669  0.4729
14009TIP3    H241973   7.929   6.492   5.592  0.9216  1.4927  0.6761
14010TIP3   OH241974   6.241   6.790   3.007  0.5767  0.0018  0.3152
14010TIP3    H141975   6.231   6.696   2.993 -0.7371  0.2143 -0.4087
14010TIP3    H241976   6.215   6.829   2.924 -2.6621  1.1264  1.6656
14011TIP3   OH241977   7.980   6.557   0.968 -0.0066 -0.2782  0.0948
14011TIP3    H141978   8.063   6.604   0.970 -0.5314  0.6759  1.4920
14011TIP3    H241979   8.003   6.467   0.948  1.0665  0.4576 -2.3751
14012TIP3   OH241980   4.936   6.960   0.408  0.0945  0.5198  0.1053
14012TIP3    H141981   4.897   6.925   0.328 -1.7653  0.1499  1.1082
14012TIP3    H241982   5.030   6.961   0.391 -0.2063 -0.1549 -1.8290
14013TIP3   OH241983   7.083   1.763   3.238 -0.3645 -0.0382 -0.3075
14013TIP3    H141984   7.019   1.746   3.169 -1.3850  0.7349  0.4163
14013TIP3    H241985   7.091   1.680   3.285  0.5570 -0.6531 -1.4971
14014TIP3   OH241986   0.845   7.257   4.046 -0.4131 -0.6042  0.0969
14014TIP3    H141987   0.939   7.264   4.063  0.1198 -0.0633 -2.6097
14014TIP3    H241988   0.810   7.343   4.070  0.0254 -0.3471 -0.1742
14015TIP3   OH241989   4.984   6.953   3.312 -0.2599 -0.6241  0.5610
14015TIP3    H141990   4.992   7.031   3.367 -0.4672 -1.2049  1.4249
14015TIP3    H241991   5.074   6.931   3.288 -0.2920  1.1068 -1.4800
14016TIP3   OH241992   0.805   2.250   5.096  0.0382 -0.3022 -0.5431
14016TIP3    H141993   0.855   2.170   5.078  2.2038  0.4011  1.7505
14016TIP3    H241994   0.753   2.229   5.174 -1.1741 -0.1410 -1.2810
14017TIP3   OH241995   6.432   1.825   4.350 -0.3443  0.0604  0.4125
14017TIP3    H141996   6.487   1.902   4.364 -0.6065  0.1332  1.1057
14017TIP3    H241997   6.472   1.756   4.404  0.8909 -0.8110 -1.5126
14018TIP3   OH241998   3.549   3.562   1.982 -0.1222 -0.1410  0.2370
14018TIP3    H141999   3.643   3.580   1.981 -0.2255  0.3948 -0.8455
14018TIP3    H242000   3.525   3.565   2.074  0.6250  1.2937  0.4041
14019TIP3   OH242001   0.973   0.398   4.585  0.5646 -0.1752 -0.0086
14019TIP3    H142002   0.934   0.433   4.665  0.0526 -0.1745 -0.2555
14019TIP3    H242003   0.934   0.449   4.514 -1.2133 -2.0514 -0.4912
14020TIP3   OH242004   6.369   6.854   3.274  0.3576  0.1236 -0.8714
14020TIP3    H142005   6.310   6.779   3.280  0.5822  0.0104  0.1244
14020TIP3    H242006   6.450   6.819   3.238  1.0454 -0.5132  1.1214
14021TIP3   OH242007   2.114   3.436   4.121 -0.1783  0.0367  0.2398
14021TIP3    H142008   2.030   3.459   4.081  0.4238  1.1655 -0.4065
14021TIP3    H242009   2.098   3.445   4.215 -1.0391 -0.7045  0.1863
14022TIP3   OH242010   1.527   6.431   1.582  0.7240 -0.0425  0.0538
14022TIP3    H142011   1.573   6.348   1.570 -0.9590 -1.2407  1.3712
14022TIP3    H242012   1.502   6.458   1.493  0.8318 -1.2434 -0.3605
14023TIP3   OH242013   1.694   7.014   3.177 -0.3618 -0.1090  0.1706
14023TIP3    H142014   1.739   7.068   3.111  0.5186 -0.4955  0.4390
14023TIP3    H242015   1.748   7.023   3.256 -0.1381 -1.4345  0.1956
14024TIP3   OH242016   7.401   2.643   4.732 -0.3732  0.3355  0.0914
14024TIP3    H142017   7.308   2.645   4.755 -0.6219 -1.2502 -0.6251
14024TIP3    H242018   7.403   2.610   4.642  0.8775  0.4972  0.0426
14025TIP3   OH242019   7.494   3.443   4.204 -0.6122  0.2925  0.0997
14025TIP3    H142020   7.529   3.511   4.146 -2.4515  0.6860 -0.6232
14025TIP3    H242021   7.479   3.488   4.288  1.5203 -0.1411  0.7692
14026TIP3   OH242022   4.620   0.664   2.587  0.2919 -0.3059 -0.1768
14026TIP3    H142023   4.674   0.597   2.544 -1.5020 -2.8231  1.1941
14026TIP3    H242024   4.531   0.632   2.578 -0.6070  1.6295  1.1060
14027TIP3   OH242025   6.167   0.288   3.228 -0.2391 -0.0289 -0.0297
14027TIP3    H142026   6.213   0.355   3.178  1.6097 -1.4737 -0.3587
14027TIP3    H242027   6.165   0.322   3.318 -2.7265  2.1343 -0.7989
14028TIP3   OH242028   3.940   1.893   1.266 -0.6097 -0.0111 -0.3683
14028TIP3    H142029   3.899   1.839   1.199 -1.1955  1.1775 -1.0060
14028TIP3    H242030   3.963   1.832   1.336  1.8700 -1.6325 -2.4501
14029TIP3   OH242031   3.752   6.847   2.821 -0.2840  0.2163  0.2162
14029TIP3    H142032   3.701   6.927   2.836 -0.3875 -0.3887  4.3272
14029TIP3    H242033   3.691   6.776   2.838  0.7934 -0.6185  0.7228
14030TIP3   OH242034   6.918   5.569   2.642  0.4891 -0.1384 -0.1218
14030TIP3    H142035   6.972   5.617   2.704  0.1531 -1.4072  1.2013
14030TIP3    H242036   6.980   5.534   2.578  0.8970  0.7616 -0.2250
14031TIP3   OH242037   0.464   3.159   1.480 -0.2833 -0.0515  0.3028
14031TIP3    H142038   0.432   3.222   1.416 -0.1006 -0.9124 -0.6505
14031TIP3    H242039   0.386   3.132   1.528 -0.9034 -1.4538 -1.3977
14032TIP3   OH242040   4.236   4.753   0.724  0.7054 -0.1596  0.1936
14032TIP3    H142041   4.317   4.784   0.685  1.0705  0.5808  1.4684
14032TIP3    H242042   4.191   4.705   0.654  2.6813 -1.4411 -0.2683
14033TIP3   OH242043   3.528   5.129   0.243  0.0885  0.3428 -0.1302
14033TIP3    H142044   3.472   5.205   0.250 -1.6075 -0.7904 -0.8530
14033TIP3    H242045   3.512   5.080   0.324 -2.9828 -1.8805 -1.8995
14034TIP3   OH242046   6.503   7.268   6.773 -0.7951  0.4269 -0.2900
14034TIP3    H142047   6.544   7.194   6.728  0.4949  1.2143 -0.4549
14034TIP3    H242048   6.561   7.342   6.756 -0.5833  0.9070  2.1254
14035TIP3   OH242049   1.416   5.678   2.002 -0.2970  0.2515  0.1439
14035TIP3    H142050   1.376   5.599   1.966  0.6966  0.5323 -1.7016
14035TIP3    H242051   1.455   5.650   2.084  1.1080 -1.5363 -1.0420
14036TIP3   OH242052   2.594   6.177   3.074 -0.3273  0.4046 -0.3091
14036TIP3    H142053   2.641   6.224   3.144  1.3945 -2.2237  0.4251
14036TIP3    H242054   2.511   6.151   3.115  0.0545  0.1306  0.3106
14037TIP3   OH242055   7.088   1.240   4.638  0.1442  0.3854  0.2877
14037TIP3    H142056   7.088   1.336   4.642 -2.3833  0.7002 -2.7025
14037TIP3    H242057   7.118   1.220   4.549 -1.5905 -1.4312  0.0402
14038TIP3   OH242058   4.616   5.336   2.925 -0.0654 -0.2408 -0.0332
14038TIP3    H142059   4.684   5.313   2.861  0.8134  1.0841  0.3856
14038TIP3    H242060   4.657   5.319   3.010 -0.2050  0.6657  0.2221
14039TIP3   OH242061   1.883   2.619   3.359 -0.0927 -0.0684 -0.4369
14039TIP3    H142062   1.854   2.651   3.445 -0.3700 -1.1359 -0.1170
14039TIP3    H242063   1.818   2.656   3.298  0.7442  1.6342 -0.3701
14040TIP3   OH242064   3.474   0.917   1.876 -0.0575 -0.3357  0.6832
14040TIP3    H142065   3.399   0.877   1.832 -0.3426  0.7660  0.1088
14040TIP3    H242066   3.536   0.845   1.889 -0.5041 -0.9403 -0.3911
14041TIP3   OH242067   0.936   2.581   1.029  0.6425 -0.3009 -0.2991
14041TIP3    H142068   1.028   2.573   1.053  0.7879  0.5830 -0.5300
14041TIP3    H242069   0.931   2.663   0.980  0.0266 -1.1400 -1.7135
14042TIP3   OH242070   2.682   6.432   4.921  0.0920 -1.0192  0.6492
14042TIP3    H142071   2.613   6.452   4.985  0.5472  1.8586  0.3891
14042TIP3    H242072   2.759   6.477   4.955  0.5990 -0.2766 -1.3554
14043TIP3   OH242073   0.548   0.002   0.357  0.1619  0.0957 -0.4798
14043TIP3    H142074   0.494   0.005   0.436 -0.2244 -0.7124 -0.7114
14043TIP3    H242075   0.543   0.091   0.322 -0.7795  0.1113 -0.3315
14044TIP3   OH242076   7.332   4.880   2.016 -0.4477  0.5677  0.4412
14044TIP3    H142077   7.295   4.965   1.992 -0.6928  0.2415 -0.3356
14044TIP3    H242078   7.406   4.902   2.073  0.7111  1.4004 -1.3034
14045TIP3   OH242079   0.605   7.411   3.412  0.4873 -1.0285 -0.0597
14045TIP3    H142080   0.607   7.324   3.371 -0.9229 -0.9246 -0.4115
14045TIP3    H242081   0.512   7.427   3.429  0.7769  0.2019  0.4714
14046TIP3   OH242082   7.732   4.110   5.282  0.2149 -0.0155 -1.0471
14046TIP3    H142083   7.765   4.052   5.213  0.8803  0.6666 -1.3170
14046TIP3    H242084   7.803   4.112   5.346  0.6641  1.3398 -1.5530
14047TIP3   OH242085   4.242   0.886   4.722  0.2638  0.1669  0.3740
14047TIP3    H142086   4.232   0.891   4.627 -1.2066 -1.1242  0.4220
14047TIP3    H242087   4.296   0.809   4.736  0.2139  0.1711  0.5916
14048TIP3   OH242088   3.074   2.432   1.213  0.1161  0.2529  0.0116
14048TIP3    H142089   3.002   2.379   1.248 -0.4400  2.0540  1.8212
14048TIP3    H242090   3.131   2.369   1.169  0.1436 -2.0669  3.0443
14049TIP3   OH242091   6.759   3.166   0.194 -0.5556  0.0198  0.1146
14049TIP3    H142092   6.846   3.206   0.192 -1.5441  2.3247 -2.0005
14049TIP3    H242093   6.738   3.160   0.287  2.4665 -2.2168  0.8082
14050TIP3   OH242094   2.335   4.967   2.668  0.0878  0.5017  0.5302
14050TIP3    H142095   2.339   4.876   2.639  0.6708  0.2623  1.3153
14050TIP3    H242096   2.361   4.964   2.760 -1.1236  1.3114  0.9275
14051TIP3   OH242097   2.801   2.422   4.021 -0.6422 -0.1038 -0.5776
14051TIP3    H142098   2.782   2.454   3.933 -0.1452 -1.2546 -1.1332
14051TIP3    H242099   2.822   2.500   4.072 -0.9149  0.5715 -1.4856
14052TIP3   OH242100   6.961   7.466   0.513  0.0706  0.1457 -0.3071
14052TIP3    H142101   6.911   7.389   0.539  1.4497 -0.3342  1.0687
14052TIP3    H242102   6.953   7.469   0.418  0.1079 -1.7845 -0.4034
14053TIP3   OH242103   8.233   4.358   4.625 -0.2885 -0.5672 -0.1772
14053TIP3    H142104   8.262   4.428   4.566  0.1681 -1.2790 -0.8060
14053TIP3    H242105   8.291   4.366   4.701 -0.5043 -0.0127 -0.0638
14054TIP3   OH242106   4.469   5.164   5.022  0.2398  0.2475 -0.4575
14054TIP3    H142107   4.428   5.177   4.936 -1.0713  0.5057  0.1865
14054TIP3    H242108   4.476   5.069   5.031  0.1645  0.2134 -0.7416
14055TIP3   OH242109   2.450   4.625   4.972  0.2834  0.0329  0.3331
14055TIP3    H142110   2.467   4.631   5.066 -3.1458 -0.2733  1.1007
14055TIP3    H242111   2.406   4.541   4.960 -0.4543  0.6030 -1.3281
14056TIP3   OH242112   1.111   7.270   2.525  0.7298 -0.0959 -0.0786
14056TIP3    H142113   1.150   7.183   2.516  0.2434 -0.4721  1.2738
14056TIP3    H242114   1.043   7.273   2.457  1.6135 -0.2584 -0.9935
14057TIP3   OH242115   6.689   2.006   1.479 -0.2028  0.6548 -0.1833
14057TIP3    H142116   6.632   1.934   1.451  0.2614 -0.5738  1.7965
14057TIP3    H242117   6.757   2.009   1.413 -1.1804  0.4407 -1.2271
14058TIP3   OH242118   3.308   4.787   5.629  0.6805  0.2962 -0.0076
14058TIP3    H142119   3.275   4.877   5.637  0.5083  0.1470  1.2849
14058TIP3    H242120   3.284   4.760   5.541 -0.3215  1.1189 -0.0062
14059TIP3   OH242121   1.096   5.091   0.373 -0.1133  0.0269 -0.6734
14059TIP3    H142122   1.125   5.005   0.342 -1.0559 -0.2072 -0.9480
14059TIP3    H242123   1.175   5.146   0.369  0.6140 -0.9394 -0.0274
14060TIP3   OH242124   7.980   0.331   3.301  0.5223  0.2162 -0.0917
14060TIP3    H142125   7.972   0.383   3.381  0.4363  0.6451 -0.3779
14060TIP3    H242126   7.917   0.260   3.313  0.3772  0.3828  0.1425
14061TIP3   OH242127   7.399   7.013   0.224 -0.1510 -0.0558  0.8235
14061TIP3    H142128   7.472   6.971   0.180  0.6527  2.4023 -0.3746
14061TIP3    H242129   7.334   7.028   0.155 -0.1271  1.2136  1.0527
14062TIP3   OH242130   4.156   0.252   0.732 -0.2993  0.1200  0.1217
14062TIP3    H142131   4.244   0.264   0.768  0.2384  0.1059 -1.1328
14062TIP3    H242132   4.113   0.336   0.747  0.3683  0.5685 -0.4056
14063TIP3   OH242133   2.480   2.586   3.183 -0.3052  1.0364 -0.1144
14063TIP3    H142134   2.495   2.560   3.274  0.1486 -0.2562 -0.5388
14063TIP3    H242135   2.414   2.525   3.151  1.3480 -0.1535 -1.3746
14064TIP3   OH242136   6.571   0.586   4.699 -0.0790  0.3568  0.6007
14064TIP3    H142137   6.491   0.550   4.737 -0.9046  0.7178 -0.7159
14064TIP3    H242138   6.639   0.522   4.720 -0.4940  0.4978  2.5454
14065TIP3   OH242139   7.467   0.597   0.202  0.3943 -0.4514  0.2043
14065TIP3    H142140   7.540   0.558   0.154  0.0855  0.2701 -0.8976
14065TIP3    H242141   7.499   0.682   0.231  0.4729 -0.7513  1.0153
14066TIP3   OH242142   7.749   6.310   5.496  0.1770  0.0354  0.1918
14066TIP3    H142143   7.764   6.272   5.583 -0.0651  0.1129  0.2686
14066TIP3    H242144   7.731   6.234   5.440 -0.5580  0.0514  0.3982
14067TIP3   OH242145   0.812   6.142   5.113  0.8278  0.0851 -0.4616
14067TIP3    H142146   0.778   6.204   5.177  0.6324  0.0084 -0.4882
14067TIP3    H242147   0.901   6.170   5.097  0.6613  0.5031 -0.6583
14068TIP3   OH242148   0.750   4.219   3.118  0.2464  0.3122  0.3495
14068TIP3    H142149   0.705   4.212   3.034  1.3399  0.7350 -0.2925
14068TIP3    H242150   0.737   4.309   3.146 -0.5842  0.0282  0.9241
14069TIP3   OH242151   0.114   0.118   5.065  0.8142 -0.6684  0.6274
14069TIP3    H142152   0.143   0.133   4.975  1.4315  1.0484  1.0727
14069TIP3    H242153   0.194   0.097   5.113  0.6016 -0.7800  0.9385
14070TIP3   OH242154   2.633   2.703   5.030 -0.0021  0.2762  0.5427
14070TIP3    H142155   2.551   2.740   4.996 -0.3880 -2.0868 -1.3152
14070TIP3    H242156   2.702   2.755   4.989 -0.5373  0.9191  0.4381
14071TIP3   OH242157   8.136   7.676   2.664  0.6090 -0.0409  0.1589
14071TIP3    H142158   8.083   7.613   2.712  0.2550 -0.7555 -1.1464
14071TIP3    H242159   8.075   7.719   2.604  1.1397  0.4782 -0.0175
14072TIP3   OH242160   4.162   1.903   6.729 -0.5730 -0.0353 -0.4191
14072TIP3    H142161   4.186   1.941   6.814 -0.3971  0.6049 -0.7505
14072TIP3    H242162   4.217   1.950   6.666  1.6741 -2.6429 -0.6102
14073TIP3   OH242163   2.348   2.702   2.928 -0.4563  0.0732  0.3136
14073TIP3    H142164   2.279   2.740   2.981 -1.7116  1.0167 -1.8740
14073TIP3    H242165   2.404   2.776   2.904 -0.2576 -0.2325 -0.1941
14074TIP3   OH242166   3.522   5.157   2.411  0.4483 -0.3746  0.7851
14074TIP3    H142167   3.437   5.125   2.379  1.0112 -0.4970 -0.6970
14074TIP3    H242168   3.580   5.081   2.403  1.5396  0.6138 -1.7215
14075TIP3   OH242169   0.875   6.955   2.064 -0.1286  0.3320  0.2835
14075TIP3    H142170   0.830   6.873   2.085  0.2951 -0.4485 -1.5866
14075TIP3    H242171   0.808   7.011   2.027  0.0102 -0.0988 -0.6659
14076TIP3   OH242172   3.322   3.198   4.583  0.3060  0.1698  0.3219
14076TIP3    H142173   3.392   3.197   4.517 -0.8403 -1.5947 -0.9644
14076TIP3    H242174   3.294   3.106   4.589 -0.7000  0.5539  2.1269
14077TIP3   OH242175   7.273   5.010   4.369 -0.4557 -0.4957  0.2290
14077TIP3    H142176   7.216   4.992   4.444 -0.8604 -0.4789 -0.0713
14077TIP3    H242177   7.341   4.943   4.373 -0.1495 -0.1577  0.9343
14078TIP3   OH242178   7.349   7.086   3.320 -0.6422  0.0807 -0.6718
14078TIP3    H142179   7.375   7.003   3.282 -1.0283 -1.0020  1.2849
14078TIP3    H242180   7.265   7.068   3.363  0.4522  0.7472  1.9500
14079TIP3   OH242181   5.788   1.793   4.678 -0.1501  0.4772  0.7973
14079TIP3    H142182   5.753   1.765   4.763  2.4017 -0.7846  1.5399
14079TIP3    H242183   5.830   1.715   4.642 -1.3608  0.9179 -1.8159
14080TIP3   OH242184   4.102   0.127   4.049  0.1815 -0.0642 -0.1904
14080TIP3    H142185   4.132   0.156   3.963 -1.2889 -1.2821 -1.1719
14080TIP3    H242186   4.124   0.033   4.052 -0.1310 -0.1202  0.5928
14081TIP3   OH242187   3.434   7.181   1.175  0.3653  0.2180  0.1142
14081TIP3    H142188   3.460   7.186   1.267  0.2804 -1.5499  0.2536
14081TIP3    H242189   3.516   7.187   1.127  0.4268  0.9600  0.2861
14082TIP3   OH242190   7.862   5.520   3.924 -0.1896  0.6120  0.4408
14082TIP3    H142191   7.770   5.546   3.920  0.0970  1.5496 -1.0017
14082TIP3    H242192   7.893   5.549   4.010 -1.0455  0.9785  0.6283
14083TIP3   OH242193   3.169   4.999   5.510 -0.2144 -0.7145 -0.9220
14083TIP3    H142194   3.088   5.036   5.547  0.8393  2.1587 -1.1951
14083TIP3    H242195   3.164   5.021   5.417  1.3398  0.5775 -0.7435
14084TIP3   OH242196   5.675   5.350   6.532  0.6037  0.0666  0.0540
14084TIP3    H142197   5.617   5.351   6.457  0.8902  0.7413 -0.1674
14084TIP3    H242198   5.673   5.440   6.566  0.7781 -0.1338  0.6150
14085TIP3   OH242199   8.005   7.117   3.381  0.4225 -0.0149 -0.4281
14085TIP3    H142200   7.996   7.145   3.290 -0.1554  0.3566 -0.2655
14085TIP3    H242201   7.946   7.042   3.390  1.5660 -0.9810 -0.7220
14086TIP3   OH242202   5.726   0.246   4.943 -0.1208 -0.5868 -0.1100
14086TIP3    H142203   5.711   0.262   4.849 -2.4092  0.3491  0.3326
14086TIP3    H242204   5.782   0.318   4.971  0.3787 -0.7346 -0.7063
14087TIP3   OH242205   3.194   5.433   5.939 -0.4130 -0.2114  0.8431
14087TIP3    H142206   3.128   5.403   5.877 -0.5589  0.1353  0.8263
14087TIP3    H242207   3.257   5.481   5.885  0.2997 -1.2526  0.7407
14088TIP3   OH242208   5.943   7.252   6.762  0.4141  0.3954  0.1614
14088TIP3    H142209   6.036   7.230   6.754  0.8867  1.6915  1.5640
14088TIP3    H242210   5.919   7.286   6.676  1.0946 -0.4413 -0.3735
14089TIP3   OH242211   5.637   1.947   1.514 -0.3259  0.0344 -0.1150
14089TIP3    H142212   5.564   1.979   1.566  1.3988  0.6610  2.0853
14089TIP3    H242213   5.692   1.899   1.576  1.5827  0.3852 -1.4212
14090TIP3   OH242214   0.998   2.849   0.191  0.5934  0.0346  0.0230
14090TIP3    H142215   1.018   2.879   0.280  0.9871 -0.1319 -0.0091
14090TIP3    H242216   1.067   2.786   0.170  0.3922 -0.0727 -0.3277
14091TIP3   OH242217   2.989   6.050   6.692  0.3791 -0.3708 -0.2375
14091TIP3    H142218   2.977   6.096   6.775  0.2508 -0.9211  0.0511
14091TIP3    H242219   3.017   5.962   6.717 -0.5599 -0.8290 -0.7483
14092TIP3   OH242220   2.450   4.759   2.065 -0.0553 -0.1875 -0.4033
14092TIP3    H142221   2.478   4.747   1.974  0.2107  0.2677 -0.3865
14092TIP3    H242222   2.358   4.735   2.066 -0.0941 -0.0555 -0.8256
14093TIP3   OH242223   8.160   5.651   0.144 -0.0772  0.3175  0.2693
14093TIP3    H142224   8.150   5.708   0.068 -1.2193 -0.8691 -0.5038
14093TIP3    H242225   8.227   5.694   0.197 -1.1180  2.5579 -0.1025
14094TIP3   OH242226   3.051   3.681   1.529  0.0035 -0.4615 -0.3104
14094TIP3    H142227   2.983   3.686   1.597 -1.4628  0.0136 -1.7591
14094TIP3    H242228   3.039   3.760   1.478 -0.3041 -1.7556 -2.3574
14095TIP3   OH242229   3.760   1.883   2.470  0.3712  0.4463 -0.4901
14095TIP3    H142230   3.688   1.820   2.466 -0.1075  1.0036 -0.6443
14095TIP3    H242231   3.830   1.842   2.418  0.4357 -0.4298  0.2771
14096TIP3   OH242232   4.358   2.759   4.880  0.2417 -0.2636  0.4037
14096TIP3    H142233   4.450   2.775   4.861  0.1235 -1.0568 -1.0169
14096TIP3    H242234   4.335   2.685   4.823 -1.5722  0.6896 -0.1669
14097TIP3   OH242235   1.387   0.544   6.654 -0.9338  0.4879  0.4815
14097TIP3    H142236   1.364   0.481   6.722 -0.4708 -1.1317 -0.8023
14097TIP3    H242237   1.312   0.543   6.594 -0.9033  1.1460  0.4233
14098TIP3   OH242238   5.353   2.363   1.807 -0.4894 -0.4404 -0.5057
14098TIP3    H142239   5.274   2.418   1.807 -0.4489 -0.3787 -0.6734
14098TIP3    H242240   5.408   2.402   1.738 -0.1848 -0.3002 -0.1839
14099TIP3   OH242241   3.086   6.513   6.111 -0.4348  0.5270  0.4220
14099TIP3    H142242   3.078   6.532   6.204 -1.2740  0.4604  0.3779
14099TIP3    H242243   3.057   6.594   6.068 -0.7262  0.3249  0.2302
14100TIP3   OH242244   0.305   6.323   2.771 -0.1917 -0.4883  0.5193
14100TIP3    H142245   0.225   6.324   2.825 -1.6484 -1.9730 -1.4425
14100TIP3    H242246   0.321   6.231   2.754  1.2836 -0.1415 -0.1128
14101TIP3   OH242247   6.541   6.733   5.544  0.2491 -0.2123  0.1011
14101TIP3    H142248   6.463   6.679   5.551 -0.6075  1.0596  0.7059
14101TIP3    H242249   6.508   6.823   5.540  1.6681  0.3378  0.1661
14102TIP3   OH242250   2.893   7.241   2.981  0.0391  0.1878 -0.3383
14102TIP3    H142251   2.982   7.253   3.015 -0.2792  0.3384  0.4527
14102TIP3    H242252   2.886   7.146   2.968  1.0517  0.3412 -2.4876
14103TIP3   OH242253   7.728   6.121   1.770  0.0271  0.0408 -0.7625
14103TIP3    H142254   7.755   6.139   1.681 -2.1047  1.1049 -1.2809
14103TIP3    H242255   7.752   6.200   1.819 -0.4389  0.2334 -0.8319
14104TIP3   OH242256   1.295   6.188   4.018  0.1361 -0.4619  0.2974
14104TIP3    H142257   1.315   6.279   4.036  1.2601 -0.7405  0.5173
14104TIP3    H242258   1.202   6.180   4.036 -0.2980  0.9557 -1.0601
14105TIP3   OH242259   3.472   0.679   4.961  0.3424 -0.0058 -0.1531
14105TIP3    H142260   3.517   0.762   4.976  2.6094 -1.1408 -0.3957
14105TIP3    H242261   3.534   0.626   4.912 -1.8087 -1.1770 -1.7697
14106TIP3   OH242262   3.211   0.987   3.507 -0.0089 -0.1668 -0.1903
14106TIP3    H142263   3.129   0.938   3.505  0.1267 -0.4325  0.4715
14106TIP3    H242264   3.208   1.042   3.429 -1.8728  1.5344  0.9777
14107TIP3   OH242265   0.006   0.184   1.347  0.8954  0.5820  0.0241
14107TIP3    H142266   0.014   0.102   1.395 -0.6448  0.9737  1.0003
14107TIP3    H242267  -0.013   0.158   1.257 -0.5428 -0.1381  0.5141
14108TIP3   OH242268   2.568   6.861   2.934 -0.5077 -0.0918  1.1464
14108TIP3    H142269   2.612   6.781   2.906 -0.3503  0.1403  0.7156
14108TIP3    H242270   2.504   6.832   2.998 -2.3673 -0.9454 -0.9462
14109TIP3   OH242271   7.692   0.811   4.444  0.2791 -0.1508 -0.2102
14109TIP3    H142272   7.749   0.741   4.475 -0.2191 -0.3276  0.3180
14109TIP3    H242273   7.707   0.814   4.350 -0.9543 -2.1184 -0.5179
14110TIP3   OH242274   2.464   3.120   3.434 -0.5315 -0.0088 -0.2939
14110TIP3    H142275   2.544   3.103   3.485 -0.7648 -0.0857  0.0542
14110TIP3    H242276   2.494   3.128   3.344 -0.1990 -0.6534 -0.2497
14111TIP3   OH242277   1.022   2.997   4.053 -0.2838  0.1759 -0.0821
14111TIP3    H142278   1.009   3.060   3.982 -0.5088  1.3303  0.9273
14111TIP3    H242279   1.105   3.024   4.094 -0.2620 -0.3345  0.2178
14112TIP3   OH242280   1.927   7.131   6.523 -0.3739 -0.2547 -0.5346
14112TIP3    H142281   2.000   7.158   6.579 -0.7519 -0.6065  0.1512
14112TIP3    H242282   1.968   7.095   6.445  0.1600  2.0791 -1.4154
14113TIP3   OH242283   1.684   3.365   2.287 -0.1802  0.6226 -0.2550
14113TIP3    H142284   1.594   3.359   2.316 -0.4417  2.5920 -0.4990
14113TIP3    H242285   1.692   3.454   2.252  1.5335  0.1051 -1.3270
14114TIP3   OH242286   1.462   0.899   2.096  0.6096  0.2793 -0.2559
14114TIP3    H142287   1.419   0.874   2.014  1.2108  0.9004 -0.7717
14114TIP3    H242288   1.390   0.916   2.156  0.1591 -1.3217 -0.2851
14115TIP3   OH242289   8.019   6.584   4.801 -0.0600  0.0980  0.5208
14115TIP3    H142290   8.071   6.645   4.854 -1.2530 -0.2006  2.0914
14115TIP3    H242291   7.941   6.633   4.777  0.0252 -0.0883 -0.1604
14116TIP3   OH242292   8.008   1.910   2.459  0.2498  0.0900 -0.4646
14116TIP3    H142293   8.013   2.002   2.485 -0.0587 -0.1444  0.4824
14116TIP3    H242294   8.031   1.909   2.367  2.1703  0.9014 -0.0442
14117TIP3   OH242295   0.659   2.985   4.894  0.4655 -0.4106 -0.5183
14117TIP3    H142296   0.580   2.949   4.936 -0.1873  0.9634 -0.5015
14117TIP3    H242297   0.703   2.909   4.856  0.0040 -1.4192  0.8970
14118TIP3   OH242298   2.287   5.999   3.668 -0.0070 -0.5802 -0.4234
14118TIP3    H142299   2.261   6.056   3.741 -0.3461  0.0869 -1.0432
14118TIP3    H242300   2.222   5.929   3.668  1.6184 -2.2395  1.6792
14119TIP3   OH242301   4.366   5.607   5.323 -0.8823 -0.0930 -0.1330
14119TIP3    H142302   4.384   5.575   5.234 -0.0771 -0.7785  0.2604
14119TIP3    H242303   4.396   5.536   5.380 -2.0284  0.0511  0.6716
14120TIP3   OH242304   7.076   0.251   2.408  0.1655  0.1970 -0.0474
14120TIP3    H142305   6.983   0.273   2.404  0.6216  2.6695  1.1295
14120TIP3    H242306   7.111   0.276   2.323 -0.4176 -2.0612 -1.0289
14121TIP3   OH242307   3.017   7.192   5.285 -0.2044  0.1490 -0.1691
14121TIP3    H142308   3.082   7.128   5.313 -0.5667 -0.1036  0.1107
14121TIP3    H242309   2.963   7.206   5.363 -0.9441 -0.2029 -0.6125
14122TIP3   OH242310   4.535   1.273   0.899 -0.2988  0.1645  0.3833
14122TIP3    H142311   4.585   1.280   0.818  0.5587 -1.0589  0.7861
14122TIP3    H242312   4.453   1.231   0.873 -0.3392  0.4651  0.0251
14123TIP3   OH242313   4.842   2.157   0.501  0.5786  0.5966 -0.0737
14123TIP3    H142314   4.775   2.225   0.490 -0.4436 -0.2523  0.6671
14123TIP3    H242315   4.807   2.082   0.454  0.0021 -0.5064  1.9995
14124TIP3   OH242316   5.392   1.802   0.317  0.1483  0.5217  0.6345
14124TIP3    H142317   5.305   1.830   0.347 -0.3653  0.1662 -0.4723
14124TIP3    H242318   5.398   1.710   0.341 -0.2886  0.2197 -0.3462
14125TIP3   OH242319   5.287   5.330   5.554  0.2623  0.4161 -0.0880
14125TIP3    H142320   5.211   5.304   5.605  0.0253  1.1079 -0.0869
14125TIP3    H242321   5.306   5.420   5.582  1.5468 -0.0063  0.4813
14126TIP3   OH242322   7.471   1.748   5.623  0.0440 -0.0669 -0.0794
14126TIP3    H142323   7.444   1.726   5.534 -0.3852 -0.4970  0.1546
14126TIP3    H242324   7.543   1.811   5.611 -0.5841  0.5478 -0.7110
14127TIP3   OH242325   2.120   6.691   3.256 -0.1089  0.0012 -0.0062
14127TIP3    H142326   2.165   6.613   3.287 -0.7921 -0.8299 -0.9991
14127TIP3    H242327   2.049   6.657   3.201  0.9351  1.3216 -2.3512
14128TIP3   OH242328   2.403   1.266   3.085  0.3191  0.7174  0.3736
14128TIP3    H142329   2.471   1.320   3.125  0.3382  1.4410 -0.6007
14128TIP3    H242330   2.321   1.300   3.120  0.4091  0.3538  0.9490
14129TIP3   OH242331   6.138   4.388   6.689 -0.2512 -0.2542 -0.0842
14129TIP3    H142332   6.179   4.333   6.756  1.2831  0.7040 -0.1902
14129TIP3    H242333   6.160   4.346   6.606 -0.2998 -0.2548 -0.0970
14130TIP3   OH242334   4.587   6.899   0.195  0.2982  0.3912  0.0014
14130TIP3    H142335   4.552   6.924   0.280 -0.4994  0.5955 -0.3811
14130TIP3    H242336   4.644   6.824   0.214  0.1171  0.4235  0.7074
14131TIP3   OH242337   4.131   1.066   0.530 -0.5939  0.0207 -0.3125
14131TIP3    H142338   4.102   1.093   0.617 -1.6191  0.0261 -0.6448
14131TIP3    H242339   4.160   0.976   0.542 -0.0736  0.2471  0.1752
14132TIP3   OH242340   6.039   4.922   6.166 -0.3815 -0.0258  0.0767
14132TIP3    H142341   6.103   4.981   6.206 -0.8347  0.4068  0.1636
14132TIP3    H242342   6.063   4.922   6.073 -2.1911  2.7015 -0.5119
14133TIP3   OH242343   6.850   6.900   0.504  0.6432 -0.3232  0.2074
14133TIP3    H142344   6.903   6.959   0.450 -0.0743  0.4132  0.2922
14133TIP3    H242345   6.911   6.866   0.569  0.6167  2.1691  1.6744
14134TIP3   OH242346   2.301   3.021   3.633  0.1583 -0.2230 -0.0184
14134TIP3    H142347   2.349   3.005   3.715  0.2760 -0.3483 -0.1109
14134TIP3    H242348   2.367   3.057   3.574 -0.1676  0.8961  0.2749
14135TIP3   OH242349   4.212   5.474   4.113 -0.0669  0.1636  0.3855
14135TIP3    H142350   4.236   5.406   4.176 -1.0316 -1.5476 -0.9896
14135TIP3    H242351   4.261   5.452   4.034  0.1182  1.4893  0.1148
14136TIP3   OH242352   7.128   3.635   4.730  0.5300  0.5754 -0.2916
14136TIP3    H142353   7.073   3.584   4.790 -1.3831  1.1951 -1.4371
14136TIP3    H242354   7.208   3.652   4.780 -0.6947  0.4899  1.8379
14137TIP3   OH242355   7.807   1.304   2.493 -0.1340  0.2216  0.3485
14137TIP3    H142356   7.827   1.211   2.487  0.8138  0.3748  0.9986
14137TIP3    H242357   7.889   1.345   2.521 -0.6254  1.2095  0.3819
14138TIP3   OH242358   5.054   7.615   5.037  0.1922 -0.8403 -0.1663
14138TIP3    H142359   5.112   7.604   4.962  0.1076 -0.1737 -0.3271
14138TIP3    H242360   5.105   7.668   5.098 -0.9828  1.5034 -1.1339
14139TIP3   OH242361   3.604   3.126   0.982 -0.1250  0.0132 -0.7651
14139TIP3    H142362   3.671   3.194   0.971  0.2544 -0.6128 -2.9092
14139TIP3    H242363   3.536   3.149   0.918 -0.7726 -0.7133 -0.3573
14140TIP3   OH242364   5.724   6.548   5.813  0.1822  0.0334 -0.0488
14140TIP3    H142365   5.728   6.501   5.896 -1.6310 -0.7595 -0.3607
14140TIP3    H242366   5.701   6.638   5.837  1.5820  0.2957  0.4065
14141TIP3   OH242367   1.253   1.598   3.412 -0.5305  0.2364 -0.0890
14141TIP3    H142368   1.334   1.548   3.423  0.0666  0.8118 -1.5808
14141TIP3    H242369   1.279   1.689   3.429 -0.4459  0.6377 -2.0756
14142TIP3   OH242370   5.069   3.705   3.752 -0.1410 -0.6361 -0.1837
14142TIP3    H142371   5.117   3.718   3.670 -0.1898 -1.0531 -0.2801
14142TIP3    H242372   5.049   3.794   3.782 -0.5928 -0.4861 -0.8950
14143TIP3   OH242373   6.365   7.228   3.574  0.1185  0.1781  0.6608
14143TIP3    H142374   6.421   7.285   3.521  0.1907  0.9398  1.5263
14143TIP3    H242375   6.347   7.279   3.653  0.7958 -1.2696  1.8068
14144TIP3   OH242376   6.305   6.177   1.904 -0.1671 -0.1162 -0.4265
14144TIP3    H142377   6.280   6.170   1.812 -1.7788  0.9549 -0.0991
14144TIP3    H242378   6.260   6.255   1.936 -0.4379 -1.0182  1.5237
14145TIP3   OH242379   1.621   3.487   1.742  0.5742 -0.6277 -0.0223
14145TIP3    H142380   1.544   3.444   1.779  1.6816 -1.4208  1.4713
14145TIP3    H242381   1.667   3.523   1.818  0.8716  1.2640 -1.0347
14146TIP3   OH242382   4.420   0.745   2.848  0.2142  0.4651 -0.2071
14146TIP3    H142383   4.381   0.699   2.774  0.5785  0.6937 -0.5502
14146TIP3    H242384   4.455   0.826   2.810 -0.1258  0.8680  0.3229
14147TIP3   OH242385   6.320   2.279   1.660  0.1155 -0.3395 -0.0852
14147TIP3    H142386   6.335   2.186   1.644  0.9761 -0.4364  1.2140
14147TIP3    H242387   6.239   2.281   1.712 -1.5414 -0.1407 -2.4872
14148TIP3   OH242388   0.243   4.088   5.410  0.6581 -0.1263 -0.1797
14148TIP3    H142389   0.318   4.145   5.426  1.1937 -0.9320  0.3008
14148TIP3    H242390   0.187   4.101   5.486 -0.0846  1.0403 -0.8925
14149TIP3   OH242391   1.818   0.899   6.359  0.3493  0.4762 -0.4163
14149TIP3    H142392   1.783   0.987   6.374  0.3005  0.2033  1.3499
14149TIP3    H242393   1.748   0.852   6.314 -0.0412  1.0291 -0.4016
14150TIP3   OH242394   7.958   2.859   2.126  0.2679 -0.2099 -0.2053
14150TIP3    H142395   8.024   2.795   2.101  0.1387 -0.8284  0.9639
14150TIP3    H242396   7.996   2.903   2.202  1.5743  3.0784 -2.5253
14151TIP3   OH242397   2.351   4.903   2.927  0.5466 -0.5606 -0.0897
14151TIP3    H142398   2.419   4.947   2.977  1.0192 -1.8038  0.4107
14151TIP3    H242399   2.353   4.812   2.958 -1.5956 -0.5682  0.2255
14152TIP3   OH242400   4.265   6.859   4.535  0.3576 -0.2831  1.0083
14152TIP3    H142401   4.327   6.912   4.485 -0.5549 -0.5049 -0.4208
14152TIP3    H242402   4.319   6.798   4.585  1.2911 -0.8798 -0.6673
14153TIP3   OH242403   2.111   7.708   1.268 -0.0484  0.2283  0.6443
14153TIP3    H142404   2.059   7.667   1.337 -1.1242  1.2366  0.4647
14153TIP3    H242405   2.140   7.635   1.213 -2.6953 -0.3147 -0.2141
14154TIP3   OH242406   2.823   3.623   1.030  0.1131 -0.6367  0.2676
14154TIP3    H142407   2.795   3.557   1.094  1.3969 -1.0863  0.4024
14154TIP3    H242408   2.869   3.688   1.082  1.0055 -0.9104 -0.1636
14155TIP3   OH242409   4.124   0.373   5.456 -0.4104 -0.2078 -0.1750
14155TIP3    H142410   4.128   0.320   5.536  2.5788  0.3866  0.2073
14155TIP3    H242411   4.200   0.344   5.405  0.3472  2.4996 -0.7138
14156TIP3   OH242412   2.682   1.031   3.820 -0.5402 -0.0285  0.0591
14156TIP3    H142413   2.732   1.078   3.886  0.4171  0.5560 -1.0339
14156TIP3    H242414   2.669   1.096   3.750 -1.0085 -0.7928 -0.5838
14157TIP3   OH242415   5.858   4.548   0.869  0.6271 -0.3339 -0.1098
14157TIP3    H142416   5.846   4.465   0.823  0.3193  0.5413 -1.6660
14157TIP3    H242417   5.907   4.524   0.948 -0.2605 -2.1199 -0.0391
14158TIP3   OH242418   6.480   5.946   0.836 -0.0859  0.0166 -0.1255
14158TIP3    H142419   6.453   5.854   0.831  1.6453 -0.5541  0.3776
14158TIP3    H242420   6.411   5.988   0.888 -0.4939 -1.1554  0.3188
14159TIP3   OH242421   6.711   6.679   3.758  0.1883  0.4184 -0.6617
14159TIP3    H142422   6.742   6.592   3.735  2.5207  0.7615  0.8129
14159TIP3    H242423   6.779   6.738   3.724  0.8004  1.3109  1.9005
14160TIP3   OH242424   6.862   4.304   2.603 -0.4289 -0.2322  0.3113
14160TIP3    H142425   6.838   4.267   2.519  0.4788 -2.5465  1.0024
14160TIP3    H242426   6.953   4.332   2.592 -0.1632 -0.9494  0.6303
14161TIP3   OH242427   2.401   5.895   5.131 -0.4288 -0.3614 -0.3350
14161TIP3    H142428   2.455   5.960   5.175  1.3970  0.2767 -3.2416
14161TIP3    H242429   2.332   5.945   5.089 -0.6659 -0.6529 -0.2986
14162TIP3   OH242430   2.906   7.125   0.994  0.4471 -0.6287  0.4441
14162TIP3    H142431   2.947   7.039   0.984  0.2840 -0.8261  1.3988
14162TIP3    H242432   2.867   7.142   0.908 -1.2491 -2.4100  0.7704
14163TIP3   OH242433   0.799   0.735   3.815  0.1120 -0.3789 -0.7255
14163TIP3    H142434   0.738   0.808   3.804 -1.2137 -1.8235 -4.2616
14163TIP3    H242435   0.789   0.711   3.907 -1.7671  1.8712 -0.2291
14164TIP3   OH242436   7.982   0.971   5.226 -0.5645  0.4495  0.1708
14164TIP3    H142437   7.983   0.961   5.321  1.1266  1.8354  0.3494
14164TIP3    H242438   7.903   1.022   5.208 -0.4779  0.8610  0.9189
14165TIP3   OH242439   5.126   5.585   3.491  0.9841 -0.4493  0.1624
14165TIP3    H142440   5.077   5.547   3.419  0.9191  0.3991 -0.2587
14165TIP3    H242441   5.169   5.511   3.534  1.8070 -0.8703 -1.3270
14166TIP3   OH242442   0.288   5.269   1.799  0.0412 -0.5365  0.4874
14166TIP3    H142443   0.203   5.272   1.844  0.1740 -4.3185  1.3588
14166TIP3    H242444   0.350   5.302   1.864 -0.7620  5.5614 -1.2373
14167TIP3   OH242445   1.487   6.923   2.007  0.0104  0.3988 -0.1484
14167TIP3    H142446   1.549   6.881   1.948 -0.4780  0.0862 -0.4505
14167TIP3    H242447   1.501   7.017   1.994  1.3558  0.3528  0.7946
14168TIP3   OH242448   7.234   3.755   5.541  0.9116 -0.8980 -0.5125
14168TIP3    H142449   7.298   3.798   5.598  0.1558 -1.3232  0.6803
14168TIP3    H242450   7.178   3.825   5.510  1.9186 -0.5184 -1.5710
14169TIP3   OH242451   6.760   3.784   2.471  0.2290  0.0283  0.0562
14169TIP3    H142452   6.680   3.777   2.419  1.1005  1.7406 -1.6353
14169TIP3    H242453   6.736   3.750   2.557 -1.0497 -3.9386 -1.6110
14170TIP3   OH242454   6.870   1.792   4.786 -0.4386 -0.1605 -0.0640
14170TIP3    H142455   6.862   1.816   4.878  1.0778 -0.7385  0.2452
14170TIP3    H242456   6.833   1.703   4.781 -0.6858 -0.0599 -0.0611
14171TIP3   OH242457   6.797   5.227   3.588  0.0970  0.2243 -0.5910
14171TIP3    H142458   6.860   5.172   3.541 -0.8354 -0.6447 -0.8396
14171TIP3    H242459   6.738   5.261   3.521 -1.4736 -1.3304 -0.0750
14172TIP3   OH242460   1.931   2.880   1.000  0.1710  0.5520  0.1301
14172TIP3    H142461   1.881   2.809   1.040  0.9163 -0.1317 -0.1075
14172TIP3    H242462   1.891   2.892   0.913 -1.0101  1.5715  0.7844
14173TIP3   OH242463   2.465   6.665   3.469  0.6748  0.4138 -0.5231
14173TIP3    H142464   2.559   6.653   3.484  0.4371 -1.1503 -0.1042
14173TIP3    H242465   2.452   6.759   3.476  1.6191  0.4352  3.0736
14174TIP3   OH242466   4.139   0.381   1.646 -0.4717 -0.2065  0.3225
14174TIP3    H142467   4.163   0.465   1.685 -0.0301 -0.0627 -0.2477
14174TIP3    H242468   4.180   0.382   1.559  0.5114 -1.4936  0.7502
14175TIP3   OH242469   1.182   3.292   2.600 -0.1553  0.0389  0.0205
14175TIP3    H142470   1.163   3.276   2.693  1.5242  0.9871  0.5686
14175TIP3    H242471   1.159   3.384   2.586 -1.8329 -0.4815 -0.9368
14176TIP3   OH242472   5.767   2.653   4.728 -0.0576  0.0382 -0.2925
14176TIP3    H142473   5.802   2.731   4.686 -2.0013  0.3130 -1.5071
14176TIP3    H242474   5.832   2.585   4.710  1.0263  1.0403 -0.3278
14177TIP3   OH242475   6.189   6.840   6.489  0.3565 -0.4853 -0.2230
14177TIP3    H142476   6.237   6.922   6.491  0.1162 -0.3272 -0.6775
14177TIP3    H242477   6.169   6.827   6.396 -0.3528 -0.6122 -0.0590
14178TIP3   OH242478   4.108   1.634   2.800 -0.4867  0.4584  0.5517
14178TIP3    H142479   4.168   1.698   2.838 -1.4515  2.5586 -1.2438
14178TIP3    H242480   4.164   1.578   2.745  0.1351  0.9370  0.6914
14179TIP3   OH242481   8.097   2.575   5.427 -0.3816 -0.0688  0.3569
14179TIP3    H142482   8.051   2.659   5.420 -1.8481 -0.8615  0.2172
14179TIP3    H242483   8.034   2.515   5.466  0.7739 -1.0358  0.8268
14180TIP3   OH242484   2.392   7.216   6.044 -0.6389 -0.2664  0.3345
14180TIP3    H142485   2.311   7.249   6.083  1.2837  0.7235  3.8861
14180TIP3    H242486   2.383   7.121   6.046 -1.1718 -0.2000  2.0326
14181TIP3   OH242487   0.422   2.260   1.782 -0.1773  0.0046 -0.3614
14181TIP3    H142488   0.475   2.313   1.841  0.8282 -0.2664 -1.0109
14181TIP3    H242489   0.447   2.170   1.802 -1.6514 -0.2518  0.5173
14182TIP3   OH242490   7.083   0.070   1.718 -0.0587  0.5409 -0.3773
14182TIP3    H142491   7.000   0.097   1.757 -0.2380 -0.2301 -0.1999
14182TIP3    H242492   7.149   0.119   1.767 -0.3447  0.3041  0.2617
14183TIP3   OH242493   5.271   1.153   1.633  0.0730  0.5018  0.2443
14183TIP3    H142494   5.227   1.070   1.615 -1.0099  1.3074 -1.0067
14183TIP3    H242495   5.259   1.205   1.553 -0.3536  2.3206  1.4180
14184TIP3   OH242496   6.862   1.325   3.162 -0.1614 -0.8889 -0.6940
14184TIP3    H142497   6.835   1.257   3.224 -1.2423  1.2715  1.3836
14184TIP3    H242498   6.953   1.342   3.184 -1.1684  1.6772  2.4258
14185TIP3   OH242499   0.630   2.741   3.748 -0.2085 -0.8750  0.8573
14185TIP3    H142500   0.625   2.837   3.738 -1.5932 -1.0113 -0.0108
14185TIP3    H242501   0.671   2.711   3.668  0.1999 -1.0257  1.1194
14186TIP3   OH242502   4.343   4.453   3.400  0.3200 -0.8023  0.3374
14186TIP3    H142503   4.289   4.499   3.465 -0.0568 -1.0995  0.2342
14186TIP3    H242504   4.421   4.426   3.449  0.0037 -1.0960  0.6869
14187TIP3   OH242505   4.298   6.517   4.274  0.0270  0.3705 -0.7200
14187TIP3    H142506   4.362   6.553   4.337  1.0058 -1.6700 -0.4692
14187TIP3    H242507   4.348   6.508   4.193  0.2105 -1.5216 -0.4425
14188TIP3   OH242508   7.848   1.257   5.924  0.0912  0.3166  0.1264
14188TIP3    H142509   7.850   1.182   5.985 -1.8920  0.2632  0.2047
14188TIP3    H242510   7.803   1.326   5.973 -0.1086  0.8029 -0.7287
14189TIP3   OH242511   8.055   6.849   3.775  0.3236  0.0659  0.1064
14189TIP3    H142512   7.997   6.803   3.713 -0.5289  0.9681  0.2155
14189TIP3    H242513   8.003   6.857   3.855  0.2085  1.7442 -0.1040
14190TIP3   OH242514   6.021   1.618   4.632 -0.3640  0.2880 -0.1412
14190TIP3    H142515   6.088   1.687   4.626 -0.2650  0.2097  0.0590
14190TIP3    H242516   6.008   1.591   4.541 -1.2747  1.3915 -0.3659
14191TIP3   OH242517   7.536   6.688   1.956 -0.3922 -0.3656  1.1345
14191TIP3    H142518   7.577   6.735   1.884  0.7649  0.9531  2.5607
14191TIP3    H242519   7.473   6.630   1.915  1.5629 -1.0815 -1.0548
14192TIP3   OH242520   3.644   1.683   1.295  0.5967  0.1764 -0.1700
14192TIP3    H142521   3.612   1.617   1.356  0.2752  0.3796 -0.1168
14192TIP3    H242522   3.689   1.633   1.227 -0.0089 -0.1309 -0.3551
14193TIP3   OH242523   4.463   0.965   2.630 -0.5867  0.5539  0.1771
14193TIP3    H142524   4.470   1.016   2.549 -1.3235 -0.5368 -0.6077
14193TIP3    H242525   4.432   0.879   2.601  0.0069 -0.1421  1.5343
14194TIP3   OH242526   3.887   0.367   1.347  0.8035  0.5725  0.1816
14194TIP3    H142527   3.854   0.277   1.345 -3.2097  1.8552 -0.4079
14194TIP3    H242528   3.880   0.393   1.438  1.6279  0.4197  0.2933
14195TIP3   OH242529   6.651   4.452   4.825 -0.6655  0.5170 -0.4481
14195TIP3    H142530   6.741   4.480   4.808 -0.9753  2.1615  0.3617
14195TIP3    H242531   6.660   4.374   4.879  0.2568 -0.5606 -2.0707
14196TIP3   OH242532   5.912   6.298   3.194  0.1638 -0.2822  0.1448
14196TIP3    H142533   5.906   6.334   3.283  1.1474 -0.8263  0.4464
14196TIP3    H242534   6.004   6.311   3.169  0.3356 -1.7188 -0.0907
14197TIP3   OH242535   5.195   1.262   2.636 -0.4229  0.1188 -0.0675
14197TIP3    H142536   5.237   1.204   2.572 -0.9361 -0.0014 -0.2985
14197TIP3    H242537   5.219   1.350   2.607 -0.5535  0.0614 -0.3581
14198TIP3   OH242538   2.054   0.988   6.267  0.3849 -0.3817 -0.2917
14198TIP3    H142539   1.986   0.949   6.323 -1.1357 -0.6196 -2.1699
14198TIP3    H242540   2.045   1.082   6.281  4.4142 -0.3316  4.6584
14199TIP3   OH242541   7.911   2.416   5.239  0.0524 -0.1067  0.3701
14199TIP3    H142542   7.911   2.327   5.205  3.1279  0.4471 -1.4658
14199TIP3    H242543   7.979   2.416   5.306 -0.3572  0.7383  0.8014
14200TIP3   OH242544   3.053   6.313   4.323 -0.1511 -0.2094 -0.1717
14200TIP3    H142545   3.103   6.232   4.335 -0.5118 -0.4055  0.0155
14200TIP3    H242546   3.120   6.380   4.308  0.3936  0.1444  3.1869
14201TIP3   OH242547   4.878   7.200   0.158  0.1135  0.1739 -0.0301
14201TIP3    H142548   4.858   7.293   0.174  1.6252  0.5410 -0.0564
14201TIP3    H242549   4.921   7.171   0.238 -0.4737 -0.5444  0.0246
14202TIP3   OH242550   5.947   7.341   0.957 -0.2416  0.1157  0.2572
14202TIP3    H142551   5.935   7.333   0.863 -1.8935 -0.9524  0.5158
14202TIP3    H242552   5.989   7.259   0.984 -0.1512  0.2368  0.4919
14203TIP3   OH242553   4.121   2.880   3.613  0.1411  0.1931 -0.4360
14203TIP3    H142554   4.060   2.811   3.586 -1.6145  0.9873  1.2353
14203TIP3    H242555   4.153   2.917   3.531 -0.8223 -0.9612 -1.3744
14204TIP3   OH242556   6.860   1.536   5.373  0.2619  0.3383 -0.1621
14204TIP3    H142557   6.817   1.451   5.360  0.0611  0.4428 -0.1947
14204TIP3    H242558   6.799   1.599   5.334 -2.3157  1.1270  4.4081
14205TIP3   OH242559   0.469   1.396   3.875  0.3010  0.0465  0.1014
14205TIP3    H142560   0.397   1.350   3.832 -0.7168  0.5601  1.1890
14205TIP3    H242561   0.515   1.440   3.803 -1.4191  0.9852 -0.5030
14206TIP3   OH242562   2.012   4.060   1.356  0.6216  0.2713  0.2434
14206TIP3    H142563   2.083   4.020   1.306  0.5862 -0.9756  1.1431
14206TIP3    H242564   1.936   4.005   1.339  0.6243 -0.2170  1.6939
14207TIP3   OH242565   6.030   7.359   5.312 -0.6901 -0.0599 -0.2415
14207TIP3    H142566   6.117   7.323   5.331 -0.1538  1.8916  1.2615
14207TIP3    H242567   5.982   7.352   5.394 -1.0022  1.3784 -0.2687
14208TIP3   OH242568   7.892   3.043   1.802 -0.4911 -0.2375  0.9708
14208TIP3    H142569   7.834   3.119   1.801  1.9823  1.8039  1.8603
14208TIP3    H242570   7.933   3.044   1.715  0.1152 -0.0427  1.2518
14209TIP3   OH242571   3.604   0.687   6.356  0.4547  0.2854 -0.2573
14209TIP3    H142572   3.580   0.619   6.294 -0.4741  0.1856  0.1941
14209TIP3    H242573   3.675   0.649   6.408 -0.1042 -0.3669  0.0358
14210TIP3   OH242574   2.069   1.440   1.137  0.1248 -0.4614 -0.2547
14210TIP3    H142575   2.033   1.373   1.079  0.4195  0.3663 -1.4376
14210TIP3    H242576   1.995   1.498   1.155  0.2140 -0.2889 -0.4400
14211TIP3   OH242577   4.129   5.152   5.875 -0.3592  0.3111  0.8510
14211TIP3    H142578   4.210   5.102   5.867  1.3023  2.8213  0.8450
14211TIP3    H242579   4.112   5.185   5.787  0.3964  2.2854  1.3773
14212TIP3   OH242580   4.011   3.151   1.713  0.4689  0.4936 -0.1101
14212TIP3    H142581   4.000   3.121   1.803  0.9153  0.2568 -0.1354
14212TIP3    H242582   4.045   3.240   1.722 -2.9820  1.9555  0.0090
14213TIP3   OH242583   2.693   6.497   4.657  0.0294  0.3782 -0.1599
14213TIP3    H142584   2.764   6.434   4.668 -0.0276  0.1080 -1.2218
14213TIP3    H242585   2.646   6.496   4.740  1.7230  1.1479  0.8655
14214TIP3   OH242586   0.123   6.655   2.640 -0.4434  0.0033  0.3830
14214TIP3    H142587   0.210   6.628   2.670 -0.8937 -1.3497  0.5573
14214TIP3    H242588   0.137   6.681   2.548  0.2974  0.7237  0.6805
14215TIP3   OH242589   3.216   4.129   1.618  0.0731 -0.0679 -0.0075
14215TIP3    H142590   3.281   4.188   1.655 -0.2491 -0.2472  0.8623
14215TIP3    H242591   3.132   4.170   1.637 -0.1310  2.3859 -4.7368
14216TIP3   OH242592   4.858   5.437   5.991 -0.1697 -0.2922 -0.5679
14216TIP3    H142593   4.774   5.481   6.002  0.4067  0.5648  0.5296
14216TIP3    H242594   4.894   5.431   6.079 -0.1849 -2.9364 -0.6643
14217TIP3   OH242595   4.344   2.376   6.486 -0.2270  0.4343  0.2299
14217TIP3    H142596   4.326   2.327   6.566 -1.6332  0.7702  0.1570
14217TIP3    H242597   4.330   2.468   6.510  0.7489  0.6587 -0.0461
14218TIP3   OH242598   5.459   0.198   0.777  0.1591  0.1651  0.3476
14218TIP3    H142599   5.493   0.252   0.706 -0.5565  2.1681  1.4389
14218TIP3    H242600   5.365   0.219   0.781 -0.1017 -0.9954  0.9909
14219TIP3   OH242601   6.266   6.957   1.943  1.2346 -0.3213  0.3394
14219TIP3    H142602   6.354   6.966   1.908  0.8826  2.1073 -0.0640
14219TIP3    H242603   6.225   6.891   1.887  1.8392  0.7977 -1.5310
14220TIP3   OH242604   7.512   6.489   4.139  0.3952 -0.7424 -0.1471
14220TIP3    H142605   7.531   6.453   4.226  0.9600  0.2585  0.1512
14220TIP3    H242606   7.598   6.506   4.101  0.1413 -0.0847 -0.4341
14221TIP3   OH242607   2.134   6.692   2.569 -0.2040 -0.1731 -0.0908
14221TIP3    H142608   2.166   6.782   2.578 -0.2430  0.2436 -3.1409
14221TIP3    H242609   2.213   6.640   2.554 -0.3805 -0.2171 -0.8929
14222TIP3   OH242610   6.428   4.241   3.628 -0.2002  0.0315  0.1380
14222TIP3    H142611   6.425   4.251   3.723  0.7288  1.6399  0.0465
14222TIP3    H242612   6.519   4.222   3.608 -0.7148 -2.1861 -0.3301
14223TIP3   OH242613   5.166   4.391   2.741 -0.6087  0.0551 -0.3468
14223TIP3    H142614   5.165   4.314   2.683 -0.9797 -0.8924  0.8855
14223TIP3    H242615   5.178   4.355   2.828 -1.2646  1.3761  0.3128
14224TIP3   OH242616   0.372   2.864   4.788 -0.3503  0.4267  0.2385
14224TIP3    H142617   0.364   2.794   4.724  2.2856  1.1825 -1.0859
14224TIP3    H242618   0.375   2.818   4.873 -0.2365 -0.9265 -0.4634
14225TIP3   OH242619   3.733   0.871   0.387 -0.4128  0.1233  0.7098
14225TIP3    H142620   3.739   0.795   0.445  1.2804  0.1813  0.6642
14225TIP3    H242621   3.645   0.865   0.348 -0.3683 -1.7317  0.7966
14226TIP3   OH242622   2.246   7.270   3.044 -0.3356 -0.6427  0.0281
14226TIP3    H142623   2.291   7.192   3.012  0.7190  0.4901 -1.3681
14226TIP3    H242624   2.316   7.333   3.063 -1.2374  0.7362 -0.9981
14227TIP3   OH242625   0.463   3.872   4.161 -0.2160 -0.0078  0.0916
14227TIP3    H142626   0.460   3.953   4.212 -1.8648 -1.0227  1.7789
14227TIP3    H242627   0.532   3.820   4.202  0.8668  0.5054 -1.0129
14228TIP3   OH242628   4.053   6.329   5.422  0.4922 -0.0920 -0.4075
14228TIP3    H142629   4.128   6.277   5.394  0.9229  0.1754  0.2211
14228TIP3    H242630   4.050   6.316   5.517 -0.0785  0.1374 -0.3934
14229TIP3   OH242631   5.053   6.064   1.153 -0.5086  1.0930 -0.1409
14229TIP3    H142632   5.110   5.987   1.151  1.5356  2.5113 -0.7579
14229TIP3    H242633   5.062   6.098   1.242 -0.3652  1.3382 -0.2490
14230TIP3   OH242634   1.441   7.360   6.486 -0.1720  0.2564  0.6748
14230TIP3    H142635   1.527   7.388   6.456  0.3278 -0.3206  1.5211
14230TIP3    H242636   1.436   7.391   6.577 -0.3725 -0.7201  1.0096
14231TIP3   OH242637   0.842   5.092   5.794  0.2950 -0.4500  0.0544
14231TIP3    H142638   0.753   5.127   5.791  0.2561 -0.5464  0.0721
14231TIP3    H242639   0.839   5.017   5.735 -0.0024 -1.2912  1.1055
14232TIP3   OH242640   5.781   4.219   3.767 -0.1251 -0.1035 -0.4191
14232TIP3    H142641   5.748   4.133   3.738 -2.8107  0.5692  0.2938
14232TIP3    H242642   5.864   4.229   3.721 -0.3946 -2.4691 -1.6351
14233TIP3   OH242643   4.177   5.533   2.551  0.1576 -0.4931  0.2145
14233TIP3    H142644   4.129   5.465   2.504  0.2901 -1.1525  1.0007
14233TIP3    H242645   4.164   5.612   2.500 -0.7860 -0.9168 -0.2150
14234TIP3   OH242646   4.471   3.546   5.826  0.2008 -0.3600  0.6686
14234TIP3    H142647   4.437   3.608   5.762 -0.4910  0.5221  1.8579
14234TIP3    H242648   4.555   3.583   5.853  0.1944 -0.3976  0.7409
14235TIP3   OH242649   4.928   4.823   1.624 -0.1850  0.2607 -0.0026
14235TIP3    H142650   4.997   4.789   1.566 -0.5457 -2.1879  0.8749
14235TIP3    H242651   4.853   4.836   1.566 -0.3807 -1.6250 -0.2412
14236TIP3   OH242652   7.111   6.075   4.215  0.4258  0.3349  0.2613
14236TIP3    H142653   7.087   6.047   4.303  1.5795 -0.2605  0.4068
14236TIP3    H242654   7.177   6.012   4.187 -1.8636 -1.2031 -2.1608
14237TIP3   OH242655   3.399   0.209   5.722  0.1531 -0.4599  0.0754
14237TIP3    H142656   3.353   0.136   5.681 -1.1878  0.3078  0.1878
14237TIP3    H242657   3.409   0.274   5.653  1.5743 -0.8134 -0.0934
14238TIP3   OH242658   0.100   0.527   5.359 -1.0878 -0.6122  0.1038
14238TIP3    H142659   0.118   0.457   5.422  1.5582 -0.5523 -0.4509
14238TIP3    H242660   0.013   0.559   5.383 -2.2085 -3.7250  0.6718
14239TIP3   OH242661   5.163   4.967   3.603 -0.1608 -0.2599  0.2588
14239TIP3    H142662   5.238   4.993   3.657  0.2491 -0.4375 -0.2147
14239TIP3    H242663   5.095   5.030   3.625  0.6958  1.0157 -0.6096
14240TIP3   OH242664   0.882   1.902   6.037  0.0719 -0.3457  0.3495
14240TIP3    H142665   0.968   1.867   6.015  0.1702  0.1778 -0.1100
14240TIP3    H242666   0.821   1.831   6.016  0.5014 -1.3223  2.1648
14241TIP3   OH242667   0.406   6.120   1.787  0.4301  0.4688  0.2005
14241TIP3    H142668   0.335   6.173   1.750  1.0044  0.3678 -1.1246
14241TIP3    H242669   0.453   6.087   1.710  1.4510 -0.0871  1.0400
14242TIP3   OH242670   0.953   5.686   3.994  0.3110  0.2630 -0.1730
14242TIP3    H142671   1.015   5.630   4.040  1.5513  1.2495 -0.5933
14242TIP3    H242672   0.983   5.686   3.903 -0.0383  1.0984 -0.3007
14243TIP3   OH242673   5.005   2.003   0.651  0.6928 -0.1722 -0.0249
14243TIP3    H142674   4.971   2.082   0.610  1.1273  0.0363  0.0186
14243TIP3    H242675   4.929   1.945   0.657  0.4718  0.0681 -0.4650
14244TIP3   OH242676   2.582   7.553   1.034 -0.0728 -0.3751 -0.0830
14244TIP3    H142677   2.543   7.528   1.117 -0.4802 -0.7630 -0.3847
14244TIP3    H242678   2.626   7.636   1.051 -0.8847 -0.0209  0.3040
14245TIP3   OH242679   4.135   7.784   4.686  0.5453  0.0991 -0.4734
14245TIP3    H142680   4.111   7.876   4.675 -0.7459 -0.2452 -0.7413
14245TIP3    H242681   4.109   7.763   4.776 -2.6151 -0.9165 -1.4937
14246TIP3   OH242682   3.471   0.217   0.397 -0.0428  0.1311  0.0151
14246TIP3    H142683   3.515   0.234   0.481 -1.1263 -0.8375  0.8190
14246TIP3    H242684   3.453   0.123   0.399  0.0823  0.0695 -1.3992
14247TIP3   OH242685   5.706   5.800   2.382 -0.2328  0.0097  0.1134
14247TIP3    H142686   5.629   5.778   2.435  0.5500  1.4970  1.9783
14247TIP3    H242687   5.779   5.793   2.442  0.8428  0.7374 -1.0686
14248TIP3   OH242688   6.552   3.685   4.390 -0.3073 -0.1979  0.1260
14248TIP3    H142689   6.559   3.738   4.470  1.1800 -0.7161  0.3622
14248TIP3    H242690   6.462   3.701   4.360 -0.3068  1.4823  0.8575
14249TIP3   OH242691   4.058   3.512   3.259 -0.0209 -0.2207 -0.3693
14249TIP3    H142692   4.079   3.566   3.335  0.1389 -0.0177 -0.5558
14249TIP3    H242693   4.040   3.425   3.294 -1.1416  0.1536  0.0392
14250TIP3   OH242694   0.708   1.612   4.831 -0.4067 -0.2188  0.5209
14250TIP3    H142695   0.696   1.533   4.779  1.5191  1.2068 -2.3478
14250TIP3    H242696   0.672   1.682   4.776  0.5040  1.2278  1.7045
14251TIP3   OH242697   2.561   4.920   6.202 -0.6395 -0.0034 -0.2599
14251TIP3    H142698   2.586   4.835   6.238 -1.2392 -0.3488 -0.6360
14251TIP3    H242699   2.565   4.908   6.107 -0.7200  0.3901 -0.3132
14252TIP3   OH242700   5.265   4.109   3.525  0.2942  0.1907 -0.7473
14252TIP3    H142701   5.326   4.069   3.464  1.0877  3.8719 -2.6518
14252TIP3    H242702   5.184   4.120   3.475 -0.2329  0.0589  0.0553
14253TIP3   OH242703   5.343   7.163   3.441 -0.0139  0.5616 -0.0760
14253TIP3    H142704   5.355   7.127   3.529  0.4008  1.4960  0.2622
14253TIP3    H242705   5.400   7.110   3.385 -0.9803 -0.6483  0.0391
14254TIP3   OH242706   6.716   7.489   4.421 -0.0115  0.2988  0.0440
14254TIP3    H142707   6.711   7.505   4.515  0.1769  0.9351 -0.0500
14254TIP3    H242708   6.695   7.573   4.381  1.1957  0.3922 -0.4652
14255TIP3   OH242709   7.528   5.371   1.652 -0.8312  0.2584 -1.0049
14255TIP3    H142710   7.595   5.439   1.656  3.8609 -3.8581  1.4138
14255TIP3    H242711   7.558   5.311   1.583 -1.3926 -2.1473  0.6924
14256TIP3   OH242712   7.551   7.388   6.446 -0.0033 -0.2805 -0.6433
14256TIP3    H142713   7.560   7.479   6.474 -0.5339 -0.0076 -1.3375
14256TIP3    H242714   7.631   7.346   6.476  0.4850  0.5365 -0.7806
14257TIP3   OH242715   1.455   0.173   1.635 -0.1586  0.2049  0.1373
14257TIP3    H142716   1.550   0.179   1.642 -0.0251  0.8890 -1.6288
14257TIP3    H242717   1.422   0.208   1.718  1.1186  0.7620  0.4326
14258TIP3   OH242718   2.300   4.548   1.395 -0.1237 -0.1607  0.2079
14258TIP3    H142719   2.248   4.476   1.359 -1.2016  0.6905 -0.0012
14258TIP3    H242720   2.349   4.581   1.320 -0.3974 -0.0416  0.0785
14259TIP3   OH242721   7.871   3.722   5.950  0.3482  0.2883  0.0371
14259TIP3    H142722   7.849   3.644   5.900 -1.0218  0.9360 -0.4325
14259TIP3    H242723   7.796   3.735   6.008  2.4676 -1.2665  3.4395
14260TIP3   OH242724   6.544   2.934   1.115 -0.0411 -0.4084 -0.8260
14260TIP3    H142725   6.448   2.937   1.120  0.0151 -0.3383  1.5243
14260TIP3    H242726   6.569   2.860   1.170  1.2854  0.2044 -0.5521
14261TIP3   OH242727   1.212   1.061   1.294  0.3017 -0.2592 -0.1105
14261TIP3    H142728   1.215   1.009   1.213  1.0398  0.2718 -0.4352
14261TIP3    H242729   1.301   1.057   1.328  0.2433  0.3961  0.1225
14262TIP3   OH242730   1.677   1.398   3.667  0.0089 -0.1012  0.0065
14262TIP3    H142731   1.661   1.322   3.722  0.9479  0.4954  1.1418
14262TIP3    H242732   1.772   1.410   3.670 -0.1747  1.4199  0.2539
14263TIP3   OH242733   3.421   3.543   3.578 -0.1349 -0.3558  0.4894
14263TIP3    H142734   3.425   3.489   3.657 -0.3614  0.1243  0.8391
14263TIP3    H242735   3.449   3.630   3.607  0.3869 -0.3225 -0.1030
14264TIP3   OH242736   8.118   0.716   2.784  0.4997 -0.2934 -0.1122
14264TIP3    H142737   8.140   0.626   2.763 -0.1655 -0.4793 -0.0138
14264TIP3    H242738   8.186   0.743   2.846 -0.3362 -1.3335  1.3236
14265TIP3   OH242739   6.615   0.089   4.748 -0.1420 -0.4151 -0.2682
14265TIP3    H142740   6.524   0.094   4.778  0.1543 -0.5920  0.7171
14265TIP3    H242741   6.650   0.013   4.793  0.7527  0.2087  0.1075
14266TIP3   OH242742   7.290   2.433   2.515 -0.2395 -0.0510 -0.0387
14266TIP3    H142743   7.315   2.403   2.603  0.8435 -2.0054 -0.9524
14266TIP3    H242744   7.370   2.426   2.463 -0.1954  3.4775 -0.6834
14267TIP3   OH242745   0.160   6.987   3.585 -0.2109  0.1301 -0.1559
14267TIP3    H142746   0.082   6.989   3.530  1.0272 -0.9940 -2.0662
14267TIP3    H242747   0.232   7.012   3.527  1.1575 -1.0806  0.9310
14268TIP3   OH242748   7.486   3.829   5.354  0.0312  0.1755 -0.2466
14268TIP3    H142749   7.433   3.864   5.283 -0.8603  0.8520  0.7185
14268TIP3    H242750   7.575   3.861   5.337 -0.7641  3.1698  0.6911
14269TIP3   OH242751   2.934   2.080   0.006  0.0714 -0.8876  0.1206
14269TIP3    H142752   3.014   2.116  -0.033 -0.9158  1.6245  0.2497
14269TIP3    H242753   2.960   2.051   0.093  0.7575  0.3753  0.3548
14270TIP3   OH242754   8.077   5.783   1.901 -0.1234 -0.1333  0.0696
14270TIP3    H142755   7.989   5.821   1.901 -0.3750 -0.6787 -0.6237
14270TIP3    H242756   8.118   5.816   1.980 -0.9016  0.2630  0.3146
14271TIP3   OH242757   5.688   6.318   1.448 -0.0973  0.1169 -0.2342
14271TIP3    H142758   5.604   6.325   1.492  0.4408  0.1229  0.8259
14271TIP3    H242759   5.731   6.402   1.464  0.4792 -0.2192  0.0491
14272TIP3   OH242760   5.748   7.570   0.905 -0.2065 -0.1109 -0.1818
14272TIP3    H142761   5.823   7.511   0.909 -1.5609 -1.8857  0.2060
14272TIP3    H242762   5.780   7.652   0.944  1.4019 -0.9251  0.3072
14273TIP3   OH242763   7.278   5.062   1.686 -0.2035 -0.1055  0.4154
14273TIP3    H142764   7.241   5.035   1.602  1.1427 -1.3722  0.1836
14273TIP3    H242765   7.207   5.107   1.730 -1.0321  0.3508 -1.2867
14274TIP3   OH242766   4.703   2.298   2.503 -0.0609 -0.0343 -0.0085
14274TIP3    H142767   4.718   2.268   2.593  0.2403 -0.7119 -0.2819
14274TIP3    H242768   4.630   2.246   2.472 -0.7986  0.8763  0.1563
14275TIP3   OH242769   5.997   6.462   2.896 -0.3015 -0.2380 -0.4283
14275TIP3    H142770   5.967   6.381   2.855 -3.7565  0.8074 -0.2100
14275TIP3    H242771   6.003   6.525   2.824  1.9255 -0.4468 -0.5186
14276TIP3   OH242772   5.080   6.845   6.521 -0.4171  0.2116  0.1702
14276TIP3    H142773   5.116   6.807   6.601 -0.1258  1.1488  0.4907
14276TIP3    H242774   5.143   6.913   6.496 -0.6870  0.1682 -0.6598
14277TIP3   OH242775   5.469   3.444   0.237  0.0467 -0.0707 -0.4491
14277TIP3    H142776   5.564   3.457   0.239 -0.0453  0.4944  1.0805
14277TIP3    H242777   5.457   3.353   0.265  0.1218 -0.0898 -0.4771
14278TIP3   OH242778   0.142   0.448   0.808 -0.3216  0.3062 -0.0267
14278TIP3    H142779   0.206   0.380   0.785 -0.5653  0.6753 -2.0244
14278TIP3    H242780   0.169   0.524   0.757 -2.0481  0.6201 -0.5580
14279TIP3   OH242781   2.805   1.174   6.713  0.0094 -0.5461  0.3482
14279TIP3    H142782   2.813   1.090   6.758 -2.5836 -0.8279  0.4726
14279TIP3    H242783   2.770   1.151   6.627 -0.9070  0.3972  0.4567
14280TIP3   OH242784   4.457   4.324   1.728 -0.0386  0.1293  0.2863
14280TIP3    H142785   4.466   4.328   1.824  0.0726  2.2613  0.2364
14280TIP3    H242786   4.396   4.252   1.713 -0.6647  0.2413  2.0214
14281TIP3   OH242787   6.478   3.537   0.060  0.5761 -0.0061  0.0433
14281TIP3    H142788   6.512   3.592  -0.010  0.5488  0.3767  0.3305
14281TIP3    H242789   6.541   3.545   0.131  0.8111 -0.7105 -0.0772
14282TIP3   OH242790   0.547   2.785   0.616 -0.1202  0.5185  0.0077
14282TIP3    H142791   0.501   2.863   0.647  0.8732  0.6614  1.1542
14282TIP3    H242792   0.533   2.720   0.684  0.3255  0.1657 -0.2317
14283TIP3   OH242793   7.458   1.276   2.079 -0.0002  0.0105 -0.0665
14283TIP3    H142794   7.392   1.338   2.108 -0.0039 -0.4914  1.0591
14283TIP3    H242795   7.465   1.213   2.151  1.6789  0.0302 -0.1589
14284TIP3   OH242796   6.281   5.106   6.170  0.2885  0.1511 -0.3928
14284TIP3    H142797   6.242   5.147   6.092  1.7645 -1.0393 -1.8191
14284TIP3    H242798   6.333   5.176   6.210 -0.2617  0.7008 -0.6166
14285TIP3   OH242799   6.359   3.952   6.506 -0.6333  0.0682 -0.5152
14285TIP3    H142800   6.263   3.955   6.511 -0.5968  1.6799 -0.2802
14285TIP3    H242801   6.378   3.984   6.418 -0.2687  2.0376  0.2280
14286TIP3   OH242802   3.417   5.964   1.963  0.1674 -0.4441  0.8002
14286TIP3    H142803   3.325   5.980   1.942  0.1610  0.9542  1.7696
14286TIP3    H242804   3.466   6.009   1.894  0.1452 -1.5849  0.0176
14287TIP3   OH242805   1.811   6.818   5.522 -0.7179  0.1909 -0.4050
14287TIP3    H142806   1.870   6.743   5.525 -0.9976 -0.0183 -0.0389
14287TIP3    H242807   1.790   6.835   5.613 -1.7515 -0.1609 -0.5657
14288TIP3   OH242808   6.137   5.060   4.935  0.1459 -0.1011 -0.1575
14288TIP3    H142809   6.167   5.137   4.982 -0.2106 -0.5373  0.8113
14288TIP3    H242810   6.218   5.018   4.905  0.3885  0.1296  0.1664
14289TIP3   OH242811   0.955   5.747   3.356  0.5629 -0.0794  0.1583
14289TIP3    H142812   0.898   5.791   3.420  1.4497 -0.0296  0.9357
14289TIP3    H242813   1.034   5.801   3.353  0.8621 -0.5354 -0.3845
14290TIP3   OH242814   3.560   3.166   4.433  0.1527 -0.4369 -0.2805
14290TIP3    H142815   3.536   3.081   4.398  1.3933 -0.4051 -1.2623
14290TIP3    H242816   3.654   3.159   4.451  0.0364  0.3496  0.7624
14291TIP3   OH242817   3.783   1.567   4.732  0.3997 -0.4130 -0.5208
14291TIP3    H142818   3.813   1.485   4.692  0.5667 -0.3867 -0.4495
14291TIP3    H242819   3.863   1.607   4.767  0.6248  0.7449 -2.2679
14292TIP3   OH242820   1.540   7.765   0.046  0.0627 -0.5348 -0.2670
14292TIP3    H142821   1.538   7.685   0.099 -1.4230 -0.6135 -0.4198
14292TIP3    H242822   1.633   7.789   0.044  0.2563 -0.8759  1.8550
14293TIP3   OH242823   6.314   6.177   3.422  0.3479  0.1579  0.6539
14293TIP3    H142824   6.305   6.219   3.508  2.1955 -1.9841  1.9925
14293TIP3    H242825   6.324   6.084   3.441 -1.2139 -0.6829 -2.0452
14294TIP3   OH242826   1.990   2.547   1.173  0.4094 -0.4328  0.2563
14294TIP3    H142827   1.955   2.469   1.132  0.8705 -0.7597  0.4738
14294TIP3    H242828   1.916   2.608   1.178  0.0536 -0.8529  0.0833
14295TIP3   OH242829   0.155   5.965   4.488  0.3450 -0.4449  0.1935
14295TIP3    H142830   0.181   5.941   4.577  2.6420 -0.3615 -0.3831
14295TIP3    H242831   0.113   6.050   4.497  1.3765 -0.0146  1.1189
14296TIP3   OH242832   0.728   3.602   1.801  0.3955  0.2629 -0.4510
14296TIP3    H142833   0.813   3.581   1.840 -0.5515  0.4887  1.9182
14296TIP3    H242834   0.693   3.672   1.856 -1.8854 -0.7303 -0.5161
14297TIP3   OH242835   2.356   4.794   3.729 -0.4336 -0.2861 -0.0981
14297TIP3    H142836   2.265   4.824   3.729  0.0501  1.3359  1.2496
14297TIP3    H242837   2.390   4.821   3.814  0.9033 -2.2221  0.0363
14298TIP3   OH242838   5.636   7.318   5.936 -0.5000  0.2167 -0.0619
14298TIP3    H142839   5.655   7.310   6.030  0.1913  1.5617 -0.0590
14298TIP3    H242840   5.543   7.340   5.932 -1.4290 -3.2153  0.0970
14299TIP3   OH242841   6.296   6.615   2.561  0.5004 -0.2936  0.5219
14299TIP3    H142842   6.336   6.687   2.512 -0.4950 -0.3762 -0.4668
14299TIP3    H242843   6.295   6.542   2.498 -2.0078 -0.0273  0.1352
14300TIP3   OH242844   1.819   2.182   5.487  0.4744  0.1218 -0.0485
14300TIP3    H142845   1.824   2.141   5.574  0.8489  1.3410  0.5345
14300TIP3    H242846   1.904   2.161   5.447  0.4261 -0.1769 -0.0003
14301TIP3   OH242847   1.612   5.075   3.022  0.1553  0.1049  0.5677
14301TIP3    H142848   1.536   5.070   3.079 -0.2330  0.6620  0.1084
14301TIP3    H242849   1.666   5.144   3.060  0.0711  0.2242  0.4722
14302TIP3   OH242850   0.648   5.745   3.210 -0.2318  0.3556 -0.3215
14302TIP3    H142851   0.689   5.743   3.296  1.3132  2.5661 -0.9103
14302TIP3    H242852   0.633   5.838   3.192 -2.0769 -0.1591 -1.7537
14303TIP3   OH242853   3.306   7.714   3.588  0.1635  0.7357  0.7073
14303TIP3    H142854   3.343   7.757   3.665 -0.5169  0.9824  0.9007
14303TIP3    H242855   3.229   7.766   3.565 -0.7792 -0.4363  1.0490
14304TIP3   OH242856   2.225   7.024   5.771  0.3645  0.0731 -0.4943
14304TIP3    H142857   2.188   7.091   5.713  0.3932 -1.3741 -2.2815
14304TIP3    H242858   2.155   7.006   5.834 -1.0223 -0.6685 -2.1538
14305TIP3   OH242859   7.033   1.736   6.129 -0.2207  0.0022 -0.0207
14305TIP3    H142860   6.973   1.720   6.055 -0.5063 -0.1065  0.2345
14305TIP3    H242861   6.975   1.757   6.202  0.1056  1.4733 -0.1491
14306TIP3   OH242862   3.063   4.272   5.499  0.5196  0.0958  0.2090
14306TIP3    H142863   3.119   4.211   5.452 -0.1655 -1.4444  1.2939
14306TIP3    H242864   3.070   4.245   5.591 -0.6624  0.9675  0.5808
14307TIP3   OH242865   1.347   7.521   3.809  0.1081  0.3249 -0.0572
14307TIP3    H142866   1.388   7.436   3.794 -0.4626  0.0523 -0.0830
14307TIP3    H242867   1.324   7.552   3.721 -2.1625 -0.7408  0.1023
14308TIP3   OH242868   6.974   4.724   4.537 -0.0105 -0.6596 -0.7670
14308TIP3    H142869   7.034   4.775   4.591 -0.8651  1.0295 -1.3316
14308TIP3    H242870   6.996   4.749   4.447 -1.3489 -0.1934 -0.9907
14309TIP3   OH242871   7.758   4.572   3.731 -0.1954  0.2279  0.1958
14309TIP3    H142872   7.776   4.655   3.777  0.1308  0.0786  0.3382
14309TIP3    H242873   7.663   4.570   3.724 -0.1791  0.9127 -0.3592
14310TIP3   OH242874   1.787   1.818   1.106 -0.2542 -0.1136  0.2802
14310TIP3    H142875   1.799   1.731   1.144  1.1838  0.1182  0.4081
14310TIP3    H242876   1.703   1.848   1.140 -1.0612 -1.6814 -0.2382
14311TIP3   OH242877   0.528   2.160   0.406  0.2202 -0.2012 -0.3744
14311TIP3    H142878   0.520   2.143   0.313  1.6923 -1.5202 -0.2934
14311TIP3    H242879   0.467   2.233   0.422 -0.8536 -0.6424 -2.1305
14312TIP3   OH242880   4.936   0.104   5.950 -0.6168 -0.2615  0.7333
14312TIP3    H142881   4.952   0.131   6.040 -0.1125  0.9899  0.3053
14312TIP3    H242882   4.962   0.012   5.946  1.5944  0.2825  1.3305
14313TIP3   OH242883   1.364   7.552   0.559 -0.5901 -0.6601  1.1010
14313TIP3    H142884   1.299   7.616   0.529  1.0561  0.0936 -1.1101
14313TIP3    H242885   1.387   7.581   0.648 -1.9254  0.1304  1.2127
14314TIP3   OH242886   8.171   6.090   0.092  1.0785  0.2319 -0.0595
14314TIP3    H142887   8.239   6.137   0.140  0.0863  1.6789 -0.0200
14314TIP3    H242888   8.218   6.046   0.021  2.3017 -0.3805  1.0717
14315TIP3   OH242889   8.095   6.993   4.347  0.0711 -0.6593  0.7140
14315TIP3    H142890   8.158   7.009   4.276  0.6303  0.6815  1.4585
14315TIP3    H242891   8.063   6.905   4.331  2.7684 -1.7486  0.7642
14316TIP3   OH242892   6.295   6.289   4.854  0.5322 -0.0019 -0.0246
14316TIP3    H142893   6.205   6.295   4.884  1.2045  0.2198  2.0793
14316TIP3    H242894   6.295   6.331   4.768 -1.9464 -2.7122 -1.5100
14317TIP3   OH242895   3.003   6.329   2.193  0.7441 -0.1532  0.2070
14317TIP3    H142896   3.073   6.343   2.256 -1.7896  2.3895  2.7133
14317TIP3    H242897   2.974   6.240   2.209  0.1749  0.4101  2.7744
14318TIP3   OH242898   4.263   0.707   0.846 -0.2055 -0.0872 -0.5851
14318TIP3    H142899   4.175   0.743   0.837  0.0115  0.4696 -0.4826
14318TIP3    H242900   4.258   0.650   0.923 -0.2524  0.6165 -0.0664
14319TIP3   OH242901   5.674   0.543   2.193  0.0755 -0.2871 -0.2870
14319TIP3    H142902   5.761   0.510   2.173  0.1338 -0.6216  0.4890
14319TIP3    H242903   5.674   0.557   2.288 -1.5367 -2.7625  0.1646
14320TIP3   OH242904   2.434   0.204   0.499  0.5035  0.2260  0.4560
14320TIP3    H142905   2.505   0.141   0.505  0.4912  0.2079  0.4098
14320TIP3    H242906   2.463   0.267   0.432  0.3866  0.1046  0.2912
14321TIP3   OH242907   0.083   3.488   3.537  0.1932  0.3968  0.2790
14321TIP3    H142908   0.161   3.544   3.540  0.9930 -0.5685 -1.1839
14321TIP3    H242909   0.109   3.410   3.586  0.3717 -0.1603 -0.6788
14322TIP3   OH242910   6.716   7.102   3.611  0.0468 -0.0336  0.0115
14322TIP3    H142911   6.649   7.143   3.665 -0.6922 -0.5533 -0.4903
14322TIP3    H242912   6.764   7.175   3.573  0.5446  0.3345  1.3141
14323TIP3   OH242913   4.270   4.643   5.013 -0.1360  0.7186  0.1027
14323TIP3    H142914   4.186   4.603   4.988  0.5478  0.5735 -2.2535
14323TIP3    H242915   4.332   4.609   4.948  1.3321  2.3559  0.5962
14324TIP3   OH242916   6.111   0.790   2.862  0.0974 -0.4769 -0.3699
14324TIP3    H142917   6.198   0.758   2.884  0.2321  0.4339  0.4883
14324TIP3    H242918   6.062   0.788   2.944  0.0548  1.2708 -0.3194
14325TIP3   OH242919   4.436   2.722   1.163 -0.2084 -0.4864  0.4265
14325TIP3    H142920   4.497   2.792   1.139 -0.0019  0.6550  3.6978
14325TIP3    H242921   4.357   2.741   1.112  1.0751 -0.1217 -1.5258
14326TIP3   OH242922   0.679   2.531   5.300  0.1917 -0.1149  0.1298
14326TIP3    H142923   0.697   2.534   5.206  1.5149 -1.7113  0.2934
14326TIP3    H242924   0.607   2.594   5.312  0.5964  0.8108 -1.7878
14327TIP3   OH242925   6.036   6.307   4.942  0.1846  0.4348  0.4875
14327TIP3    H142926   5.975   6.262   5.001  0.9011  0.3663  1.1946
14327TIP3    H242927   6.012   6.400   4.950 -0.8265  0.2784 -0.4311
14328TIP3   OH242928   7.057   1.383   2.539  0.5391 -0.4486  0.6411
14328TIP3    H142929   7.087   1.429   2.460  1.4686  0.9261  1.7331
14328TIP3    H242930   7.137   1.367   2.589 -0.2998  2.5814  3.2698
14329TIP3   OH242931   5.911   7.700   6.724  0.5434 -0.3414  0.0237
14329TIP3    H142932   5.953   7.773   6.679 -0.3570  1.0981  1.3882
14329TIP3    H242933   5.861   7.742   6.795 -1.0037 -2.1878  0.1003
14330TIP3   OH242934   4.491   0.923   3.568 -0.6552  0.4111 -0.1213
14330TIP3    H142935   4.428   0.855   3.593 -0.8870  0.6793  0.0259
14330TIP3    H242936   4.458   0.958   3.485 -0.5205  0.3290 -0.2109
14331TIP3   OH242937   7.224   1.470   5.996  0.0072 -0.4192  0.0588
14331TIP3    H142938   7.288   1.408   6.030 -1.4883 -1.9349  0.2570
14331TIP3    H242939   7.139   1.431   6.018 -0.9975  1.4847 -0.2299
14332TIP3   OH242940   0.031   7.539   1.839 -0.5874 -0.2840 -0.2476
14332TIP3    H142941  -0.009   7.455   1.818  1.0160 -1.4313  1.0254
14332TIP3    H242942  -0.005   7.561   1.925 -1.6152  0.7802 -0.9182
14333TIP3   OH242943   4.804   5.414   0.693  0.3162  0.1276 -0.0067
14333TIP3    H142944   4.736   5.373   0.640  0.7969 -0.0867 -0.4653
14333TIP3    H242945   4.793   5.508   0.677 -1.4283  0.3005  1.8205
14334TIP3   OH242946   1.280   4.002   6.074  0.6892 -0.0034 -0.1547
14334TIP3    H142947   1.244   3.931   6.021 -0.0508 -0.2669  0.6662
14334TIP3    H242948   1.364   4.024   6.033 -0.2808  0.4614 -2.0069
14335TIP3   OH242949   2.300   5.258   5.296 -0.1702 -0.2361  0.1537
14335TIP3    H142950   2.246   5.337   5.306  0.4791  0.3551 -0.8585
14335TIP3    H242951   2.364   5.281   5.230 -1.3316 -2.3601 -1.8676
14336TIP3   OH242952   4.219   4.590   3.637 -0.4353  0.0411  0.1804
14336TIP3    H142953   4.283   4.609   3.706 -1.4398 -1.4735  1.6017
14336TIP3    H242954   4.192   4.676   3.605 -0.3076  0.8194  2.0345
14337TIP3   OH242955   0.451   2.289   3.553 -0.6347  0.2650 -0.6003
14337TIP3    H142956   0.533   2.258   3.592 -1.2938 -1.3172 -0.4439
14337TIP3    H242957   0.458   2.266   3.460 -1.2112 -0.5555 -0.4463
14338TIP3   OH242958   5.162   5.252   0.060 -0.1001  0.2847 -0.6600
14338TIP3    H142959   5.226   5.283   0.124 -1.3050 -0.0604  0.7473
14338TIP3    H242960   5.180   5.159   0.051 -0.4108  0.1874 -0.2633
14339TIP3   OH242961   7.855   1.482   4.670 -0.2028 -0.5643 -0.0648
14339TIP3    H142962   7.909   1.406   4.689 -0.2557 -0.8555 -1.0267
14339TIP3    H242963   7.895   1.553   4.720  0.5219 -0.9758 -0.0489
14340TIP3   OH242964   6.222   7.706   5.528 -0.0972 -0.4000 -0.0111
14340TIP3    H142965   6.268   7.640   5.579  0.1733  0.6316  1.1306
14340TIP3    H242966   6.255   7.694   5.439  0.1848 -1.5792  0.2330
14341TIP3   OH242967   3.315   1.052   5.052  0.3331 -0.3556  0.4071
14341TIP3    H142968   3.267   0.996   4.990  1.4720 -0.8376 -0.0624
14341TIP3    H242969   3.298   1.012   5.138 -0.2051 -0.4445  0.2652
14342TIP3   OH242970   5.167   1.639   2.708  0.1930  0.5692 -0.2432
14342TIP3    H142971   5.261   1.652   2.721  0.7270 -1.3365 -1.6378
14342TIP3    H242972   5.134   1.615   2.795  0.7952  2.1603  0.4536
14343TIP3   OH242973   5.260   7.280   5.344  0.8081  0.4735  0.0862
14343TIP3    H142974   5.192   7.224   5.383  0.5717  1.0244  0.4667
14343TIP3    H242975   5.323   7.218   5.306  0.3364 -0.0486  0.1420
14344TIP3   OH242976   4.747   0.724   5.975 -0.2703 -0.3635 -0.4169
14344TIP3    H142977   4.799   0.776   6.036 -0.5528  0.9153 -1.2405
14344TIP3    H242978   4.658   0.726   6.011  0.1700 -2.6390  1.0503
14345TIP3   OH242979   1.568   4.679   2.212  0.4491  0.0753  0.1401
14345TIP3    H142980   1.627   4.621   2.260  2.5392  0.6185 -1.5883
14345TIP3    H242981   1.502   4.621   2.174  0.4584 -0.7056  1.2816
14346TIP3   OH242982   1.711   0.795   0.730 -0.3766  0.0350  0.4192
14346TIP3    H142983   1.659   0.858   0.780 -0.7722 -0.1938  0.2992
14346TIP3    H242984   1.792   0.786   0.780 -0.1413  0.9485  0.2259
14347TIP3   OH242985   0.392   5.349   2.924  0.1336  0.3734 -0.3015
14347TIP3    H142986   0.348   5.421   2.968  1.0557  0.5780  0.3165
14347TIP3    H242987   0.450   5.392   2.861 -0.3405  0.1168 -0.9233
14348TIP3   OH242988   3.869   2.871   4.830  0.3615 -0.2540  0.4331
14348TIP3    H142989   3.884   2.893   4.922  0.5537  1.2799  0.0556
14348TIP3    H242990   3.895   2.950   4.782 -0.8511 -0.6160 -0.8625
14349TIP3   OH242991   4.652   5.872   0.984 -0.2274 -0.9241  0.0781
14349TIP3    H142992   4.576   5.874   1.043  0.1230 -2.2099  0.6005
14349TIP3    H242993   4.722   5.913   1.034 -0.0375 -1.6430  0.4102
14350TIP3   OH242994   0.103   6.413   6.458  0.2692 -0.0483  0.0172
14350TIP3    H142995   0.050   6.334   6.466  1.1318 -0.5939  0.5648
14350TIP3    H242996   0.040   6.483   6.440 -0.6528 -0.6350  0.8542
14351TIP3   OH242997   7.543   2.939   4.328  0.3646  0.7587  0.1701
14351TIP3    H142998   7.459   2.952   4.371  0.4564  0.3530  0.4829
14351TIP3    H242999   7.583   3.026   4.326 -0.1714  1.0018 -0.2249
14352TIP3   OH243000   5.583   2.947   1.917  0.3534  0.6919 -0.4244
14352TIP3    H143001   5.576   2.935   1.822 -1.7678 -0.2265 -0.2257
14352TIP3    H243002   5.595   3.041   1.929  0.7128  0.8082 -1.5923
14353TIP3   OH243003   6.866   5.501   3.525 -0.2685  0.6764 -1.0559
14353TIP3    H143004   6.805   5.455   3.467  0.0328 -0.8727 -0.1930
14353TIP3    H243005   6.908   5.431   3.576  2.0563  1.6962 -1.4428
14354TIP3   OH243006   3.054   0.684   6.091 -0.7129  0.0365  0.4311
14354TIP3    H143007   3.117   0.752   6.113 -0.5968  0.0610  0.0265
14354TIP3    H243008   3.101   0.625   6.033 -1.2326  0.3673 -0.3432
14355TIP3   OH243009   5.445   6.164   4.418  0.3663 -0.3359  0.2334
14355TIP3    H143010   5.509   6.093   4.425  2.0201  1.2183  2.1185
14355TIP3    H243011   5.439   6.182   4.325  3.5406  0.1175  0.0241
14356TIP3   OH243012   3.855   5.171   2.567  0.1640  0.3971  0.3022
14356TIP3    H143013   3.822   5.122   2.643 -1.3304  1.3608  0.3229
14356TIP3    H243014   3.907   5.242   2.605 -0.2519  0.6448  0.4154
14357TIP3   OH243015   0.657   0.809   6.651 -0.1551  0.1311  0.3194
14357TIP3    H143016   0.730   0.770   6.602  0.1806  1.6208 -0.4483
14357TIP3    H243017   0.676   0.903   6.649 -1.9819  0.5276  0.3134
14358TIP3   OH243018   1.526   6.289   2.772 -0.4509 -0.1132 -0.2487
14358TIP3    H143019   1.538   6.275   2.678 -0.0364 -0.4036 -0.1549
14358TIP3    H243020   1.446   6.342   2.778  0.4417  1.3803 -0.8564
14359TIP3   OH243021   3.214   0.927   2.094 -0.2741  0.0515 -0.6878
14359TIP3    H143022   3.124   0.896   2.081 -0.7247  1.1209 -0.2359
14359TIP3    H243023   3.215   1.014   2.054 -0.0926  1.0158  1.3180
14360TIP3   OH243024   2.709   4.277   2.885 -0.1748 -0.0788  0.3893
14360TIP3    H143025   2.703   4.354   2.829 -3.3314 -0.3416  0.1502
14360TIP3    H243026   2.749   4.210   2.830 -2.0975  0.0121 -1.2683
14361TIP3   OH243027   0.876   6.990   4.000 -0.4287  0.2157  0.4621
14361TIP3    H143028   0.868   7.086   3.996  3.7994  0.8062  0.7886
14361TIP3    H243029   0.868   6.962   3.909  0.2231  1.1665  0.0880
14362TIP3   OH243030   2.599   0.576   3.910  0.1676 -0.2221  0.0269
14362TIP3    H143031   2.506   0.552   3.904 -0.0049  0.2841  0.5276
14362TIP3    H243032   2.609   0.646   3.845  0.2150 -0.3339 -0.0849
14363TIP3   OH243033   2.595   6.384   2.359  0.0300  0.0897 -0.5275
14363TIP3    H143034   2.607   6.353   2.269 -1.3024  1.0928 -1.0855
14363TIP3    H243035   2.558   6.308   2.404  2.5066 -1.0580 -0.2752
14364TIP3   OH243036   6.173   2.108   1.159  0.3283  0.4704 -0.1028
14364TIP3    H143037   6.083   2.079   1.144  0.7489 -0.5679 -0.7520
14364TIP3    H243038   6.210   2.040   1.216  0.8439  0.6209 -0.2532
14365TIP3   OH243039   2.079   4.187   4.346 -0.3443 -0.2622 -0.3212
14365TIP3    H143040   2.006   4.135   4.313  1.6375 -2.3526 -1.7016
14365TIP3    H243041   2.111   4.234   4.269  0.7476 -0.6368 -0.1094
14366TIP3   OH243042   7.744   1.094   5.187 -0.4562 -1.2258 -0.3626
14366TIP3    H143043   7.716   1.176   5.229 -0.5498 -0.3596 -2.0130
14366TIP3    H243044   7.662   1.054   5.156 -0.2196 -0.1259 -2.6569
14367TIP3   OH243045   7.562   0.709   1.985  0.2138 -0.5973  0.9629
14367TIP3    H143046   7.645   0.666   2.006  0.9420  0.4169  0.2641
14367TIP3    H243047   7.555   0.703   1.890 -0.9111 -1.3480  1.0768
14368TIP3   OH243048   7.925   2.395   5.515 -0.1113 -0.2891 -0.0540
14368TIP3    H143049   7.831   2.411   5.511  0.0080  0.3362 -0.5783
14368TIP3    H243050   7.934   2.313   5.563 -0.8849 -0.0135  0.5735
14369TIP3   OH243051   1.185   4.765   3.716 -0.1169  0.4599 -0.1295
14369TIP3    H143052   1.091   4.778   3.732 -0.3034  0.1105 -0.8557
14369TIP3    H243053   1.221   4.744   3.802 -0.7542  0.3637  0.1249
14370TIP3   OH243054   0.530   1.650   1.098 -0.1560 -0.0302 -0.1107
14370TIP3    H143055   0.481   1.650   1.015 -0.9421 -1.0867  0.3194
14370TIP3    H243056   0.462   1.652   1.165  0.2486 -2.9192  0.5289
14371TIP3   OH243057   0.129   6.764   0.687  0.2622  0.6530  0.2343
14371TIP3    H143058   0.082   6.788   0.607  0.9723 -0.3738 -0.5160
14371TIP3    H243059   0.218   6.745   0.657 -0.2527 -3.1071  0.6701
14372TIP3   OH243060   6.346   6.872   4.050  0.1277  0.0571 -0.0296
14372TIP3    H143061   6.354   6.861   3.955  3.3138  1.9572 -0.1071
14372TIP3    H243062   6.435   6.864   4.082 -0.8430 -0.2558  2.8259
14373TIP3   OH243063   0.396   0.100   6.542  0.0584 -0.3739  0.0675
14373TIP3    H143064   0.474   0.152   6.559 -0.2356 -0.4367  1.7698
14373TIP3    H243065   0.322   0.159   6.560 -0.2714 -1.1006  1.1990
14374TIP3   OH243066   1.517   1.047   6.616 -0.1806  0.0568  0.0070
14374TIP3    H143067   1.561   1.124   6.653 -1.2138  0.6669 -0.0069
14374TIP3    H243068   1.555   0.973   6.664 -0.2945  0.7003  1.1150
14375TIP3   OH243069   4.039   0.548   4.978  0.0568 -0.1621  0.3605
14375TIP3    H143070   3.959   0.566   5.026 -1.1813 -1.8544 -0.9247
14375TIP3    H243071   4.028   0.593   4.895  0.2924 -0.6170  0.0741
14376TIP3   OH243072   3.478   3.407   0.981 -0.1124  0.2168  0.6375
14376TIP3    H143073   3.470   3.429   0.888 -1.4598  0.2155  0.7264
14376TIP3    H243074   3.493   3.491   1.025 -0.7124  0.3853  0.5310
14377TIP3   OH243075   6.853   2.843   3.461 -0.4526 -0.1112  0.2130
14377TIP3    H143076   6.839   2.808   3.549  1.2535 -1.1979  0.1029
14377TIP3    H243077   6.907   2.921   3.475 -1.1741  0.3946  0.2020
14378TIP3   OH243078   2.896   0.547   5.615 -0.2388  0.7571 -0.0342
14378TIP3    H143079   2.864   0.616   5.673 -1.4083 -0.2451  0.5620
14378TIP3    H243080   2.820   0.491   5.599  0.7396 -0.5972 -0.2052
14379TIP3   OH243081   1.911   2.028   3.687 -0.1068  0.6376  0.1504
14379TIP3    H143082   1.909   2.105   3.630  1.1996  0.8329  0.3213
14379TIP3    H243083   1.830   2.032   3.737 -0.2064  1.7209 -0.0790
14380TIP3   OH243084   5.144   0.361   1.076 -0.2878 -0.2768 -0.1905
14380TIP3    H143085   5.217   0.377   1.136 -0.6149 -2.1521  0.7833
14380TIP3    H243086   5.066   0.383   1.126 -0.4857 -0.3263 -0.4729
14381TIP3   OH243087   8.218   2.744   4.991 -0.0230 -0.3617 -0.1091
14381TIP3    H143088   8.273   2.796   5.049 -0.2476  0.9310 -1.0099
14381TIP3    H243089   8.138   2.796   4.980  0.5575  0.1675 -2.6464
14382TIP3   OH243090   3.435   7.235   3.727  0.9472  0.1096 -0.5554
14382TIP3    H143091   3.345   7.205   3.715  0.4028  0.6166  1.7291
14382TIP3    H243092   3.431   7.290   3.806  3.4645 -0.7913  0.2952
14383TIP3   OH243093   1.609   1.852   6.304  0.2433  0.6508  0.0942
14383TIP3    H143094   1.695   1.874   6.339 -0.0852  1.0661  0.6561
14383TIP3    H243095   1.612   1.879   6.212 -0.0208  2.8045  0.6511
14384TIP3   OH243096   2.546   4.178   2.030 -0.1632 -0.3102  0.0528
14384TIP3    H143097   2.484   4.249   2.018 -1.9761 -1.3885  2.2418
14384TIP3    H243098   2.497   4.099   2.006  2.0223 -0.9172 -3.0691
14385TIP3   OH243099   1.198   6.410   3.348  0.2787 -0.1225 -0.1531
14385TIP3    H143100   1.174   6.369   3.431  1.0190  1.7712  1.0732
14385TIP3    H243101   1.121   6.397   3.292 -0.7913 -0.2885  1.2924
14386TIP3   OH243102   5.514   0.435   5.723 -0.5510  0.2751  0.0117
14386TIP3    H143103   5.589   0.377   5.741 -0.8659 -0.0258  0.3847
14386TIP3    H243104   5.551   0.523   5.721 -0.4675  0.3522  2.2035
14387TIP3   OH243105   5.378   0.659   5.286 -0.3788 -0.5315  0.6955
14387TIP3    H143106   5.387   0.699   5.372  0.6368  0.4569  0.1571
14387TIP3    H243107   5.445   0.592   5.283 -0.9986 -1.1775  0.9872
14388TIP3   OH243108   5.641   5.278   1.792 -0.1462 -0.6462 -0.1954
14388TIP3    H143109   5.626   5.273   1.698 -0.8736 -0.9724 -0.0663
14388TIP3    H243110   5.735   5.293   1.800 -0.5264  3.1414 -1.0638
14389TIP3   OH243111   3.579   1.926   6.481 -0.0371  0.4934  0.5787
14389TIP3    H143112   3.509   1.864   6.501 -0.7504  0.8249 -0.7733
14389TIP3    H243113   3.651   1.871   6.451  0.2756  0.1551  1.9061
14390TIP3   OH243114   0.508   4.722   0.974  0.2182  0.2673  0.0938
14390TIP3    H143115   0.534   4.632   0.995  1.5278 -0.3868 -3.5436
14390TIP3    H243116   0.503   4.766   1.059  1.3931 -2.7245  1.8873
14391TIP3   OH243117   7.642   7.108   5.477 -0.0480 -0.1612  0.2986
14391TIP3    H143118   7.579   7.116   5.548 -0.4535  0.0676 -0.0845
14391TIP3    H243119   7.604   7.156   5.404 -0.3979 -1.6893 -0.5893
14392TIP3   OH243120   6.980   2.516   0.758  0.5879  0.1532 -0.5970
14392TIP3    H143121   7.049   2.449   0.753  0.0260 -0.4131 -0.8550
14392TIP3    H243122   6.900   2.467   0.775  0.3522  0.8702  0.4481
14393TIP3   OH243123   6.926   0.964   1.731  0.4700 -0.2281  0.3982
14393TIP3    H143124   6.837   0.944   1.702  1.1188 -0.5251 -1.5990
14393TIP3    H243125   6.922   1.056   1.758  0.1935  0.8496 -2.8748
14394TIP3   OH243126   3.200   1.365   2.304 -0.3598 -0.1331 -0.7446
14394TIP3    H143127   3.236   1.301   2.365  0.9054 -0.2410 -1.5697
14394TIP3    H243128   3.106   1.363   2.320 -0.2749 -1.6818 -0.2710
14395TIP3   OH243129   1.980   4.044   2.766  0.2384  0.0156  0.0062
14395TIP3    H143130   1.958   4.121   2.713 -1.6031 -1.7796 -2.0418
14395TIP3    H243131   1.896   4.008   2.793  1.1141 -0.0526  2.9291
14396TIP3   OH243132   1.407   7.175   3.492 -0.6359  0.1037  0.4889
14396TIP3    H143133   1.430   7.210   3.578 -0.7150 -0.0932  0.5921
14396TIP3    H243134   1.452   7.090   3.489  0.7023  0.8175 -0.3168
14397TIP3   OH243135   4.619   4.623   2.708 -0.2597  0.3331 -0.0156
14397TIP3    H143136   4.706   4.642   2.742 -0.6977 -0.7491  1.8607
14397TIP3    H243137   4.562   4.623   2.785 -1.3481 -2.1214 -0.7247
14398TIP3   OH243138   3.509   2.508   3.115 -0.7346  0.1264 -0.0545
14398TIP3    H143139   3.421   2.518   3.153 -0.9780 -1.2634 -0.1840
14398TIP3    H243140   3.501   2.433   3.056  0.7416 -0.5992  0.6003
14399TIP3   OH243141   6.403   6.350   4.012 -0.0612  0.0715 -0.8501
14399TIP3    H143142   6.400   6.261   4.048  2.4677 -0.1471 -0.9685
14399TIP3    H243143   6.356   6.345   3.930 -1.5092 -0.6854 -0.0116
14400TIP3   OH243144   4.002   0.253   5.246 -0.0717 -0.0373 -0.0306
14400TIP3    H143145   4.016   0.323   5.309  0.2786 -0.6506  0.5983
14400TIP3    H243146   4.052   0.179   5.281 -0.5529 -0.6471 -0.5875
14401TIP3   OH243147   4.508   0.827   5.352  0.0167 -0.9733 -0.1571
14401TIP3    H143148   4.454   0.748   5.352 -1.0813 -0.2618  1.0366
14401TIP3    H243149   4.506   0.857   5.261 -0.2808 -1.8467 -0.4426
14402TIP3   OH243150   2.571   6.371   0.032 -0.0584 -0.5416 -0.0915
14402TIP3    H143151   2.634   6.343   0.099 -1.4892  1.1719  2.1405
14402TIP3    H243152   2.598   6.324  -0.047  1.8597 -2.5669  1.5988
14403TIP3   OH243153   3.632   1.560   5.249  0.1062 -1.0615 -0.1042
14403TIP3    H143154   3.668   1.558   5.338 -0.3945 -0.8369  0.1073
14403TIP3    H243155   3.705   1.534   5.193 -0.1182 -3.2809  0.5369
14404TIP3   OH243156   2.923   7.415   2.166  0.2716 -0.1130  0.1312
14404TIP3    H143157   2.986   7.431   2.235  1.6215  0.0970 -1.1120
14404TIP3    H243158   2.841   7.453   2.199  1.1568  0.9989  1.1294
14405TIP3   OH243159   2.047   2.954   3.633 -0.3007  0.2976 -0.0012
14405TIP3    H143160   2.060   2.868   3.673  0.2297 -2.2256 -4.9108
14405TIP3    H243161   2.135   2.986   3.615 -0.4804  2.1725  2.0005
14406TIP3   OH243162   1.939   0.603   2.727  0.2903  0.1836 -0.0489
14406TIP3    H143163   1.999   0.540   2.687 -1.7101 -0.9075 -1.5192
14406TIP3    H243164   1.873   0.550   2.770 -1.1229  1.2474 -0.8239
14407TIP3   OH243165   5.771   1.108   0.364 -0.0840 -0.0386  0.2781
14407TIP3    H143166   5.792   1.194   0.399  0.2414 -0.3206  0.7828
14407TIP3    H243167   5.820   1.046   0.418 -1.5935 -0.6603  1.0049
14408TIP3   OH243168   6.047   3.355   2.661 -0.0074  0.6216 -0.3364
14408TIP3    H143169   5.960   3.353   2.621  0.2737  0.4262 -0.9597
14408TIP3    H243170   6.099   3.293   2.609  0.4667  0.6300  0.1162
14409TIP3   OH243171   7.904   4.032   5.482  0.2069  0.3685 -0.1599
14409TIP3    H143172   7.849   3.995   5.551 -0.6013  0.0361 -0.9695
14409TIP3    H243173   7.981   3.975   5.480  0.3258  0.4875  0.5767
14410TIP3   OH243174   8.292   3.046   0.292 -0.1620  0.2747  0.6655
14410TIP3    H143175   8.210   2.998   0.289  0.4668 -0.7701 -0.7289
14410TIP3    H243176   8.270   3.134   0.264 -0.6793 -0.2298 -0.5841
14411TIP3   OH243177   6.100   3.413   4.246 -0.3669 -0.1260  0.4781
14411TIP3    H143178   6.138   3.421   4.158  1.4259 -0.4728  1.1622
14411TIP3    H243179   6.012   3.449   4.238  0.0444  0.6042 -1.2706
14412TIP3   OH243180   7.536   7.285   2.993 -0.3037  0.0045 -0.3350
14412TIP3    H143181   7.572   7.213   2.941  0.2387  0.0138  0.0203
14412TIP3    H243182   7.477   7.331   2.934  0.0666 -0.1737 -0.8468
14413TIP3   OH243183   8.027   4.565   5.198 -0.4556  0.3066  0.1533
14413TIP3    H143184   8.037   4.552   5.292 -0.3509  0.6670  0.1917
14413TIP3    H243185   8.081   4.642   5.178  0.3035 -0.3365 -0.3562
14414TIP3   OH243186   7.844   4.402   0.687 -0.1462 -0.4610  0.9852
14414TIP3    H143187   7.825   4.319   0.643 -0.0377 -1.1586  2.1862
14414TIP3    H243188   7.762   4.450   0.683 -0.2639 -0.6981  0.4230
14415TIP3   OH243189   7.492   1.107   3.494 -0.6319 -0.0804 -0.0190
14415TIP3    H143190   7.568   1.163   3.511 -0.7139 -0.1244  0.5158
14415TIP3    H243191   7.465   1.076   3.581  0.0197 -1.7460 -0.3783
14416TIP3   OH243192   5.475   5.564   1.228 -0.4443 -0.3974 -0.3058
14416TIP3    H143193   5.491   5.645   1.277  1.2353 -1.1619  0.4745
14416TIP3    H243194   5.417   5.513   1.285 -0.4137 -0.3055 -0.1905
14417TIP3   OH243195   5.050   4.820   2.168 -0.2455  0.2817  0.6397
14417TIP3    H143196   5.108   4.755   2.205  2.0318  2.9133  2.0499
14417TIP3    H243197   5.108   4.880   2.120 -2.4838  0.0035 -2.8052
14418TIP3   OH243198   0.494   6.525   3.831  0.0637 -0.1486  0.0528
14418TIP3    H143199   0.482   6.513   3.737  1.8859  0.2462 -0.2675
14418TIP3    H243200   0.410   6.559   3.862 -0.8749 -1.1967 -1.2467
14419TIP3   OH243201   6.596   2.255   1.880  0.4343 -0.0889  0.1323
14419TIP3    H143202   6.509   2.237   1.916 -0.0075  4.6472  2.1840
14419TIP3    H243203   6.648   2.280   1.957  2.0973  1.9228 -1.5414
14420TIP3   OH243204   3.238   0.628   0.552  0.0551  0.4200 -0.3137
14420TIP3    H143205   3.267   0.596   0.466 -1.7020 -1.7350 -0.1956
14420TIP3    H243206   3.172   0.694   0.532  0.3843  0.6691 -0.5945
14421TIP3   OH243207   6.995   0.472   3.068 -0.0280 -0.2045  0.6757
14421TIP3    H143208   7.025   0.521   2.991 -2.1458  2.5408  1.4128
14421TIP3    H243209   7.074   0.458   3.120  0.9783  0.5936 -0.5772
14422TIP3   OH243210   1.388   4.042   5.542  0.3561 -0.1103 -0.2962
14422TIP3    H143211   1.313   4.087   5.504 -0.4087 -0.5961  0.5896
14422TIP3    H243212   1.353   4.001   5.622  1.2439 -1.4868 -0.5862
14423TIP3   OH243213   4.259   2.565   4.698 -0.0351  0.2946 -0.3765
14423TIP3    H143214   4.268   2.595   4.608  1.3323  1.2378  0.0484
14423TIP3    H243215   4.164   2.556   4.711 -0.3288  1.5019 -1.4819
14424TIP3   OH243216   4.895   2.862   4.836  0.1861  0.2907  0.1932
14424TIP3    H143217   4.916   2.794   4.773  2.1186  1.7170 -0.8004
14424TIP3    H243218   4.979   2.885   4.876 -0.3925  2.1056  0.4693
14425TIP3   OH243219   0.088   3.806   5.511  0.4774  0.6858 -0.4711
14425TIP3    H143220   0.183   3.801   5.504  0.5261  0.1309  0.5229
14425TIP3    H243221   0.071   3.880   5.568  0.3719 -0.0884  0.5268
14426TIP3   OH243222   0.485   3.551   1.178  0.7593  0.5604  0.5491
14426TIP3    H143223   0.417   3.540   1.111 -0.5649 -3.8578  2.2694
14426TIP3    H243224   0.567   3.536   1.132  0.0898  0.0540 -0.5155
14427TIP3   OH243225   1.449   7.666   1.343  0.3355  0.0705 -0.4513
14427TIP3    H143226   1.387   7.713   1.288 -3.1345 -3.0166  0.4455
14427TIP3    H243227   1.496   7.609   1.282 -1.0654 -0.8833 -0.6836
14428TIP3   OH243228   5.980   1.648   3.112 -0.3192 -0.0146 -0.1911
14428TIP3    H143229   5.906   1.690   3.157  1.8288  2.3930  1.3707
14428TIP3    H243230   6.050   1.712   3.116  2.4447 -2.8151 -0.0958
14429TIP3   OH243231   6.959   2.148   4.646 -0.3617 -0.3684  0.0809
14429TIP3    H143232   6.906   2.132   4.724 -0.8138 -3.6693 -0.7815
14429TIP3    H243233   7.015   2.222   4.671  0.1296 -1.7692  3.8414
14430TIP3   OH243234   0.214   5.991   5.978  0.6960  0.3440  0.7275
14430TIP3    H143235   0.222   5.897   5.993 -0.2312  0.5382  2.8021
14430TIP3    H243236   0.127   6.002   5.940  0.9354  0.3525  0.1687
14431TIP3   OH243237   1.251   6.904   0.095  0.7224  0.5309 -0.1372
14431TIP3    H143238   1.165   6.946   0.101  0.0787 -0.7553 -0.0159
14431TIP3    H243239   1.290   6.916   0.181 -0.0839 -0.4186  0.3700
14432TIP3   OH243240   5.907   7.123   2.641  0.6990  0.2736  0.5809
14432TIP3    H143241   5.853   7.179   2.697  1.4138  0.6134  0.9520
14432TIP3    H243242   5.980   7.179   2.615  0.5194  0.0301 -0.4782
14433TIP3   OH243243   4.247   3.585   5.016  0.0527 -0.3572 -0.0020
14433TIP3    H143244   4.328   3.546   4.984 -0.6987 -1.6557 -0.3911
14433TIP3    H243245   4.274   3.639   5.090  1.2576 -0.8802 -0.0353
14434TIP3   OH243246   2.718   2.925   2.915  0.0983 -0.1694 -0.3058
14434TIP3    H143247   2.749   2.929   3.005  2.0973 -1.8251 -0.8298
14434TIP3    H243248   2.767   2.994   2.870 -1.6075  1.3087 -0.0018
14435TIP3   OH243249   3.242   6.821   6.464  0.1734  0.0652 -0.0156
14435TIP3    H143250   3.178   6.769   6.415  1.8253 -2.5690  0.4013
14435TIP3    H243251   3.266   6.766   6.538  1.3099  1.8965  1.0506
14436TIP3   OH243252   5.433   2.743   6.173  0.0968  0.0220  0.1670
14436TIP3    H143253   5.377   2.712   6.244  0.5812 -0.9227  0.1599
14436TIP3    H243254   5.482   2.665   6.146  1.5221  0.8438  0.2745
14437TIP3   OH243255   7.719   6.025   6.202 -0.4706 -0.2567  0.6172
14437TIP3    H143256   7.795   5.987   6.246  0.1301  1.4873  1.1903
14437TIP3    H243257   7.644   5.979   6.240  0.2573 -1.9787  0.0754
14438TIP3   OH243258   1.663   2.853   0.784  0.5897 -0.6701  0.5166
14438TIP3    H143259   1.648   2.774   0.732 -0.3229  0.3767 -0.8755
14438TIP3    H243260   1.753   2.878   0.762  0.7998 -1.1805  0.7759
14439TIP3   OH243261   4.530   4.341   2.550  0.1739 -0.1991  0.2437
14439TIP3    H143262   4.511   4.424   2.508 -1.0423 -1.0573 -0.9561
14439TIP3    H243263   4.447   4.312   2.587  0.4713 -1.1121  0.2373
14440TIP3   OH243264   1.973   2.875   4.351 -0.2707  0.1020 -0.3828
14440TIP3    H143265   1.970   2.961   4.393  1.1197 -0.1400  0.2799
14440TIP3    H243266   2.006   2.816   4.419  0.3689 -0.6386 -1.3006
14441TIP3   OH243267   1.810   7.493   3.789  0.0272  0.7293  0.1155
14441TIP3    H143268   1.753   7.540   3.849 -1.4423 -0.7555 -0.0534
14441TIP3    H243269   1.770   7.506   3.703 -0.0320 -0.2895 -0.0182
14442TIP3   OH243270   5.809   5.145   4.155  0.5578  0.6763 -0.3623
14442TIP3    H143271   5.774   5.058   4.172  0.0574  0.5040 -2.1006
14442TIP3    H243272   5.813   5.187   4.241  1.5593 -1.3140  0.6234
14443TIP3   OH243273   0.254   5.779   5.393  0.1037 -0.5546 -0.4612
14443TIP3    H143274   0.172   5.777   5.344  0.2751  1.3750 -0.9417
14443TIP3    H243275   0.321   5.760   5.328  0.3476  2.1826 -1.1684
14444TIP3   OH243276   4.592   0.933   0.222  0.2207  0.0170  0.3086
14444TIP3    H143277   4.579   0.998   0.292  0.9768 -0.5299  0.9797
14444TIP3    H243278   4.589   0.849   0.267 -2.1296 -0.5453 -0.7411
14445TIP3   OH243279   7.582   4.660   1.607  0.6272  0.7164  0.5295
14445TIP3    H143280   7.512   4.634   1.667 -0.4737  0.9560 -0.6173
14445TIP3    H243281   7.551   4.633   1.521  2.8750 -1.0648  0.1951
14446TIP3   OH243282   7.508   3.738   3.818  0.2742  0.5679  0.6062
14446TIP3    H143283   7.513   3.655   3.865 -1.2697 -0.8684 -1.5633
14446TIP3    H243284   7.426   3.777   3.847  1.3678  1.7857  2.2067
14447TIP3   OH243285   3.057   7.011   6.235  0.2240 -0.0566 -0.4439
14447TIP3    H143286   3.121   7.082   6.229 -0.3811  0.9058  2.6196
14447TIP3    H243287   2.981   7.043   6.187 -0.0864  1.5144  1.0035
14448TIP3   OH243288   3.063   2.035   3.287  0.1285  0.2130 -0.2840
14448TIP3    H143289   3.025   2.111   3.244  1.5344  2.2602  1.8261
14448TIP3    H243290   3.141   2.015   3.236 -0.0551  0.4157 -0.6469
14449TIP3   OH243291   8.034   0.999   1.016  0.5497 -0.1848  0.1284
14449TIP3    H143292   7.955   1.051   0.998 -0.2419 -1.2269  0.5559
14449TIP3    H243293   8.016   0.955   1.098  1.4614 -0.6826  0.0713
14450TIP3   OH243294   3.286   3.223   1.082 -0.0603  0.2621  0.6842
14450TIP3    H143295   3.297   3.226   1.177  0.2399  1.4597  0.6286
14450TIP3    H243296   3.349   3.286   1.048  2.0187 -2.2727 -0.5383
14451TIP3   OH243297   3.106   1.533   0.118  0.0709 -0.7054 -0.0769
14451TIP3    H143298   3.050   1.509   0.192  1.2007 -0.8042  0.7705
14451TIP3    H243299   3.051   1.589   0.063 -0.7848 -0.6265  0.8365
14452TIP3   OH243300   3.745   5.953   1.432 -0.5532 -0.3089  0.2367
14452TIP3    H143301   3.709   6.041   1.417  0.4046  0.3474  1.5425
14452TIP3    H243302   3.669   5.895   1.427 -1.7116  0.9268  2.0818
14453TIP3   OH243303   1.824   5.798   5.348 -0.5527 -0.3544 -0.4741
14453TIP3    H143304   1.751   5.817   5.289  0.0590  0.7846 -0.9035
14453TIP3    H243305   1.783   5.782   5.433 -1.2635  1.1591 -0.5093
14454TIP3   OH243306   2.066   4.719   5.770  0.1736  0.7259 -0.1927
14454TIP3    H143307   2.045   4.813   5.770 -0.5843  0.5755  0.9043
14454TIP3    H243308   1.999   4.680   5.827 -1.8665 -1.0291 -3.4913
14455TIP3   OH243309   5.789   1.456   6.072  0.0756  0.3860  0.1216
14455TIP3    H143310   5.780   1.503   5.989  0.1021 -0.5837 -0.4518
14455TIP3    H243311   5.863   1.498   6.116 -1.6835  2.8161  1.0088
14456TIP3   OH243312   3.828   0.605   6.524 -0.9699  0.4449 -0.1278
14456TIP3    H143313   3.815   0.582   6.616  0.9017  0.2659  0.1376
14456TIP3    H243314   3.873   0.689   6.527 -0.6799  0.3203 -0.8619
14457TIP3   OH243315   0.692   0.683   1.998 -0.1305  0.2611 -0.3650
14457TIP3    H143316   0.621   0.691   2.061  0.2348  1.3767 -0.0788
14457TIP3    H243317   0.702   0.770   1.961 -1.7149 -0.7407 -3.5146
14458TIP3   OH243318   3.234   5.836   0.070 -0.0791  0.0387 -0.1464
14458TIP3    H143319   3.304   5.845   0.134 -0.9837 -0.9304  1.0014
14458TIP3    H243320   3.271   5.874  -0.010  1.0182  1.4173  0.9552
14459TIP3   OH243321   0.936   7.527   6.554 -0.0970 -0.7228 -0.1023
14459TIP3    H143322   0.843   7.505   6.551  0.2337 -2.2142 -0.2634
14459TIP3    H243323   0.981   7.443   6.547  1.2650 -0.1495  1.1307
14460TIP3   OH243324   1.140   4.036   1.925 -0.1776 -0.2878  0.4275
14460TIP3    H143325   1.071   3.985   1.882 -1.2813  1.6632 -0.2709
14460TIP3    H243326   1.168   4.099   1.858  0.0056  1.0525  1.7173
14461TIP3   OH243327   5.897   4.376   2.936 -0.4320  0.1410  0.4250
14461TIP3    H143328   5.869   4.464   2.960 -2.9513 -0.5309  0.1923
14461TIP3    H243329   5.917   4.334   3.020 -2.0253  0.0911  0.8154
14462TIP3   OH243330   4.861   0.268   5.455 -0.1094 -0.1234  0.2305
14462TIP3    H143331   4.880   0.224   5.537  0.5039  0.5900  0.4858
14462TIP3    H243332   4.932   0.242   5.396 -0.2351 -0.1852  0.1060
14463TIP3   OH243333   5.220   0.539   0.208 -0.3066 -0.7257  0.0582
14463TIP3    H143334   5.264   0.598   0.269  0.4850 -1.3211  0.0785
14463TIP3    H243335   5.168   0.482   0.263 -1.9235  0.5873 -0.0165
14464TIP3   OH243336   4.645   3.263   5.345 -0.3199  0.2087  0.4161
14464TIP3    H143337   4.627   3.172   5.324  0.5896  0.3528 -1.1521
14464TIP3    H243338   4.560   3.306   5.341 -0.5292 -0.2555 -0.6666
14465TIP3   OH243339   4.052   1.552   3.420  0.4730  0.0215 -0.2016
14465TIP3    H143340   4.124   1.492   3.440 -1.1933 -1.7156  0.9553
14465TIP3    H243341   3.983   1.495   3.385 -0.3379  1.6420 -1.3630
14466TIP3   OH243342   6.684   7.519   4.691  0.0076 -0.0802 -0.9110
14466TIP3    H143343   6.768   7.502   4.649 -0.4172 -2.0889 -1.0583
14466TIP3    H243344   6.698   7.598   4.744  2.0853 -0.6027 -0.6310
14467TIP3   OH243345   0.478   4.828   4.285  0.5284 -0.2298  0.4136
14467TIP3    H143346   0.405   4.792   4.234 -0.3565  1.3561  0.4867
14467TIP3    H243347   0.441   4.840   4.373  1.7995 -2.1882  1.2698
14468TIP3   OH243348   7.576   3.253   5.633 -0.5142  0.1715  0.1658
14468TIP3    H143349   7.596   3.193   5.705 -1.3757  0.1696  0.4113
14468TIP3    H243350   7.646   3.237   5.569  0.4493  0.4147  1.1346
14469TIP3   OH243351   3.219   2.843   6.403  0.7161  0.7838 -0.4003
14469TIP3    H143352   3.192   2.904   6.334  0.2589 -0.1258 -1.0586
14469TIP3    H243353   3.208   2.891   6.484 -3.4963  0.4207 -0.5077
14470TIP3   OH243354   1.251   4.938   0.662 -0.4403 -0.7214 -0.6169
14470TIP3    H143355   1.239   5.033   0.664  0.4754 -0.6046 -0.0417
14470TIP3    H243356   1.180   4.906   0.607 -1.2357  0.2212 -0.1722
14471TIP3   OH243357   7.772   0.708   2.307 -0.0155 -0.2286  0.0325
14471TIP3    H143358   7.734   0.771   2.246  0.9990 -0.3958 -0.7898
14471TIP3    H243359   7.827   0.760   2.365 -0.1272 -0.2095  0.1220
14472TIP3   OH243360   2.792   2.810   0.701 -0.4188  0.4989  0.8407
14472TIP3    H143361   2.844   2.859   0.765  0.7965 -0.2142  0.4343
14472TIP3    H243362   2.806   2.718   0.725  2.0054  0.0503 -1.7897
14473TIP3   OH243363   6.397   7.387   0.144 -0.4829 -0.2499 -0.4838
14473TIP3    H143364   6.372   7.466   0.193 -1.3569  0.0810 -1.4211
14473TIP3    H243365   6.365   7.314   0.198  1.1855 -0.0522  0.8739
14474TIP3   OH243366   5.049   0.173   5.260  0.0867 -0.2563 -0.5064
14474TIP3    H143367   5.144   0.185   5.254  0.4489 -0.4219  2.7301
14474TIP3    H243368   5.038   0.078   5.271 -0.2053 -0.0603  1.1499
14475TIP3   OH243369   4.003   7.377   5.199  0.0631  0.1967  0.3022
14475TIP3    H143370   3.946   7.308   5.165  0.9666  0.1955 -1.2844
14475TIP3    H243371   3.945   7.431   5.253 -0.7162 -1.6239  1.3948
14476TIP3   OH243372   2.267   6.679   5.125  0.0365 -0.0142  0.5709
14476TIP3    H143373   2.268   6.651   5.216  0.5726 -1.0266  0.2742
14476TIP3    H243374   2.347   6.731   5.115 -1.1610  2.0165  1.2223
14477TIP3   OH243375   4.567   1.124   1.912 -0.5702 -0.0285 -0.6439
14477TIP3    H143376   4.558   1.068   1.835 -0.2596 -1.3810  0.2774
14477TIP3    H243377   4.519   1.079   1.980  0.7499  0.1794  0.4596
14478TIP3   OH243378   8.251   2.329   5.358  0.5136 -0.3567  0.5070
14478TIP3    H143379   8.345   2.346   5.364  0.5577  0.8724 -2.3019
14478TIP3    H243380   8.211   2.409   5.393  0.5638  0.1244 -0.5137
14479TIP3   OH243381   6.848   6.436   1.950 -0.4252  0.6179  0.2304
14479TIP3    H143382   6.826   6.362   2.007 -1.1812  0.2071 -0.5857
14479TIP3    H243383   6.944   6.437   1.950 -0.4079 -0.0560  0.6373
14480TIP3   OH243384   2.958   0.287   3.867 -0.0661  0.2574 -0.5742
14480TIP3    H143385   2.953   0.192   3.878  1.2738  0.0103 -1.8088
14480TIP3    H243386   2.876   0.311   3.823 -1.2634 -0.0198  1.3960
14481TIP3   OH243387   4.967   6.847   0.723 -0.6269 -0.9202  0.2490
14481TIP3    H143388   4.964   6.931   0.769  0.0801  0.2071 -1.6844
14481TIP3    H243389   4.952   6.869   0.631 -1.2401 -3.0174 -0.2006
14482TIP3   OH243390   4.645   6.006   1.904 -0.1698  0.7456  0.5773
14482TIP3    H143391   4.722   5.981   1.956  0.2799  1.9883  0.5455
14482TIP3    H243392   4.666   6.094   1.871 -2.2128  1.7676  1.8028
14483TIP3   OH243393   5.572   7.604   6.163 -0.3385  0.0179  0.2146
14483TIP3    H143394   5.493   7.622   6.111  0.0015 -1.0341 -0.6987
14483TIP3    H243395   5.539   7.589   6.252 -1.1320 -0.1167 -0.0892
14484TIP3   OH243396   0.028   1.507   3.828 -0.5800 -0.2656 -0.0889
14484TIP3    H143397   0.001   1.542   3.913  2.2099  0.1896  0.7098
14484TIP3    H243398   0.069   1.423   3.849 -1.0414 -0.7815 -1.1786
14485TIP3   OH243399   2.222   0.940   2.350  0.2098 -0.0644  0.1918
14485TIP3    H143400   2.213   0.853   2.391  0.3787  0.1869  0.7730
14485TIP3    H243401   2.306   0.936   2.305 -1.1822 -1.3061 -2.5407
14486TIP3   OH243402   6.609   3.407   4.301  0.4687  0.0403 -0.2248
14486TIP3    H143403   6.576   3.347   4.369  0.0968 -0.3433 -0.7353
14486TIP3    H243404   6.553   3.484   4.309  0.6077  0.1098  0.0912
14487TIP3   OH243405   7.227   3.602   5.305 -0.2949  0.2052  0.3434
14487TIP3    H143406   7.235   3.653   5.385  1.5063  0.0332  0.2994
14487TIP3    H243407   7.316   3.573   5.285 -0.3002  1.8559 -2.7644
14488TIP3   OH243408   6.522   2.247   1.188  0.2601 -0.3505  0.1345
14488TIP3    H143409   6.580   2.257   1.263  0.6043 -0.5587 -0.1047
14488TIP3    H243410   6.436   2.273   1.221  0.7214  1.2743  0.1362
14489TIP3   OH243411   6.386   2.727   5.063 -0.2617  0.1913 -0.0708
14489TIP3    H143412   6.295   2.747   5.084 -0.4289 -0.4356 -0.1926
14489TIP3    H243413   6.431   2.812   5.067 -0.3181  0.1513  2.6044
14490TIP3   OH243414   3.849   3.862   0.641 -0.0831 -0.3159  0.2138
14490TIP3    H143415   3.793   3.813   0.701 -0.2632 -0.8365 -0.3694
14490TIP3    H243416   3.795   3.936   0.612 -0.4052 -0.7117 -0.2023
14491TIP3   OH243417   1.374   1.873   5.558  0.7892  0.1253  0.1202
14491TIP3    H143418   1.463   1.844   5.575  0.5717 -0.1367  0.8571
14491TIP3    H243419   1.321   1.828   5.624  0.3329  1.5613  0.7832
14492TIP3   OH243420   2.169   5.495   5.328 -0.0134 -0.0421 -0.8580
14492TIP3    H143421   2.142   5.575   5.282  0.6327 -0.0250 -1.2301
14492TIP3    H243422   2.110   5.488   5.403 -1.2260 -0.1690 -1.7943
14493TIP3   OH243423   8.044   5.067   4.622 -0.1800  0.2204  0.4114
14493TIP3    H143424   8.016   5.159   4.629  0.1898  0.3377  0.3626
14493TIP3    H243425   8.108   5.067   4.551 -1.4268 -0.3732 -0.7699
14494TIP3   OH243426   6.620   4.347   0.430  0.6936  0.0745  0.2564
14494TIP3    H143427   6.647   4.386   0.513  1.1647 -2.9746  1.6602
14494TIP3    H243428   6.526   4.335   0.438  0.4608  1.2401 -0.3899
14495TIP3   OH243429   6.657   4.952   5.565 -0.6117 -0.3758 -0.1394
14495TIP3    H143430   6.657   4.899   5.645 -0.2152 -2.0615 -1.2062
14495TIP3    H243431   6.732   4.920   5.515 -0.5594  0.9979 -0.9768
14496TIP3   OH243432   5.981   7.717   5.875 -0.0743  0.1461 -0.2151
14496TIP3    H143433   5.939   7.702   5.959 -2.1633 -1.9802 -1.5074
14496TIP3    H243434   5.964   7.809   5.855  0.1249  0.5741  1.4534
14497TIP3   OH243435   0.778   7.111   2.611 -0.0405 -0.1335 -0.3916
14497TIP3    H143436   0.714   7.174   2.578 -1.2983 -1.2777 -0.2448
14497TIP3    H243437   0.794   7.053   2.537  0.5772 -0.0617 -0.3195
14498TIP3   OH243438   5.965   5.941   6.235 -0.5546 -0.4609  0.7631
14498TIP3    H143439   6.046   5.933   6.186 -0.9270 -0.3907  0.1194
14498TIP3    H243440   5.991   5.969   6.323  0.0698  0.0585  0.4127
14499TIP3   OH243441   6.084   3.768   3.609 -0.3456  0.0039  0.0923
14499TIP3    H143442   6.119   3.755   3.521  0.4111  1.0515  0.2144
14499TIP3    H243443   6.027   3.693   3.624 -0.1825 -0.3855 -1.1398
14500TIP3   OH243444  -0.014   1.765   5.273  0.8744 -0.0772 -0.6976
14500TIP3    H143445  -0.042   1.854   5.294 -1.4943 -1.4524  2.8306
14500TIP3    H243446   0.058   1.747   5.333  0.9994 -0.7024 -1.0198
14501TIP3   OH243447   5.691   7.154   5.140  0.1005  0.1473  0.0773
14501TIP3    H143448   5.717   7.101   5.065 -0.9903  1.5484 -1.3632
14501TIP3    H243449   5.719   7.103   5.216 -2.1282 -3.2123 -1.1222
14502TIP3   OH243450   6.397   1.376   0.351  0.1273 -0.0119  0.7286
14502TIP3    H143451   6.328   1.418   0.403 -0.5752 -0.7954  0.4487
14502TIP3    H243452   6.439   1.448   0.304 -0.5859  0.4659  0.8115
14503TIP3   OH243453   7.670   4.345   5.442  0.5709  0.5012  0.0958
14503TIP3    H143454   7.671   4.315   5.533 -1.4700 -1.5920 -0.4775
14503TIP3    H243455   7.688   4.267   5.390 -0.2967  1.2199 -1.3632
14504TIP3   OH243456   0.115   0.062   6.317 -0.3696  0.6719 -0.4133
14504TIP3    H143457   0.203   0.048   6.350 -0.5433  2.0809  0.7237
14504TIP3    H243458   0.082  -0.026   6.299  1.3683  0.1381 -1.2026
14505TIP3   OH243459   7.054   6.233   5.163 -0.6896  0.1636  0.4420
14505TIP3    H143460   7.016   6.321   5.166 -1.6273 -0.0292 -2.6395
14505TIP3    H243461   7.117   6.236   5.091 -1.0480 -1.7833 -0.0059
14506TIP3   OH243462   5.090   1.727   5.360  0.2225  0.0284 -0.7136
14506TIP3    H143463   5.105   1.815   5.397  0.1943  0.0801 -0.8267
14506TIP3    H243464   5.069   1.743   5.269 -1.0594 -0.0124 -0.4377
14507TIP3   OH243465   0.667   5.317   3.147  0.8840  0.0325 -0.4950
14507TIP3    H143466   0.678   5.261   3.224  2.6933 -0.0012 -0.7307
14507TIP3    H243467   0.695   5.262   3.074 -0.2076  0.2731 -1.1147
14508TIP3   OH243468   6.050   0.198   1.483 -0.0954  0.9107  0.1690
14508TIP3    H143469   5.994   0.246   1.422  0.4971  0.6224 -0.6232
14508TIP3    H243470   6.045   0.107   1.455 -0.4916  0.6301  1.0991
14509TIP3   OH243471   2.932   5.217   1.103  0.4646  0.1438 -0.0517
14509TIP3    H143472   3.000   5.284   1.115  1.7308 -0.7231 -1.8781
14509TIP3    H243473   2.899   5.201   1.191  0.4030  2.8369  0.5156
14510TIP3   OH243474   3.350   6.709   1.572 -0.4754  0.6750  0.0032
14510TIP3    H143475   3.359   6.693   1.479 -0.5574 -2.5179  0.4485
14510TIP3    H243476   3.274   6.767   1.579  0.4544  2.2312 -1.9327
14511TIP3   OH243477   2.149   2.749   6.212 -0.6566 -0.4922 -0.0566
14511TIP3    H143478   2.230   2.796   6.232 -1.0525 -0.3696  1.3865
14511TIP3    H243479   2.127   2.775   6.123  2.2866 -2.5630 -1.5908
14512TIP3   OH243480   2.998   6.790   5.501 -0.2412 -0.4284 -0.0285
14512TIP3    H143481   2.948   6.868   5.480 -2.6848 -1.7887  0.3358
14512TIP3    H243482   3.030   6.758   5.416  1.7194  1.4739 -0.0704
14513TIP3   OH243483   2.210   2.349   5.442 -0.2973  0.1141 -0.5061
14513TIP3    H143484   2.129   2.375   5.397  0.2034  2.0665 -0.3842
14513TIP3    H243485   2.247   2.280   5.387 -1.7683 -0.4530 -0.8438
14514TIP3   OH243486   7.161   6.333   0.647 -0.3686  0.3742 -0.1335
14514TIP3    H143487   7.247   6.374   0.662 -0.1278 -0.4847  0.9507
14514TIP3    H243488   7.181   6.251   0.602 -0.6614  0.3634 -0.2462
14515TIP3   OH243489   5.654   5.602   3.710  0.7846  0.0133 -0.0727
14515TIP3    H143490   5.693   5.613   3.797  0.2463 -1.4322  0.3953
14515TIP3    H243491   5.721   5.633   3.649  1.0583  1.3178  0.8533
14516TIP3   OH243492   7.658   1.868   4.580  0.6366  0.1169  0.1879
14516TIP3    H143493   7.645   1.955   4.543 -0.1583 -0.1445 -0.1666
14516TIP3    H243494   7.694   1.817   4.508 -0.0197 -0.1492  0.0419
14517TIP3   OH243495   7.385   1.818   4.605 -0.4024 -0.1962 -0.2047
14517TIP3    H143496   7.470   1.853   4.582 -0.2971  0.1748  0.6931
14517TIP3    H243497   7.322   1.883   4.573 -0.1528  1.5978  2.6563
14518TIP3   OH243498   8.006   1.965   0.544 -0.5480 -0.1870 -0.2702
14518TIP3    H143499   7.953   1.906   0.598  1.6319 -1.1541  0.9246
14518TIP3    H243500   8.076   1.995   0.602  1.7808 -1.0920 -2.4078
14519TIP3   OH243501   1.417   6.556   3.417  0.5472  0.2401  0.3517
14519TIP3    H143502   1.490   6.511   3.375  1.5312 -0.9937  3.1748
14519TIP3    H243503   1.339   6.510   3.386  1.0814  0.3354 -1.2128
14520TIP3   OH243504   0.578   5.742   2.554  0.3859  0.3400  0.3241
14520TIP3    H143505   0.509   5.710   2.612  0.0717  0.8004  0.2081
14520TIP3    H243506   0.543   5.729   2.466  1.5318 -1.9539  0.1111
14521TIP3   OH243507   0.564   4.083   1.213 -1.0329  0.2013 -0.3950
14521TIP3    H143508   0.603   4.142   1.149 -2.2009  1.5714  0.0933
14521TIP3    H243509   0.471   4.078   1.188 -1.3948  0.3438  0.8603
14522TIP3   OH243510   1.885   5.379   3.711 -0.1363 -0.1037  0.1239
14522TIP3    H143511   1.927   5.306   3.665 -1.0158  0.6905 -2.0565
14522TIP3    H243512   1.909   5.366   3.803  0.9573 -2.2851 -0.3989
14523TIP3   OH243513   6.324   3.505   4.389 -0.2421  0.1329  0.3205
14523TIP3    H143514   6.287   3.593   4.390 -0.9231 -0.1381 -0.3741
14523TIP3    H243515   6.257   3.451   4.348  1.0743 -0.2823 -1.4501
14524TIP3   OH243516   2.269   2.934   0.261 -0.0829 -0.2088 -0.2640
14524TIP3    H143517   2.304   3.014   0.222 -0.8852 -0.1606 -0.9042
14524TIP3    H243518   2.265   2.954   0.355  1.8354 -0.3240 -0.1201
14525TIP3   OH243519   0.534   0.882   5.037  0.3866  0.3810 -0.6128
14525TIP3    H143520   0.541   0.976   5.021 -0.6839  0.5341 -0.3120
14525TIP3    H243521   0.454   0.856   4.991 -1.4485  0.3640  2.3003
14526TIP3   OH243522   4.772   1.009   4.775 -0.3394  0.7530 -0.0694
14526TIP3    H143523   4.720   0.934   4.803  0.4227  0.5030  0.7106
14526TIP3    H243524   4.738   1.082   4.827  0.5092  0.4585  0.9181
14527TIP3   OH243525   3.216   6.217   6.312  0.4328 -0.4835 -0.0108
14527TIP3    H143526   3.213   6.210   6.216 -2.4574 -0.1382 -0.0524
14527TIP3    H243527   3.131   6.181   6.341  0.4084  1.2023  2.2736
14528TIP3   OH243528   7.032   0.460   3.589  0.2369  0.4799 -0.1309
14528TIP3    H143529   7.104   0.499   3.540  1.2898  0.5079  1.3593
14528TIP3    H243530   6.953   0.480   3.538  1.1591  1.4341 -1.2159
14529TIP3   OH243531   4.994   2.266   6.063  0.1186 -0.4224  0.1920
14529TIP3    H143532   4.942   2.194   6.099 -1.4167 -0.0038 -1.0784
14529TIP3    H243533   4.939   2.343   6.074  0.9107  0.2186 -0.2744
14530TIP3   OH243534   6.609   4.619   1.583 -0.1151 -0.7514 -0.3590
14530TIP3    H143535   6.640   4.597   1.670 -0.0559  2.9618  0.6927
14530TIP3    H243536   6.517   4.643   1.596 -0.2063 -0.4885 -1.4031
14531TIP3   OH243537   0.760   7.458   5.873  0.1856  0.3386 -0.1304
14531TIP3    H143538   0.847   7.433   5.904  0.4494  2.4461  1.0165
14531TIP3    H243539   0.758   7.428   5.782  1.7700 -0.5112  0.0705
14532TIP3   OH243540   0.258   3.860   5.255  0.8939 -0.3583 -0.6387
14532TIP3    H143541   0.350   3.849   5.277  0.6997 -0.2410  0.2707
14532TIP3    H243542   0.232   3.941   5.300 -0.1073 -1.3382  0.6255
14533TIP3   OH243543   6.088   0.542   4.382  0.1997  0.1919 -0.5235
14533TIP3    H143544   6.046   0.582   4.458 -0.3183  0.1161 -0.7666
14533TIP3    H243545   6.164   0.496   4.418 -0.4279 -0.4181  0.0431
14534TIP3   OH243546   5.268   1.302   6.730  0.1924  0.0296  0.5995
14534TIP3    H143547   5.267   1.397   6.724  1.5229  0.0780  0.8804
14534TIP3    H243548   5.360   1.278   6.719 -0.0053 -1.1648  1.3495
14535TIP3   OH243549   0.365   7.016   3.381  0.8209  0.6982  0.0396
14535TIP3    H143550   0.446   7.059   3.351  1.5047 -0.5763  0.0072
14535TIP3    H243551   0.341   6.958   3.309  0.3739  0.3969  0.4280
14536TIP3   OH243552   1.128   2.062   2.643  0.7306 -0.0938  0.5319
14536TIP3    H143553   1.074   1.997   2.598  0.1524 -0.0762  1.1956
14536TIP3    H243554   1.198   2.011   2.684  1.4685 -0.0767 -0.6587
14537TIP3   OH243555   3.891   5.884   3.853 -0.3279  0.3300 -0.7057
14537TIP3    H143556   3.958   5.832   3.896 -1.2105 -0.7889 -0.6254
14537TIP3    H243557   3.933   5.967   3.833  0.7670  0.0172  0.2435
14538TIP3   OH243558   2.312   3.101   5.891  0.2670  0.6320 -0.7100
14538TIP3    H143559   2.267   3.082   5.809 -1.4502  0.3059  0.2719
14538TIP3    H243560   2.256   3.164   5.935  1.0566  0.6381  0.3191
14539TIP3   OH243561   5.008   4.574   2.971  0.2463  1.1689 -0.0612
14539TIP3    H143562   5.085   4.619   2.934  0.4834 -0.2716 -1.4634
14539TIP3    H243563   5.022   4.482   2.949 -2.1665  0.9321 -0.8651
14540TIP3   OH243564   5.604   0.482   4.085 -0.3294  0.2596 -0.3653
14540TIP3    H143565   5.616   0.564   4.038  0.7235 -0.5669 -1.5921
14540TIP3    H243566   5.666   0.486   4.157 -0.6091  0.7241 -0.1454
14541TIP3   OH243567   4.933   6.581   6.081 -0.3602 -0.3415 -0.1705
14541TIP3    H143568   4.853   6.539   6.113 -1.5004  1.0943 -1.0193
14541TIP3    H243569   4.976   6.612   6.160 -0.3097 -1.6473  0.3430
14542TIP3   OH243570   1.852   1.909   0.318  0.2116 -0.0016 -0.1972
14542TIP3    H143571   1.792   1.924   0.391  0.1686  1.7724 -0.5422
14542TIP3    H243572   1.928   1.866   0.357 -0.6434 -0.9121  0.5051
14543TIP3   OH243573   3.365   0.562   5.169 -0.1769  0.5197 -0.0992
14543TIP3    H143574   3.396   0.471   5.172 -1.2467  0.1686  0.9962
14543TIP3    H243575   3.399   0.596   5.086  1.0575 -0.5738 -0.0823
14544TIP3   OH243576   3.525   5.019   2.696  0.3550 -0.6245  0.5753
14544TIP3    H143577   3.613   5.021   2.659  0.0627  1.1591 -0.1386
14544TIP3    H243578   3.474   5.078   2.640 -1.2333 -1.4208  1.1201
14545TIP3   OH243579   5.394   5.664   0.061 -0.3141  0.3307 -0.4619
14545TIP3    H143580   5.308   5.633   0.089 -0.1407 -1.6683 -1.9111
14545TIP3    H243581   5.413   5.614  -0.019  1.9952  1.0295 -0.4359
14546TIP3   OH243582   0.743   0.424   3.769  0.1884  0.1438  0.3067
14546TIP3    H143583   0.648   0.425   3.756  0.1009  0.2882  0.9266
14546TIP3    H243584   0.764   0.515   3.789  0.7864  0.5834 -2.0625
14547TIP3   OH243585   1.593   5.501   1.513 -0.9498  0.1025  0.0307
14547TIP3    H143586   1.569   5.555   1.438  3.1224 -0.6050 -2.0407
14547TIP3    H243587   1.568   5.412   1.487  0.5885 -0.1626 -0.6608
14548TIP3   OH243588   2.342   4.090   2.840  0.0709  0.3610  0.7797
14548TIP3    H143589   2.400   4.037   2.787 -0.4824  0.1450  0.3858
14548TIP3    H243590   2.314   4.161   2.782  0.7688  1.0648  1.2860
14549TIP3   OH243591   6.793   7.158   4.617 -0.6044 -0.1512 -0.1398
14549TIP3    H143592   6.850   7.230   4.643 -1.2288  0.0585  0.6836
14549TIP3    H243593   6.758   7.185   4.532 -0.8612  0.5352  0.1812
14550TIP3   OH243594   7.397   7.664   3.699 -0.1339 -0.3724 -0.2371
14550TIP3    H143595   7.422   7.702   3.783 -0.5318 -1.8034  0.5607
14550TIP3    H243596   7.312   7.703   3.679 -0.1706 -0.2446  0.1633
14551TIP3   OH243597   5.208   3.266   1.461 -0.6681 -0.1703  0.0723
14551TIP3    H143598   5.134   3.275   1.521 -1.0065 -0.4976 -0.2902
14551TIP3    H243599   5.177   3.204   1.394 -0.1968 -0.0301 -0.2788
14552TIP3   OH243600   4.364   2.440   5.018 -0.1704 -0.2141 -0.0633
14552TIP3    H143601   4.429   2.470   4.954 -0.7350 -0.9263 -0.9963
14552TIP3    H243602   4.392   2.479   5.101  0.3430  1.0619 -0.8148
14553TIP3   OH243603   8.264   5.479   5.529  0.1563 -0.2861  0.1702
14553TIP3    H143604   8.203   5.413   5.497  0.6250 -0.0049 -1.3966
14553TIP3    H243605   8.289   5.449   5.616 -2.7001 -0.0645  1.1598
14554TIP3   OH243606   3.877   0.556   6.212  0.4720  0.3729 -0.4933
14554TIP3    H143607   3.807   0.492   6.201 -0.1634  0.8419  0.6391
14554TIP3    H243608   3.897   0.554   6.306  1.8378  0.4088 -0.7574
14555TIP3   OH243609   6.716   3.376   6.579 -0.1912 -0.2582 -0.2349
14555TIP3    H143610   6.766   3.324   6.516  2.6215  0.4839  1.1799
14555TIP3    H243611   6.668   3.439   6.526  1.6455 -0.0173 -1.7250
14556TIP3   OH243612   4.429   7.262   0.430 -0.2490  0.1716 -0.0721
14556TIP3    H143613   4.489   7.264   0.504 -0.3445  0.7891 -0.0103
14556TIP3    H243614   4.415   7.354   0.407 -0.2580 -0.0137 -0.8234
14557TIP3   OH243615   2.098   0.574   5.002 -0.2725 -0.3516 -0.3010
14557TIP3    H143616   2.122   0.511   4.934 -0.8457 -0.7969 -0.1030
14557TIP3    H243617   2.084   0.656   4.956  0.1717 -0.4475 -0.6079
14558TIP3   OH243618   3.684   5.565   0.824 -0.0229  0.1980 -0.1693
14558TIP3    H143619   3.748   5.589   0.891  1.9253 -0.4023 -1.7196
14558TIP3    H243620   3.664   5.473   0.842 -0.8309  0.5002  0.5692
14559TIP3   OH243621   7.188   4.094   4.335 -0.1711  0.3519  0.7640
14559TIP3    H143622   7.116   4.037   4.359  0.6775 -0.8263  0.6147
14559TIP3    H243623   7.237   4.107   4.417  0.2947 -0.1118  0.5656
14560TIP3   OH243624   7.833   6.826   6.547 -0.2619  0.1527  0.4718
14560TIP3    H143625   7.775   6.840   6.621 -0.3856  0.5611  0.2989
14560TIP3    H243626   7.867   6.737   6.560 -0.3719  0.1777  0.9510
14561TIP3   OH243627   0.571   7.426   0.278 -0.0552 -0.1125  0.1187
14561TIP3    H143628   0.509   7.391   0.342 -0.5099 -1.1569 -0.8557
14561TIP3    H243629   0.561   7.521   0.284  0.4429 -0.1392  2.0825
14562TIP3   OH243630   1.400   4.888   3.611 -0.1607 -0.3866  0.0162
14562TIP3    H143631   1.321   4.837   3.626 -2.1234  1.1046 -3.8832
14562TIP3    H243632   1.453   4.834   3.552  0.5807 -0.3281  0.6107
14563TIP3   OH243633   0.137   5.607   0.038  0.0514 -0.3915 -0.2874
14563TIP3    H143634   0.129   5.587   0.131 -0.5480  0.9458 -0.0294
14563TIP3    H243635   0.230   5.623   0.024 -0.2204  2.8448  0.8847
14564TIP3   OH243636   2.994   6.579   6.545 -0.3970 -0.5265  0.1128
14564TIP3    H143637   2.994   6.626   6.462 -0.2223  0.0046  0.4131
14564TIP3    H243638   3.074   6.527   6.543  0.3100  0.5259  0.5319
14565TIP3   OH243639   4.089   5.608   6.079  0.3001 -0.0427 -0.1748
14565TIP3    H143640   4.084   5.701   6.055  0.4978 -0.3568 -1.4969
14565TIP3    H243641   4.103   5.609   6.174 -0.1398  1.2661 -0.1029
14566TIP3   OH243642   7.179   3.682   3.496  0.2041 -0.0495 -0.0269
14566TIP3    H143643   7.211   3.593   3.512 -0.3746 -0.6481 -1.9074
14566TIP3    H243644   7.148   3.712   3.581 -0.7370 -2.1211  0.4271
14567TIP3   OH243645   2.942   7.228   3.361  0.3701  0.1913 -0.4008
14567TIP3    H143646   3.037   7.216   3.359  0.2424 -0.8857 -0.5428
14567TIP3    H243647   2.907   7.148   3.322 -0.6782 -0.6491  2.0581
14568TIP3   OH243648   2.883   6.945   5.764  0.2709  0.1740  0.4399
14568TIP3    H143649   2.973   6.947   5.797  0.6908 -0.8105 -0.5827
14568TIP3    H243650   2.829   6.937   5.842  1.0897  0.4392  1.0484
14569TIP3   OH243651   1.695   5.341   5.218 -0.1016 -0.3211  0.0025
14569TIP3    H143652   1.662   5.414   5.269  0.6956 -0.4804  0.7664
14569TIP3    H243653   1.683   5.368   5.127 -1.3775  0.0345  0.2611
14570TIP3   OH243654   4.644   2.707   6.625 -0.1360  0.6400 -0.0555
14570TIP3    H143655   4.653   2.618   6.591 -0.7086  0.6283 -0.1801
14570TIP3    H243656   4.637   2.696   6.720 -2.2735  0.3806 -0.2055
14571TIP3   OH243657   4.195   4.474   5.853 -1.1991  0.5185  0.7860
14571TIP3    H143658   4.127   4.422   5.895 -1.3852  1.0507  1.1468
14571TIP3    H243659   4.212   4.546   5.914 -0.6149  0.6230  0.5066
14572TIP3   OH243660   2.885   3.884   1.223 -0.0466  0.1097  0.4414
14572TIP3    H143661   2.979   3.891   1.211 -0.1391 -0.2158 -0.5948
14572TIP3    H243662   2.848   3.941   1.155 -0.6040 -0.8877 -0.1130
14573TIP3   OH243663   6.290   4.328   6.044 -0.0561 -0.3224 -0.7751
14573TIP3    H143664   6.356   4.363   6.104  1.1541 -1.4455 -1.4033
14573TIP3    H243665   6.254   4.405   6.000  0.0026  0.4006  0.3920
14574TIP3   OH243666   7.983   3.729   4.485  0.0380 -0.2720  0.2734
14574TIP3    H143667   7.951   3.773   4.407 -1.2527 -1.9064 -0.1780
14574TIP3    H243668   8.073   3.762   4.497  0.1757  0.1840 -1.7366
14575TIP3   OH243669   6.399   2.043   4.687 -0.0897  0.0289  0.2389
14575TIP3    H143670   6.411   2.115   4.749 -1.1212 -0.1826  0.6884
14575TIP3    H243671   6.480   1.992   4.694  0.7242  1.2070 -0.1967
14576TIP3   OH243672   7.630   4.969   2.595  0.5009  0.7083 -0.1142
14576TIP3    H143673   7.545   5.005   2.570 -1.4599 -1.1400  3.0923
14576TIP3    H243674   7.690   5.044   2.593 -1.7471  2.5998 -0.2737
14577TIP3   OH243675   5.165   1.157   3.255 -0.5060  0.3981  0.2951
14577TIP3    H143676   5.118   1.122   3.179  0.4290 -1.3377  0.4628
14577TIP3    H243677   5.225   1.087   3.280  0.4143  1.6015  1.5996
14578TIP3   OH243678   6.931   0.531   0.021  0.2840 -0.1251 -0.4136
14578TIP3    H143679   6.998   0.595   0.044  0.3499  0.1027 -1.1951
14578TIP3    H243680   6.974   0.472  -0.041  0.3067 -1.1035  0.5089
14579TIP3   OH243681   5.034   0.801   1.873 -0.7046 -0.1987 -0.0862
14579TIP3    H143682   5.127   0.779   1.880 -0.6315 -0.4840 -1.5132
14579TIP3    H243683   5.033   0.893   1.848 -0.7141 -0.6052 -1.7011
14580TIP3   OH243684   5.508   2.566   5.737 -0.1069 -0.3856  0.1919
14580TIP3    H143685   5.497   2.652   5.777  2.3766  0.0713  0.0753
14580TIP3    H243686   5.579   2.579   5.674 -0.0948 -2.3983 -0.2567
14581TIP3   OH243687   7.857   7.802   4.933  0.9424  0.3902  0.1218
14581TIP3    H143688   7.844   7.710   4.957  0.4761  0.5009  0.3236
14581TIP3    H243689   7.921   7.800   4.862  1.4010 -0.0441  0.5345
14582TIP3   OH243690   0.394   2.411   5.646  0.5072 -0.0904  0.2131
14582TIP3    H143691   0.380   2.369   5.731  1.6085  0.8261  0.8781
14582TIP3    H243692   0.474   2.462   5.658  0.7601 -0.0593 -1.4310
14583TIP3   OH243693   3.521   7.680   5.837 -0.2984  0.2349  0.0630
14583TIP3    H143694   3.506   7.773   5.819 -1.9494 -0.0296 -0.1671
14583TIP3    H243695   3.570   7.678   5.919 -0.1839  1.3095  0.0336
14584TIP3   OH243696   7.687   7.000   6.101  0.3249 -0.1969 -0.3815
14584TIP3    H143697   7.641   6.995   6.185 -1.4811  0.4468 -1.2813
14584TIP3    H243698   7.631   6.954   6.039  0.6867  0.9281 -1.6010
14585TIP3   OH243699   7.309   2.626   4.464 -0.2820  0.1556 -0.0051
14585TIP3    H143700   7.257   2.563   4.414 -0.4014  2.2044 -2.6859
14585TIP3    H243701   7.261   2.708   4.457  2.5163  1.8239 -1.4323
14586TIP3   OH243702   4.771   4.508   5.888 -0.0612  0.0849 -0.4340
14586TIP3    H143703   4.711   4.526   5.960 -0.4206  0.6224 -0.8590
14586TIP3    H243704   4.854   4.487   5.930 -0.4514 -0.2946  0.1508
14587TIP3   OH243705   7.190   5.538   5.183 -0.1451  1.3862 -0.1401
14587TIP3    H143706   7.145   5.620   5.165 -0.6109  1.2722  0.4894
14587TIP3    H243707   7.119   5.475   5.200  0.2228  0.9686 -0.1364
14588TIP3   OH243708   7.561   4.480   0.657 -0.1425 -0.6772  0.4545
14588TIP3    H143709   7.496   4.516   0.597 -1.1877 -0.1533  1.8565
14588TIP3    H243710   7.547   4.385   0.653 -2.1136 -0.4826  1.9319
14589TIP3   OH243711   2.772   3.713   0.287 -0.3366 -0.7313 -0.2482
14589TIP3    H143712   2.813   3.708   0.200 -2.0141 -2.7088 -1.0109
14589TIP3    H243713   2.728   3.629   0.298 -3.8089  0.9822  0.6175
14590TIP3   OH243714   7.467   4.645   1.020 -0.0796  0.0320 -0.2716
14590TIP3    H143715   7.448   4.720   1.077  0.6571  0.4544 -0.5729
14590TIP3    H243716   7.526   4.680   0.953 -0.6753 -0.5389 -1.1066
14591TIP3   OH243717   6.110   2.917   1.751 -0.3257  0.3454 -0.3674
14591TIP3    H143718   6.070   2.842   1.794 -2.2926  1.5963  0.0919
14591TIP3    H243719   6.103   2.898   1.657 -0.1927 -0.3258 -0.2442
14592TIP3   OH243720   0.215  -0.025   1.956 -0.1299  0.1068  0.0225
14592TIP3    H143721   0.237   0.061   1.923 -0.1222 -0.3308 -1.1527
14592TIP3    H243722   0.119  -0.029   1.951 -0.0592 -0.5115 -1.4575
14593TIP3   OH243723   0.419   1.562   5.796 -0.4222  0.1602 -0.2724
14593TIP3    H143724   0.452   1.629   5.856 -0.9960 -0.8804  1.2712
14593TIP3    H243725   0.325   1.577   5.792 -0.7084 -1.1740  0.9342
14594TIP3   OH243726   0.874   3.220   5.943 -0.0730  0.1801  0.3463
14594TIP3    H143727   0.957   3.265   5.953 -0.7685  1.6729 -0.3513
14594TIP3    H243728   0.897   3.127   5.939  1.5153  0.5475  0.4295
14595TIP3   OH243729   7.323   0.824   1.520 -0.0959  0.0951 -0.1286
14595TIP3    H143730   7.261   0.773   1.468 -0.1294 -1.5101  1.4135
14595TIP3    H243731   7.288   0.913   1.518 -0.3116  0.0039 -2.4558
14596TIP3   OH243732   6.361   6.951   3.575  0.1748  0.0163 -0.1526
14596TIP3    H143733   6.352   7.046   3.583  0.9488  0.0957 -0.1412
14596TIP3    H243734   6.274   6.917   3.593 -0.7706  0.8592 -2.7176
14597TIP3   OH243735   2.300   3.351   1.515  0.4356  0.2810  0.8340
14597TIP3    H143736   2.225   3.367   1.458 -0.2235  0.6677  1.7806
14597TIP3    H243737   2.314   3.434   1.560 -0.4126 -0.5645  2.7886
14598TIP3   OH243738   0.363   0.659   4.227 -0.2637  0.4140 -0.9727
14598TIP3    H143739   0.291   0.607   4.264  0.7492  0.0338  0.5792
14598TIP3    H243740   0.346   0.748   4.258  1.4319 -0.1570  2.0067
14599TIP3   OH243741   3.133   0.226   1.489  0.0933  0.1258  0.0527
14599TIP3    H143742   3.060   0.224   1.427 -0.6835  2.7397  0.7531
14599TIP3    H243743   3.211   0.227   1.433 -0.5373  0.8677 -0.8541
14600TIP3   OH243744   0.497   3.848   5.123  0.7827 -0.2493 -0.0220
14600TIP3    H143745   0.454   3.931   5.103 -0.1125  0.1598  3.0650
14600TIP3    H243746   0.440   3.781   5.086  0.2179  0.4479 -0.4187
14601TIP3   OH243747   1.501   0.548   4.720  0.2186 -0.1358  0.0254
14601TIP3    H143748   1.437   0.476   4.715  1.6519 -1.3953 -1.1075
14601TIP3    H243749   1.530   0.547   4.811 -2.2661  1.3319  0.9250
14602TIP3   OH243750   1.726   6.535   4.813 -0.3611  0.7924 -0.7298
14602TIP3    H143751   1.767   6.547   4.898  1.6574 -0.2298 -1.5051
14602TIP3    H243752   1.639   6.573   4.823 -0.4660  0.0010  1.9948
14603TIP3   OH243753   2.559   1.480   6.128 -0.5280  0.1281  0.0366
14603TIP3    H143754   2.498   1.406   6.139  0.7526 -1.2228 -1.4696
14603TIP3    H243755   2.633   1.458   6.185 -0.3309  0.4948 -0.0775
14604TIP3   OH243756   5.475   7.648   6.410  0.2526 -0.1921  0.5718
14604TIP3    H143757   5.511   7.642   6.498  0.3668  1.4048  0.6547
14604TIP3    H243758   5.387   7.683   6.422  0.5658  0.8313  0.0104
14605TIP3   OH243759   5.613   1.442   4.597  0.2279  0.2174 -0.2824
14605TIP3    H143760   5.587   1.450   4.689 -0.3354 -2.0300 -0.2003
14605TIP3    H243761   5.687   1.382   4.597  2.0919  2.3422 -1.0966
14606TIP3   OH243762   2.668   2.557   5.616  0.5361 -0.3170 -0.2229
14606TIP3    H143763   2.616   2.488   5.575  0.9954 -0.1819 -1.0436
14606TIP3    H243764   2.640   2.637   5.573  1.3413 -0.2286 -0.5827
14607TIP3   OH243765   5.983   6.589   4.877 -0.6910 -0.3059 -0.0304
14607TIP3    H143766   5.966   6.667   4.930 -0.4957 -0.3056  0.0353
14607TIP3    H243767   5.897   6.553   4.857 -0.8093  0.2309 -0.5187
14608TIP3   OH243768   0.824   2.347   4.065  0.0810 -0.0743 -0.4626
14608TIP3    H143769   0.796   2.438   4.059  1.1975  0.3437  0.3013
14608TIP3    H243770   0.743   2.297   4.064 -0.5240  0.8628 -1.7218
14609TIP3   OH243771   0.323   3.512   6.104 -0.2599 -0.7942  0.0301
14609TIP3    H143772   0.383   3.511   6.179 -2.8023 -0.4037  2.2065
14609TIP3    H243773   0.379   3.533   6.029  2.2538 -0.1512  1.9587
14610TIP3   OH243774   8.158   5.198   2.452  0.0588  0.2720  0.3749
14610TIP3    H143775   8.127   5.143   2.379  1.1816  0.3493 -0.1945
14610TIP3    H243776   8.100   5.274   2.452 -0.2827  0.0149 -0.1089
14611TIP3   OH243777   6.842   6.207   1.249  0.0720  0.5494 -0.3830
14611TIP3    H143778   6.895   6.276   1.210  0.4963  0.6977  0.4448
14611TIP3    H243779   6.904   6.152   1.297 -0.4333  0.3533  0.0672
14612TIP3   OH243780   0.031   7.270   4.805 -0.4469 -0.0964 -0.4022
14612TIP3    H143781   0.060   7.238   4.719  0.5958 -0.1785 -0.0356
14612TIP3    H243782  -0.044   7.215   4.826 -0.7363 -0.0603 -1.2715
14613TIP3   OH243783   8.012   6.128   4.487  0.2181  0.2534 -0.2968
14613TIP3    H143784   7.969   6.092   4.564  1.6684 -1.8296 -0.3640
14613TIP3    H243785   8.064   6.201   4.520  0.5772 -0.4251  0.6942
14614TIP3   OH243786   4.742   4.338   1.728  0.9381 -0.2836 -0.2552
14614TIP3    H143787   4.701   4.356   1.813 -0.1914 -0.3129 -0.7879
14614TIP3    H243788   4.677   4.288   1.680  0.4137  2.1032 -2.2040
14615TIP3   OH243789   2.511   5.778   3.575 -0.2996  0.3890  0.6113
14615TIP3    H143790   2.592   5.822   3.600  0.7120 -2.1089  2.0818
14615TIP3    H243791   2.491   5.721   3.649 -2.0110 -0.9352 -0.7934
14616TIP3   OH243792   6.292   2.623   6.161 -0.3977 -0.8478 -0.6997
14616TIP3    H143793   6.378   2.635   6.121  0.5445 -4.1325  0.0754
14616TIP3    H243794   6.279   2.702   6.214  1.8840 -0.0520 -1.2266
14617TIP3   OH243795   6.635   3.453   2.413  0.1187  0.6499 -0.2449
14617TIP3    H143796   6.650   3.525   2.475 -0.8430  0.9026 -0.2968
14617TIP3    H243797   6.585   3.388   2.462  0.9651  0.0103 -0.2057
14618TIP3   OH243798   7.188   7.469   3.464  0.5230  0.5322 -0.3079
14618TIP3    H143799   7.231   7.455   3.380  1.9604  0.3941  0.4285
14618TIP3    H243800   7.193   7.564   3.478  1.0858  0.4605  0.0186
14619TIP3   OH243801   1.822   1.813   3.496  0.3857  0.5867 -0.5059
14619TIP3    H143802   1.871   1.857   3.565 -0.7990 -0.9019  1.4122
14619TIP3    H243803   1.732   1.846   3.506  0.1396  0.1245 -1.1343
14620TIP3   OH243804   7.452   3.335   5.211  0.0769 -0.6051  0.0594
14620TIP3    H143805   7.448   3.395   5.284 -0.4586 -0.6096  0.0373
14620TIP3    H243806   7.478   3.251   5.250  0.6385 -0.4141  0.1151
14621TIP3   OH243807   1.002   7.341   0.777 -0.2604 -0.9813  0.6896
14621TIP3    H143808   1.054   7.421   0.769 -0.0399 -1.1071  0.8667
14621TIP3    H243809   0.982   7.334   0.871 -1.2662 -0.5094  0.5245
14622TIP3   OH243810   6.963   6.355   3.982  0.1749 -0.2108 -0.0491
14622TIP3    H143811   7.024   6.411   4.030  0.2609 -2.5004  2.7675
14622TIP3    H243812   6.877   6.393   3.999  0.3683  0.0078  0.4554
14623TIP3   OH243813   7.229   0.645   1.087  0.2577 -0.0400 -0.0483
14623TIP3    H143814   7.188   0.559   1.078 -0.1785 -0.2440  2.9352
14623TIP3    H243815   7.170   0.695   1.144  1.3679  1.6331 -0.2788
14624TIP3   OH243816   1.664   4.009   2.811  0.1935  0.5331 -0.2943
14624TIP3    H143817   1.689   4.042   2.724 -1.4380  0.7432 -0.7081
14624TIP3    H243818   1.587   4.060   2.836  2.0444  2.2495  2.4352
14625TIP3   OH243819   2.368   3.940   0.173 -0.4211 -0.1378 -0.0457
14625TIP3    H143820   2.408   3.885   0.239 -0.6134 -2.6482 -1.8702
14625TIP3    H243821   2.440   3.967   0.116 -0.5754  0.0238 -0.1692
14626TIP3   OH243822   8.116   1.192   1.706 -0.4574 -0.0186 -0.3784
14626TIP3    H143823   8.114   1.288   1.711  0.3787 -0.0408  1.1037
14626TIP3    H243824   8.195   1.173   1.656 -2.0751  0.0504 -3.1413
14627TIP3   OH243825   0.014   4.947   0.579 -0.1653  0.1213 -0.3457
14627TIP3    H143826  -0.011   4.994   0.659 -2.8276 -0.7879 -0.5463
14627TIP3    H243827   0.006   4.855   0.602  2.4037 -0.2639 -0.7292
14628TIP3   OH243828   5.615   7.642   2.825 -0.1270 -0.3910 -0.3187
14628TIP3    H143829   5.678   7.713   2.812 -1.0515  0.2077 -1.7358
14628TIP3    H243830   5.663   7.576   2.876  1.7804 -0.1162 -1.6644
14629TIP3   OH243831   6.319   2.312   1.370  0.5046 -0.1790  0.5306
14629TIP3    H143832   6.330   2.403   1.344  2.9212 -1.2562 -2.9656
14629TIP3    H243833   6.360   2.306   1.456  0.3258  1.9935  0.8156
14630TIP3   OH243834   0.056   7.698   0.041  0.4049  0.0075 -0.4201
14630TIP3    H143835   0.142   7.696   0.082  0.5204  1.1896 -0.5913
14630TIP3    H243836   0.059   7.772  -0.020 -1.1302  0.8418  0.4479
14631TIP3   OH243837   1.800   5.674   1.334 -0.0112  0.3848  0.2846
14631TIP3    H143838   1.834   5.690   1.422 -1.4452 -0.1381  0.9727
14631TIP3    H243839   1.707   5.697   1.339 -0.3327 -0.5404 -0.8261
14632TIP3   OH243840   5.182   0.362   2.836  0.0031  0.0077  0.0488
14632TIP3    H143841   5.219   0.383   2.750 -0.1439  1.3848  0.3053
14632TIP3    H243842   5.146   0.445   2.868 -4.0980 -1.3122 -0.5299
14633TIP3   OH243843   6.305   2.743   2.189 -0.2766  0.0074  0.1308
14633TIP3    H143844   6.349   2.796   2.255 -1.5450  0.1515  0.8913
14633TIP3    H243845   6.371   2.680   2.162  0.6148  0.6587  0.7192
14634TIP3   OH243846   4.785   0.628   4.837 -0.2171 -0.2150  0.1477
14634TIP3    H143847   4.776   0.707   4.890  0.6749  0.9083 -1.2959
14634TIP3    H243848   4.739   0.648   4.756 -1.2237 -1.7506  0.2931
14635TIP3   OH243849   3.391   4.600   0.760  0.1649 -0.1543 -0.0091
14635TIP3    H143850   3.407   4.629   0.849  0.2163 -1.3081  0.3763
14635TIP3    H243851   3.466   4.546   0.738  0.8250  1.2057 -1.2668
14636TIP3   OH243852   5.138   6.449   0.768  0.0033 -0.6522  0.0217
14636TIP3    H143853   5.143   6.469   0.674 -1.7900  0.9790  0.2129
14636TIP3    H243854   5.120   6.533   0.809  1.2591 -1.2472  1.9313
14637TIP3   OH243855   1.327   1.307   5.397 -0.4512 -0.4819  0.3384
14637TIP3    H143856   1.397   1.371   5.401 -0.3533 -0.5949  0.4821
14637TIP3    H243857   1.250   1.353   5.430 -0.9673  0.2980 -1.8184
14638TIP3   OH243858   6.923   1.708   4.526  0.2383  0.4600  0.3989
14638TIP3    H143859   6.914   1.744   4.614  2.6409 -1.9754  1.8068
14638TIP3    H243860   6.997   1.757   4.488  0.5188  0.1339  0.5249
14639TIP3   OH243861   5.034   7.072   4.327 -0.8248  0.6119 -0.0833
14639TIP3    H143862   5.060   7.128   4.401 -0.0487 -0.2474  0.3100
14639TIP3    H243863   4.997   6.994   4.367 -2.9443  1.2791 -0.6384
14640TIP3   OH243864   1.731   5.506   2.940 -0.2176 -0.7151 -0.1970
14640TIP3    H143865   1.723   5.602   2.940  2.8935 -0.3146  1.5878
14640TIP3    H243866   1.646   5.475   2.970 -1.2006  1.4809 -0.5041
14641TIP3   OH243867   4.774   0.828   5.722 -0.2558  0.1251  0.0337
14641TIP3    H143868   4.683   0.838   5.692  0.0405  0.0439 -0.9256
14641TIP3    H243869   4.766   0.790   5.810 -1.1573  0.5595  0.1540
14642TIP3   OH243870   1.989   5.045   5.755  0.2327  0.0037  0.5275
14642TIP3    H143871   1.984   5.118   5.693  1.6493 -1.1366 -1.0108
14642TIP3    H243872   1.942   4.974   5.711 -1.6818  0.0865  2.2762
14643TIP3   OH243873   7.242   0.199   4.459 -0.3649 -0.0750  0.0275
14643TIP3    H143874   7.230   0.212   4.365 -0.0210  0.2894  0.0314
14643TIP3    H243875   7.216   0.108   4.474  0.3004 -0.3714 -0.5527
14644TIP3   OH243876   8.208   4.936   6.119  0.1775  0.2882  0.1804
14644TIP3    H143877   8.115   4.947   6.102  0.2538  1.1724  0.3328
14644TIP3    H243878   8.219   4.960   6.211  0.3173 -1.2721  0.6082
14645TIP3   OH243879   4.718   5.870   3.107  0.1614  0.5022  0.1773
14645TIP3    H143880   4.689   5.809   3.039 -0.4253 -0.7401  1.4944
14645TIP3    H243881   4.811   5.850   3.118  0.4068  1.1111 -0.6251
14646TIP3   OH243882   5.995   7.773   4.765  0.4521  0.2920 -0.4426
14646TIP3    H143883   6.013   7.718   4.688  1.5875  0.4411 -0.2993
14646TIP3    H243884   6.062   7.749   4.828  0.0988  0.8468  0.1611
14647TIP3   OH243885   1.850   6.732   0.960 -0.0238  0.7232 -0.0620
14647TIP3    H143886   1.774   6.722   0.902 -0.3485  0.2376  0.4334
14647TIP3    H243887   1.924   6.739   0.900 -0.2144 -0.8838 -0.5548
14648TIP3   OH243888   7.844   3.140   2.508 -0.3708 -0.6790 -0.0325
14648TIP3    H143889   7.875   3.176   2.591 -1.0291  0.1091 -0.1139
14648TIP3    H243890   7.915   3.082   2.479  0.6060  0.3329  0.2447
14649TIP3   OH243891   4.740   6.951   5.383  0.6280 -0.1790  0.4165
14649TIP3    H143892   4.651   6.977   5.408  0.3919 -0.3866 -0.1799
14649TIP3    H243893   4.797   6.995   5.446  0.1635  0.8256  0.1496
14650TIP3   OH243894   4.835   4.814   6.718 -0.6332 -0.1460 -0.4142
14650TIP3    H143895   4.870   4.831   6.631 -0.8268  2.4821 -0.0606
14650TIP3    H243896   4.779   4.736   6.707  2.2877 -2.2398 -1.7478
14651TIP3   OH243897   1.640   0.182   1.919 -0.2147 -0.0282 -0.3279
14651TIP3    H143898   1.705   0.192   1.850 -0.4291 -1.3062 -0.7427
14651TIP3    H243899   1.601   0.096   1.903 -0.7832 -0.0297  0.9488
14652TIP3   OH243900   1.548   3.213   3.094 -0.4887 -0.0637 -0.7480
14652TIP3    H143901   1.561   3.180   3.005  3.1269 -0.5663 -0.2023
14652TIP3    H243902   1.555   3.308   3.085  3.3851 -0.1874 -0.7876
14653TIP3   OH243903   3.387   6.880   1.926  0.4032  0.1154  0.0491
14653TIP3    H143904   3.474   6.854   1.897  0.6745 -0.5487  1.3771
14653TIP3    H243905   3.357   6.807   1.980 -0.9910  0.3251 -0.3913
14654TIP3   OH243906   3.503   4.757   2.767 -0.1287 -0.3065  0.7318
14654TIP3    H143907   3.482   4.844   2.733 -2.0116 -0.8291  0.3976
14654TIP3    H243908   3.437   4.742   2.835  1.3511 -0.7382  2.1240
14655TIP3   OH243909   3.145   2.763   4.582 -0.2992 -0.5762  0.3636
14655TIP3    H143910   3.143   2.696   4.514 -0.9992 -2.6922  2.3379
14655TIP3    H243911   3.142   2.846   4.534  0.6232 -1.9091 -2.1964
14656TIP3   OH243912   5.907   3.836   2.142 -0.0968 -0.2174  0.2403
14656TIP3    H143913   5.945   3.774   2.079 -1.3937 -1.3772  0.5600
14656TIP3    H243914   5.853   3.894   2.088  1.0476  0.6110 -0.0488
14657TIP3   OH243915   1.654   2.910   4.364 -0.0872 -0.0746  0.3843
14657TIP3    H143916   1.603   2.838   4.401  0.6263 -0.3463  0.8740
14657TIP3    H243917   1.745   2.889   4.388  0.6714 -1.1408 -2.9152
14658TIP3   OH243918   5.555   4.403   3.268  0.0774  0.0703  0.2415
14658TIP3    H143919   5.466   4.431   3.292  0.1016 -1.1419  1.9230
14658TIP3    H243920   5.555   4.401   3.172 -2.2693 -1.5514  0.1938
14659TIP3   OH243921   1.782   2.004   0.755  0.0036 -0.9011 -0.1939
14659TIP3    H143922   1.721   2.073   0.781  1.9905  0.5436  0.9307
14659TIP3    H243923   1.830   1.983   0.835  1.1128 -1.8354 -1.0667
14660TIP3   OH243924   0.805   6.348   1.629  0.1653  0.0459 -0.4104
14660TIP3    H143925   0.731   6.287   1.633  0.0255  0.1654 -1.0444
14660TIP3    H243926   0.772   6.430   1.665 -0.3701  0.4402 -1.7453
14661TIP3   OH243927   4.615   2.497   4.917  0.8620  0.2958 -0.3459
14661TIP3    H143928   4.630   2.405   4.940  2.5538  0.2243 -1.5649
14661TIP3    H243929   4.584   2.494   4.827  0.2872  0.8920 -0.1701
14662TIP3   OH243930   6.031   3.020   1.236  0.2410  0.0911 -0.0689
14662TIP3    H143931   5.980   2.971   1.171  0.5200  0.8680 -0.9046
14662TIP3    H243932   6.040   3.107   1.198 -0.0524  0.7345  1.2867
14663TIP3   OH243933   7.471   0.207   4.613 -0.0636 -0.2674  0.0815
14663TIP3    H143934   7.460   0.298   4.643  0.9538 -0.1165  0.0454
14663TIP3    H243935   7.400   0.193   4.551  0.9010  1.1635 -1.4129
14664TIP3   OH243936   4.121   5.178   1.425 -0.1674 -0.2954 -0.2092
14664TIP3    H143937   4.080   5.095   1.448  1.2241 -0.7082  0.9447
14664TIP3    H243938   4.202   5.154   1.380  0.7342  0.3746  0.9890
14665TIP3   OH243939   7.348   0.618   2.632  0.3088  0.1827  0.3201
14665TIP3    H143940   7.337   0.701   2.586 -0.8413 -1.3286 -2.3601
14665TIP3    H243941   7.377   0.556   2.565 -0.6058 -1.9999  1.8097
14666TIP3   OH243942   2.546   5.891   0.920  0.0794 -0.2483  0.2737
14666TIP3    H143943   2.483   5.833   0.964  0.4666 -0.7327  0.1990
14666TIP3    H243944   2.571   5.843   0.841  0.0867  0.2103 -0.0058
14667TIP3   OH243945   6.058   6.595   3.859 -0.3629 -0.5169 -0.0097
14667TIP3    H143946   5.962   6.585   3.858 -0.4244  0.0561 -0.7453
14667TIP3    H243947   6.089   6.533   3.793 -0.3207  0.0616 -0.5493
14668TIP3   OH243948   7.648   6.749   4.434  0.5240  0.3545 -0.0981
14668TIP3    H143949   7.574   6.698   4.401  0.2454 -0.4673  1.7279
14668TIP3    H243950   7.723   6.692   4.422  0.4991  0.2502  0.2601
14669TIP3   OH243951   5.417   6.946   0.443  0.5473  0.1696  0.1353
14669TIP3    H143952   5.447   6.911   0.359 -0.4057 -1.5325  0.4454
14669TIP3    H243953   5.322   6.948   0.435  0.4825  0.6315  0.9355
14670TIP3   OH243954   2.073   3.599   2.580  0.1256  0.4612 -0.0901
14670TIP3    H143955   2.034   3.585   2.666  0.9854 -1.5138  0.0337
14670TIP3    H243956   2.096   3.692   2.579 -0.5977  0.6885  1.4970
14671TIP3   OH243957   6.845   7.705   3.741  0.2833 -0.1700  0.2780
14671TIP3    H143958   6.842   7.615   3.709  1.2814 -0.1088 -0.0329
14671TIP3    H243959   6.926   7.741   3.704  0.2679  0.6312  0.9824
14672TIP3   OH243960   7.757   0.566   3.595 -0.1289  0.1603  0.4250
14672TIP3    H143961   7.680   0.550   3.650 -2.4665  1.8067 -2.1170
14672TIP3    H243962   7.792   0.649   3.626  0.0874 -0.1110  0.9379
14673TIP3   OH243963   7.420   1.678   6.456  0.1545 -0.2406  0.1921
14673TIP3    H143964   7.348   1.682   6.393  0.6564 -2.6755 -0.6511
14673TIP3    H243965   7.457   1.766   6.456 -2.1106  0.7673 -0.1769
14674TIP3   OH243966   3.595   6.608   2.582 -0.2258 -0.9363 -0.1074
14674TIP3    H143967   3.505   6.578   2.576 -0.0252 -1.4720 -0.4993
14674TIP3    H243968   3.615   6.641   2.494 -0.7861  1.3946  0.5540
14675TIP3   OH243969   5.843   2.547   2.667  0.1262 -0.1268  0.3769
14675TIP3    H143970   5.774   2.549   2.601 -0.8378 -1.8429  1.2558
14675TIP3    H243971   5.924   2.558   2.618 -0.4896 -2.1395 -1.2623
14676TIP3   OH243972   7.531   5.885   2.560  0.0943 -0.1010 -0.1500
14676TIP3    H143973   7.537   5.796   2.526 -1.8278 -0.6418  0.7553
14676TIP3    H243974   7.610   5.928   2.529 -0.3338 -1.2375 -3.2017
14677TIP3   OH243975   5.837   6.796   1.289 -0.0853  0.2347  0.6997
14677TIP3    H143976   5.857   6.763   1.202  0.1920 -2.0824  1.5702
14677TIP3    H243977   5.753   6.841   1.280  0.4930  1.0354 -0.9586
14678TIP3   OH243978   3.014   1.327   5.133 -0.1654  0.6768 -0.0727
14678TIP3    H143979   2.965   1.363   5.206 -0.3363  0.0977  0.1048
14678TIP3    H243980   2.971   1.243   5.114  0.3997  0.4307 -0.2892
14679TIP3   OH243981   1.963   1.061   6.658  0.1178 -0.4548 -0.3609
14679TIP3    H143982   1.905   1.050   6.734  1.5274  1.9119  1.1995
14679TIP3    H243983   1.926   1.136   6.611  0.4488 -0.5744 -0.8150
14680TIP3   OH243984   7.967   5.932   2.665 -0.2584 -0.1469 -0.1915
14680TIP3    H143985   8.057   5.955   2.690 -0.0337  0.9800 -1.9001
14680TIP3    H243986   7.913   5.973   2.733  0.4632  0.1858  0.1980
14681TIP3   OH243987   5.045   3.464   0.947  0.9632 -0.3118  0.3546
14681TIP3    H143988   5.082   3.381   0.979 -1.3007 -1.9877 -1.0353
14681TIP3    H243989   4.962   3.473   0.994  1.1183  1.1025  0.3721
14682TIP3   OH243990   7.917   7.038   1.957 -0.0788  0.3141  0.9282
14682TIP3    H143991   7.996   7.042   1.903 -0.2215  4.2842  0.7031
14682TIP3    H243992   7.873   6.957   1.930  1.7057  0.2295 -2.1880
14683TIP3   OH243993   7.710   3.522   0.208 -0.1369 -0.2605 -0.3408
14683TIP3    H143994   7.639   3.579   0.177 -0.2127  0.0538  0.4032
14683TIP3    H243995   7.665   3.442   0.236  0.0758 -1.2431 -2.5730
14684TIP3   OH243996   7.598   5.113   4.810 -0.1321 -0.5356 -0.0083
14684TIP3    H143997   7.662   5.165   4.761  1.0745 -0.8508  1.1912
14684TIP3    H243998   7.583   5.163   4.890  0.0873 -1.4221  0.5957
14685TIP3   OH243999   6.765   5.166   6.743 -0.0266  0.4073  0.7446
14685TIP3    H144000   6.718   5.233   6.794 -1.1047 -0.9594  1.6261
14685TIP3    H244001   6.699   5.097   6.729  1.0161 -0.4150 -0.2445
14686TIP3   OH244002   6.179   0.036   3.793 -0.5605  0.2670 -0.3216
14686TIP3    H144003   6.170   0.097   3.866 -0.5199 -0.7682  0.5798
14686TIP3    H244004   6.269   0.005   3.798 -0.5046  0.3257 -0.9261
14687TIP3   OH244005   7.931   3.558   0.799 -0.8281 -0.0420 -0.1923
14687TIP3    H144006   7.893   3.477   0.832 -2.6121  0.7207 -0.2703
14687TIP3    H244007   7.927   3.618   0.874  0.8195 -0.0932 -0.0220
14688TIP3   OH244008   0.694   4.160   2.829 -0.3422 -0.0458  0.1609
14688TIP3    H144009   0.602   4.182   2.846 -1.1210 -1.4946 -1.7145
14688TIP3    H244010   0.703   4.170   2.734  0.6749 -2.4363 -0.0648
14689TIP3   OH244011   1.061   1.505   2.531  0.2290 -0.1785 -0.0877
14689TIP3    H144012   1.111   1.434   2.491  0.9063  0.4040 -0.2840
14689TIP3    H244013   0.970   1.476   2.526  0.5251 -1.1951  0.1591
14690TIP3   OH244014   3.677   0.453   3.759 -0.7748  0.9473 -0.0351
14690TIP3    H144015   3.615   0.421   3.693 -0.3017  0.1945 -0.1200
14690TIP3    H244016   3.625   0.460   3.839 -1.0343  0.5874 -0.1700
14691TIP3   OH244017   4.753   2.407   3.014  0.1587  0.4455  0.0196
14691TIP3    H144018   4.703   2.466   3.071  2.3236  0.9620  1.5239
14691TIP3    H244019   4.798   2.466   2.953  0.5483  0.1648  0.0350
14692TIP3   OH244020   4.311   4.548   0.911 -0.0912  0.0637 -0.0270
14692TIP3    H144021   4.312   4.601   0.832  0.6312  1.1036  0.6655
14692TIP3    H244022   4.342   4.462   0.882 -1.6882 -0.1368 -1.2376
14693TIP3   OH244023   0.614   7.101   4.180  0.0657 -0.2337 -0.2460
14693TIP3    H144024   0.663   7.082   4.100 -1.3083  1.4350 -1.5609
14693TIP3    H244025   0.674   7.153   4.233  0.4463  0.0413 -0.9245
14694TIP3   OH244026   7.112   3.643   5.927 -0.1669 -0.0766  0.2288
14694TIP3    H144027   7.037   3.701   5.911  1.0692  0.5069 -4.9494
14694TIP3    H244028   7.169   3.694   5.985 -2.1667  0.8797  1.4897
14695TIP3   OH244029   7.129   6.394   3.681 -0.2784  0.1442  0.1855
14695TIP3    H144030   7.082   6.332   3.625 -1.5717 -1.1422  2.5353
14695TIP3    H244031   7.178   6.338   3.742  1.1333  1.4868  0.3309
14696TIP3   OH244032   4.205   1.560   5.948 -0.0432 -0.6240 -0.3213
14696TIP3    H144033   4.281   1.514   5.913  0.3775 -0.9245  0.9171
14696TIP3    H244034   4.140   1.491   5.963 -0.0075 -0.5918  0.0002
14697TIP3   OH244035   6.095   6.565   3.537  0.0458  0.1471  0.4099
14697TIP3    H144036   6.115   6.647   3.582  2.0517  0.0533 -0.2265
14697TIP3    H244037   6.142   6.571   3.454  0.1112 -1.5751  0.2900
14698TIP3   OH244038   0.170   2.062   0.900 -0.3500  0.5218  0.3583
14698TIP3    H144039   0.196   2.103   0.817  0.0065  1.3748  0.8805
14698TIP3    H244040   0.144   1.974   0.875  0.3649  0.5547 -0.5799
14699TIP3   OH244041   1.579   4.381   4.626 -0.5039  0.5474 -0.2103
14699TIP3    H144042   1.511   4.449   4.627  1.2948  2.4732 -0.0474
14699TIP3    H244043   1.586   4.354   4.718 -0.1460  1.3262 -0.0005
14700TIP3   OH244044   7.846   5.803   5.302  0.2398  0.4832  0.3113
14700TIP3    H144045   7.836   5.807   5.207 -0.7538  1.2276  0.4298
14700TIP3    H244046   7.881   5.715   5.319  1.2623  0.6585 -0.8011
14701TIP3   OH244047   5.202   1.683   5.601 -0.0409  0.3725 -0.3996
14701TIP3    H144048   5.155   1.680   5.518 -1.1559  1.2153  0.1806
14701TIP3    H244049   5.207   1.776   5.623 -0.1896  0.1352  0.6981
14702TIP3   OH244050   4.870   6.845   0.157 -0.3099  0.3227  0.1035
14702TIP3    H144051   4.822   6.846   0.074 -1.5493 -0.1612  0.8009
14702TIP3    H244052   4.956   6.809   0.134 -1.4158 -2.1032 -0.5792
14703TIP3   OH244053   5.554   6.249   0.914 -1.0967 -0.3816 -0.8189
14703TIP3    H144054   5.515   6.262   1.000  0.5559 -2.0489  0.2727
14703TIP3    H244055   5.600   6.331   0.896  1.3594 -1.0785  1.5407
14704TIP3   OH244056   3.025   6.826   0.968  0.2075 -0.5570 -0.2107
14704TIP3    H144057   2.935   6.831   0.935  0.0638  2.5358  0.3589
14704TIP3    H244058   3.038   6.734   0.989 -2.8745 -1.0822 -0.1795
14705TIP3   OH244059   3.030   5.321   4.391 -0.2419 -0.2768  0.2445
14705TIP3    H144060   2.947   5.369   4.392 -0.7514 -1.0452 -1.3229
14705TIP3    H244061   3.009   5.237   4.431 -0.1924 -0.4254 -0.0408
14706TIP3   OH244062   1.532   6.968   5.602  0.1821  0.6116  0.1414
14706TIP3    H144063   1.479   7.015   5.667  0.3688  0.8081  0.1543
14706TIP3    H244064   1.611   6.943   5.650  0.9915  2.0483 -0.3718
14707TIP3   OH244065   5.823   0.358   0.407 -0.4779 -0.3822  0.7242
14707TIP3    H144066   5.912   0.386   0.386 -1.2380  1.0740 -0.7219
14707TIP3    H244067   5.810   0.279   0.355  0.6495 -1.9253  2.5973
14708TIP3   OH244068   1.767   6.976   0.261 -0.4517 -0.2457 -0.4744
14708TIP3    H144069   1.808   7.004   0.343 -0.5025  0.8482 -0.8091
14708TIP3    H244070   1.679   7.013   0.263 -0.8132 -1.0734 -0.5730
14709TIP3   OH244071   2.576   2.273   4.824 -0.6870  0.2462 -0.5441
14709TIP3    H144072   2.486   2.245   4.809  0.0785 -2.3385 -0.7605
14709TIP3    H244073   2.630   2.203   4.787  1.4086  0.6761  1.4197
14710TIP3   OH244074   4.594   0.082   0.622  0.1050  0.2803 -0.1386
14710TIP3    H144075   4.595   0.127   0.537  2.7627 -0.4509 -0.5980
14710TIP3    H244076   4.634  -0.003   0.604 -0.9872 -0.6366  1.5244
14711TIP3   OH244077   0.710   1.762   3.300  0.7739  0.1416  0.0545
14711TIP3    H144078   0.792   1.779   3.345  0.6987  0.6564  0.0022
14711TIP3    H244079   0.721   1.801   3.213  0.4027  0.3968  0.1193
14712TIP3   OH244080   1.196   1.631   1.328  0.4538  0.1049 -0.4887
14712TIP3    H144081   1.193   1.606   1.421  2.7073 -0.0397 -0.3976
14712TIP3    H244082   1.247   1.561   1.287  0.2784  0.6585 -1.6609
14713TIP3   OH244083   7.549   0.871   1.689 -0.5650  0.2729 -0.2360
14713TIP3    H144084   7.471   0.869   1.633 -2.3675  2.0981  2.0110
14713TIP3    H244085   7.589   0.956   1.671  0.7327 -0.4777 -1.0549
14714TIP3   OH244086   1.391   5.105   1.994  0.1737  0.0292 -0.2891
14714TIP3    H144087   1.461   5.133   1.934 -0.7105  1.1414 -0.8315
14714TIP3    H244088   1.392   5.010   1.989  1.7210  0.0143 -0.2066
14715TIP3   OH244089   5.228   0.151   3.689  0.0533  0.1992  0.0681
14715TIP3    H144090   5.228   0.187   3.601  0.1520  0.5203  0.1975
14715TIP3    H244091   5.261   0.222   3.744 -0.6741  0.2399  0.4664
14716TIP3   OH244092   7.948   3.571   3.713  0.0901 -0.1381  0.4091
14716TIP3    H144093   7.915   3.548   3.799 -0.6923  1.0932  0.4541
14716TIP3    H244094   7.871   3.601   3.664  0.3680 -1.5212 -0.9924
14717TIP3   OH244095   4.877   6.220   2.011 -0.3695  0.9044  0.9631
14717TIP3    H144096   4.827   6.236   2.092 -1.1053 -0.7526  0.8615
14717TIP3    H244097   4.900   6.128   2.014 -0.6364  0.7436 -0.8549
14718TIP3   OH244098   0.059   6.102   6.467 -0.2890 -0.3381  0.2268
14718TIP3    H144099   0.092   6.013   6.484  0.9867 -0.1602 -1.0972
14718TIP3    H244100   0.027   6.100   6.377 -0.3221  0.5088  0.2066
14719TIP3   OH244101   0.088   0.510   2.246 -0.0352 -0.2785  0.3093
14719TIP3    H144102   0.176   0.476   2.235 -0.0820 -0.0323 -1.0281
14719TIP3    H244103   0.073   0.509   2.340  1.9270  1.0317  0.6899
14720TIP3   OH244104   4.459   0.496   5.960  0.0829  0.0186  0.8200
14720TIP3    H144105   4.384   0.436   5.966  1.2885 -1.4501  2.2358
14720TIP3    H244106   4.479   0.500   5.866 -1.9500  0.7495  0.3593
14721TIP3   OH244107   5.145   3.199   1.009 -0.5453 -0.0339  0.1693
14721TIP3    H144108   5.169   3.161   1.094  1.5090 -1.5289 -1.0069
14721TIP3    H244109   5.063   3.157   0.986 -1.0000  0.2124  1.2771
14722TIP3   OH244110   1.299   0.798   3.037 -0.0353 -0.7527 -0.1908
14722TIP3    H144111   1.287   0.752   3.120  0.5970 -2.7914 -1.1717
14722TIP3    H244112   1.212   0.829   3.013 -0.0139  1.2138  1.9102
14723TIP3   OH244113   7.737   2.666   0.751 -0.4247  0.4636  0.1183
14723TIP3    H144114   7.831   2.683   0.752 -0.4229  0.5168 -0.6795
14723TIP3    H244115   7.720   2.627   0.665 -1.1309  0.4602  0.2536
14724TIP3   OH244116   1.748   2.970   4.947 -0.4485 -0.8181 -0.3014
14724TIP3    H144117   1.763   3.039   4.883 -2.2892  1.1769  1.2652
14724TIP3    H244118   1.825   2.972   5.003  0.0098 -0.8064 -0.9249
14725TIP3   OH244119   6.269   3.369   1.105  0.0363  0.1230 -0.2402
14725TIP3    H144120   6.320   3.450   1.112 -0.9539  0.6468  1.5084
14725TIP3    H244121   6.182   3.397   1.077  0.1576 -0.5681 -1.3969
14726TIP3   OH244122   3.156   6.949   5.838  0.2354  0.2949  0.1771
14726TIP3    H144123   3.230   6.967   5.896  0.3694 -0.4952  0.2689
14726TIP3    H244124   3.191   6.886   5.775  0.0003  0.8991 -0.5681
14727TIP3   OH244125   6.659   5.438   1.985 -1.0614  0.1177 -0.0929
14727TIP3    H144126   6.678   5.391   1.904 -0.1868  0.0388  0.1523
14727TIP3    H244127   6.683   5.529   1.967  1.4075 -0.2808  0.7878
14728TIP3   OH244128   7.621   1.162   3.198  0.0614  0.0764 -0.0663
14728TIP3    H144129   7.528   1.144   3.208  0.0788  0.2155  0.3728
14728TIP3    H244130   7.625   1.232   3.132 -0.1513  0.1246 -0.0289
14729TIP3   OH244131   3.759   7.071   1.492 -0.1150  0.1545 -0.1146
14729TIP3    H144132   3.700   7.094   1.564  0.6578  1.2786  0.1893
14729TIP3    H244133   3.787   6.982   1.512  1.1305  0.8863  1.7559
14730TIP3   OH244134   6.311   3.532   2.770  0.1156 -0.1349 -0.1835
14730TIP3    H144135   6.270   3.539   2.683  1.7483 -0.2312 -1.0060
14730TIP3    H244136   6.239   3.511   2.829 -0.8026 -1.9303 -1.8122
14731TIP3   OH244137   5.721   4.930   3.306  0.0887 -0.5488 -0.0392
14731TIP3    H144138   5.632   4.958   3.327  0.3519 -0.5625  1.1480
14731TIP3    H244139   5.724   4.838   3.331  0.9634 -0.0810  1.7052
14732TIP3   OH244140   8.099   0.202   4.887 -0.0519  0.2528  0.6349
14732TIP3    H144141   8.109   0.298   4.886 -0.1808  0.2900 -1.2294
14732TIP3    H244142   8.185   0.169   4.859 -0.4006 -0.1144 -0.0142
14733TIP3   OH244143   1.541   7.692   4.692  0.3034 -0.2975 -0.0007
14733TIP3    H144144   1.503   7.674   4.605 -0.3007 -1.2522  0.4379
14733TIP3    H244145   1.610   7.627   4.701  0.2168 -0.3449  0.3193
14734TIP3   OH244146   4.582   5.829   6.629 -0.1869  0.3615  0.0965
14734TIP3    H144147   4.514   5.828   6.562  0.4984 -1.2497 -0.6319
14734TIP3    H244148   4.638   5.903   6.605 -0.3502  0.2373 -0.6994
14735TIP3   OH244149   2.592   6.988   2.027 -0.0597  0.6729  0.0861
14735TIP3    H144150   2.514   6.942   1.997 -0.3189  1.0858  0.1182
14735TIP3    H244151   2.612   6.948   2.112 -0.4266  0.7792  0.2273
14736TIP3   OH244152   3.490   3.686   6.129  0.2118  0.8076  0.4055
14736TIP3    H144153   3.552   3.748   6.092 -0.7852  2.2019  0.9930
14736TIP3    H244154   3.530   3.600   6.114  1.8474  1.6061  0.0029
14737TIP3   OH244155   7.759   5.223   2.754  0.0940  0.0873  0.0705
14737TIP3    H144156   7.757   5.238   2.659  1.5289  2.4556  0.3408
14737TIP3    H244157   7.848   5.194   2.772 -0.1773 -0.3674  0.6951
14738TIP3   OH244158   3.480   1.937   2.991 -1.1374 -0.3350  0.0791
14738TIP3    H144159   3.434   1.873   3.045 -0.4460  0.3615  1.5382
14738TIP3    H244160   3.573   1.918   3.005 -0.9406 -0.2757 -1.0533
14739TIP3   OH244161   3.257   2.492   0.528 -0.8849  0.0827  0.6845
14739TIP3    H144162   3.306   2.556   0.579 -0.2980 -0.5164  0.8960
14739TIP3    H244163   3.323   2.452   0.471 -1.5027  0.6535 -0.4697
14740TIP3   OH244164   0.287   5.890   1.321  0.1335  0.4852 -0.6494
14740TIP3    H144165   0.235   5.810   1.331  0.5203  0.3749  0.7498
14740TIP3    H244166   0.361   5.864   1.267  0.5349 -0.2600  0.2300
14741TIP3   OH244167   7.236   3.812   6.172  0.1347 -0.8442  0.0815
14741TIP3    H144168   7.263   3.808   6.264 -0.1241  1.3514  0.3065
14741TIP3    H244169   7.318   3.810   6.123  0.3979 -0.1708  0.4749
14742TIP3   OH244170   0.928   1.463   6.100  0.2533  0.1066  0.6128
14742TIP3    H144171   1.008   1.494   6.143  0.5116  0.5928 -0.1943
14742TIP3    H244172   0.858   1.514   6.141  0.5926  1.2257 -0.1556
14743TIP3   OH244173   6.961   6.302   1.708  0.0635 -0.5681  0.1528
14743TIP3    H144174   6.920   6.346   1.782 -0.8241  0.6667 -1.0236
14743TIP3    H244175   6.898   6.235   1.681  0.2763 -0.8495  0.3435
14744TIP3   OH244176   1.598   5.730   6.434  0.0432  0.7232 -0.1111
14744TIP3    H144177   1.564   5.798   6.375 -1.6234  0.1773  0.1950
14744TIP3    H244178   1.690   5.722   6.409 -0.4001  1.1211 -2.0511
14745TIP3   OH244179   3.535   3.906   2.430 -0.7859 -0.3742  0.1964
14745TIP3    H144180   3.479   3.865   2.365 -0.3905 -0.5035 -0.0673
14745TIP3    H244181   3.484   3.902   2.511 -0.3269 -2.4559  0.4547
14746TIP3   OH244182   8.225   2.050   4.637 -0.2850  0.3106 -0.2929
14746TIP3    H144183   8.235   2.121   4.702 -2.1418 -1.2762  1.8836
14746TIP3    H244184   8.144   2.071   4.591 -0.4503  0.0029 -0.1466
14747TIP3   OH244185   1.497   3.394   0.755 -0.2820  0.1147  0.2463
14747TIP3    H144186   1.467   3.484   0.770 -0.6573  0.1404 -0.6037
14747TIP3    H244187   1.423   3.352   0.711 -0.7729 -1.1011  2.0925
14748TIP3   OH244188   4.998   0.439   3.484  0.1061  0.0003  0.0213
14748TIP3    H144189   4.924   0.464   3.428  0.3710 -0.3364 -0.4895
14748TIP3    H244190   4.979   0.480   3.568 -0.6236 -0.0107 -0.1255
14749TIP3   OH244191   2.024   2.954   4.990  0.2999 -0.4274 -0.1278
14749TIP3    H144192   2.114   2.979   5.008  0.2759  0.2670 -0.9196
14749TIP3    H244193   2.030   2.862   4.962  0.6538 -0.6418  0.6308
14750TIP3   OH244194   6.812   4.292   6.642  0.5426 -0.0309 -0.1771
14750TIP3    H144195   6.842   4.229   6.576 -1.6067 -1.2085 -0.1409
14750TIP3    H244196   6.823   4.247   6.725  0.5021  0.2860 -0.0002
14751TIP3   OH244197   3.833   6.179   5.122 -0.2019  0.2852 -0.6879
14751TIP3    H144198   3.870   6.102   5.165 -0.9838  0.6530  0.7302
14751TIP3    H244199   3.907   6.221   5.080  0.5156 -0.4067 -0.1509
14752TIP3   OH244200   7.628   5.473   3.595 -0.4667 -0.3343  0.2376
14752TIP3    H144201   7.642   5.519   3.678  0.6517  1.6416 -0.9472
14752TIP3    H244202   7.622   5.381   3.619  1.5245 -0.0066  2.3624
14753TIP3   OH244203   0.480   1.540   6.460 -0.0299 -0.1430  0.3467
14753TIP3    H144204   0.402   1.494   6.491  0.0619  0.1058  0.9672
14753TIP3    H244205   0.551   1.478   6.473 -0.3109 -0.9653 -1.6686
14754TIP3   OH244206   5.194   1.758   6.450  0.3361 -0.1290 -0.0378
14754TIP3    H144207   5.152   1.735   6.367 -0.9499  1.0353  0.2636
14754TIP3    H244208   5.272   1.807   6.425  0.1551 -0.1093 -0.5716
14755TIP3   OH244209   1.205   5.854   0.105  0.3974 -0.0634 -0.1198
14755TIP3    H144210   1.260   5.777   0.094  0.2870 -0.3220  0.9772
14755TIP3    H244211   1.267   5.925   0.121  0.4479 -0.3276  0.9678
14756TIP3   OH244212   0.630   6.666   0.412 -1.0213 -0.0394 -0.5276
14756TIP3    H144213   0.678   6.737   0.369 -0.5457  0.9085  1.4464
14756TIP3    H244214   0.557   6.709   0.456 -0.6964 -0.7256  0.7547
14757TIP3   OH244215   1.494   5.065   0.803  0.5439  0.2034 -0.1261
14757TIP3    H144216   1.518   4.973   0.805 -0.1607  0.0126 -0.0586
14757TIP3    H244217   1.403   5.067   0.835  0.8182  1.0074  0.6627
14758TIP3   OH244218   6.742   6.523   6.453 -0.0484 -0.4019  0.1332
14758TIP3    H144219   6.767   6.434   6.475 -1.0916 -1.3836 -2.3228
14758TIP3    H244220   6.650   6.516   6.427 -0.3363  1.5116  0.4904
14759TIP3   OH244221   2.301   3.005   5.003  0.0552 -0.1558  0.1001
14759TIP3    H144222   2.364   2.934   5.014  0.4711  0.1707 -0.1356
14759TIP3    H244223   2.355   3.081   4.980 -0.3248  0.3960  0.9938
14760TIP3   OH244224   3.213   0.140   5.393 -0.2619 -0.1118  0.3842
14760TIP3    H144225   3.143   0.143   5.458  0.1042  0.5475  0.7514
14760TIP3    H244226   3.260   0.223   5.404 -1.3972  0.9529 -2.0250
14761TIP3   OH244227   2.723   4.141   2.644  0.0195  0.1063 -0.1947
14761TIP3    H144228   2.646   4.087   2.665 -0.9069  1.5327  0.2189
14761TIP3    H244229   2.691   4.204   2.580  1.4439 -0.6689 -1.7619
14762TIP3   OH244230   2.627   2.667   3.862 -0.1643  0.0161  0.3233
14762TIP3    H144231   2.616   2.724   3.939 -1.3180  1.7079 -1.0278
14762TIP3    H244232   2.555   2.605   3.868  1.2806 -1.6538  1.9765
14763TIP3   OH244233   7.848   5.070   0.345 -0.8106  0.0157  0.1705
14763TIP3    H144234   7.920   5.092   0.404 -0.2874 -1.7771  0.2670
14763TIP3    H244235   7.891   5.034   0.268 -1.5633 -2.1387  0.6780
14764TIP3   OH244236   2.697   5.742   5.630  0.6198 -0.0227 -0.4009
14764TIP3    H144237   2.603   5.758   5.621  0.5706 -0.8899 -1.7274
14764TIP3    H244238   2.727   5.807   5.693 -1.0057 -0.2133  0.6303
14765TIP3   OH244239   0.794   3.241   0.786 -0.2434 -0.2917 -0.4755
14765TIP3    H144240   0.805   3.329   0.749 -0.6664 -0.6413 -1.4528
14765TIP3    H244241   0.701   3.221   0.773 -0.7169  0.0623  1.9050
14766TIP3   OH244242   0.440   3.640   3.854  0.1283 -0.0708 -0.1293
14766TIP3    H144243   0.440   3.735   3.865 -1.8185  0.2713 -2.2843
14766TIP3    H244244   0.490   3.607   3.929 -1.1373  2.4669  2.0005
14767TIP3   OH244245   0.486   1.054   0.883 -0.3646  0.1673 -0.0571
14767TIP3    H144246   0.444   0.968   0.878  0.1381 -0.0552 -0.4090
14767TIP3    H244247   0.578   1.035   0.901 -0.1021  0.6010 -0.8911
14768TIP3   OH244248   2.928   1.200   0.476 -0.1958  0.3209  0.5633
14768TIP3    H144249   2.851   1.159   0.438  0.2584 -0.0839  0.0768
14768TIP3    H244250   2.892   1.260   0.542 -0.9967  1.1114 -0.5563
14769TIP3   OH244251   3.277   3.825   4.782 -0.1304  0.3931 -0.4884
14769TIP3    H144252   3.315   3.803   4.867  0.9713  1.3319 -0.7140
14769TIP3    H244253   3.324   3.770   4.719  0.6462  1.3345 -0.7370
14770TIP3   OH244254   4.467   5.675   4.944  0.0419 -0.2794 -0.5425
14770TIP3    H144255   4.449   5.754   4.891  1.0197 -0.6870 -1.5243
14770TIP3    H244256   4.386   5.624   4.939  0.8109 -1.4124 -3.6750
14771TIP3   OH244257   3.913   6.254   4.180  0.3032 -0.1638  0.0479
14771TIP3    H144258   3.931   6.279   4.271  0.0714  1.9725 -0.4387
14771TIP3    H244259   3.999   6.244   4.140  0.4537  1.7965 -0.1938
14772TIP3   OH244260   0.873   7.318   2.351 -0.3461  0.0188 -0.4476
14772TIP3    H144261   0.919   7.304   2.269 -0.1271 -1.0555 -0.1564
14772TIP3    H244262   0.780   7.308   2.330 -0.1857 -3.9534  0.0354
14773TIP3   OH244263   0.083   5.457   6.768  0.0751 -0.3450  0.5180
14773TIP3    H144264   0.135   5.406   6.829  2.2641  0.7452 -0.3488
14773TIP3    H244265   0.047   5.392   6.707  2.8949 -0.9799 -0.6358
14774TIP3   OH244266   1.317   0.571   1.154  0.7180  0.1001 -0.0102
14774TIP3    H144267   1.357   0.530   1.077 -3.2583 -0.9203 -1.8532
14774TIP3    H244268   1.303   0.662   1.127 -1.7722 -0.5295 -1.2158
14775TIP3   OH244269   2.413   5.937   2.618  0.3447 -0.0747  0.2638
14775TIP3    H144270   2.452   5.947   2.705 -0.7603  0.3114  0.7337
14775TIP3    H244271   2.319   5.952   2.632 -0.0101 -1.1918 -0.7899
14776TIP3   OH244272   7.741   0.356   6.397  0.0799 -0.0100  0.4920
14776TIP3    H144273   7.794   0.389   6.325  1.5663 -0.3869  1.3747
14776TIP3    H244274   7.769   0.407   6.473 -2.0507  0.9669  0.7038
14777TIP3   OH244275   2.214   5.131   4.308 -0.3825  0.1431  0.2641
14777TIP3    H144276   2.307   5.114   4.320 -0.3988 -1.0364 -1.0158
14777TIP3    H244277   2.184   5.162   4.393  1.0922  0.1505  0.8108
14778TIP3   OH244278   1.198   4.886   1.322 -0.0637 -0.2603  0.1133
14778TIP3    H144279   1.252   4.875   1.401 -0.0699  0.8659  0.2964
14778TIP3    H244280   1.215   4.976   1.294 -0.0566 -0.6493 -1.1927
14779TIP3   OH244281   1.446   3.500   5.448  0.4302  0.4587  0.1360
14779TIP3    H144282   1.445   3.551   5.366  2.0473  2.5442  1.3210
14779TIP3    H244283   1.488   3.558   5.511 -0.8602 -1.0599  2.5074
14780TIP3   OH244284   0.039   6.906   0.223 -0.0657 -0.3060  0.3147
14780TIP3    H144285  -0.047   6.863   0.220 -0.3091  0.1725  0.1603
14780TIP3    H244286   0.027   6.979   0.284 -0.5434  1.3380 -1.6303
14781TIP3   OH244287   1.266   1.393   6.698 -0.2105 -0.3689 -0.0951
14781TIP3    H144288   1.173   1.413   6.712 -0.3414 -1.0581  0.0462
14781TIP3    H244289   1.274   1.385   6.603  0.1234  1.6323 -0.2844
14782TIP3   OH244290   3.294   1.046   2.785 -0.5735  0.0090 -0.0439
14782TIP3    H144291   3.204   1.017   2.801 -0.2090 -1.5103 -0.5134
14782TIP3    H244292   3.289   1.095   2.703 -0.8903 -0.6570 -0.4368
14783TIP3   OH244293   4.509   4.696   1.345  0.3454  0.0428  0.9973
14783TIP3    H144294   4.415   4.691   1.329  0.0758 -1.4246  2.7922
14783TIP3    H244295   4.520   4.674   1.437  2.7055 -3.6133  0.0702
14784TIP3   OH244296   8.140   0.626   3.347  0.1809 -0.6535  0.0469
14784TIP3    H144297   8.143   0.593   3.436  1.7314 -0.9041 -0.0637
14784TIP3    H244298   8.176   0.554   3.294 -1.1461 -0.6873 -0.8451
14785TIP3   OH244299   4.600   5.134   6.567 -0.5827  0.5034  0.2445
14785TIP3    H144300   4.515   5.091   6.550  0.6458 -2.1641  0.2877
14785TIP3    H244301   4.647   5.127   6.484  0.7777 -1.1357  1.0839
14786TIP3   OH244302   1.462   4.818   4.684 -0.1955 -0.2773  0.4850
14786TIP3    H144303   1.465   4.758   4.609 -0.8654  1.0375 -0.6485
14786TIP3    H244304   1.382   4.869   4.670 -0.2927  0.0451  2.0732
14787TIP3   OH244305   7.158   7.093   2.474  0.3409  0.2208  0.0879
14787TIP3    H144306   7.063   7.102   2.468 -0.0625 -1.6532  2.3202
14787TIP3    H244307   7.182   7.041   2.397 -0.2495  1.6005 -1.0663
14788TIP3   OH244308   8.197   7.313   0.781 -0.3013 -0.2040  0.3417
14788TIP3    H144309   8.290   7.329   0.767 -0.4296 -0.6766 -1.2932
14788TIP3    H244310   8.160   7.399   0.802  0.8141 -0.3357  3.3839
14789TIP3   OH244311   8.045   1.327  -0.023  0.2161  0.4998 -0.3255
14789TIP3    H144312   8.018   1.283   0.058 -1.1280  0.5055 -0.7440
14789TIP3    H244313   8.052   1.420   0.002  1.2748  0.3168  0.1217
14790TIP3   OH244314   0.098   1.153   2.778 -0.0275 -0.5588  0.0366
14790TIP3    H144315   0.154   1.115   2.845 -0.3272  0.3594  0.8370
14790TIP3    H244316   0.159   1.194   2.717  0.2492 -1.4395 -0.2913
14791TIP3   OH244317   7.631   4.447   6.607  0.4372 -0.3937 -0.6293
14791TIP3    H144318   7.540   4.419   6.611  0.9090 -2.2292 -1.3354
14791TIP3    H244319   7.642   4.479   6.517  0.7273 -1.1447 -0.8668
14792TIP3   OH244320   0.865   7.539   5.226  0.6966  0.2938 -0.1593
14792TIP3    H144321   0.885   7.472   5.160  0.1156 -1.1186  1.0465
14792TIP3    H244322   0.770   7.550   5.221  0.8260  1.3824 -0.6334
14793TIP3   OH244323   5.817   3.882   2.496 -0.4689  0.0656  0.2621
14793TIP3    H144324   5.905   3.896   2.460 -1.4227 -0.1540 -2.2838
14793TIP3    H244325   5.826   3.803   2.551  0.7921 -0.2812 -0.4063
14794TIP3   OH244326   1.552   4.551   0.588 -0.0544 -0.1329 -0.1769
14794TIP3    H144327   1.544   4.456   0.591  4.4538 -0.6922  1.0326
14794TIP3    H244328   1.588   4.576   0.673  1.6581  2.2166 -1.4469
14795TIP3   OH244329   5.712   7.490   4.860 -0.1556 -0.1603  0.5795
14795TIP3    H144330   5.788   7.442   4.827  0.0882  0.9946 -0.6374
14795TIP3    H244331   5.742   7.530   4.941  0.0837 -0.8633  0.8444
14796TIP3   OH244332   4.618   0.244   3.007  0.1849  0.3780 -0.2884
14796TIP3    H144333   4.697   0.293   2.984  0.2885 -0.3612 -1.5573
14796TIP3    H244334   4.592   0.281   3.092  0.9603  1.7629 -0.6127
14797TIP3   OH244335   0.211   5.372   6.503  0.6250 -0.5831  0.1652
14797TIP3    H144336   0.302   5.378   6.476  0.8735  0.4822  1.1572
14797TIP3    H244337   0.196   5.278   6.517  1.0552 -0.9540 -1.5826
14798TIP3   OH244338   1.139   4.736   5.593  0.2094 -0.1892 -0.2075
14798TIP3    H144339   1.188   4.681   5.532 -0.0955  0.2805 -0.8881
14798TIP3    H244340   1.165   4.826   5.570  1.6424 -0.0521  1.6815
14799TIP3   OH244341   1.943   7.556   1.914 -0.1716  0.0580 -0.1546
14799TIP3    H144342   2.003   7.601   1.856 -0.4169  1.8923  0.9392
14799TIP3    H244343   1.956   7.598   1.999 -1.2632 -1.1631  0.6563
14800TIP3   OH244344   3.240   4.447   1.462 -0.2460  0.6312 -0.2283
14800TIP3    H144345   3.305   4.385   1.496  1.0489  2.4562  0.7957
14800TIP3    H244346   3.193   4.476   1.540 -0.8558  0.9296 -0.7037
14801TIP3   OH244347   1.211   7.471   5.169 -0.6060 -0.1619  0.3816
14801TIP3    H144348   1.268   7.413   5.221 -0.8057 -0.7736 -0.0738
14801TIP3    H244349   1.162   7.412   5.113 -0.4047  0.4973 -0.5054
14802TIP3   OH244350   3.258   3.212   2.122 -0.5808 -0.3744  0.2919
14802TIP3    H144351   3.289   3.153   2.190  1.0322  0.7516  0.5749
14802TIP3    H244352   3.292   3.176   2.040 -0.9274 -0.6884  0.2842
14803TIP3   OH244353   3.871   5.126   4.472  0.3130 -0.1722  0.1871
14803TIP3    H144354   3.794   5.150   4.420  0.0961 -0.5808  0.3183
14803TIP3    H244355   3.865   5.181   4.550 -0.0063 -0.4073  0.3331
14804TIP3   OH244356   7.125   4.256   6.025 -0.1281 -0.0660  0.1933
14804TIP3    H144357   7.184   4.297   6.087 -0.1554 -1.3480  1.1213
14804TIP3    H244358   7.173   4.179   5.993 -0.9287 -0.6335  0.3018
14805TIP3   OH244359   8.010   5.842   5.852 -0.4195 -1.0360 -0.3146
14805TIP3    H144360   7.981   5.799   5.933  2.8788 -1.5099  0.7640
14805TIP3    H244361   8.022   5.771   5.790  1.9276 -1.4517  0.4795
14806TIP3   OH244362   2.035   3.420   6.186 -0.8431  0.2096  0.2648
14806TIP3    H144363   2.068   3.503   6.220  1.5478 -0.8796  0.8751
14806TIP3    H244364   2.008   3.371   6.264  1.2217 -0.9062  0.3619
14807TIP3   OH244365   5.127   2.084   0.884  0.2117  0.0609 -0.4187
14807TIP3    H144366   5.060   2.027   0.846  1.0907  0.2453 -2.3322
14807TIP3    H244367   5.128   2.161   0.828  2.4852 -0.2315 -0.8525
14808TIP3   OH244368   3.812   4.682   4.035  0.3845 -0.0428 -0.1994
14808TIP3    H144369   3.813   4.645   4.124 -0.6314 -2.6412 -1.1604
14808TIP3    H244370   3.827   4.606   3.978  1.8503  1.6859 -2.2542
14809TIP3   OH244371   5.196   2.016   5.719 -0.4945 -0.0747  0.1556
14809TIP3    H144372   5.133   2.088   5.713  1.0464  1.2926 -0.5910
14809TIP3    H244373   5.220   2.012   5.811  0.1225  1.0649  0.0666
14810TIP3   OH244374   1.992   0.829   1.443 -0.4071  0.0373 -0.5346
14810TIP3    H144375   1.916   0.884   1.426 -1.8141 -1.7168 -0.2834
14810TIP3    H244376   2.052   0.885   1.492 -1.0612  1.7852 -1.6429
14811TIP3   OH244377   0.693   2.776   6.520 -0.0525  0.0864  0.6335
14811TIP3    H144378   0.727   2.856   6.480  0.0780 -1.0299 -1.5874
14811TIP3    H244379   0.616   2.754   6.469  0.0549 -1.3616  1.0554
14812TIP3   OH244380   0.618   1.210   3.379 -0.2193  0.1712 -0.6895
14812TIP3    H144381   0.677   1.264   3.325  1.7680 -0.0480  1.1041
14812TIP3    H244382   0.644   1.120   3.358  0.9221  0.0911  0.8948
14813TIP3   OH244383   5.274   6.853   6.255  0.7095 -0.4795 -0.0446
14813TIP3    H144384   5.239   6.765   6.275 -0.8250  0.0150 -0.3955
14813TIP3    H244385   5.365   6.838   6.230  0.5834 -1.9312  0.2856
14814TIP3   OH244386   5.306   4.766   3.222 -0.4601  0.0980  0.1160
14814TIP3    H144387   5.350   4.851   3.218 -0.0526 -0.1454 -0.9360
14814TIP3    H244388   5.312   4.740   3.313  1.0427  0.3608  0.1192
14815TIP3   OH244389   7.192   3.476   1.337 -0.3070 -0.1590  0.0001
14815TIP3    H144390   7.161   3.468   1.247 -1.7039 -0.7955  0.5014
14815TIP3    H244391   7.207   3.387   1.366  0.5370  0.0655  0.2787
14816TIP3   OH244392   3.440   2.482   4.671  0.5474  0.3397  0.3955
14816TIP3    H144393   3.522   2.434   4.678  1.1674  1.3922  0.4438
14816TIP3    H244394   3.385   2.427   4.614  2.1957  0.8373 -1.7926
14817TIP3   OH244395   8.079   7.358   3.519 -0.2266  0.1604 -0.6286
14817TIP3    H144396   8.058   7.278   3.472 -1.0118  0.0689 -0.1348
14817TIP3    H244397   8.032   7.351   3.601 -0.4498  1.2057 -0.6495
14818TIP3   OH244398   3.351   2.049   0.372 -0.1032  0.2206 -0.2423
14818TIP3    H144399   3.417   2.059   0.440 -0.1242  1.2676 -0.3540
14818TIP3    H244400   3.273   2.019   0.418  0.7109 -2.0519 -0.2558
14819TIP3   OH244401   4.850   2.837   4.182  0.3882 -0.1654  0.2050
14819TIP3    H144402   4.926   2.847   4.239 -0.1276 -0.6968  1.0082
14819TIP3    H244403   4.795   2.772   4.226  0.0302 -0.6910 -0.9713
14820TIP3   OH244404   6.484   3.165   2.823  0.2085 -0.2850 -0.1006
14820TIP3    H144405   6.494   3.116   2.904 -0.5497 -0.2708  0.0084
14820TIP3    H244406   6.526   3.249   2.841  1.1172 -0.7145 -0.1395
14821TIP3   OH244407   6.477   4.053   3.393 -0.0519  0.3976 -0.3013
14821TIP3    H144408   6.564   4.046   3.355 -0.4300 -1.2546 -0.9255
14821TIP3    H244409   6.493   4.083   3.483  1.1562  0.1310 -0.4064
14822TIP3   OH244410   0.097   3.144   4.279  0.0541 -0.1833 -0.4687
14822TIP3    H144411   0.012   3.171   4.313  0.5788  0.2264  0.5647
14822TIP3    H244412   0.147   3.119   4.357 -0.6263 -5.0357 -1.3033
14823TIP3   OH244413   3.995   4.780   4.314  0.1347  0.3256 -0.2743
14823TIP3    H144414   4.042   4.860   4.291  1.1677 -0.4687 -1.0046
14823TIP3    H244415   4.063   4.713   4.323 -0.7040 -0.4706  0.3479
14824TIP3   OH244416   6.119   5.416   1.519  0.2533 -0.1066  0.1884
14824TIP3    H144417   6.079   5.335   1.553  0.4244 -0.2054  0.1523
14824TIP3    H244418   6.155   5.391   1.434 -0.1634  0.1395 -0.0612
14825TIP3   OH244419   5.030   0.946   2.403 -0.4373 -0.1839 -0.1957
14825TIP3    H144420   4.996   0.913   2.486  0.9383 -1.4175 -0.0694
14825TIP3    H244421   5.035   1.041   2.413 -2.4654 -0.0964  0.2610
14826TIP3   OH244422   6.985   5.862   6.593 -0.2217  0.4536  0.0584
14826TIP3    H144423   7.017   5.772   6.595 -0.3601  0.4068  0.1864
14826TIP3    H244424   6.933   5.867   6.512 -0.5947  0.2862  0.2858
14827TIP3   OH244425   7.282   2.185   3.609 -0.4022 -0.3253  0.3861
14827TIP3    H144426   7.248   2.259   3.659  0.1248  0.5776 -0.5566
14827TIP3    H244427   7.357   2.154   3.658 -1.1693 -0.8499  1.2694
14828TIP3   OH244428   3.764   3.528   4.068 -0.6031 -0.4268 -0.2338
14828TIP3    H144429   3.809   3.471   4.006  1.9381  1.0199  0.1343
14828TIP3    H244430   3.718   3.591   4.012 -0.4894 -0.7086 -0.6559
14829TIP3   OH244431   3.968   1.801   6.199 -0.2266  0.0985 -0.2156
14829TIP3    H144432   4.016   1.721   6.220 -0.2631 -0.0429 -0.6651
14829TIP3    H244433   3.985   1.816   6.106 -1.3282 -0.1353 -0.4678
14830TIP3   OH244434   7.538   6.864   1.310 -0.4288 -0.0185 -0.7364
14830TIP3    H144435   7.568   6.878   1.220 -0.8610 -1.1995 -1.0751
14830TIP3    H244436   7.619   6.855   1.361 -0.1410  2.1105 -0.7216
14831TIP3   OH244437   1.077   4.210   5.464 -0.2679  0.6202 -0.2131
14831TIP3    H144438   1.078   4.120   5.430 -0.5213  1.2762 -2.0510
14831TIP3    H244439   0.999   4.213   5.520 -1.1907  0.1081 -1.4100
14832TIP3   OH244440   1.672   6.579   1.766  0.0750  0.0136 -0.4256
14832TIP3    H144441   1.729   6.636   1.714 -0.1649 -1.1224 -1.9975
14832TIP3    H244442   1.612   6.540   1.702 -0.4637 -1.1581  0.7553
14833TIP3   OH244443   4.742   4.058   5.678  0.5065 -0.0405  0.1014
14833TIP3    H144444   4.783   4.023   5.758  1.9620  2.2232  0.4356
14833TIP3    H244445   4.718   3.980   5.628  2.0209 -1.5170  1.5152
14834TIP3   OH244446   3.384   2.237   1.321  0.4841  0.1339  0.0251
14834TIP3    H144447   3.397   2.303   1.253  1.2536  0.2586  0.2809
14834TIP3    H244448   3.449   2.258   1.388  0.6308 -0.7756  0.1903
14835TIP3   OH244449   0.255   4.267   5.788  0.3436 -0.1320  0.0220
14835TIP3    H144450   0.187   4.317   5.745 -0.1179 -0.0146  0.8611
14835TIP3    H244451   0.319   4.332   5.817 -0.2434 -0.0010  1.0894
14836TIP3   OH244452   1.076   7.659   3.297 -0.0074  0.0540 -0.2863
14836TIP3    H144453   1.158   7.708   3.287  0.3297 -0.6952 -1.2313
14836TIP3    H244454   1.022   7.715   3.353  1.1881  0.5041  0.4462
14837TIP3   OH244455   5.615   5.117   6.127 -0.4461  0.9275  0.4497
14837TIP3    H144456   5.632   5.039   6.074 -0.8093  1.5216 -0.5752
14837TIP3    H244457   5.640   5.092   6.215  2.6238  0.6913 -0.3839
14838TIP3   OH244458   8.270   3.032   1.313 -0.2489  0.2436  0.4302
14838TIP3    H144459   8.266   2.974   1.237 -0.6546 -1.1820  1.5088
14838TIP3    H244460   8.264   3.120   1.276 -2.0775 -0.4520 -1.0813
14839TIP3   OH244461   1.112   6.821   5.715 -0.1859 -0.1522 -0.1921
14839TIP3    H144462   1.196   6.802   5.674  0.6185  0.1345  1.2427
14839TIP3    H244463   1.067   6.737   5.719  1.0991 -0.8112  1.2678
   8.29218   7.81795   6.77054   0.00000   0.00000  -2.76406   0.00000  -2.76406  -3.90897
