Title
  114
    1ASP      N    1   4.452   6.530   2.500 -0.4576 -0.3190 -0.4433
    1ASP    HT1    2   4.415   6.576   2.415  0.0045  2.1850  0.6042
    1ASP    HT2    3   4.501   6.439   2.493 -0.4525 -0.4160  0.6854
    1ASP    HT3    4   4.523   6.603   2.526 -2.2748  1.1024  0.7921
    1ASP     CA    5   4.354   6.502   2.614 -0.4061  0.2768 -0.0865
    1ASP     HA    6   4.306   6.594   2.644  1.5902  1.5483 -0.5528
    1ASP     CB    7   4.243   6.410   2.550  0.3160  0.3044  0.2084
    1ASP    HB1    8   4.288   6.312   2.524  0.8001  0.0897  1.7714
    1ASP    HB2    9   4.210   6.471   2.463 -1.2418 -1.2434 -0.3501
    1ASP     CG   10   4.127   6.390   2.638  0.4684 -0.0081 -0.4378
    1ASP    OD1   11   4.060   6.287   2.627 -0.0520 -0.3424 -0.5818
    1ASP    OD2   12   4.101   6.484   2.719  0.0444  0.2375  0.4118
    1ASP      C   13   4.419   6.451   2.746  0.1815  0.2970  1.2915
    1ASP      O   14   4.520   6.379   2.746  0.4281 -0.0279 -0.0385
    2GLY      N   15   4.352   6.476   2.855  0.5571 -0.2140 -0.5219
    2GLY     HN   16   4.255   6.497   2.847  0.4482 -0.6908 -0.4713
    2GLY     CA   17   4.417   6.476   2.988 -0.2269  0.1942  0.0451
    2GLY    HA1   18   4.434   6.370   3.000 -0.4875  0.2725  1.2263
    2GLY    HA2   19   4.341   6.508   3.058 -0.1404 -0.1747  0.3119
    2GLY      C   20   4.538   6.559   2.995 -0.6619  0.0307  0.4472
    2GLY      O   21   4.627   6.521   3.071  0.2536 -0.0703  0.0560
    3ASP      N   22   4.538   6.678   2.930  0.1169  0.2075  0.2569
    3ASP     HN   23   4.451   6.705   2.889  0.2936 -0.3177 -0.5045
    3ASP     CA   24   4.652   6.772   2.910 -0.2807  0.4759 -0.6563
    3ASP     HA   25   4.739   6.708   2.906 -1.6857 -1.7780  1.8519
    3ASP     CB   26   4.614   6.847   2.787  0.0760  0.2597  0.0106
    3ASP    HB1   27   4.670   6.940   2.764  0.6130 -0.2203 -0.6693
    3ASP    HB2   28   4.507   6.876   2.796  0.1864 -0.0146  3.4126
    3ASP     CG   29   4.624   6.760   2.664 -0.6247 -0.1597 -0.3962
    3ASP    OD1   30   4.697   6.660   2.665  0.5221 -0.1308  0.0002
    3ASP    OD2   31   4.556   6.786   2.564  0.2765 -0.7975  0.0038
    3ASP      C   32   4.660   6.875   3.032  0.2511  0.1639 -0.4610
    3ASP      O   33   4.766   6.935   3.057  0.1398  0.1604  0.1249
    4GLY      N   34   4.552   6.885   3.114 -0.1783  0.5993  0.6816
    4GLY     HN   35   4.469   6.841   3.082  2.2383 -2.0720 -2.7818
    4GLY     CA   36   4.535   6.968   3.230  0.0037  0.5041  0.0763
    4GLY    HA1   37   4.611   6.934   3.299  0.7400  0.3229 -0.7993
    4GLY    HA2   38   4.433   6.946   3.256 -0.3270  1.3127 -0.4878
    4GLY      C   39   4.547   7.119   3.201 -0.6498  0.3560 -0.1291
    4GLY      O   40   4.534   7.160   3.087  0.8508 -0.3334 -0.0242
    5PRO      N   41   4.572   7.200   3.300  0.0314  0.7419  0.4581
    5PRO     CD   42   4.537   7.158   3.438  0.0698 -0.0501  0.1219
    5PRO    HD1   43   4.624   7.104   3.482  1.0155  1.2189 -0.1015
    5PRO    HD2   44   4.447   7.094   3.439 -1.1816  1.6467  0.8366
    5PRO     CA   45   4.604   7.338   3.299 -0.4775 -0.4824  0.1838
    5PRO     HA   46   4.514   7.389   3.269 -0.9676 -1.9845 -1.0098
    5PRO     CB   47   4.631   7.366   3.447  0.1739 -0.1392  0.3702
    5PRO    HB1   48   4.615   7.474   3.469  0.5187 -0.1382  0.6215
    5PRO    HB2   49   4.725   7.317   3.483 -1.4230 -1.8128  2.4988
    5PRO     CG   50   4.519   7.284   3.518  0.9439  0.0947 -0.4929
    5PRO    HG1   51   4.530   7.278   3.628  1.2426  0.5860 -0.4931
    5PRO    HG2   52   4.423   7.331   3.489  0.7763  0.0189 -0.0650
    5PRO      C   53   4.719   7.377   3.202 -0.2729  0.1023 -0.0193
    5PRO      O   54   4.808   7.299   3.177  0.5538 -0.1670 -0.0541
    6GLY      N   55   4.711   7.498   3.149 -0.6255 -0.2135  0.4849
    6GLY     HN   56   4.625   7.545   3.168 -1.1655 -1.5110  1.3903
    6GLY     CA   57   4.825   7.558   3.068  0.6673  0.2405 -0.2733
    6GLY    HA1   58   4.799   7.661   3.051 -0.6820 -0.0005  0.2032
    6GLY    HA2   59   4.841   7.503   2.977 -0.8542 -0.7022 -0.0069
    6GLY      C   60   4.959   7.570   3.135  0.6336  0.0813  0.1506
    6GLY      O   61   4.973   7.566   3.257 -0.6174  0.0881 -0.1220
    7ASP      N   62   5.063   7.590   3.045  0.1210 -0.2553  0.3224
    7ASP     HN   63   5.037   7.576   2.950 -1.0808 -0.6314  0.6907
    7ASP     CA   64   5.201   7.623   3.080  0.3927  0.2553  0.5248
    7ASP     HA   65   5.226   7.536   3.139 -1.3457 -1.0831 -0.6143
    7ASP     CB   66   5.293   7.630   2.953  0.0319  0.4218  0.1075
    7ASP    HB1   67   5.386   7.685   2.981 -0.2780  0.6825  0.6522
    7ASP    HB2   68   5.247   7.688   2.871 -1.0906 -1.4290 -0.6387
    7ASP     CG   69   5.324   7.485   2.909  0.3432  0.5082 -0.4563
    7ASP    OD1   70   5.354   7.461   2.792 -0.4938 -1.2350 -0.3408
    7ASP    OD2   71   5.333   7.397   3.003  0.0254 -0.8874  0.0116
    7ASP      C   72   5.212   7.749   3.165  0.4869  0.4474 -0.1167
    7ASP      O   73   5.152   7.851   3.130 -0.4895  0.1297  0.5754
    8PRO      N   74   5.284   7.755   3.270 -0.4512 -0.5496 -0.3855
    8PRO     CD   75   5.326   7.636   3.347 -0.1768 -0.6753 -0.0234
    8PRO    HD1   76   5.419   7.599   3.299 -0.4764 -0.1013 -1.0791
    8PRO    HD2   77   5.252   7.555   3.335  0.0089 -0.6603 -1.4533
    8PRO     CA   78   5.303   7.881   3.352  0.0358  0.0087 -0.3149
    8PRO     HA   79   5.204   7.919   3.373 -0.9265 -2.2322 -0.4982
    8PRO     CB   80   5.374   7.830   3.477 -0.4863  0.7311 -0.3557
    8PRO    HB1   81   5.351   7.891   3.567 -0.6343  0.3959 -0.1644
    8PRO    HB2   82   5.484   7.844   3.468 -0.4038 -0.1439 -0.8095
    8PRO     CG   83   5.343   7.679   3.492 -0.1495 -0.5536  0.4292
    8PRO    HG1   84   5.420   7.619   3.545  0.1243 -0.0735  0.5854
    8PRO    HG2   85   5.249   7.666   3.549 -0.2901  1.5589  0.7832
    8PRO      C   86   5.397   7.988   3.287  0.1745 -0.5751 -0.6246
    8PRO      O   87   5.366   8.108   3.303  0.6957 -0.1016 -0.0120
    9GLY      N   88   5.505   7.951   3.220  0.6890 -0.2368 -0.8427
    9GLY     HN   89   5.511   7.853   3.205 -1.8632 -0.7016  0.5819
    9GLY     CA   90   5.606   8.037   3.162  1.2565  0.6039 -0.2960
    9GLY    HA1   91   5.559   8.077   3.074  0.1371  0.7500  0.3533
    9GLY    HA2   92   5.683   7.965   3.136  0.0282 -0.8524 -0.0203
    9GLY      C   93   5.665   8.144   3.236  0.2073  0.7033  0.7555
    9GLY      O   94   5.668   8.139   3.359 -0.5407 -0.3982 -0.1909
   10ASP      N   95   5.735   8.246   3.173 -0.1853  0.4804  0.7756
   10ASP     HN   96   5.746   8.243   3.074  2.4297  0.3785  1.0159
   10ASP     CA   97   5.807   8.348   3.246 -0.0634 -0.5941 -0.0388
   10ASP     HA   98   5.805   8.336   3.353 -1.1064 -1.9443 -0.1755
   10ASP     CB   99   5.955   8.355   3.202 -0.1522  0.2514  0.0544
   10ASP    HB1  100   6.005   8.442   3.248  0.1008  0.8427 -1.2726
   10ASP    HB2  101   5.963   8.365   3.091 -0.2890 -1.7820 -0.1840
   10ASP     CG  102   6.043   8.235   3.245 -0.1308  0.9163 -0.4243
   10ASP    OD1  103   6.027   8.182   3.358 -0.0401  0.3189 -0.4629
   10ASP    OD2  104   6.127   8.191   3.161 -0.1450  0.2793 -0.6818
   10ASP      C  105   5.750   8.479   3.208 -0.0072 -0.0471 -0.2982
   10ASP      O  106   5.736   8.508   3.092  0.7889 -0.0817  0.2942
   11GLY      N  107   5.716   8.566   3.301  0.5280 -0.2452  0.0576
   11GLY     HN  108   5.719   8.539   3.397 -1.3080  0.0835  0.2376
   11GLY     CA  109   5.670   8.702   3.276  0.3763 -0.0970  0.8741
   11GLY    HA1  110   5.588   8.684   3.207  1.3198 -1.4356  0.0565
   11GLY    HA2  111   5.754   8.751   3.228  1.4278 -1.2758  1.4668
   11GLY      C  112   5.625   8.780   3.403  0.1280 -0.1825  0.1663
   11GLY    OT1  113   5.696   8.873   3.446 -0.9951  0.5454 -0.0560
   11GLY    OT2  114   5.514   8.744   3.453  0.4286 -0.1070 -0.5410
   7.20612   6.79400   5.88377   0.00000   0.00000  -2.40204   0.00000  -2.40204  -3.39700
