Title
19942
    1ASP      N    1   2.914   3.276   2.810  0.3301  0.4134  0.1233
    1ASP    HT1    2   2.896   3.308   2.907  0.2530  0.6585  0.0299
    1ASP    HT2    3   2.931   3.174   2.804 -1.9992  0.0405 -1.9388
    1ASP    HT3    4   2.826   3.286   2.755  0.8723 -0.8174 -1.0281
    1ASP     CA    5   3.021   3.358   2.749  0.4371  0.7370 -0.4233
    1ASP     HA    6   3.022   3.338   2.643 -1.1622  1.0874 -0.5335
    1ASP     CB    7   2.975   3.511   2.754 -0.0928  0.6145  0.5549
    1ASP    HB1    8   2.882   3.511   2.693 -1.0466 -1.1040  1.9360
    1ASP    HB2    9   3.049   3.574   2.699  2.1269 -0.5040  2.1010
    1ASP     CG   10   2.956   3.575   2.888 -0.6801  0.4054 -0.1387
    1ASP    OD1   11   2.941   3.508   2.997 -0.0358  0.5458 -0.4287
    1ASP    OD2   12   2.950   3.692   2.892 -0.7884 -0.4786  0.1872
    1ASP      C   13   3.162   3.331   2.809  0.3685 -0.3018  0.6303
    1ASP      O   14   3.211   3.218   2.798 -0.0643 -0.1118 -0.0238
    2ALA      N   15   3.226   3.430   2.870 -0.0113 -0.2427  0.6450
    2ALA     HN   16   3.186   3.520   2.885  1.7225  0.4619  1.2887
    2ALA     CA   17   3.362   3.422   2.917 -0.1693 -0.6591  0.5895
    2ALA     HA   18   3.379   3.333   2.975  2.1991 -1.1785 -0.7720
    2ALA     CB   19   3.453   3.439   2.795 -0.1162 -0.0853 -0.6212
    2ALA    HB1   20   3.560   3.415   2.814  0.2294  0.5140 -1.7284
    2ALA    HB2   21   3.446   3.540   2.751  0.3076  0.7221  1.0779
    2ALA    HB3   22   3.433   3.361   2.718  1.3269 -2.7180  1.4657
    2ALA      C   23   3.386   3.536   3.002  0.0861 -0.7665 -0.9177
    2ALA      O   24   3.310   3.629   3.006 -0.4439 -0.0370 -0.4559
    3ASP      N   25   3.491   3.532   3.089 -0.1493  0.4425 -0.1213
    3ASP     HN   26   3.550   3.451   3.090  0.1459  0.5665  2.7315
    3ASP     CA   27   3.532   3.635   3.178 -0.4719 -0.2548 -0.7459
    3ASP     HA   28   3.440   3.670   3.222  0.7673 -0.2059  2.0043
    3ASP     CB   29   3.638   3.578   3.284  0.6830 -0.2591 -1.0692
    3ASP    HB1   30   3.648   3.659   3.360  0.7283 -1.5378  0.3318
    3ASP    HB2   31   3.738   3.554   3.241  0.7962  1.7332 -2.0240
    3ASP     CG   32   3.579   3.464   3.368 -0.5599 -0.0295  0.3278
    3ASP    OD1   33   3.460   3.474   3.412 -0.1483  0.3614 -0.4277
    3ASP    OD2   34   3.649   3.360   3.371  0.1310 -0.5957 -0.1749
    3ASP      C   35   3.579   3.760   3.109 -0.0563  0.8305  0.0180
    3ASP      O   36   3.621   3.760   2.996 -0.0551 -0.4489  0.0760
    4GLY      N   37   3.555   3.868   3.185 -0.0774  0.0001  0.3572
    4GLY     HN   38   3.524   3.854   3.279  0.9031  0.3841  0.7495
    4GLY     CA   39   3.602   4.006   3.154 -0.2253  0.3234  0.1117
    4GLY    HA1   40   3.552   4.077   3.219 -0.7694  1.3659 -1.3968
    4GLY    HA2   41   3.575   4.017   3.050  1.7854  1.2471 -0.3717
    4GLY      C   42   3.750   4.026   3.159 -0.0727 -0.5090  0.3420
    4GLY      O   43   3.821   3.927   3.177 -0.3681  0.1657  0.3012
    5PRO      N   44   3.801   4.149   3.151 -0.3321 -0.1746 -0.2017
    5PRO     CD   45   3.728   4.275   3.138  0.0159 -0.3066 -0.1269
    5PRO    HD1   46   3.687   4.300   3.238 -1.7359 -1.5245 -0.4909
    5PRO    HD2   47   3.647   4.265   3.062  1.8324  1.4527 -2.4822
    5PRO     CA   48   3.942   4.176   3.164 -0.2316  1.3129 -0.3098
    5PRO     HA   49   3.994   4.143   3.075  0.7258  1.5323  0.1576
    5PRO     CB   50   3.951   4.324   3.187  0.0644 -0.4107  0.5304
    5PRO    HB1   51   4.043   4.361   3.136  0.9929 -2.6684  0.4713
    5PRO    HB2   52   3.939   4.357   3.293 -1.4172  0.7671  0.0304
    5PRO     CG   53   3.833   4.382   3.105  0.0083 -0.3199 -0.6526
    5PRO    HG1   54   3.794   4.482   3.133 -0.1950 -0.8056  0.8925
    5PRO    HG2   55   3.864   4.380   2.998  0.7061 -1.2222 -0.4459
    5PRO      C   56   4.019   4.104   3.277  0.5601  0.6870  0.6478
    5PRO      O   57   3.971   4.080   3.390 -0.5526 -0.3796 -0.6674
    6GLY      N   58   4.148   4.061   3.241 -0.1053  0.1677  0.4086
    6GLY     HN   59   4.191   4.090   3.155  1.5778 -0.4754  0.9979
    6GLY     CA   60   4.236   3.992   3.326 -0.1468 -0.1178 -0.0487
    6GLY    HA1   61   4.299   3.929   3.265  1.0559  0.3303  0.6878
    6GLY    HA2   62   4.179   3.931   3.395  1.8732 -0.2057  1.6462
    6GLY      C   63   4.314   4.088   3.414 -0.0976 -0.3075  0.0563
    6GLY      O   64   4.277   4.206   3.438  0.6135  0.7144  0.2228
    7ASP      N   65   4.434   4.056   3.466  0.1059  0.2256  0.1095
    7ASP     HN   66   4.467   3.963   3.452 -0.3682 -0.1774  1.4976
    7ASP     CA   67   4.523   4.134   3.548  0.4574 -0.0005  1.0337
    7ASP     HA   68   4.450   4.182   3.611  0.5706 -0.5668  1.6079
    7ASP     CB   69   4.621   4.043   3.622  0.5737 -0.4882  0.6019
    7ASP    HB1   70   4.689   4.111   3.677 -0.2098  1.7361 -1.0662
    7ASP    HB2   71   4.691   3.985   3.557 -0.7921 -0.4252 -0.9890
    7ASP     CG   72   4.560   3.939   3.719  0.1951  0.7674  0.3425
    7ASP    OD1   73   4.434   3.934   3.746 -0.3187 -0.6684 -0.1343
    7ASP    OD2   74   4.645   3.857   3.762 -0.4453  0.0085  0.5925
    7ASP      C   75   4.604   4.227   3.458  0.0915 -0.0392 -0.5415
    7ASP      O   76   4.637   4.180   3.350 -0.0142 -0.6732  0.1829
    8PRO      N   77   4.653   4.351   3.497 -0.4908 -0.4691 -0.3970
    8PRO     CD   78   4.616   4.410   3.625 -0.4032 -0.6772 -0.6280
    8PRO    HD1   79   4.643   4.356   3.718 -0.7870  0.9169  0.4461
    8PRO    HD2   80   4.507   4.429   3.625 -0.4812 -1.1106 -0.9606
    8PRO     CA   81   4.711   4.448   3.404 -0.6239 -0.4996 -0.1467
    8PRO     HA   82   4.643   4.455   3.320  0.1316 -1.1164 -0.8238
    8PRO     CB   83   4.710   4.580   3.481 -0.5262 -0.2584  1.1259
    8PRO    HB1   84   4.617   4.635   3.457  0.8277  1.4484 -0.4846
    8PRO    HB2   85   4.798   4.644   3.459  1.1699 -2.8936 -0.4203
    8PRO     CG   86   4.699   4.539   3.627 -0.1525  0.5657 -0.1279
    8PRO    HG1   87   4.802   4.527   3.666  0.7363  4.3521 -0.8703
    8PRO    HG2   88   4.657   4.626   3.683 -0.7691  0.3981 -0.3243
    8PRO      C   89   4.849   4.404   3.362  0.1228 -0.3155 -0.5196
    8PRO      O   90   4.895   4.454   3.258 -0.1407  0.1656  0.3803
    9ASP      N   91   4.923   4.316   3.437  0.2166 -0.7130  0.2158
    9ASP     HN   92   4.895   4.275   3.524 -0.7518 -0.7672 -0.1101
    9ASP     CA   93   5.062   4.297   3.414  0.5283 -0.6514  0.1887
    9ASP     HA   94   5.101   4.373   3.348 -1.4642  1.1235  0.9710
    9ASP     CB   95   5.132   4.313   3.554  0.3146 -0.3041  0.2422
    9ASP    HB1   96   5.120   4.418   3.590  1.0888 -1.0847  3.0752
    9ASP    HB2   97   5.238   4.279   3.553  0.3413 -0.3413  1.5831
    9ASP     CG   98   5.070   4.231   3.669 -0.1673  0.1856  0.1665
    9ASP    OD1   99   5.118   4.253   3.783  0.8636 -0.1754 -0.0336
    9ASP    OD2  100   4.979   4.147   3.642 -0.1166  0.5140 -0.9920
    9ASP      C  101   5.081   4.162   3.346  0.3931 -0.0652  0.4495
    9ASP      O  102   5.194   4.116   3.319  0.4834 -0.3965  0.1416
   10ALA      N  103   4.971   4.093   3.305  0.6107 -0.2280  0.0519
   10ALA     HN  104   4.880   4.117   3.337  0.4893 -2.0809  1.1869
   10ALA     CA  105   4.960   3.974   3.220  0.5349  1.1191  0.6330
   10ALA     HA  106   5.026   3.901   3.265  1.7374  2.0666  0.4600
   10ALA     CB  107   4.821   3.913   3.241 -0.6545  0.0988 -0.2105
   10ALA    HB1  108   4.806   3.806   3.215  0.8592 -0.2986  0.4274
   10ALA    HB2  109   4.746   3.980   3.194 -1.4241  0.6436  1.6767
   10ALA    HB3  110   4.812   3.912   3.352  2.4090 -0.7242  0.1233
   10ALA      C  111   4.989   3.976   3.073 -0.0439  0.2094  0.6356
   10ALA      O  112   4.953   4.070   3.001 -0.0015 -0.2098 -0.0544
   11GLY      N  113   5.059   3.876   3.019  0.4345  0.1679  0.1934
   11GLY     HN  114   5.082   3.798   3.077 -0.1626  0.7740  1.2699
   11GLY     CA  115   5.128   3.901   2.896  0.7024  0.6855  0.4825
   11GLY    HA1  116   5.215   3.963   2.910  1.0910 -0.2298  2.3483
   11GLY    HA2  117   5.051   3.944   2.833 -2.1056 -0.0850  3.1353
   11GLY      C  118   5.191   3.772   2.841  0.1118 -0.2193  0.1152
   11GLY    OT1  119   5.268   3.703   2.911 -0.0848  0.0974 -0.1234
   11GLY    OT2  120   5.157   3.726   2.728 -0.1822  0.6493  0.3520
   12LIT    LIT  121   5.886   3.687   0.881  0.3788  1.1231 -0.6489
   13LIT    LIT  122   0.613   0.556   2.325 -0.5851 -0.0263 -0.1351
   14LIT    LIT  123   4.810   0.789   4.966 -0.0046 -0.9678 -0.0428
   15LIT    LIT  124   1.605   5.837   4.674  0.1559 -0.9685  0.5455
   16LIT    LIT  125   0.965   3.560   5.175 -0.6229 -1.2727  0.5389
   17LIT    LIT  126   3.737   0.117   0.717  0.9382  0.8025 -0.6358
   18LIT    LIT  127   0.841   2.014   1.316 -0.0886  0.3489  0.9456
   19LIT    LIT  128   5.193   4.615   3.203  0.0976  0.0597 -0.0979
   20LIT    LIT  129   3.674   3.413   4.987 -0.5665 -0.4459  0.7704
   21LIT    LIT  130   3.388   3.226   3.662  0.0963 -0.0996 -0.1757
   22LIT    LIT  131   3.240   1.843   1.974 -0.3730  1.4064  0.1133
   23LIT    LIT  132   0.106   1.481   4.621 -0.2580  0.2847  0.3020
   24LIT    LIT  133   0.795   5.708   5.080 -0.4391  0.1697  0.3944
   25LIT    LIT  134   3.599   5.321   0.124 -1.3158 -0.5171 -0.3834
   26LIT    LIT  135   0.011   5.025   4.573  0.1751 -0.2170 -0.8163
   27LIT    LIT  136   3.654   2.268   2.220 -0.3597 -0.1625  0.7356
   28LIT    LIT  137   3.828   3.331   3.416 -0.0295 -0.0795  0.3114
   29LIT    LIT  138   2.913   3.689   3.079 -0.8252  0.1053  0.2015
   30LIT    LIT  139   2.523   5.136   4.573  1.0393  0.4430 -0.8933
   31LIT    LIT  140   0.607   1.476   0.097  0.7173  1.4374  0.5099
   32LIT    LIT  141   1.929   5.217   1.948  1.0242 -0.0678  0.2919
   33LIT    LIT  142   2.472   3.849   0.041 -0.0203  0.5430 -0.7039
   34CLA    CLA  143   2.605   1.101   0.779 -0.1140  0.0702 -0.2677
   35CLA    CLA  144   0.456   1.729   0.491 -0.2622  0.0401  0.1231
   36CLA    CLA  145   3.645   5.287   2.363  0.3266  0.0949 -0.0341
   37CLA    CLA  146   4.111   3.244   2.898 -0.2352 -0.2285 -0.1875
   38CLA    CLA  147   0.096   1.201   3.167 -0.3060  0.2453 -0.7114
   39CLA    CLA  148   1.541   5.072   1.839 -0.0212  0.2952  0.0358
   40CLA    CLA  149   0.485   1.253   0.645 -0.2565  0.1387 -0.0588
   41CLA    CLA  150   2.927   4.122   2.848  0.3167  0.0375  0.1380
   42CLA    CLA  151   3.093   3.051   4.020 -0.1274 -0.0049 -0.1977
   43CLA    CLA  152   1.523   0.145   1.893 -0.0660 -0.1920 -0.1544
   44CLA    CLA  153   6.210   3.757   4.850 -0.0356  0.0452 -0.0098
   45CLA    CLA  154   4.511   0.191   1.498 -0.3031  0.3836  0.3435
   46CLA    CLA  155   4.389   2.741   2.869  0.5003  0.0622  0.0125
   47CLA    CLA  156   3.673   0.488   2.492  0.3361 -0.0569 -0.3667
   48CLA    CLA  157   1.403   0.795   1.724 -0.2216  0.0537  0.0908
   49CLA    CLA  158   1.214   4.185   0.172  0.2404  0.0093  0.0061
   50CLA    CLA  159   3.642   5.256   4.488 -0.0258  0.1025  0.0104
   51CLA    CLA  160   0.404   0.396   3.874 -0.1795 -0.2244  0.1718
   52TIP3   OH2  161   2.910   3.901   3.089 -0.5267  0.3884 -0.1653
   52TIP3    H1  162   2.901   3.960   3.014 -2.0348  0.7023  0.2299
   52TIP3    H2  163   2.874   3.951   3.163 -2.7006 -1.2829  0.0210
   53TIP3   OH2  164   0.133   2.649   2.310 -0.4240 -0.2984  0.7332
   53TIP3    H1  165   0.163   2.740   2.313 -1.7769  0.1890  0.0450
   53TIP3    H2  166   0.194   2.602   2.367  1.2080  0.7658 -0.0462
   54TIP3   OH2  167   4.654   3.081   4.706 -0.1906 -0.6880 -0.2939
   54TIP3    H1  168   4.652   3.148   4.638 -0.9126  0.1748  0.5354
   54TIP3    H2  169   4.685   3.128   4.784 -0.1220 -1.4701  0.1554
   55TIP3   OH2  170   4.939   0.894   4.876 -0.3016 -0.7737  0.6749
   55TIP3    H1  171   4.872   0.927   4.817 -0.3114 -3.2077 -0.8281
   55TIP3    H2  172   5.022   0.912   4.832 -0.2952 -2.3910 -0.0491
   56TIP3   OH2  173   0.754   1.386   0.844 -0.2215  0.4595 -0.0047
   56TIP3    H1  174   0.812   1.443   0.793 -1.6957  1.1411 -1.0051
   56TIP3    H2  175   0.730   1.316   0.783  1.4884 -1.2332  1.1821
   57TIP3   OH2  176   1.166   0.063   3.690 -0.1122 -0.0018 -0.6349
   57TIP3    H1  177   1.218   0.098   3.762  0.0700  0.3157 -0.9130
   57TIP3    H2  178   1.227   0.062   3.616 -0.5978  0.7194 -1.0586
   58TIP3   OH2  179   3.181   4.728   4.876  0.1290  0.0906 -0.5486
   58TIP3    H1  180   3.231   4.799   4.917 -0.3977  0.7389 -1.0074
   58TIP3    H2  181   3.227   4.711   4.794  0.4840 -0.3739 -0.2547
   59TIP3   OH2  182   4.041   2.335   4.233 -0.8786 -0.0689  0.5924
   59TIP3    H1  183   4.008   2.247   4.248  0.4173 -0.8078 -0.6665
   59TIP3    H2  184   4.136   2.325   4.232 -0.7274  1.1939 -0.3686
   60TIP3   OH2  185   3.561   1.318   1.907 -0.4698  0.2535  0.2036
   60TIP3    H1  186   3.506   1.296   1.832  0.8454 -1.1353 -0.3985
   60TIP3    H2  187   3.630   1.251   1.908  1.5218  2.1754  0.6029
   61TIP3   OH2  188   2.810   2.106   1.022 -0.3452 -0.0058 -0.0457
   61TIP3    H1  189   2.794   2.174   0.957  0.2783  0.6157  0.4361
   61TIP3    H2  190   2.795   2.024   0.976 -1.0599  0.4550 -0.6504
   62TIP3   OH2  191   0.259   2.310   1.543  0.2219  0.5372 -0.4106
   62TIP3    H1  192   0.349   2.317   1.509  0.5834  0.8416  0.5631
   62TIP3    H2  193   0.220   2.396   1.525  0.2200  0.5047 -0.5657
   63TIP3   OH2  194   3.671   4.163   3.529 -0.8542 -0.2141 -0.2651
   63TIP3    H1  195   3.657   4.193   3.619 -0.4595 -0.8039 -0.0036
   63TIP3    H2  196   3.583   4.137   3.499 -1.0313  0.2464 -0.1499
   64TIP3   OH2  197   1.598   0.327   4.650 -0.3041  0.3641  0.3935
   64TIP3    H1  198   1.592   0.235   4.677  0.3602 -0.1523 -1.0921
   64TIP3    H2  199   1.647   0.324   4.567 -1.8494  1.8613 -0.6346
   65TIP3   OH2  200   1.144   2.054   4.360  0.0871 -0.4461  0.4301
   65TIP3    H1  201   1.200   2.100   4.422  1.7787 -1.9853  0.1096
   65TIP3    H2  202   1.185   2.068   4.275 -1.4479  0.4749 -0.2206
   66TIP3   OH2  203   0.304   0.222   1.823  0.6114  0.5102  0.4122
   66TIP3    H1  204   0.270   0.303   1.859  0.1474  1.7877 -2.6002
   66TIP3    H2  205   0.387   0.247   1.781 -0.6769  0.0874 -2.6610
   67TIP3   OH2  206   0.340   2.733   4.647  0.8524 -0.0065  0.5910
   67TIP3    H1  207   0.292   2.654   4.620  0.5824 -0.1420  1.4427
   67TIP3    H2  208   0.337   2.790   4.570  1.3278 -0.9541 -0.1373
   68TIP3   OH2  209   1.565   4.197   2.513  0.1496 -0.2635 -0.2507
   68TIP3    H1  210   1.483   4.150   2.499 -0.3319  0.8692 -1.4024
   68TIP3    H2  211   1.616   4.181   2.434  0.6448 -0.1355  0.0341
   69TIP3   OH2  212   0.096   2.035   4.755 -0.2956 -0.1863 -0.5115
   69TIP3    H1  213   0.036   2.107   4.734 -1.7068 -1.3032 -0.4459
   69TIP3    H2  214   0.066   2.002   4.840  0.6346 -0.5532 -0.3095
   70TIP3   OH2  215   1.262   1.450   3.695 -0.9887  0.4376  0.0345
   70TIP3    H1  216   1.194   1.460   3.762 -1.0477  1.6245 -0.1690
   70TIP3    H2  217   1.257   1.531   3.644  0.4433  0.4563 -0.1182
   71TIP3   OH2  218   0.303   4.627   3.190 -0.7057  0.1046 -0.0892
   71TIP3    H1  219   0.255   4.710   3.191 -0.1120  0.4524  0.0582
   71TIP3    H2  220   0.238   4.561   3.212 -0.9464  0.6692  0.9197
   72TIP3   OH2  221   3.024   5.449   3.031  0.6382  0.3208 -0.2307
   72TIP3    H1  222   2.972   5.486   2.959  1.4883  0.2308 -0.9129
   72TIP3    H2  223   3.048   5.361   3.001 -0.8478 -0.5931  1.1186
   73TIP3   OH2  224   2.189   3.685   1.993  0.4455 -0.4983 -0.2487
   73TIP3    H1  225   2.275   3.720   2.017  0.7790 -0.8313 -0.9244
   73TIP3    H2  226   2.204   3.641   1.909 -0.3992 -0.5072 -0.4002
   74TIP3   OH2  227   2.849   3.854   0.308 -0.0298 -0.1704 -0.0632
   74TIP3    H1  228   2.874   3.871   0.218 -2.8842  2.2752 -0.5777
   74TIP3    H2  229   2.906   3.911   0.360  1.8673 -1.8521 -0.2071
   75TIP3   OH2  230   2.767   5.652   5.144  0.4958 -0.0496  0.2848
   75TIP3    H1  231   2.805   5.635   5.230  1.8564 -0.9704 -0.4461
   75TIP3    H2  232   2.681   5.611   5.147  0.5740 -0.1709  1.1613
   76TIP3   OH2  233   0.916   1.288   3.119  0.0443 -0.3636 -0.9003
   76TIP3    H1  234   0.952   1.290   3.030  0.0028 -2.4565 -1.0230
   76TIP3    H2  235   0.892   1.196   3.132  1.8671 -0.5600  1.9827
   77TIP3   OH2  236   1.040   1.662   3.071 -0.6726  0.0066 -0.3719
   77TIP3    H1  237   1.087   1.743   3.089 -0.8239  0.1468 -0.6042
   77TIP3    H2  238   1.082   1.597   3.128  0.3259 -0.0555 -1.1513
   78TIP3   OH2  239   1.864   1.936   3.275 -0.0228  0.1864 -0.4316
   78TIP3    H1  240   1.855   1.982   3.192 -0.2502  0.9318 -0.0070
   78TIP3    H2  241   1.958   1.934   3.292  0.0431 -0.2368 -0.8556
   79TIP3   OH2  242   6.097   0.057   3.898 -0.5307 -0.2307  0.3680
   79TIP3    H1  243   6.112   0.115   3.972 -1.8424 -1.0445  1.3051
   79TIP3    H2  244   6.167  -0.008   3.905  1.0091  1.2117 -0.7468
   80TIP3   OH2  245   4.330   4.454   0.296  0.4825 -0.5930  0.6129
   80TIP3    H1  246   4.276   4.445   0.374 -1.5445  1.1456 -0.4805
   80TIP3    H2  247   4.387   4.529   0.315 -1.6885  1.4463 -0.3242
   81TIP3   OH2  248   3.559   3.690   0.479 -0.1989  0.4770 -0.1367
   81TIP3    H1  249   3.571   3.646   0.563  0.9043  0.7406 -0.1512
   81TIP3    H2  250   3.465   3.707   0.475 -0.3285  0.0740  0.8450
   82TIP3   OH2  251   6.095   5.372   3.084  0.4603 -0.2978 -0.0774
   82TIP3    H1  252   6.002   5.356   3.068  0.2881 -0.1322  0.7354
   82TIP3    H2  253   6.101   5.467   3.094  0.7028 -0.3164 -0.0545
   83TIP3   OH2  254   4.482   0.091   0.855  0.2331 -0.0130 -0.2038
   83TIP3    H1  255   4.575   0.079   0.838 -0.1823 -0.0489 -2.8825
   83TIP3    H2  256   4.475   0.180   0.891  1.4362 -0.7359  2.0241
   84TIP3   OH2  257   1.932   5.873   3.605 -0.2285 -0.3463  0.5707
   84TIP3    H1  258   1.868   5.879   3.534 -3.0340 -0.1311  2.9498
   84TIP3    H2  259   1.940   5.780   3.623 -0.1936 -0.3509  0.5315
   85TIP3   OH2  260   1.886   5.423   0.652 -0.4989  0.1735  0.2707
   85TIP3    H1  261   1.891   5.384   0.739 -1.7624 -1.1346 -0.2057
   85TIP3    H2  262   1.870   5.516   0.669  0.6794  0.1980  1.4193
   86TIP3   OH2  263   5.158   0.408   4.158  0.0823 -0.2331  0.1351
   86TIP3    H1  264   5.231   0.432   4.101  0.1060  0.0613  0.2874
   86TIP3    H2  265   5.158   0.312   4.158  0.3009 -0.2335 -0.0788
   87TIP3   OH2  266   3.708   5.168   2.068  0.1962  0.5336  0.1437
   87TIP3    H1  267   3.693   5.196   2.158  1.6885 -0.3795  0.7163
   87TIP3    H2  268   3.750   5.243   2.025 -0.2116  0.8518  0.3025
   88TIP3   OH2  269   0.996   2.671   3.449  0.3220  0.0284  0.1109
   88TIP3    H1  270   1.027   2.584   3.477  0.6651 -0.1226 -0.6961
   88TIP3    H2  271   0.903   2.659   3.435  0.0899  0.1682  1.3713
   89TIP3   OH2  272   3.060   5.113   3.224  0.3532 -0.4020  0.4152
   89TIP3    H1  273   3.022   5.171   3.290 -0.7839  2.2492 -2.3277
   89TIP3    H2  274   3.150   5.145   3.213  0.7643 -1.2724  1.0442
   90TIP3   OH2  275   5.483   5.512   3.736 -0.3679 -0.1470 -0.5678
   90TIP3    H1  276   5.436   5.587   3.699 -0.4941  0.0434 -0.0278
   90TIP3    H2  277   5.472   5.442   3.671 -1.7007 -0.2173 -0.2759
   91TIP3   OH2  278   3.964   5.203   0.260 -0.5573  0.0904  0.5433
   91TIP3    H1  279   4.033   5.151   0.219 -0.8443 -0.1548  0.3673
   91TIP3    H2  280   4.008   5.248   0.332 -0.4525 -0.9163  1.1237
   92TIP3   OH2  281   5.926   5.089   4.570  0.8472  0.6077 -0.5665
   92TIP3    H1  282   5.947   5.179   4.592 -2.3490  1.5352 -0.8379
   92TIP3    H2  283   5.851   5.095   4.511 -2.3301 -2.1932  2.6768
   93TIP3   OH2  284   3.562   5.104   2.605  0.0985 -0.3297  0.0350
   93TIP3    H1  285   3.566   5.168   2.533  2.2987 -0.1998  0.1965
   93TIP3    H2  286   3.602   5.025   2.569 -1.0736 -1.0866  0.3665
   94TIP3   OH2  287   2.441   0.967   0.536  0.4598 -0.1741 -0.0059
   94TIP3    H1  288   2.499   1.015   0.595  0.2377  1.3312 -0.9755
   94TIP3    H2  289   2.365   0.945   0.590 -0.3054  2.2746  0.0128
   95TIP3   OH2  290   3.904   1.055   4.286  0.4725  0.6075 -0.0773
   95TIP3    H1  291   3.828   1.036   4.231 -0.3954 -0.8544  1.5372
   95TIP3    H2  292   3.979   1.032   4.232 -0.3042  0.2595 -1.0421
   96TIP3   OH2  293   3.392   0.489   1.208 -0.5978 -0.2346  0.1454
   96TIP3    H1  294   3.368   0.408   1.253  0.4521  0.1037  1.3678
   96TIP3    H2  295   3.316   0.546   1.219 -1.2552 -0.9622 -0.5318
   97TIP3   OH2  296   1.653   2.953   4.391 -0.4887  0.9090  0.1821
   97TIP3    H1  297   1.706   3.011   4.337  1.8770  0.3573  1.7451
   97TIP3    H2  298   1.608   3.011   4.452  1.0920  1.2573  1.0875
   98TIP3   OH2  299   4.212   5.687   3.331  0.1765 -0.1352 -0.1804
   98TIP3    H1  300   4.281   5.693   3.396 -0.3587 -1.9560  0.6356
   98TIP3    H2  301   4.248   5.729   3.253  1.6970  0.0898  0.6059
   99TIP3   OH2  302   5.956   4.929   2.983 -0.3225  0.2300 -0.0880
   99TIP3    H1  303   5.947   4.890   2.896 -1.1509  2.4436 -1.0594
   99TIP3    H2  304   6.000   5.013   2.968 -0.9642  0.9052  1.5405
  100TIP3   OH2  305   0.533   4.673   0.159 -0.2819 -0.3836 -0.0646
  100TIP3    H1  306   0.483   4.602   0.120 -1.5349 -0.2999  1.3194
  100TIP3    H2  307   0.517   4.666   0.253 -0.4658  1.7061  0.1186
  101TIP3   OH2  308   0.584   5.470   1.912 -0.3234 -0.2153  0.3912
  101TIP3    H1  309   0.622   5.404   1.854 -1.6108  0.4548 -1.3028
  101TIP3    H2  310   0.565   5.422   1.993  1.9140 -1.0701  0.4825
  102TIP3   OH2  311   2.206   3.547   5.016  0.2363 -0.1464  0.3239
  102TIP3    H1  312   2.177   3.459   4.992 -0.4841  0.2230 -0.2162
  102TIP3    H2  313   2.125   3.595   5.033  0.6366  0.3235  0.9443
  103TIP3   OH2  314   5.982   3.855   2.559  0.2949  0.3151  0.5627
  103TIP3    H1  315   5.887   3.854   2.543  0.4509 -0.6902 -0.3936
  103TIP3    H2  316   5.997   3.937   2.606 -1.0771  0.3990  0.8944
  104TIP3   OH2  317   0.974   1.551   3.479 -0.1666  0.0160  0.5610
  104TIP3    H1  318   1.032   1.590   3.545  0.8942  1.4859 -1.1486
  104TIP3    H2  319   0.888   1.590   3.497  0.1965  0.7075  0.8444
  105TIP3   OH2  320   1.046   0.341   2.132  0.4049 -0.2353 -0.3659
  105TIP3    H1  321   1.045   0.423   2.181  0.1684 -0.8856  0.7642
  105TIP3    H2  322   1.134   0.335   2.097  0.4149  0.5138 -0.4810
  106TIP3   OH2  323   1.535   0.893   1.364 -0.3920  0.3253  0.5796
  106TIP3    H1  324   1.504   0.829   1.427 -1.6142  0.4333  0.1181
  106TIP3    H2  325   1.482   0.971   1.379 -0.0681  0.6681  0.0328
  107TIP3   OH2  326   3.515   5.720   1.814  0.1321  0.4616 -0.4493
  107TIP3    H1  327   3.586   5.669   1.774  0.0631  0.1679 -0.2043
  107TIP3    H2  328   3.480   5.662   1.882 -2.5277 -0.7873 -2.6928
  108TIP3   OH2  329   0.455   0.172   2.817  0.4319 -0.5633 -0.0699
  108TIP3    H1  330   0.436   0.149   2.908  1.3133  2.3847  0.9955
  108TIP3    H2  331   0.505   0.098   2.783  0.4042 -1.5826  1.9760
  109TIP3   OH2  332   5.404   2.275   0.845  0.9669 -0.2572  0.3334
  109TIP3    H1  333   5.334   2.236   0.898  0.6191  0.2352  0.2499
  109TIP3    H2  334   5.464   2.203   0.828 -0.3105 -1.0822 -0.9280
  110TIP3   OH2  335   1.956   4.409   2.089 -0.0280  0.0416 -0.3799
  110TIP3    H1  336   1.887   4.408   2.022 -2.0855 -1.6583  1.5802
  110TIP3    H2  337   2.038   4.410   2.040 -1.3953 -2.2009 -2.9678
  111TIP3   OH2  338   5.283   2.214   3.976 -0.4085  0.2348 -0.2190
  111TIP3    H1  339   5.296   2.236   3.884 -0.9737  0.6624 -0.2026
  111TIP3    H2  340   5.366   2.177   4.004  0.4630  1.9515 -0.3702
  112TIP3   OH2  341   1.239   5.777   4.200  0.0391  0.1381 -0.3154
  112TIP3    H1  342   1.236   5.730   4.116  0.9874 -0.3723 -0.0725
  112TIP3    H2  343   1.153   5.760   4.239  0.1112 -0.8376 -0.5395
  113TIP3   OH2  344   4.036   5.441   4.777 -0.2011  0.0042 -0.2634
  113TIP3    H1  345   4.037   5.450   4.872  0.5905 -0.7106 -0.1929
  113TIP3    H2  346   4.018   5.529   4.744 -1.1087  0.1405  0.5504
  114TIP3   OH2  347   2.314   5.646   1.319  0.1913 -0.5712 -0.2871
  114TIP3    H1  348   2.393   5.697   1.338  0.3164 -0.3177 -1.4420
  114TIP3    H2  349   2.342   5.577   1.259 -0.4566 -0.4767 -0.7177
  115TIP3   OH2  350   0.697   1.893   1.338  0.1101 -0.1407 -0.1282
  115TIP3    H1  351   0.659   1.848   1.413  2.5226 -1.7347  0.2696
  115TIP3    H2  352   0.678   1.836   1.264 -2.0991  1.3338 -0.7803
  116TIP3   OH2  353   4.220   4.659   2.511 -0.5197 -0.3187  0.7218
  116TIP3    H1  354   4.126   4.641   2.508 -0.7290  0.7952  0.2576
  116TIP3    H2  355   4.228   4.736   2.567 -0.2129  1.4238 -1.5705
  117TIP3   OH2  356   5.747   4.505   0.959  0.2774  0.2635 -0.4340
  117TIP3    H1  357   5.816   4.567   0.982  2.2182 -1.8298 -0.2951
  117TIP3    H2  358   5.738   4.449   1.036  1.0446 -1.7229 -1.6921
  118TIP3   OH2  359   4.856   4.849   4.211  0.6503 -0.2318 -0.4230
  118TIP3    H1  360   4.880   4.759   4.233  1.4509 -0.5104 -2.2772
  118TIP3    H2  361   4.792   4.840   4.141 -0.0941  0.6515  0.1189
  119TIP3   OH2  362   2.836   4.501   1.241 -0.2525  0.4150  0.7682
  119TIP3    H1  363   2.916   4.516   1.292 -0.1799 -0.1642  0.8315
  119TIP3    H2  364   2.765   4.523   1.301 -0.1665 -0.2887  1.1391
  120TIP3   OH2  365   4.377   0.648   4.514 -0.5857 -0.1719  0.6649
  120TIP3    H1  366   4.340   0.709   4.449  0.8951 -0.5852 -0.6030
  120TIP3    H2  367   4.405   0.573   4.464 -0.7053 -1.1467  1.9987
  121TIP3   OH2  368   0.428   0.999   1.825  0.7106  0.2399 -0.4085
  121TIP3    H1  369   0.487   0.971   1.755  0.8028  1.6414 -0.9232
  121TIP3    H2  370   0.350   1.031   1.779  0.2328 -0.0486  0.1933
  122TIP3   OH2  371   0.806   0.540   1.701  0.6497  0.5480  0.5966
  122TIP3    H1  372   0.854   0.518   1.622 -2.2806  0.0242 -1.1918
  122TIP3    H2  373   0.843   0.483   1.769  1.2030 -1.2418 -1.1316
  123TIP3   OH2  374   3.386   2.860   2.541 -0.4991  0.1943  0.1297
  123TIP3    H1  375   3.382   2.908   2.458  0.4801  1.5043  0.8178
  123TIP3    H2  376   3.373   2.768   2.516  1.5345  0.3233 -1.7170
  124TIP3   OH2  377   5.774   2.445   4.957  0.2196  0.8943 -0.2345
  124TIP3    H1  378   5.858   2.400   4.949 -0.4149 -0.3081 -0.3146
  124TIP3    H2  379   5.758   2.481   4.870  0.4518  0.7752 -0.3287
  125TIP3   OH2  380   4.469   4.944   0.128 -0.1282  0.3915  0.9242
  125TIP3    H1  381   4.400   4.878   0.127  0.3956 -0.2287  2.6418
  125TIP3    H2  382   4.448   5.002   0.055 -0.8524 -1.4000 -0.3545
  126TIP3   OH2  383   3.230   0.912   3.896  0.1990 -1.0034  0.6404
  126TIP3    H1  384   3.315   0.935   3.859  0.0375  0.0777  0.9066
  126TIP3    H2  385   3.175   0.894   3.820 -0.1623  1.3100  0.2629
  127TIP3   OH2  386   1.231   1.084   1.967 -0.4561  0.0116 -0.2004
  127TIP3    H1  387   1.302   1.037   1.922  1.4038  2.4243 -0.0194
  127TIP3    H2  388   1.155   1.027   1.959  1.3134 -2.3831 -1.0814
  128TIP3   OH2  389   4.436   5.888   4.403  0.4962 -0.4031 -0.3137
  128TIP3    H1  390   4.427   5.950   4.330 -1.1762 -1.9061 -1.4632
  128TIP3    H2  391   4.524   5.853   4.393  0.8814  0.5955 -0.6053
  129TIP3   OH2  392   5.341   0.351   1.925  0.2982  0.5755  0.2305
  129TIP3    H1  393   5.332   0.332   2.019  0.1468  0.7652  0.2559
  129TIP3    H2  394   5.254   0.380   1.898  0.5323  1.2680  0.2070
  130TIP3   OH2  395   2.435   4.881   1.216  0.0836  0.2056  0.2917
  130TIP3    H1  396   2.353   4.879   1.165 -1.9364 -0.8969  3.3031
  130TIP3    H2  397   2.416   4.941   1.288  1.8299 -0.3578  1.2613
  131TIP3   OH2  398   0.845   1.021   2.789 -0.3803 -0.4085  0.3306
  131TIP3    H1  399   0.891   0.947   2.749  2.3999  2.4885 -2.4406
  131TIP3    H2  400   0.776   1.043   2.727 -0.6704 -0.1590  0.7334
  132TIP3   OH2  401   0.207   5.675   5.009 -0.4506 -0.3910 -0.0571
  132TIP3    H1  402   0.145   5.748   5.009  0.7352  0.6339 -0.4287
  132TIP3    H2  403   0.276   5.702   4.949 -0.7010 -2.4390 -1.3705
  133TIP3   OH2  404   1.390   0.017   1.342  0.4148  0.3268  0.3244
  133TIP3    H1  405   1.465   0.028   1.284 -0.5608  1.7777 -0.7369
  133TIP3    H2  406   1.417   0.056   1.425  0.5985  1.5518 -0.2866
  134TIP3   OH2  407   4.789   4.180   1.348  0.3131  0.0683 -0.2168
  134TIP3    H1  408   4.811   4.231   1.270  0.2675 -0.8944 -0.8789
  134TIP3    H2  409   4.799   4.241   1.421  1.0880  0.7791 -0.9077
  135TIP3   OH2  410   5.697   4.355   2.977 -0.3826 -0.2148  0.5632
  135TIP3    H1  411   5.777   4.407   2.983  0.0431 -0.8827  0.8294
  135TIP3    H2  412   5.634   4.412   2.933  0.3208  0.2185  0.1056
  136TIP3   OH2  413   2.533   1.226   3.373 -0.0055 -0.0219  0.0695
  136TIP3    H1  414   2.558   1.300   3.317 -1.2656 -0.1233 -0.6473
  136TIP3    H2  415   2.442   1.208   3.351 -0.3465 -0.4820  1.7114
  137TIP3   OH2  416   4.176   1.057   4.979  0.3746  0.0311 -0.2168
  137TIP3    H1  417   4.187   1.146   5.010  0.9288 -0.0668 -0.1307
  137TIP3    H2  418   4.229   1.004   5.039  1.3876 -0.1726 -1.2601
  138TIP3   OH2  419   2.376   4.346   1.918 -0.5522 -0.0868  0.2209
  138TIP3    H1  420   2.394   4.439   1.932 -0.6477  0.3714 -2.3509
  138TIP3    H2  421   2.452   4.301   1.954  0.4082  1.1099 -0.2727
  139TIP3   OH2  422   0.060   4.563   0.542 -0.4863  0.0315  0.5117
  139TIP3    H1  423   0.138   4.516   0.512 -0.9624 -0.8671  0.6703
  139TIP3    H2  424   0.036   4.521   0.624 -1.2884  0.1352  0.3407
  140TIP3   OH2  425   4.680   4.248   3.039  0.2755 -0.1481  0.1958
  140TIP3    H1  426   4.702   4.232   3.131 -0.2441  0.2861  0.4032
  140TIP3    H2  427   4.695   4.164   2.996  1.1852 -0.1677  0.5443
  141TIP3   OH2  428   5.896   4.161   0.216 -0.5220  0.2289 -0.4804
  141TIP3    H1  429   5.922   4.106   0.142 -0.9377 -1.7623  0.7720
  141TIP3    H2  430   5.807   4.189   0.196 -0.6879 -0.4237 -0.6800
  142TIP3   OH2  431   0.500   4.701   2.793 -0.9087  0.0045 -0.4979
  142TIP3    H1  432   0.576   4.708   2.851 -0.1429 -1.3677 -1.2863
  142TIP3    H2  433   0.440   4.768   2.825  0.7772  1.4011 -0.0878
  143TIP3   OH2  434   0.558   2.263   2.381 -0.1891  0.5241  0.5911
  143TIP3    H1  435   0.534   2.203   2.452  0.0735  0.8586  0.9712
  143TIP3    H2  436   0.639   2.304   2.411  1.3792 -1.1888 -1.0124
  144TIP3   OH2  437   0.066   0.944   0.044  0.4963  0.0069 -0.2088
  144TIP3    H1  438  -0.015   0.932  -0.006  0.4490  1.2352 -0.4605
  144TIP3    H2  439   0.130   0.888  -0.001 -0.0712 -0.5545 -0.3362
  145TIP3   OH2  440   2.165   4.816   1.992 -0.2120 -0.4820 -0.5648
  145TIP3    H1  441   2.111   4.783   2.064 -2.1861  1.1007 -1.2007
  145TIP3    H2  442   2.231   4.870   2.034 -0.0803 -1.1943  0.1660
  146TIP3   OH2  443   2.108   5.132   4.630  0.5960  0.0290  0.5031
  146TIP3    H1  444   2.028   5.179   4.608 -0.4528 -2.0158 -0.3952
  146TIP3    H2  445   2.110   5.131   4.726  0.7277  1.8993  0.5621
  147TIP3   OH2  446   5.296   4.433   4.135  0.2640  0.5717  0.5384
  147TIP3    H1  447   5.345   4.364   4.089 -0.5329  0.8966 -0.8586
  147TIP3    H2  448   5.339   4.440   4.221 -0.4267 -2.5607  1.2533
  148TIP3   OH2  449   3.128   5.778   2.528  0.0526 -0.1963 -0.1706
  148TIP3    H1  450   3.139   5.868   2.498  0.3655 -0.1599  0.0463
  148TIP3    H2  451   3.214   5.754   2.562 -0.2959 -0.2366  0.6971
  149TIP3   OH2  452   4.676   0.562   4.074 -0.1169 -0.3639 -0.1981
  149TIP3    H1  453   4.771   0.556   4.084 -0.1497  0.3998  0.6432
  149TIP3    H2  454   4.659   0.529   3.985  0.8878 -0.8607 -0.2156
  150TIP3   OH2  455   5.006   3.358   3.673  0.0740  0.0321 -0.9708
  150TIP3    H1  456   4.941   3.334   3.738 -1.4092  0.9472 -2.0516
  150TIP3    H2  457   4.956   3.372   3.593  1.9533 -1.9867 -2.5987
  151TIP3   OH2  458   1.289   3.858   2.181 -0.0626  0.2849  0.1819
  151TIP3    H1  459   1.282   3.850   2.086  1.1390 -0.5551  0.1348
  151TIP3    H2  460   1.341   3.937   2.196  0.8765 -0.2929  0.0695
  152TIP3   OH2  461   4.131   4.133   4.728 -0.6807 -0.0117  0.7456
  152TIP3    H1  462   4.060   4.170   4.674 -1.6748 -1.9405  0.6372
  152TIP3    H2  463   4.172   4.068   4.671  0.9314  0.7827  0.9618
  153TIP3   OH2  464   5.382   0.932   3.480 -0.2409 -0.6858 -0.1415
  153TIP3    H1  465   5.442   0.905   3.549 -1.2446 -2.0833  0.2348
  153TIP3    H2  466   5.295   0.921   3.519 -0.8320 -1.5593 -1.6249
  154TIP3   OH2  467   4.498   5.111   0.497  0.0810  0.2723  0.1870
  154TIP3    H1  468   4.527   5.155   0.577 -1.5728  1.2976  0.2658
  154TIP3    H2  469   4.572   5.119   0.437  0.5539  1.3870  0.8916
  155TIP3   OH2  470   6.010   4.463   4.427 -0.3636 -0.2824 -0.3057
  155TIP3    H1  471   6.038   4.372   4.419  1.0827  0.1373 -0.3250
  155TIP3    H2  472   6.021   4.500   4.339  0.6254  0.3092  0.0422
  156TIP3   OH2  473   0.198   3.642   2.477 -0.2642  0.2391 -0.0915
  156TIP3    H1  474   0.251   3.653   2.555 -0.9258  0.2471  0.3640
  156TIP3    H2  475   0.145   3.565   2.495 -1.0416  0.7416 -0.1659
  157TIP3   OH2  476   1.448   2.728   0.211 -0.0651 -0.0860  0.4856
  157TIP3    H1  477   1.398   2.787   0.156  0.6881  0.2210  0.1179
  157TIP3    H2  478   1.385   2.660   0.237 -0.0595 -1.2712 -2.2277
  158TIP3   OH2  479   2.502   3.172   3.803  0.7650 -0.5751  0.1841
  158TIP3    H1  480   2.557   3.217   3.867 -0.8682  1.7064  0.0919
  158TIP3    H2  481   2.536   3.201   3.719  0.2884 -0.2394  0.1064
  159TIP3   OH2  482   2.568   0.920   1.909 -0.0714 -0.0960 -0.2709
  159TIP3    H1  483   2.531   0.835   1.935  0.4662 -0.4149 -0.5390
  159TIP3    H2  484   2.662   0.909   1.920 -0.0501  0.6959  0.3551
  160TIP3   OH2  485   5.638   4.187   1.120 -0.1900  0.1559  0.2456
  160TIP3    H1  486   5.600   4.181   1.033  0.0488  0.6807  0.1001
  160TIP3    H2  487   5.629   4.099   1.157 -1.5183  0.2591  0.2067
  161TIP3   OH2  488   3.259   4.438   4.898 -0.4014  0.7089  0.3992
  161TIP3    H1  489   3.350   4.467   4.902 -0.2604  0.2836  0.3433
  161TIP3    H2  490   3.208   4.516   4.921 -0.0374  1.0198  0.1643
  162TIP3   OH2  491   0.058   4.815   3.808  0.4133  0.3606  0.0885
  162TIP3    H1  492  -0.032   4.786   3.819  0.4918  0.0366 -0.0981
  162TIP3    H2  493   0.063   4.845   3.717  0.2960  1.0988  0.3227
  163TIP3   OH2  494   1.989   2.831   0.429  0.5674 -0.1309  1.1494
  163TIP3    H1  495   2.028   2.913   0.458 -0.3750  0.6542  0.2914
  163TIP3    H2  496   1.895   2.846   0.435  0.3470 -0.5082 -0.6554
  164TIP3   OH2  497   3.799   3.178   2.873  0.0027  0.2215  0.2799
  164TIP3    H1  498   3.890   3.202   2.890  0.1136 -0.2010  0.2890
  164TIP3    H2  499   3.751   3.209   2.950  0.4783 -1.5623  1.3292
  165TIP3   OH2  500   0.886   3.995   5.193  0.5988 -0.0116 -0.2993
  165TIP3    H1  501   0.815   4.055   5.215  0.5802  0.0167 -0.4318
  165TIP3    H2  502   0.883   3.990   5.097  0.6058 -0.2171 -0.2880
  166TIP3   OH2  503   1.973   2.158   4.865  0.6502 -0.3795 -0.5130
  166TIP3    H1  504   2.011   2.091   4.921  0.7212  1.1159  1.3390
  166TIP3    H2  505   2.025   2.156   4.785  2.4023 -0.7105  0.5857
  167TIP3   OH2  506   1.061   4.525   3.242 -1.2106  0.0139  0.6026
  167TIP3    H1  507   0.973   4.536   3.204 -0.6837  2.8301 -0.0505
  167TIP3    H2  508   1.055   4.567   3.328 -0.5070  0.2574  0.5392
  168TIP3   OH2  509   2.103   3.518   1.043  0.7245 -0.3518  0.1201
  168TIP3    H1  510   2.172   3.478   1.096  1.3343 -0.5397 -0.7696
  168TIP3    H2  511   2.145   3.534   0.958 -0.2352 -0.1512 -0.3355
  169TIP3   OH2  512   2.399   5.473   1.124 -0.2427 -0.1481 -0.4813
  169TIP3    H1  513   2.463   5.466   1.053 -0.7289 -1.8620 -0.7912
  169TIP3    H2  514   2.327   5.417   1.096  0.0012 -1.7055  1.8164
  170TIP3   OH2  515   1.924   4.061   3.028  0.0682  0.2211 -0.3397
  170TIP3    H1  516   1.841   4.025   3.059 -0.5519  2.1708  0.4441
  170TIP3    H2  517   1.972   3.986   2.994 -1.5984 -1.1136  0.1250
  171TIP3   OH2  518   3.656   3.746   4.183 -0.5002  0.2778 -0.7039
  171TIP3    H1  519   3.625   3.655   4.180  1.0365 -0.2672 -0.8149
  171TIP3    H2  520   3.732   3.747   4.124  0.4892  1.2455  0.5412
  172TIP3   OH2  521   0.226   0.376   1.013 -0.1628  0.0526 -0.0812
  172TIP3    H1  522   0.296   0.420   1.061 -0.6738 -0.1112  0.8409
  172TIP3    H2  523   0.270   0.329   0.943  0.5643  0.6070 -0.0065
  173TIP3   OH2  524   5.447   5.392   3.973  0.2899  0.6045  0.0676
  173TIP3    H1  525   5.373   5.332   3.976  0.4667  0.3469 -0.6149
  173TIP3    H2  526   5.444   5.431   3.886  1.3171  0.1184 -0.2021
  174TIP3   OH2  527   0.767   3.256   0.477 -0.4280  0.7016 -0.0717
  174TIP3    H1  528   0.854   3.227   0.448 -0.1357  1.7186 -0.2616
  174TIP3    H2  529   0.763   3.229   0.569  0.1069  0.6740 -0.0492
  175TIP3   OH2  530   3.224   5.328   1.921 -0.4733  0.3642 -0.1479
  175TIP3    H1  531   3.140   5.335   1.967  0.2259 -0.3456  1.2776
  175TIP3    H2  532   3.286   5.299   1.987  0.9219  0.8694 -1.1753
  176TIP3   OH2  533   4.143   3.353   4.144  0.0802  0.7747  0.2479
  176TIP3    H1  534   4.133   3.319   4.055 -2.4358  1.0509  0.3701
  176TIP3    H2  535   4.158   3.447   4.133  0.7529  0.6550  0.1042
  177TIP3   OH2  536   5.075   0.661   2.374 -0.2494 -0.1012  0.0550
  177TIP3    H1  537   5.068   0.641   2.467  1.7155 -0.0182  0.2692
  177TIP3    H2  538   5.128   0.741   2.370 -0.6362  0.1277 -1.1252
  178TIP3   OH2  539   4.228   1.112   4.159  0.2815  0.2391  0.6566
  178TIP3    H1  540   4.291   1.093   4.090  0.3393 -1.0342  1.0328
  178TIP3    H2  541   4.153   1.150   4.113  1.1356  1.3975  0.1641
  179TIP3   OH2  542   4.625   3.734   0.447  0.4724 -0.0444 -0.4956
  179TIP3    H1  543   4.610   3.658   0.503 -0.0805  0.6259  0.2910
  179TIP3    H2  544   4.693   3.706   0.386 -0.3350 -1.4637 -0.7921
  180TIP3   OH2  545   0.522   1.756   4.078 -0.1206  0.2243 -0.2731
  180TIP3    H1  546   0.448   1.759   4.140 -0.4551 -0.9986 -0.5689
  180TIP3    H2  547   0.555   1.666   4.087 -1.1793 -0.5211 -2.9722
  181TIP3   OH2  548   2.425   4.612   1.917  0.5856 -0.1228  0.7323
  181TIP3    H1  549   2.402   4.685   1.974 -0.9319  0.9529 -1.1306
  181TIP3    H2  550   2.510   4.636   1.880  0.1403  0.6994  0.2027
  182TIP3   OH2  551   0.384   5.324   1.187  0.7354  0.4235 -0.0014
  182TIP3    H1  552   0.337   5.362   1.261  2.5387  0.8579  0.9792
  182TIP3    H2  553   0.420   5.399   1.140  1.8921  0.0812  0.2912
  183TIP3   OH2  554   5.709   3.799   2.109 -0.5070  0.5041 -0.1039
  183TIP3    H1  555   5.675   3.748   2.183  1.9149 -0.3062  0.5385
  183TIP3    H2  556   5.632   3.846   2.076 -2.1501 -0.9093  1.4358
  184TIP3   OH2  557   1.863   3.065   2.357 -0.0904  0.3994 -0.9169
  184TIP3    H1  558   1.795   3.102   2.414  0.9051  0.0432  0.5664
  184TIP3    H2  559   1.928   3.135   2.349 -0.8624  0.9466 -2.8051
  185TIP3   OH2  560   0.481   3.332   2.270 -0.1395 -0.0786  0.3041
  185TIP3    H1  561   0.553   3.310   2.330 -1.9672 -2.3641  1.8131
  185TIP3    H2  562   0.490   3.427   2.257  2.9444 -0.2145  0.6185
  186TIP3   OH2  563   5.703   1.719   0.320  0.7220 -0.2540  0.1249
  186TIP3    H1  564   5.795   1.745   0.324  0.7173 -0.4221  1.6825
  186TIP3    H2  565   5.687   1.673   0.401 -0.5118 -1.0567 -0.5415
  187TIP3   OH2  566   2.073   0.258   3.303 -0.1541  0.5124 -0.4145
  187TIP3    H1  567   2.156   0.249   3.349 -0.0628  1.6198 -0.3545
  187TIP3    H2  568   2.039   0.168   3.300  1.0873  0.0218 -0.5551
  188TIP3   OH2  569   1.596   3.844   2.370  0.5820  0.1792 -0.3340
  188TIP3    H1  570   1.532   3.900   2.414  1.4173  0.8120  0.0754
  188TIP3    H2  571   1.586   3.865   2.277  1.3198  1.4760 -0.1356
  189TIP3   OH2  572   0.102   2.183   2.946 -0.7638  0.0241  0.4047
  189TIP3    H1  573   0.135   2.196   2.856  0.5311  0.3441  0.8990
  189TIP3    H2  574   0.082   2.271   2.977 -0.0067  0.0530  0.8476
  190TIP3   OH2  575   0.057   2.080   2.369  0.8711 -0.2373 -0.2045
  190TIP3    H1  576   0.023   2.169   2.361 -0.2057 -0.6216 -0.0544
  190TIP3    H2  577   0.045   2.041   2.282 -1.0786 -1.0497  0.3922
  191TIP3   OH2  578   4.952   3.176   3.269 -0.6429  0.2813 -0.2728
  191TIP3    H1  579   4.869   3.206   3.234 -2.1330 -1.0294  1.8766
  191TIP3    H2  580   4.990   3.123   3.199 -2.5064 -0.6040 -0.6722
  192TIP3   OH2  581   1.209   2.471   2.009 -0.6964 -0.0183 -0.0697
  192TIP3    H1  582   1.285   2.506   1.963 -0.1689 -0.8591  0.1369
  192TIP3    H2  583   1.138   2.478   1.945 -0.4008  0.5648 -0.3443
  193TIP3   OH2  584   3.481   3.801   0.749  0.2103 -0.4003  0.1072
  193TIP3    H1  585   3.543   3.729   0.740  0.3493 -1.0765  4.2890
  193TIP3    H2  586   3.526   3.865   0.805 -1.8645  0.2777  1.1329
  194TIP3   OH2  587   3.786   5.646   2.562 -0.1897 -0.5154 -0.1238
  194TIP3    H1  588   3.718   5.618   2.501 -0.9465 -0.6211  0.7402
  194TIP3    H2  589   3.780   5.584   2.635 -0.5305  0.6512  0.8846
  195TIP3   OH2  590   5.889   4.245   0.904  0.2892  0.0012  0.0835
  195TIP3    H1  591   5.945   4.170   0.923  2.0167  1.2790  0.2976
  195TIP3    H2  592   5.884   4.292   0.987 -0.5483  0.2770 -0.1165
  196TIP3   OH2  593   0.835   3.358   1.235  0.2529 -0.3889  0.6864
  196TIP3    H1  594   0.907   3.299   1.216  1.6988  1.6132 -0.4079
  196TIP3    H2  595   0.870   3.421   1.298 -0.2965  0.9438 -0.2646
  197TIP3   OH2  596   3.672  -0.008   2.657 -0.0349  0.0595 -0.8818
  197TIP3    H1  597   3.729  -0.018   2.582  0.4467  1.4268 -0.7217
  197TIP3    H2  598   3.690   0.080   2.690  0.8502 -0.9956  1.7252
  198TIP3   OH2  599   0.234   4.430   3.008  0.4192  0.1883  0.1467
  198TIP3    H1  600   0.249   4.525   3.003  1.1129  0.0468 -0.8737
  198TIP3    H2  601   0.191   4.408   2.925  0.7862 -0.4687  0.1195
  199TIP3   OH2  602   4.443   2.497   2.400  0.1310  0.1161  0.9080
  199TIP3    H1  603   4.454   2.516   2.493 -1.4576  0.0069  1.1501
  199TIP3    H2  604   4.364   2.443   2.397 -0.1535  0.5967 -0.5633
  200TIP3   OH2  605   3.267   0.790   0.032  0.0597  0.1690 -0.0440
  200TIP3    H1  606   3.299   0.713  -0.014 -0.3806 -0.3079  0.4336
  200TIP3    H2  607   3.178   0.803  -0.001 -0.0671  0.1411  0.2813
  201TIP3   OH2  608   1.103   4.025   0.762  0.1514  0.3425  0.1769
  201TIP3    H1  609   1.124   4.022   0.668 -0.1834 -0.3464  0.1163
  201TIP3    H2  610   1.113   3.934   0.791  1.1355  0.7025  1.0122
  202TIP3   OH2  611   4.215   5.346   4.036  0.4713  0.0075 -0.1541
  202TIP3    H1  612   4.247   5.429   4.072  0.2581  0.6103 -1.2750
  202TIP3    H2  613   4.164   5.307   4.107  0.7844  0.7178  0.4776
  203TIP3   OH2  614   4.074   5.134   1.866 -0.0592 -0.6421  0.2071
  203TIP3    H1  615   3.989   5.119   1.824 -0.0521 -0.5338  0.1529
  203TIP3    H2  616   4.086   5.229   1.861  0.0683 -0.6584  0.2070
  204TIP3   OH2  617   5.639   3.149   0.124  0.0338  0.2391 -0.2261
  204TIP3    H1  618   5.545   3.150   0.142  0.1428  0.3845  0.3494
  204TIP3    H2  619   5.666   3.241   0.132  0.1466  0.2611 -0.8202
  205TIP3   OH2  620   2.438   4.654   1.003  0.6002  0.1391  0.1708
  205TIP3    H1  621   2.359   4.708   1.003  0.4040 -0.0541 -1.7129
  205TIP3    H2  622   2.475   4.664   1.091  0.8594  3.7023 -0.1944
  206TIP3   OH2  623   5.678   3.786   4.695  0.1981  0.3807 -0.4674
  206TIP3    H1  624   5.758   3.743   4.664 -0.2792 -1.2364  0.4328
  206TIP3    H2  625   5.607   3.738   4.652 -0.3485  0.2030  0.5900
  207TIP3   OH2  626   2.526   3.951   4.530 -0.2290  0.5945  0.0584
  207TIP3    H1  627   2.474   3.972   4.607 -1.4754  0.1977 -0.6469
  207TIP3    H2  628   2.558   3.863   4.546 -1.7935 -0.1246 -0.5163
  208TIP3   OH2  629   4.082   0.816   4.841  0.2236 -0.9164  0.5483
  208TIP3    H1  630   4.125   0.890   4.883  0.1155 -0.1814 -0.5869
  208TIP3    H2  631   3.989   0.837   4.845  0.1089 -1.5465  1.2404
  209TIP3   OH2  632   5.468   2.719   2.782  0.7228 -0.2890  0.3466
  209TIP3    H1  633   5.488   2.630   2.756  0.2446 -0.1026 -0.7253
  209TIP3    H2  634   5.462   2.768   2.699  1.0963  0.7639  0.9130
  210TIP3   OH2  635   0.099   4.939   2.788  0.2070  0.1419 -0.2562
  210TIP3    H1  636   0.104   5.035   2.781 -1.6098  0.2732 -0.1198
  210TIP3    H2  637   0.182   4.914   2.829 -0.4229  1.9263  2.3531
  211TIP3   OH2  638   6.050   3.392   2.182 -0.2173  0.2029 -0.2515
  211TIP3    H1  639   6.132   3.428   2.150  0.2018 -0.2722  0.2875
  211TIP3    H2  640   5.991   3.468   2.187  0.9053  1.0017  1.7009
  212TIP3   OH2  641   5.173   4.446   3.106  0.4710  0.2204  0.6491
  212TIP3    H1  642   5.248   4.394   3.078 -0.0910 -1.5033  2.1892
  212TIP3    H2  643   5.106   4.429   3.039  0.8724  0.4268  0.1849
  213TIP3   OH2  644   1.204   1.534   0.935  0.3433  0.2783 -0.0371
  213TIP3    H1  645   1.243   1.545   1.022  0.5551  0.4034 -0.1476
  213TIP3    H2  646   1.251   1.460   0.897 -0.1637 -0.1587  0.1880
  214TIP3   OH2  647   4.601   1.559   4.620 -0.4009 -0.3388 -0.3806
  214TIP3    H1  648   4.509   1.533   4.619 -0.8395  1.0647 -2.2776
  214TIP3    H2  649   4.632   1.541   4.531  1.1371 -0.6438  0.1769
  215TIP3   OH2  650   5.116   1.375   4.661 -0.3975  0.1788  0.1978
  215TIP3    H1  651   5.037   1.370   4.608 -0.3645  1.2545  0.0259
  215TIP3    H2  652   5.088   1.419   4.742 -0.2020 -0.4055  0.5886
  216TIP3   OH2  653   1.653   3.753   0.873  0.5618  0.1852 -0.0537
  216TIP3    H1  654   1.571   3.783   0.834  0.9130 -1.1787 -2.0305
  216TIP3    H2  655   1.626   3.686   0.935  0.0094  2.1676  1.9756
  217TIP3   OH2  656   5.015   4.070   4.310  0.5215  0.3329  0.0802
  217TIP3    H1  657   4.998   4.022   4.391 -0.9729  1.7919  0.6857
  217TIP3    H2  658   5.024   4.002   4.243  0.1755 -0.8410  1.1895
  218TIP3   OH2  659   3.947   0.513   1.055 -0.0893  0.7380  0.0142
  218TIP3    H1  660   3.983   0.586   1.004  0.7307 -0.3688 -1.0747
  218TIP3    H2  661   4.016   0.447   1.053 -2.0852 -1.4594 -2.0951
  219TIP3   OH2  662   5.899   1.997   1.939 -0.2423 -0.3872  0.1983
  219TIP3    H1  663   5.988   2.019   1.910 -0.4561 -0.7541 -0.7772
  219TIP3    H2  664   5.845   2.070   1.908 -0.4712 -0.7665 -0.2997
  220TIP3   OH2  665   2.700   3.002   1.134  0.1780 -0.4992  0.4094
  220TIP3    H1  666   2.671   3.032   1.048  0.1903  0.1645  0.6257
  220TIP3    H2  667   2.796   3.008   1.131  0.1526  0.1723  0.6842
  221TIP3   OH2  668   6.088   2.246   2.720  0.1495 -0.1709 -0.1832
  221TIP3    H1  669   6.117   2.337   2.726 -0.5819  0.0050  0.8776
  221TIP3    H2  670   6.120   2.204   2.800  0.8123 -0.9638 -0.8361
  222TIP3   OH2  671   1.164   0.129   2.363 -0.3320  0.2233 -0.0705
  222TIP3    H1  672   1.151   0.051   2.308  0.7836  0.9911 -1.4909
  222TIP3    H2  673   1.162   0.202   2.301  1.2837  1.1078  0.8609
  223TIP3   OH2  674   5.538   0.829   2.656 -0.4039 -0.0749  0.0303
  223TIP3    H1  675   5.495   0.860   2.735 -1.3905  0.6454 -0.7591
  223TIP3    H2  676   5.631   0.827   2.678 -0.2187  3.5906  0.1393
  224TIP3   OH2  677   4.641   2.657   1.965  0.0702  0.3588 -0.3568
  224TIP3    H1  678   4.578   2.627   1.900 -2.4225  0.5902  1.7990
  224TIP3    H2  679   4.634   2.595   2.037  3.9496 -0.8507 -0.7864
  225TIP3   OH2  680   5.538   3.937   1.257 -0.2936 -0.1470  0.1006
  225TIP3    H1  681   5.541   3.984   1.340 -0.4139 -0.1623  0.1139
  225TIP3    H2  682   5.559   3.846   1.281 -1.7765 -0.4505  0.3415
  226TIP3   OH2  683   6.300   0.166   3.204  0.2482  0.6575 -0.0702
  226TIP3    H1  684   6.299   0.171   3.300 -0.1028  1.5034 -0.1114
  226TIP3    H2  685   6.208   0.171   3.179  0.3991  1.5578 -0.4886
  227TIP3   OH2  686   4.948   4.060   2.554 -0.1512 -0.0138  0.3244
  227TIP3    H1  687   4.995   4.113   2.618 -1.4951 -1.0154  2.2335
  227TIP3    H2  688   5.009   3.991   2.530  0.0689 -0.1577  1.2565
  228TIP3   OH2  689   5.208   3.640   1.343 -0.1525  0.0965 -0.2363
  228TIP3    H1  690   5.211   3.715   1.402 -1.3367  0.9096 -1.1828
  228TIP3    H2  691   5.115   3.630   1.321  0.2749 -0.0425 -2.1250
  229TIP3   OH2  692   4.313   3.936   4.652 -0.1371 -0.5891  0.0006
  229TIP3    H1  693   4.348   3.849   4.671  0.4299 -0.1656  1.0212
  229TIP3    H2  694   4.345   3.957   4.565 -1.1983 -1.8360 -0.7267
  230TIP3   OH2  695   3.821   3.912   0.003 -0.2699  0.0561  0.2406
  230TIP3    H1  696   3.790   3.985   0.056  0.9820 -0.2197  1.4021
  230TIP3    H2  697   3.757   3.842   0.018 -1.4425  0.8554 -0.8314
  231TIP3   OH2  698   5.804   0.419   2.111 -0.0056  0.0199  0.0562
  231TIP3    H1  699   5.842   0.333   2.090  0.0376 -0.1609  0.8425
  231TIP3    H2  700   5.723   0.399   2.158 -0.4411  0.4118 -0.5186
  232TIP3   OH2  701   1.546   1.658   0.176  0.2625 -0.2815 -0.0101
  232TIP3    H1  702   1.475   1.691   0.232 -0.5754 -1.0848 -0.5672
  232TIP3    H2  703   1.616   1.722   0.185 -0.5054  0.4847  0.6264
  233TIP3   OH2  704   6.120   0.480   4.284  0.2748  0.3806 -0.4684
  233TIP3    H1  705   6.083   0.404   4.329  0.8248  0.0009 -0.6503
  233TIP3    H2  706   6.081   0.477   4.196  1.6568 -0.7429 -1.0863
  234TIP3   OH2  707   5.359   3.965   4.567  0.1501 -0.1415  0.2725
  234TIP3    H1  708   5.298   4.022   4.614  0.7214 -0.3451  1.3059
  234TIP3    H2  709   5.307   3.926   4.497 -0.5854  0.6167  0.3775
  235TIP3   OH2  710   0.108   5.793   4.592 -0.3677 -0.4206 -0.0601
  235TIP3    H1  711   0.086   5.756   4.677 -0.1280  0.9232  0.6084
  235TIP3    H2  712   0.202   5.810   4.597 -0.6583  1.3348  0.1087
  236TIP3   OH2  713   1.485   0.362   4.070  0.1417 -0.1313  0.3561
  236TIP3    H1  714   1.424   0.416   4.120  1.0682 -0.1991  1.6060
  236TIP3    H2  715   1.435   0.284   4.046 -0.7716  0.6097 -0.1964
  237TIP3   OH2  716   5.736   4.096   1.908 -0.0280 -0.0768 -0.0085
  237TIP3    H1  717   5.732   4.189   1.886  0.5113  0.3604  1.6343
  237TIP3    H2  718   5.653   4.061   1.876 -1.2942  1.4582  1.4031
  238TIP3   OH2  719   0.507   4.766   4.556 -0.3476  0.2948 -0.2973
  238TIP3    H1  720   0.566   4.766   4.482  1.1206 -2.0628  0.7337
  238TIP3    H2  721   0.560   4.734   4.629 -2.3694  0.0303  1.1550
  239TIP3   OH2  722   2.117   3.476   4.173  0.0163  0.4426  0.3257
  239TIP3    H1  723   2.107   3.385   4.146 -1.7383  0.4754  0.7469
  239TIP3    H2  724   2.210   3.495   4.161  0.0276 -0.7273 -1.8504
  240TIP3   OH2  725   5.272   2.168   3.003 -0.1699 -0.2487  0.2086
  240TIP3    H1  726   5.299   2.201   3.089 -1.3592 -0.8563  0.8414
  240TIP3    H2  727   5.191   2.215   2.984 -0.8788 -1.4253  0.2569
  241TIP3   OH2  728   6.280   3.209   0.970 -0.2071 -0.5283 -0.3674
  241TIP3    H1  729   6.371   3.237   0.963  0.3115 -2.0640 -0.1329
  241TIP3    H2  730   6.257   3.177   0.883 -0.1072 -1.2923 -0.1231
  242TIP3   OH2  731   2.127   0.069   2.365  0.5724 -0.1144 -0.1604
  242TIP3    H1  732   2.092   0.138   2.422  2.9597  1.0030  0.0901
  242TIP3    H2  733   2.082   0.082   2.281 -1.1626 -0.1771  0.7240
  243TIP3   OH2  734   5.283   5.182   5.109  0.5738 -0.0921 -0.4030
  243TIP3    H1  735   5.332   5.101   5.124  0.4497 -0.1837 -0.4940
  243TIP3    H2  736   5.327   5.247   5.164  0.6525 -0.2292 -0.3035
  244TIP3   OH2  737   6.250   5.435   3.689  0.5006  0.0889  0.3621
  244TIP3    H1  738   6.171   5.484   3.665  0.6935  0.2298  0.0131
  244TIP3    H2  739   6.273   5.469   3.776 -0.1624 -0.3794  0.7321
  245TIP3   OH2  740   4.513   1.407   3.089  0.1715 -0.3987  0.0433
  245TIP3    H1  741   4.524   1.476   3.024 -0.7751 -2.1327 -2.0662
  245TIP3    H2  742   4.581   1.343   3.069  1.7034  0.2735  2.6239
  246TIP3   OH2  743   1.472   5.809   2.848  0.3437  0.3845 -0.1167
  246TIP3    H1  744   1.502   5.849   2.766  0.7285 -1.8351 -1.1629
  246TIP3    H2  745   1.539   5.744   2.869 -0.4962 -0.1213  1.1483
  247TIP3   OH2  746   3.789   2.031   1.872 -0.6519  0.8508 -0.0629
  247TIP3    H1  747   3.768   1.966   1.938 -0.3125 -1.2048 -1.8550
  247TIP3    H2  748   3.710   2.086   1.866 -1.0476  0.4532  1.3102
  248TIP3   OH2  749   6.015   2.201   4.979 -0.1034  0.4888  0.1854
  248TIP3    H1  750   5.961   2.122   4.966 -2.6111  2.2069 -0.6462
  248TIP3    H2  751   6.025   2.207   5.074  0.6860 -1.1345  0.2371
  249TIP3   OH2  752   0.560   4.350   0.707 -0.1924 -0.3168 -0.2070
  249TIP3    H1  753   0.643   4.331   0.751 -0.1385  0.3765  0.0010
  249TIP3    H2  754   0.518   4.265   0.698 -0.3730 -0.4590  1.5524
  250TIP3   OH2  755   3.752   3.230   2.102 -0.2082  0.0578 -0.3462
  250TIP3    H1  756   3.765   3.178   2.182  1.0938 -0.5764 -0.9297
  250TIP3    H2  757   3.657   3.232   2.090 -0.4723  0.5734  1.4581
  251TIP3   OH2  758   6.275   4.417   4.264 -0.3374  0.4433  0.1660
  251TIP3    H1  759   6.227   4.349   4.313 -2.6163  1.4106 -0.5681
  251TIP3    H2  760   6.314   4.472   4.331 -0.2218 -0.3856  0.8046
  252TIP3   OH2  761   5.109   0.436   5.060 -0.0052 -0.1569  0.6782
  252TIP3    H1  762   5.137   0.345   5.069  2.0049  0.0966 -1.7856
  252TIP3    H2  763   5.153   0.482   5.131  1.1281 -0.7179  0.3664
  253TIP3   OH2  764   3.967   3.297   1.162 -0.3860  0.2951 -0.0412
  253TIP3    H1  765   4.004   3.350   1.232  0.2926 -0.7111  0.3734
  253TIP3    H2  766   3.920   3.227   1.207  1.0005 -1.0201 -0.5508
  254TIP3   OH2  767   5.717   4.774   1.164  0.3756 -0.2375  0.0894
  254TIP3    H1  768   5.753   4.752   1.078 -1.3941 -0.5635 -0.6011
  254TIP3    H2  769   5.773   4.846   1.195  0.0232  1.0569 -2.0840
  255TIP3   OH2  770   6.338   1.786   2.981  0.3565  0.1690 -0.0793
  255TIP3    H1  771   6.267   1.811   3.040  0.5812 -0.5874  0.5427
  255TIP3    H2  772   6.301   1.793   2.893 -0.1560  0.7913  0.1821
  256TIP3   OH2  773   0.135   0.658   0.731 -0.1361  0.1574  0.1485
  256TIP3    H1  774   0.039   0.655   0.723 -0.0457 -1.8246 -0.6894
  256TIP3    H2  775   0.161   0.567   0.744  1.9085  0.0401 -3.4518
  257TIP3   OH2  776   2.404   2.868   2.730 -0.0966  0.4708 -0.1495
  257TIP3    H1  777   2.376   2.913   2.651 -0.6705 -0.2230 -0.3568
  257TIP3    H2  778   2.351   2.788   2.732  0.2053  0.2805  0.7147
  258TIP3   OH2  779   0.875   5.819   1.587  0.1908  0.3300  0.3631
  258TIP3    H1  780   0.801   5.868   1.623 -0.0315 -0.2621  0.7192
  258TIP3    H2  781   0.835   5.759   1.523  0.4366  0.4524  0.0915
  259TIP3   OH2  782   1.448   3.520   0.752  0.6137  0.3145  0.1490
  259TIP3    H1  783   1.495   3.518   0.836 -1.9174 -3.2687  1.7612
  259TIP3    H2  784   1.511   3.486   0.689  1.8700  0.9095  1.0438
  260TIP3   OH2  785   4.278   5.486   0.369  0.5041  0.2387  0.0309
  260TIP3    H1  786   4.331   5.463   0.293 -1.0319 -0.4594 -0.8620
  260TIP3    H2  787   4.268   5.404   0.418 -2.2000 -0.4088 -1.4119
  261TIP3   OH2  788   4.955   4.575   0.856  0.2728  0.4266  0.0298
  261TIP3    H1  789   5.013   4.560   0.930  0.1487  0.5506  0.1530
  261TIP3    H2  790   5.003   4.634   0.799  0.3325  0.4016  0.0548
  262TIP3   OH2  791   2.332   5.031   1.419 -0.0848  0.9903  0.3043
  262TIP3    H1  792   2.283   5.088   1.360  0.6550  0.7478 -0.5829
  262TIP3    H2  793   2.336   5.078   1.502 -1.9685  0.9150  0.4696
  263TIP3   OH2  794   1.923   1.571   1.195  0.4524  0.1875  0.3027
  263TIP3    H1  795   1.973   1.514   1.254  2.1788  2.3525  1.0708
  263TIP3    H2  796   1.987   1.605   1.133 -0.4570  1.4172 -0.0192
  264TIP3   OH2  797   4.145   4.626   3.148  0.1507  0.1548  0.1351
  264TIP3    H1  798   4.052   4.640   3.132  0.5116  0.2404 -2.3328
  264TIP3    H2  799   4.189   4.665   3.072  2.2652  0.7210  1.5453
  265TIP3   OH2  800   4.883   2.581   1.824 -0.3641 -0.1413  0.6921
  265TIP3    H1  801   4.919   2.668   1.803 -0.8458 -0.5741 -2.3608
  265TIP3    H2  802   4.798   2.600   1.865  0.4285  0.7907  2.0001
  266TIP3   OH2  803   6.207   5.807   4.509 -0.0450  0.4619  0.0322
  266TIP3    H1  804   6.300   5.796   4.527 -0.2731  2.0946  2.6615
  266TIP3    H2  805   6.164   5.746   4.569 -0.6979  2.0191  1.2185
  267TIP3   OH2  806   2.400   4.781   4.931 -0.0569  0.0279  0.6432
  267TIP3    H1  807   2.355   4.697   4.944  0.7569 -0.6176 -0.4820
  267TIP3    H2  808   2.480   4.757   4.884  0.5115  1.3723  0.9030
  268TIP3   OH2  809   4.454   3.462   4.260  0.1420  0.4649 -0.2104
  268TIP3    H1  810   4.549   3.471   4.268  0.3168 -1.6540  0.6849
  268TIP3    H2  811   4.437   3.369   4.276 -2.1598  0.9443  0.5205
  269TIP3   OH2  812   3.325   5.481   3.733 -0.1815 -0.0176  0.0408
  269TIP3    H1  813   3.368   5.546   3.678 -1.3988  0.8240  0.0446
  269TIP3    H2  814   3.233   5.509   3.737 -0.1874 -0.1163  2.3548
  270TIP3   OH2  815   1.890   4.060   1.383 -0.2581  0.0010 -0.2971
  270TIP3    H1  816   1.894   4.026   1.294 -1.7658  2.4195 -1.3852
  270TIP3    H2  817   1.805   4.031   1.416  0.7119 -1.7772  0.8425
  271TIP3   OH2  818   1.664   5.816   4.504  0.0620 -0.5476 -0.0809
  271TIP3    H1  819   1.601   5.779   4.442  1.4818  0.3879 -2.1912
  271TIP3    H2  820   1.743   5.832   4.452  1.3790  0.2168  2.0037
  272TIP3   OH2  821   6.315   0.900   3.864  0.6038 -0.9069 -0.3234
  272TIP3    H1  822   6.378   0.949   3.810 -0.7380  1.7483  0.3669
  272TIP3    H2  823   6.321   0.811   3.831  3.6142 -0.4725 -1.2914
  273TIP3   OH2  824   5.106   0.446   1.843  0.2252  0.3047  0.3217
  273TIP3    H1  825   5.065   0.471   1.760 -0.0201  2.1004  0.9392
  273TIP3    H2  826   5.033   0.437   1.904  0.4943  0.2525  0.6360
  274TIP3   OH2  827   4.911   3.624   3.520 -0.4849 -0.3431 -0.4200
  274TIP3    H1  828   4.954   3.710   3.521 -0.2022 -0.4726 -0.9779
  274TIP3    H2  829   4.850   3.630   3.447 -1.0359 -0.3510  0.0318
  275TIP3   OH2  830   3.577   3.224   1.271 -0.1765  0.1846 -0.1919
  275TIP3    H1  831   3.555   3.316   1.289  1.7464  0.3645  1.6555
  275TIP3    H2  832   3.550   3.177   1.350 -0.9784 -0.8445 -1.0510
  276TIP3   OH2  833   3.746   0.122   3.213 -0.0371 -0.4161 -0.6171
  276TIP3    H1  834   3.687   0.179   3.261  0.8376  0.7556 -0.8942
  276TIP3    H2  835   3.694   0.089   3.140 -0.6950 -0.4021 -0.1671
  277TIP3   OH2  836   4.017   2.996   0.252  0.1600  0.1878  0.3717
  277TIP3    H1  837   3.947   2.963   0.307 -0.0335  0.0182  0.0263
  277TIP3    H2  838   4.096   2.987   0.305 -0.0878  0.4331  0.7802
  278TIP3   OH2  839  -0.010   1.764   0.573  0.3180 -0.0671 -0.8782
  278TIP3    H1  840   0.005   1.670   0.582 -1.7554 -0.3258  0.5149
  278TIP3    H2  841   0.059   1.793   0.513  0.8858 -2.4943 -1.5329
  279TIP3   OH2  842   5.776   5.095   0.804 -0.1859  0.1628 -0.2651
  279TIP3    H1  843   5.765   5.162   0.736  0.6330  1.3844  0.7334
  279TIP3    H2  844   5.704   5.110   0.865  1.5104  2.0946  1.4445
  280TIP3   OH2  845   1.522   1.770   0.437 -0.7848  0.2440 -0.3737
  280TIP3    H1  846   1.544   1.857   0.402 -0.9842  0.2829 -0.4041
  280TIP3    H2  847   1.434   1.753   0.403 -0.6971 -0.0214 -0.4654
  281TIP3   OH2  848   4.996   5.934   5.166 -0.0526  0.1743 -0.0105
  281TIP3    H1  849   4.929   6.000   5.149 -0.7835 -0.5156  0.1145
  281TIP3    H2  850   5.077   5.973   5.135 -0.3964  1.3027  0.4821
  282TIP3   OH2  851   3.285   5.154   1.478  0.3166 -0.0908 -0.3831
  282TIP3    H1  852   3.272   5.211   1.553 -0.5748  0.2715 -0.8047
  282TIP3    H2  853   3.200   5.115   1.461  0.9193 -1.6062 -0.0755
  283TIP3   OH2  854   3.955   2.514   1.595 -0.4068 -0.0767  0.5100
  283TIP3    H1  855   3.876   2.560   1.566  0.3333  0.2867 -1.0454
  283TIP3    H2  856   3.932   2.478   1.681 -1.1839  2.8109  1.6247
  284TIP3   OH2  857   2.019   4.661   2.178  0.2485 -0.2956  0.7158
  284TIP3    H1  858   1.994   4.663   2.270  1.1004 -3.3911  1.1552
  284TIP3    H2  859   1.993   4.574   2.148 -0.2906  0.7192 -2.1064
  285TIP3   OH2  860   3.160   4.689   2.829  0.2873  0.5408  0.5835
  285TIP3    H1  861   3.252   4.713   2.841 -0.0989  2.8062 -0.5090
  285TIP3    H2  862   3.158   4.595   2.844  2.8517  0.3569  0.2135
  286TIP3   OH2  863   4.928   5.080   1.746 -0.2877  0.5690 -0.3309
  286TIP3    H1  864   4.876   5.125   1.680 -0.9441 -0.1212 -0.3002
  286TIP3    H2  865   4.959   5.001   1.701  0.3183  0.7190 -0.1922
  287TIP3   OH2  866   1.464   2.947   3.218  0.2809 -0.0416 -0.0501
  287TIP3    H1  867   1.533   2.970   3.280  0.7756 -1.5009 -0.0225
  287TIP3    H2  868   1.492   2.864   3.180 -0.8594 -0.0399 -0.9695
  288TIP3   OH2  869   0.052   4.404   2.809  0.2595 -0.4799 -0.4501
  288TIP3    H1  870   0.023   4.436   2.723 -0.0932  1.0141  0.1830
  288TIP3    H2  871   0.017   4.316   2.815 -0.3416 -0.3380 -1.5376
  289TIP3   OH2  872   1.899   4.238   3.921 -0.8286  0.8830 -0.5216
  289TIP3    H1  873   1.810   4.219   3.951 -0.8825  0.7706 -0.7508
  289TIP3    H2  874   1.925   4.160   3.872 -0.2695  0.5359  0.2897
  290TIP3   OH2  875   5.184   3.908   2.555 -0.2424 -0.1241 -0.4861
  290TIP3    H1  876   5.216   3.975   2.616  0.2414  0.2049 -1.0910
  290TIP3    H2  877   5.193   3.826   2.604 -1.3454  0.2935  0.4660
  291TIP3   OH2  878   1.071   4.902   1.360 -0.3851  0.1750 -0.3191
  291TIP3    H1  879   1.020   4.965   1.310  1.2881  1.4981 -0.4536
  291TIP3    H2  880   1.047   4.918   1.451 -0.0492  0.9532 -0.3610
  292TIP3   OH2  881   3.478   2.181   4.216  0.2153 -0.3412  0.3453
  292TIP3    H1  882   3.489   2.242   4.144  0.4625  1.0707  1.5351
  292TIP3    H2  883   3.476   2.095   4.174 -1.9855  0.5383 -1.5638
  293TIP3   OH2  884   2.756   4.276   1.117 -0.0326  0.6617 -0.0691
  293TIP3    H1  885   2.669   4.305   1.146  0.6260  2.5024  0.2024
  293TIP3    H2  886   2.811   4.354   1.126  2.1747 -1.0037  1.8018
  294TIP3   OH2  887   4.285   0.358   4.374 -0.3904 -0.0219  0.0359
  294TIP3    H1  888   4.238   0.341   4.293 -0.5630  0.7081 -0.0214
  294TIP3    H2  889   4.359   0.413   4.348 -1.1970  1.3389  0.5611
  295TIP3   OH2  890   4.294   5.564   1.957 -0.6083  0.4722 -0.5173
  295TIP3    H1  891   4.232   5.609   1.900 -0.5871  1.5553  0.2666
  295TIP3    H2  892   4.249   5.557   2.041 -0.1625  0.0680 -0.3038
  296TIP3   OH2  893   4.464   0.679   2.881  0.3384 -0.8290 -0.0846
  296TIP3    H1  894   4.442   0.743   2.949  1.7654 -2.5007  2.1195
  296TIP3    H2  895   4.518   0.614   2.927 -1.1526 -3.7227 -2.0999
  297TIP3   OH2  896   3.748   1.304   3.062 -0.4899  0.4805  0.1672
  297TIP3    H1  897   3.729   1.258   3.144 -0.8456  0.6486  0.1802
  297TIP3    H2  898   3.673   1.287   3.006  0.5540 -1.1621 -0.8174
  298TIP3   OH2  899   2.648   2.293   3.316  0.0913  0.0337 -0.4003
  298TIP3    H1  900   2.619   2.238   3.389 -0.0665 -1.4536 -1.5248
  298TIP3    H2  901   2.569   2.305   3.262  0.2742  0.8391 -0.5031
  299TIP3   OH2  902   5.463   1.415   0.352  0.0744 -0.2172 -0.1285
  299TIP3    H1  903   5.390   1.474   0.333 -1.1508 -0.6939  2.5624
  299TIP3    H2  904   5.437   1.331   0.316 -1.2691 -0.6322  1.6613
  300TIP3   OH2  905   0.802   2.696   0.578  0.0974  0.6803 -0.5643
  300TIP3    H1  906   0.823   2.738   0.662 -1.0360  0.5970 -0.2081
  300TIP3    H2  907   0.802   2.602   0.598 -2.7544  0.7014  0.0886
  301TIP3   OH2  908   0.093   4.781   0.952  0.7308  0.1794  0.2409
  301TIP3    H1  909   0.175   4.778   0.903  1.4774 -1.2535  1.4949
  301TIP3    H2  910   0.026   4.756   0.888  1.1435  1.9204 -0.9457
  302TIP3   OH2  911   4.400   0.473   1.157  0.0389 -0.1975 -0.3838
  302TIP3    H1  912   4.481   0.476   1.208 -1.1045 -0.5388  1.5314
  302TIP3    H2  913   4.350   0.549   1.187 -0.6778 -0.4042 -1.0312
  303TIP3   OH2  914   0.176   1.589   1.023  0.0581 -0.0626  0.1807
  303TIP3    H1  915   0.210   1.626   1.105 -2.7922  1.3329  0.8338
  303TIP3    H2  916   0.175   1.664   0.963  0.0720 -0.5825 -0.4700
  304TIP3   OH2  917   4.111   1.712   4.656 -0.0712  0.4174  0.2994
  304TIP3    H1  918   4.078   1.671   4.736 -0.5649 -0.4852 -0.3468
  304TIP3    H2  919   4.046   1.779   4.634 -0.5668 -0.1491  0.0075
  305TIP3   OH2  920   0.037   4.254   4.912  0.2656  0.6179 -0.4885
  305TIP3    H1  921  -0.040   4.288   4.866 -0.5653 -2.0470 -1.2602
  305TIP3    H2  922   0.111   4.292   4.865 -0.5867  1.0200 -1.5608
  306TIP3   OH2  923   1.976   0.654   0.242 -0.4687  0.4285  0.7106
  306TIP3    H1  924   1.906   0.669   0.306 -0.6690 -1.0750  0.8908
  306TIP3    H2  925   2.055   0.642   0.294 -0.5880 -0.5559  0.6883
  307TIP3   OH2  926   2.029   2.831   1.979  0.4640  0.1001 -0.2366
  307TIP3    H1  927   1.982   2.763   1.932 -0.2813 -0.4520  1.2465
  307TIP3    H2  928   2.108   2.847   1.927  0.3198 -1.4128 -0.9516
  308TIP3   OH2  929   2.193   4.579   3.695 -0.9734  0.3561 -0.1954
  308TIP3    H1  930   2.204   4.563   3.789 -1.1011  0.5741 -0.1446
  308TIP3    H2  931   2.099   4.576   3.681 -0.9573  0.3838 -0.3081
  309TIP3   OH2  932   2.295   5.367   1.951 -0.4448 -0.2980  0.3733
  309TIP3    H1  933   2.209   5.325   1.939 -0.3923 -0.6070  1.0439
  309TIP3    H2  934   2.327   5.332   2.034  1.0296 -1.3863 -0.6102
  310TIP3   OH2  935   5.013   2.203   1.300  0.3164  0.2315 -0.1005
  310TIP3    H1  936   5.034   2.170   1.388  0.6381 -0.2604 -0.3546
  310TIP3    H2  937   4.999   2.124   1.248  1.0345  0.4969 -0.7092
  311TIP3   OH2  938   3.048   2.082   3.132  0.4006  0.3346 -0.1634
  311TIP3    H1  939   3.069   2.149   3.196 -1.0179  1.2645 -0.6245
  311TIP3    H2  940   3.064   2.124   3.047  1.9208 -0.7592 -0.4654
  312TIP3   OH2  941   4.115   3.941   1.541  0.6742 -0.2088  0.4464
  312TIP3    H1  942   4.121   4.031   1.575 -0.6110 -0.5636  1.7232
  312TIP3    H2  943   4.187   3.934   1.479  0.5272  1.8705 -0.0469
  313TIP3   OH2  944   5.395   5.861   4.061  0.2113  0.3937  0.3822
  313TIP3    H1  945   5.359   5.858   3.972 -1.6486  2.7187  0.9406
  313TIP3    H2  946   5.366   5.780   4.102  0.5021 -0.3836 -0.8868
  314TIP3   OH2  947   2.521   5.090   0.028  0.9481 -0.1576  0.1816
  314TIP3    H1  948   2.524   5.136   0.112 -1.7197  0.6392 -0.0664
  314TIP3    H2  949   2.516   5.160  -0.037 -1.9015 -0.6278 -0.2705
  315TIP3   OH2  950   4.156   3.054   2.640 -0.0564 -0.2987 -0.2815
  315TIP3    H1  951   4.236   3.077   2.592 -0.6854  1.0150 -0.7638
  315TIP3    H2  952   4.146   3.125   2.704 -1.4026  0.1620 -0.9653
  316TIP3   OH2  953   5.660   1.807   4.064  0.1407  0.3303 -0.2175
  316TIP3    H1  954   5.731   1.744   4.063  0.9913  1.0701  2.9588
  316TIP3    H2  955   5.701   1.890   4.042 -0.2338  0.4175 -0.6165
  317TIP3   OH2  956   1.262   3.430   1.510  0.7151 -0.2376  0.6087
  317TIP3    H1  957   1.198   3.362   1.531  1.3878 -0.8427  0.7458
  317TIP3    H2  958   1.345   3.383   1.501  0.7117  0.1088 -2.2853
  318TIP3   OH2  959   2.043   2.568   1.830  0.5003  0.0543 -0.3153
  318TIP3    H1  960   2.134   2.567   1.800 -0.0912 -0.0533 -2.3038
  318TIP3    H2  961   1.992   2.584   1.750 -1.2809 -0.9331  0.5501
  319TIP3   OH2  962   3.087   5.403   1.516 -0.7550  0.1162  0.0023
  319TIP3    H1  963   3.107   5.345   1.589  0.2320 -1.6276 -1.5904
  319TIP3    H2  964   3.153   5.472   1.522 -0.5031 -0.1647  0.5758
  320TIP3   OH2  965   1.750   5.235   4.458  0.5019  0.0228  0.1694
  320TIP3    H1  966   1.655   5.227   4.457  0.4334  0.5414 -1.8610
  320TIP3    H2  967   1.779   5.167   4.519 -1.1559 -0.1421  0.8147
  321TIP3   OH2  968   1.379   3.762   4.208 -0.8825 -0.4277  0.3299
  321TIP3    H1  969   1.425   3.704   4.148 -0.3065  0.0265  0.3208
  321TIP3    H2  970   1.316   3.808   4.153  0.9113  1.3637 -0.3469
  322TIP3   OH2  971   5.656   3.415   4.756  0.1209  0.0550 -0.8840
  322TIP3    H1  972   5.619   3.375   4.835 -0.3114  0.8630 -0.6684
  322TIP3    H2  973   5.747   3.432   4.780 -0.6842  3.0256  0.5841
  323TIP3   OH2  974   5.674   0.360   0.592  0.4327 -0.6463  0.2539
  323TIP3    H1  975   5.663   0.418   0.667 -0.1580 -1.3595  0.7235
  323TIP3    H2  976   5.641   0.276   0.621  1.4817 -1.2939 -0.3556
  324TIP3   OH2  977   2.864   3.562   1.585 -0.2053 -0.0041 -0.1839
  324TIP3    H1  978   2.817   3.607   1.654  0.9244  0.6114  0.2103
  324TIP3    H2  979   2.926   3.627   1.551 -1.3228  0.0207 -2.4229
  325TIP3   OH2  980   0.125   0.909   1.148  0.1745  0.5264  0.3812
  325TIP3    H1  981   0.048   0.880   1.099  0.9477 -2.6327  0.8794
  325TIP3    H2  982   0.175   0.959   1.084 -0.6251 -0.3213 -0.9582
  326TIP3   OH2  983   4.245   1.641   1.984  0.0496  0.1781 -0.1700
  326TIP3    H1  984   4.184   1.649   1.911  0.9022  3.5752 -0.7021
  326TIP3    H2  985   4.283   1.554   1.974 -2.7986 -1.0648 -1.2808
  327TIP3   OH2  986   1.057   1.349   1.183  0.3549 -0.1814 -0.3075
  327TIP3    H1  987   1.137   1.303   1.160  1.4544  0.6369  1.6392
  327TIP3    H2  988   1.027   1.306   1.264  0.5560  1.4662  0.6882
  328TIP3   OH2  989   5.204   5.723   1.774 -0.1556  0.1231 -0.0864
  328TIP3    H1  990   5.285   5.715   1.824 -1.8319  0.9318  3.0353
  328TIP3    H2  991   5.178   5.632   1.756  0.3917 -0.2077  0.7451
  329TIP3   OH2  992   5.415   1.793   1.504  0.0721  0.2937  0.7440
  329TIP3    H1  993   5.423   1.744   1.423 -1.5788  1.2864 -0.0582
  329TIP3    H2  994   5.419   1.885   1.478 -1.0146  0.6386  1.6984
  330TIP3   OH2  995   4.511   1.000   3.436  0.1456 -0.2207  0.5296
  330TIP3    H1  996   4.549   0.966   3.517 -0.0783 -0.6540  0.4547
  330TIP3    H2  997   4.582   0.997   3.373  0.6658  1.2097  0.9898
  331TIP3   OH2  998   2.790   0.993   4.075  0.4947 -0.0795  0.3174
  331TIP3    H1  999   2.740   1.062   4.031  0.7180 -1.2099 -1.8596
  331TIP3    H2 1000   2.723   0.937   4.114  0.2151  0.1964  0.2375
  332TIP3   OH2 1001   0.033   0.433   1.226 -0.8354 -0.2009 -0.0140
  332TIP3    H1 1002   0.093   0.498   1.262 -0.2162 -0.8778  0.2173
  332TIP3    H2 1003   0.072   0.409   1.142 -1.8153  0.7478 -0.7486
  333TIP3   OH2 1004   6.085   5.241   3.348  0.7465 -0.3136  0.0856
  333TIP3    H1 1005   6.075   5.288   3.266  0.6246  0.2084  0.4000
  333TIP3    H2 1006   6.065   5.305   3.416 -0.9371 -1.1971  0.4871
  334TIP3   OH2 1007   3.656   2.574   2.387  0.2489  0.4396  0.5569
  334TIP3    H1 1008   3.670   2.635   2.459 -0.1234  1.1918  0.0027
  334TIP3    H2 1009   3.714   2.604   2.317 -1.6048  1.6141 -0.5668
  335TIP3   OH2 1010   5.624   3.121   3.640 -0.2743  1.4792  0.1256
  335TIP3    H1 1011   5.550   3.062   3.649  0.9761 -0.2129 -0.1642
  335TIP3    H2 1012   5.642   3.124   3.546  3.3255 -2.6240  0.3925
  336TIP3   OH2 1013   4.403   1.927   5.044 -0.2628  0.2861 -0.3157
  336TIP3    H1 1014   4.455   1.906   5.122  0.4901  0.6681 -0.7017
  336TIP3    H2 1015   4.422   1.855   4.983 -2.0488 -0.8449  0.3828
  337TIP3   OH2 1016   4.399   2.242   4.902 -0.0419 -0.5802 -0.3305
  337TIP3    H1 1017   4.451   2.171   4.866 -1.6734 -2.0016 -0.0132
  337TIP3    H2 1018   4.385   2.301   4.827  0.7932 -0.9131 -0.7592
  338TIP3   OH2 1019   5.866   2.046   2.381  0.5040 -0.1779 -0.2314
  338TIP3    H1 1020   5.957   2.062   2.405  0.5995 -1.4465  0.3375
  338TIP3    H2 1021   5.820   2.036   2.465 -0.1877  0.5472 -0.5097
  339TIP3   OH2 1022   5.251   5.451   2.791 -0.2995 -0.2058 -0.0960
  339TIP3    H1 1023   5.188   5.466   2.720  0.3008  1.9775 -0.2408
  339TIP3    H2 1024   5.303   5.377   2.761  0.3840  1.0686 -2.3455
  340TIP3   OH2 1025   4.252   0.507   3.765  0.4726 -0.2217 -0.2124
  340TIP3    H1 1026   4.231   0.414   3.769  0.1467 -0.2100 -1.3863
  340TIP3    H2 1027   4.172   0.549   3.734  0.6731  0.4293  0.1248
  341TIP3   OH2 1028   0.214   5.454   5.164  0.4274  0.4270 -0.6760
  341TIP3    H1 1029   0.266   5.507   5.103  0.0350  0.8651 -0.6309
  341TIP3    H2 1030   0.123   5.477   5.145  0.2279 -0.4674 -0.8788
  342TIP3   OH2 1031   3.040   5.324   3.533  0.1334  0.1923  0.2650
  342TIP3    H1 1032   3.114   5.379   3.507 -0.2996  0.7639  0.2270
  342TIP3    H2 1033   2.982   5.323   3.457 -0.3722  0.5655  0.6373
  343TIP3   OH2 1034   0.164   5.696   1.278  0.2548  0.2028 -0.0805
  343TIP3    H1 1035   0.221   5.753   1.330  1.8604 -0.9419 -0.5267
  343TIP3    H2 1036   0.081   5.696   1.326  0.6919  1.6799  0.7455
  344TIP3   OH2 1037   2.902   3.135   3.070 -0.3731 -0.5446  0.3084
  344TIP3    H1 1038   2.880   3.134   3.164 -0.8398  0.0880  0.2172
  344TIP3    H2 1039   2.923   3.044   3.049  1.5927 -0.3970  1.4449
  345TIP3   OH2 1040   1.664   1.790   3.333  0.0472 -0.0347  0.0771
  345TIP3    H1 1041   1.629   1.783   3.243  0.3175 -1.8229  0.0733
  345TIP3    H2 1042   1.739   1.848   3.325  0.1120 -0.2328 -0.8746
  346TIP3   OH2 1043   0.001   1.138   4.756 -0.2687 -0.0530 -0.7200
  346TIP3    H1 1044   0.014   1.063   4.698  0.5210 -1.5171  1.2271
  346TIP3    H2 1045   0.030   1.107   4.842 -1.6026  1.9207  0.5262
  347TIP3   OH2 1046   2.563   0.749   4.852  0.0267  0.4526  0.7934
  347TIP3    H1 1047   2.654   0.772   4.869  0.1222  0.9127 -0.3096
  347TIP3    H2 1048   2.568   0.678   4.788 -0.3450 -1.0924  2.3809
  348TIP3   OH2 1049   1.432   4.482   0.079 -0.0944 -0.0997  0.1579
  348TIP3    H1 1050   1.475   4.568   0.077  1.0420 -0.6578 -0.2171
  348TIP3    H2 1051   1.436   4.455   0.170  2.0395 -0.9424 -0.1352
  349TIP3   OH2 1052   5.456   4.429   0.874  0.1023  0.4372  0.2005
  349TIP3    H1 1053   5.455   4.432   0.778  0.0721  1.1523  0.2204
  349TIP3    H2 1054   5.530   4.371   0.895  0.3357  0.5692 -0.2466
  350TIP3   OH2 1055   5.758   1.676   2.971  0.7327 -0.4839 -0.3583
  350TIP3    H1 1056   5.687   1.739   2.963  0.5866 -0.8550 -3.5721
  350TIP3    H2 1057   5.833   1.720   2.931  1.2882 -1.4374 -0.3968
  351TIP3   OH2 1058   3.060   0.287   4.281  0.1397  0.2183 -0.2546
  351TIP3    H1 1059   3.086   0.374   4.309 -1.4809  0.7928 -0.4283
  351TIP3    H2 1060   3.025   0.245   4.360 -2.3341  1.0303 -0.8347
  352TIP3   OH2 1061   2.823   3.788   4.508  0.3317 -0.0857 -0.0439
  352TIP3    H1 1062   2.758   3.718   4.518 -0.0643  0.3070  0.1631
  352TIP3    H2 1063   2.848   3.809   4.598 -1.1387  1.5083  0.0390
  353TIP3   OH2 1064   2.233   0.434   2.810  0.0030  0.0739 -0.1215
  353TIP3    H1 1065   2.195   0.355   2.848 -0.5450  0.6709  0.5970
  353TIP3    H2 1066   2.304   0.458   2.869  0.9256 -0.5151 -0.9639
  354TIP3   OH2 1067   5.837   3.231   3.772  0.1281 -0.3186  0.0886
  354TIP3    H1 1068   5.836   3.313   3.721 -2.4194 -0.0959  0.3921
  354TIP3    H2 1069   5.752   3.191   3.754  0.0270 -1.3145  2.4612
  355TIP3   OH2 1070   1.526   4.539   4.992 -0.3031  0.0632  0.2735
  355TIP3    H1 1071   1.573   4.520   5.073 -1.1664 -0.0336  0.7592
  355TIP3    H2 1072   1.595   4.553   4.927  0.4073  0.4759  1.0968
  356TIP3   OH2 1073   6.054   4.309   2.181  0.4528  0.6539  0.4596
  356TIP3    H1 1074   5.983   4.265   2.135  0.8626  0.2138  0.2396
  356TIP3    H2 1075   6.018   4.395   2.205  0.1629  0.8065 -0.4964
  357TIP3   OH2 1076   5.315   5.685   3.567 -0.2362 -0.1903  0.0768
  357TIP3    H1 1077   5.275   5.628   3.501 -1.4260  0.8137 -0.0894
  357TIP3    H2 1078   5.326   5.769   3.523 -1.4031  0.6110  1.2378
  358TIP3   OH2 1079   1.859   0.383   1.413  0.5161  0.6538  0.4723
  358TIP3    H1 1080   1.900   0.466   1.437  0.9707  0.9060 -1.0983
  358TIP3    H2 1081   1.903   0.356   1.332 -2.0760  0.7409 -1.0877
  359TIP3   OH2 1082   2.901   4.619   4.750  0.0730 -0.5061  0.3977
  359TIP3    H1 1083   2.977   4.632   4.693 -0.5640  0.8439 -0.1866
  359TIP3    H2 1084   2.934   4.566   4.822  1.0364 -1.8537 -0.9559
  360TIP3   OH2 1085   3.442   2.989   1.814 -0.0574 -0.2086  0.4558
  360TIP3    H1 1086   3.349   2.984   1.791  0.1781 -0.1756 -0.5512
  360TIP3    H2 1087   3.476   2.902   1.793  0.1490 -0.2072  0.7814
  361TIP3   OH2 1088   1.714   2.237   4.187  0.2152 -0.3056  0.2810
  361TIP3    H1 1089   1.778   2.289   4.236 -0.0686  0.5685 -0.2402
  361TIP3    H2 1090   1.680   2.174   4.250 -0.8026  1.3757  1.4828
  362TIP3   OH2 1091   0.274   1.835   1.911  0.6538 -0.5901 -0.2665
  362TIP3    H1 1092   0.219   1.775   1.860 -0.7666  1.1783 -0.9322
  362TIP3    H2 1093   0.335   1.872   1.847  2.7257 -2.5286  0.4680
  363TIP3   OH2 1094   3.342   0.239   1.298 -0.6927  0.1360 -0.5340
  363TIP3    H1 1095   3.426   0.207   1.330 -1.7189 -0.6717  1.5936
  363TIP3    H2 1096   3.307   0.168   1.245  0.2158  0.7509 -2.0284
  364TIP3   OH2 1097   3.705   4.428   3.473 -0.3147  0.1791 -0.1933
  364TIP3    H1 1098   3.697   4.450   3.565  3.4690  0.9972  0.0930
  364TIP3    H2 1099   3.709   4.332   3.472 -1.8781  0.0810  0.2546
  365TIP3   OH2 1100   0.401   4.765   5.112  0.0339 -0.7176  0.1493
  365TIP3    H1 1101   0.347   4.831   5.156 -1.1357 -2.4503  1.4723
  365TIP3    H2 1102   0.339   4.715   5.059  0.9589 -0.5297 -1.1430
  366TIP3   OH2 1103   3.082   3.726   5.130 -0.0831 -0.1971 -0.6136
  366TIP3    H1 1104   3.154   3.741   5.068 -0.9463 -0.7852 -1.8055
  366TIP3    H2 1105   3.006   3.710   5.074 -0.6706 -1.8653  0.6036
  367TIP3   OH2 1106   4.482   3.779   3.350  0.3415 -0.3508 -0.0626
  367TIP3    H1 1107   4.430   3.766   3.430  0.1812 -1.9816 -0.3863
  367TIP3    H2 1108   4.550   3.712   3.355  0.4625 -0.3272 -1.1946
  368TIP3   OH2 1109   5.987   0.673   1.777  0.5041  0.2591 -1.0503
  368TIP3    H1 1110   5.935   0.593   1.765 -0.0675  0.1313  1.6656
  368TIP3    H2 1111   6.030   0.661   1.862  0.6200  2.7396 -0.6939
  369TIP3   OH2 1112   3.382   2.598   4.181 -0.0261 -0.2334  0.4236
  369TIP3    H1 1113   3.351   2.600   4.090  0.0276 -0.8411  0.3928
  369TIP3    H2 1114   3.469   2.561   4.176  0.6599  1.2730  0.5443
  370TIP3   OH2 1115   2.238   0.941   2.541  0.2877 -0.3232  0.0171
  370TIP3    H1 1116   2.222   0.973   2.630  2.0365  0.5409  0.0720
  370TIP3    H2 1117   2.227   1.019   2.486  2.3479 -0.0772 -0.1174
  371TIP3   OH2 1118   1.120   3.623   0.468  0.1838  0.0230  0.2657
  371TIP3    H1 1119   1.031   3.587   0.463  0.1546  0.1313 -0.0170
  371TIP3    H2 1120   1.124   3.687   0.397  0.2186  0.6090  0.7862
  372TIP3   OH2 1121   4.408   3.213   0.117  0.0466 -0.1488 -0.0340
  372TIP3    H1 1122   4.447   3.300   0.131 -0.6146  0.3110 -0.9279
  372TIP3    H2 1123   4.314   3.227   0.129 -0.0267 -0.8429  0.2390
  373TIP3   OH2 1124   4.854   3.375   4.686  0.1769  0.0344 -0.6231
  373TIP3    H1 1125   4.930   3.347   4.636 -0.6236  0.2673 -2.0258
  373TIP3    H2 1126   4.840   3.305   4.750  1.1339 -0.3444 -0.8136
  374TIP3   OH2 1127   1.293   1.162   4.227  0.3633 -0.4039  0.2544
  374TIP3    H1 1128   1.376   1.198   4.259  1.3554 -0.3611 -2.2182
  374TIP3    H2 1129   1.281   1.201   4.141 -3.0832  0.8598  1.1044
  375TIP3   OH2 1130   5.294   5.902   0.686 -0.5266  0.1055  0.2196
  375TIP3    H1 1131   5.199   5.899   0.682 -0.5074  0.2272 -0.7682
  375TIP3    H2 1132   5.316   5.986   0.645  0.0177 -0.1007  0.0838
  376TIP3   OH2 1133   2.287   5.628   3.189 -0.1046  0.4130 -0.2112
  376TIP3    H1 1134   2.343   5.705   3.204 -1.1158  0.8693  1.4861
  376TIP3    H2 1135   2.264   5.598   3.277 -1.2571 -0.7131 -0.8697
  377TIP3   OH2 1136   4.790   4.379   1.550  0.1861  0.0270  0.3986
  377TIP3    H1 1137   4.830   4.443   1.491 -1.6449 -0.2460 -1.2647
  377TIP3    H2 1138   4.775   4.428   1.631  2.4004  0.5336  0.5495
  378TIP3   OH2 1139   3.954   3.993   3.911  1.3051  0.1355 -0.6194
  378TIP3    H1 1140   3.878   3.935   3.910 -0.0202  1.7058  1.2443
  378TIP3    H2 1141   3.988   3.990   3.822 -1.7192  0.3294 -1.8972
  379TIP3   OH2 1142   2.420   5.008   4.700  0.7839  0.0030  1.2436
  379TIP3    H1 1143   2.430   4.913   4.693 -2.2187 -0.4046  0.9873
  379TIP3    H2 1144   2.360   5.020   4.774 -0.5662  1.5011 -0.0132
  380TIP3   OH2 1145   4.383   2.366   4.010 -0.2891 -0.1444  0.1104
  380TIP3    H1 1146   4.384   2.459   4.034 -0.3989  0.0149 -0.4893
  380TIP3    H2 1147   4.349   2.322   4.088 -2.7020  0.5898 -0.4319
  381TIP3   OH2 1148   4.648   0.767   4.858  0.6114  0.4822  0.5547
  381TIP3    H1 1149   4.590   0.692   4.842  1.2528  0.0017  0.4686
  381TIP3    H2 1150   4.588   0.840   4.874 -0.0243  0.1505 -0.2505
  382TIP3   OH2 1151   2.978   0.018   0.453 -0.5166 -0.3473  0.5541
  382TIP3    H1 1152   3.070   0.015   0.480 -0.0388  0.9771 -0.7985
  382TIP3    H2 1153   2.930  -0.013   0.530  1.1238 -2.7514  0.7208
  383TIP3   OH2 1154   4.043   1.363   1.289  0.3079  0.1328  0.3027
  383TIP3    H1 1155   4.091   1.321   1.218 -0.1517  0.4511 -0.2043
  383TIP3    H2 1156   4.096   1.348   1.367  0.3824 -0.9892  0.0487
  384TIP3   OH2 1157   0.917   2.370   4.206 -0.1869  0.4089 -0.4119
  384TIP3    H1 1158   0.832   2.337   4.177 -0.1496  1.0572 -1.3021
  384TIP3    H2 1159   0.981   2.321   4.154 -0.0186  0.0551  0.1230
  385TIP3   OH2 1160   1.454   4.096   4.419 -0.2108 -0.3282  0.2813
  385TIP3    H1 1161   1.479   4.036   4.349  0.5988 -0.9910  1.1098
  385TIP3    H2 1162   1.429   4.176   4.374 -0.8165 -1.1063 -0.8259
  386TIP3   OH2 1163   3.245   3.176   1.358  0.1258 -0.0905  0.1787
  386TIP3    H1 1164   3.283   3.189   1.271 -0.1425 -1.7569 -0.2218
  386TIP3    H2 1165   3.200   3.258   1.377  1.4909  0.8804 -0.5631
  387TIP3   OH2 1166   5.131   1.284   3.408 -0.3494 -0.9352  0.1815
  387TIP3    H1 1167   5.185   1.276   3.487 -0.8004 -0.3914  0.5488
  387TIP3    H2 1168   5.044   1.307   3.440 -0.6166 -1.0363 -0.4566
  388TIP3   OH2 1169   5.584   4.534   3.366  0.6612 -0.6936 -0.3385
  388TIP3    H1 1170   5.607   4.448   3.331 -2.4270 -1.8612  0.1392
  388TIP3    H2 1171   5.585   4.521   3.461  1.5626  0.2488 -0.2075
  389TIP3   OH2 1172   0.171   3.316   3.717 -0.1861  0.1437 -0.3950
  389TIP3    H1 1173   0.259   3.281   3.728  0.6394  2.1202 -0.2924
  389TIP3    H2 1174   0.151   3.303   3.624  1.6640  2.6733 -1.2648
  390TIP3   OH2 1175   5.971   4.505   5.181 -0.1822  0.2669 -0.4868
  390TIP3    H1 1176   5.891   4.454   5.189 -0.3416  0.4732 -0.7564
  390TIP3    H2 1177   5.964   4.547   5.095  0.2150  0.2836 -0.5099
  391TIP3   OH2 1178   4.485   2.578   3.443  0.4140 -0.1201  0.0603
  391TIP3    H1 1179   4.505   2.668   3.470 -0.1732  0.0001  0.1145
  391TIP3    H2 1180   4.458   2.587   3.351 -1.2297  0.0024  0.5188
  392TIP3   OH2 1181   6.193   3.361   3.354  0.4124 -0.2750 -0.6899
  392TIP3    H1 1182   6.166   3.403   3.272 -0.3356 -2.6965 -1.7881
  392TIP3    H2 1183   6.140   3.281   3.358  1.0564 -0.6544  1.7552
  393TIP3   OH2 1184   5.042   3.797   4.023  0.3896  0.1431 -0.2722
  393TIP3    H1 1185   4.989   3.734   4.072 -0.0359  1.1534  0.6105
  393TIP3    H2 1186   4.985   3.828   3.953 -0.4664  1.7018  1.0555
  394TIP3   OH2 1187   6.295   1.679   0.238  0.0569  0.3467  0.2584
  394TIP3    H1 1188   6.341   1.763   0.244  0.3572  0.1198  1.2664
  394TIP3    H2 1189   6.359   1.614   0.267 -0.2144 -0.2241 -0.3827
  395TIP3   OH2 1190   1.067   0.868   0.432 -0.1101 -1.0466 -0.1250
  395TIP3    H1 1191   1.156   0.900   0.417 -0.5314  0.6344  0.7054
  395TIP3    H2 1192   1.034   0.847   0.345  1.0341 -1.5710 -0.4535
  396TIP3   OH2 1193   4.769   5.073   0.662  0.4320 -0.0692  0.7156
  396TIP3    H1 1194   4.723   4.993   0.638  0.2597  0.0497  0.6486
  396TIP3    H2 1195   4.860   5.046   0.676  0.5590 -0.1177 -0.1668
  397TIP3   OH2 1196   3.239   1.210   2.088 -0.3801  0.3514 -0.1104
  397TIP3    H1 1197   3.164   1.155   2.110 -0.3584  0.6256  0.7040
  397TIP3    H2 1198   3.282   1.164   2.016 -1.0758 -0.0359 -0.2939
  398TIP3   OH2 1199   2.873   5.831   0.190 -0.1126 -0.1492  0.3880
  398TIP3    H1 1200   2.906   5.902   0.135  0.0976  0.5122  1.3384
  398TIP3    H2 1201   2.947   5.773   0.202 -0.0718 -0.1278  0.2468
  399TIP3   OH2 1202   4.951   2.814   2.960 -0.4090  0.3819 -0.1019
  399TIP3    H1 1203   4.861   2.787   2.981 -0.3258 -1.7217 -2.0454
  399TIP3    H2 1204   4.991   2.735   2.923  2.6690  0.8663  1.8357
  400TIP3   OH2 1205   4.421   3.521   2.062 -0.7943  0.7256  0.0109
  400TIP3    H1 1206   4.409   3.547   1.970  1.0588  1.0092 -0.1934
  400TIP3    H2 1207   4.515   3.503   2.069 -1.1378 -0.6772  1.5158
  401TIP3   OH2 1208   2.642   2.272   0.574 -0.6876  0.1737  0.2934
  401TIP3    H1 1209   2.710   2.265   0.507  0.9964  2.6629  1.6070
  401TIP3    H2 1210   2.621   2.181   0.596  0.6562 -0.6787 -1.6500
  402TIP3   OH2 1211   5.765   0.248   0.105  0.3379 -1.0215  0.0867
  402TIP3    H1 1212   5.672   0.244   0.084  0.3469 -0.0451 -0.2157
  402TIP3    H2 1213   5.769   0.228   0.199 -0.4721  1.2506  0.6889
  403TIP3   OH2 1214   2.852   3.455   4.807 -0.0066 -0.7295  0.0845
  403TIP3    H1 1215   2.878   3.366   4.782  1.0086 -0.7880  1.2538
  403TIP3    H2 1216   2.798   3.443   4.885  0.6152 -0.3005  0.5917
  404TIP3   OH2 1217   5.343   2.425   0.061  0.0744  0.0846 -0.6730
  404TIP3    H1 1218   5.383   2.339   0.053  0.2110  0.3101 -2.9967
  404TIP3    H2 1219   5.416   2.486   0.055 -0.1244  0.3999  0.0172
  405TIP3   OH2 1220   3.990   5.556   0.436 -0.1202 -0.0317  0.1693
  405TIP3    H1 1221   4.078   5.537   0.402  0.5718  0.9855  1.3025
  405TIP3    H2 1222   3.984   5.502   0.515 -0.6437 -0.3282 -0.0724
  406TIP3   OH2 1223   4.010   3.485   3.097 -0.6437  0.0344  0.9892
  406TIP3    H1 1224   3.959   3.522   3.025  0.3521  0.1170  0.2960
  406TIP3    H2 1225   4.051   3.407   3.060  1.7133  1.2973  0.6925
  407TIP3   OH2 1226   3.307   2.406   1.393  1.0017  0.4306 -0.7279
  407TIP3    H1 1227   3.400   2.422   1.410  1.0738 -1.0364  0.5005
  407TIP3    H2 1228   3.303   2.315   1.364 -0.0370  0.5379 -0.9715
  408TIP3   OH2 1229   3.725   3.432   3.998  0.0533  0.5114  0.5434
  408TIP3    H1 1230   3.776   3.435   3.916 -3.3763  0.7529 -1.7836
  408TIP3    H2 1231   3.709   3.339   4.013 -1.4175  0.5409 -0.5937
  409TIP3   OH2 1232   4.092   2.289   1.480  0.2004 -0.5735  0.1130
  409TIP3    H1 1233   4.042   2.320   1.556 -0.9685 -1.1285 -0.3939
  409TIP3    H2 1234   4.036   2.309   1.405  0.8626 -0.9957 -0.5060
  410TIP3   OH2 1235   2.610   5.700   4.718 -0.5620  0.3875 -0.1289
  410TIP3    H1 1236   2.579   5.621   4.764 -2.0480 -0.1856 -2.0100
  410TIP3    H2 1237   2.549   5.711   4.645  0.8088  2.1478 -1.0809
  411TIP3   OH2 1238   6.161   2.389   0.917 -0.3361 -0.2261  0.0611
  411TIP3    H1 1239   6.097   2.417   0.852 -0.1585 -0.9529 -0.4386
  411TIP3    H2 1240   6.217   2.326   0.870  1.4647  1.2192  0.1320
  412TIP3   OH2 1241   5.879   5.552   4.202  0.2553  0.0440 -0.3202
  412TIP3    H1 1242   5.788   5.532   4.181  0.4961 -1.3145 -0.1729
  412TIP3    H2 1243   5.890   5.643   4.174 -1.2141  0.3288 -0.0657
  413TIP3   OH2 1244   5.595   2.929   0.932  0.6498  0.5551 -0.1124
  413TIP3    H1 1245   5.510   2.886   0.939  0.4893  0.7393 -0.8767
  413TIP3    H2 1246   5.641   2.903   1.012  0.3011 -0.4669 -0.2253
  414TIP3   OH2 1247   0.523   2.049   3.879  0.2387  0.4876 -0.0293
  414TIP3    H1 1248   0.574   2.002   3.944  2.2805  0.3767 -1.5947
  414TIP3    H2 1249   0.439   2.003   3.876  1.0278 -1.0747  0.6969
  415TIP3   OH2 1250   5.564   0.498   3.745 -0.4340  0.0640 -0.4640
  415TIP3    H1 1251   5.492   0.526   3.802  0.0579 -1.0646  0.7511
  415TIP3    H2 1252   5.521   0.473   3.663 -1.1863  1.4206 -0.5163
  416TIP3   OH2 1253   2.799   5.199   2.637  0.3397 -0.2395  0.2254
  416TIP3    H1 1254   2.749   5.129   2.596  0.7364 -1.0026  1.0172
  416TIP3    H2 1255   2.877   5.156   2.673  0.9552  0.7230  0.0880
  417TIP3   OH2 1256   0.870   1.533   4.043  0.0161  0.1373  0.0681
  417TIP3    H1 1257   0.780   1.539   4.010  0.4196  0.7008 -0.9708
  417TIP3    H2 1258   0.873   1.447   4.087 -1.2865  0.5259  0.9852
  418TIP3   OH2 1259   5.058   5.787   3.376 -0.2717 -0.3249 -0.2684
  418TIP3    H1 1260   4.986   5.831   3.331 -0.1270  0.7937  0.5334
  418TIP3    H2 1261   5.099   5.733   3.308 -0.6457  0.5603 -1.2415
  419TIP3   OH2 1262   4.871   1.065   2.384 -0.0941  0.3800 -0.4538
  419TIP3    H1 1263   4.843   1.042   2.296 -2.0882  3.1518 -0.6624
  419TIP3    H2 1264   4.959   1.099   2.374 -0.6474  1.5324 -1.5572
  420TIP3   OH2 1265   5.991   3.306   4.215 -0.1431 -0.0538  0.0284
  420TIP3    H1 1266   6.034   3.240   4.269 -2.8668 -0.5816  1.7429
  420TIP3    H2 1267   5.973   3.378   4.275 -1.9462 -0.0464 -0.4574
  421TIP3   OH2 1268   6.015   2.775   4.889  1.1382 -0.3140 -0.2780
  421TIP3    H1 1269   6.011   2.871   4.884 -1.2080 -0.2634  0.9623
  421TIP3    H2 1270   6.098   2.752   4.848  1.3051  2.1751 -1.5211
  422TIP3   OH2 1271   0.224   5.164   5.056 -0.6712 -0.2451 -0.1066
  422TIP3    H1 1272   0.205   5.258   5.052 -1.2561 -0.3139  0.7727
  422TIP3    H2 1273   0.213   5.141   5.148 -0.1991 -1.1146 -0.2564
  423TIP3   OH2 1274   1.345   4.315   0.970  0.1827  0.5872  0.3794
  423TIP3    H1 1275   1.288   4.321   0.893  0.2779  2.2476  0.4021
  423TIP3    H2 1276   1.364   4.406   0.993  1.4165  0.0889  1.4440
  424TIP3   OH2 1277   4.079   5.462   4.408  0.0690  0.4444 -0.1712
  424TIP3    H1 1278   3.994   5.427   4.383  0.5591 -1.5265  0.7598
  424TIP3    H2 1279   4.111   5.403   4.476  1.5722  1.9563  0.5089
  425TIP3   OH2 1280   0.085   2.006   1.107  0.0112 -0.3923 -0.2857
  425TIP3    H1 1281   0.002   1.973   1.143 -1.0963  2.3322 -0.0428
  425TIP3    H2 1282   0.139   2.024   1.184 -1.0723  2.2705 -0.0446
  426TIP3   OH2 1283   0.642   1.599   0.254  0.0854 -0.2852  0.3645
  426TIP3    H1 1284   0.590   1.641   0.323  0.7544 -2.3810  2.2708
  426TIP3    H2 1285   0.729   1.637   0.263 -0.5061  1.6405 -1.4000
  427TIP3   OH2 1286   2.136   0.929   3.160 -0.8316  0.1344  0.1254
  427TIP3    H1 1287   2.170   0.840   3.151 -0.3174 -0.0411  2.9807
  427TIP3    H2 1288   2.077   0.939   3.086  0.8007 -1.7426 -1.5604
  428TIP3   OH2 1289   2.137   2.024   2.332 -0.1076  0.0642  0.4221
  428TIP3    H1 1290   2.212   2.033   2.272  0.9319 -0.9785  1.5126
  428TIP3    H2 1291   2.077   1.966   2.286  1.0039 -1.3068  0.6513
  429TIP3   OH2 1292   0.092   3.203   4.758 -0.0705  0.3720  0.4404
  429TIP3    H1 1293   0.014   3.199   4.813  0.0758 -0.7152  0.5899
  429TIP3    H2 1294   0.155   3.253   4.808  0.2214 -0.9911  1.4917
  430TIP3   OH2 1295   4.508   2.960   0.797 -0.0842  0.4356  0.2241
  430TIP3    H1 1296   4.520   2.918   0.882  0.4336 -1.1579 -0.6081
  430TIP3    H2 1297   4.597   2.978   0.765 -0.1519 -1.1987 -1.0185
  431TIP3   OH2 1298   1.687   3.843   1.470  0.3531 -0.0337 -0.4262
  431TIP3    H1 1299   1.717   3.756   1.496 -1.5956 -0.1096  1.9237
  431TIP3    H2 1300   1.602   3.828   1.430 -0.9094  0.8517  1.7534
  432TIP3   OH2 1301   1.702   5.677   4.760  0.1494 -0.1034 -0.4558
  432TIP3    H1 1302   1.716   5.661   4.853  2.1882 -0.7073 -0.8337
  432TIP3    H2 1303   1.659   5.597   4.729 -0.7813  0.2058 -0.0108
  433TIP3   OH2 1304   3.040   0.163   4.879 -0.3155  0.2371  0.2833
  433TIP3    H1 1305   3.005   0.122   4.957 -1.5097  2.4158  0.9920
  433TIP3    H2 1306   3.015   0.105   4.807 -0.6180 -0.9854  1.3511
  434TIP3   OH2 1307   4.835   2.164   0.679 -0.0712 -0.3596 -0.1072
  434TIP3    H1 1308   4.769   2.151   0.747  0.1288 -1.0018 -0.0272
  434TIP3    H2 1309   4.914   2.189   0.728 -0.0853 -0.2123 -0.1575
  435TIP3   OH2 1310   2.098   0.041   4.408  0.0732 -0.8235  0.0325
  435TIP3    H1 1311   2.118   0.112   4.469  1.2721 -1.2506  0.1714
  435TIP3    H2 1312   2.069  -0.031   4.464 -0.8268 -0.5612 -0.0822
  436TIP3   OH2 1313   3.190   4.042   2.120 -0.1679 -0.0962  0.0021
  436TIP3    H1 1314   3.127   4.059   2.051 -0.1835 -1.1716 -0.2656
  436TIP3    H2 1315   3.243   4.121   2.125 -1.2560  0.6600 -0.0574
  437TIP3   OH2 1316   5.498   1.013   2.450  0.1732  0.1551  0.4321
  437TIP3    H1 1317   5.515   0.952   2.522 -0.4412  0.4912  0.8720
  437TIP3    H2 1318   5.507   1.100   2.490 -1.3563  0.3511  0.4051
  438TIP3   OH2 1319   2.140   1.584   0.236 -0.3270 -0.0609  0.4260
  438TIP3    H1 1320   2.170   1.658   0.289  0.7934  0.4295 -0.8267
  438TIP3    H2 1321   2.047   1.601   0.221 -0.0171  1.2790 -0.0994
  439TIP3   OH2 1322   0.834   5.167   5.164  0.9276  0.0595 -0.0358
  439TIP3    H1 1323   0.927   5.151   5.181  0.7091  0.1831  1.3867
  439TIP3    H2 1324   0.789   5.094   5.206  0.4071 -0.5579 -1.5983
  440TIP3   OH2 1325   4.812   5.418   5.138  0.5913 -0.2844 -0.1691
  440TIP3    H1 1326   4.895   5.386   5.174  0.2616 -0.6721  0.2658
  440TIP3    H2 1327   4.747   5.395   5.205  0.4619  2.2106  0.6541
  441TIP3   OH2 1328   4.533   0.780   2.447 -0.1518 -0.0713 -0.3873
  441TIP3    H1 1329   4.512   0.831   2.525  2.2911  0.8404 -0.2445
  441TIP3    H2 1330   4.581   0.841   2.391  1.2339 -1.6475 -1.0101
  442TIP3   OH2 1331   0.091   3.567   0.894 -0.3428  0.0266 -0.7863
  442TIP3    H1 1332   0.177   3.600   0.867  0.2727 -1.4941 -0.7702
  442TIP3    H2 1333   0.109   3.482   0.934 -1.5130  0.9899  2.0598
  443TIP3   OH2 1334   3.114   5.992   1.308  0.6223 -0.0350  0.2675
  443TIP3    H1 1335   3.207   5.970   1.299  0.2034 -1.5298 -0.8023
  443TIP3    H2 1336   3.095   5.979   1.400  1.1369 -1.1946  0.2226
  444TIP3   OH2 1337   2.023   1.745   0.009 -0.0937  0.3134  0.1409
  444TIP3    H1 1338   2.059   1.821   0.056  0.5570  0.3460 -0.3957
  444TIP3    H2 1339   2.100   1.697  -0.021 -0.3986  1.6319 -3.1034
  445TIP3   OH2 1340   2.570   5.346   0.871 -0.0114  0.1140 -0.3770
  445TIP3    H1 1341   2.662   5.364   0.853 -0.0999  0.2020 -0.7728
  445TIP3    H2 1342   2.523   5.393   0.801 -0.3575  0.1215 -0.1439
  446TIP3   OH2 1343   4.719   3.885   2.904  0.3999 -0.3596 -0.4199
  446TIP3    H1 1344   4.714   3.793   2.929 -0.6422 -0.0113  0.7538
  446TIP3    H2 1345   4.812   3.906   2.911  0.5668 -1.1659 -0.1012
  447TIP3   OH2 1346   0.000   2.561   0.350  0.0186  0.0191 -0.1337
  447TIP3    H1 1347   0.083   2.571   0.304  0.5527 -1.2344  0.5299
  447TIP3    H2 1348   0.025   2.548   0.442 -0.7674 -2.3522 -0.1875
  448TIP3   OH2 1349   1.633   2.112   2.064 -0.3374 -0.0602 -0.2685
  448TIP3    H1 1350   1.654   2.106   1.971  1.0272 -0.6696  0.0603
  448TIP3    H2 1351   1.668   2.032   2.102  1.6788  1.4021  1.2074
  449TIP3   OH2 1352   4.738   1.358   2.927 -0.4386  0.0173  0.0164
  449TIP3    H1 1353   4.826   1.331   2.954 -0.5079  0.2242  0.4700
  449TIP3    H2 1354   4.753   1.430   2.866 -0.2677 -0.7234 -0.8216
  450TIP3   OH2 1355   6.283   5.444   4.597  0.0057  0.3971 -0.2301
  450TIP3    H1 1356   6.359   5.501   4.609 -1.6617  3.3652 -2.4476
  450TIP3    H2 1357   6.301   5.396   4.516  0.2125 -0.1856  0.1550
  451TIP3   OH2 1358   3.989   1.725   1.869 -0.4413 -0.6606  0.0528
  451TIP3    H1 1359   3.944   1.741   1.786  1.3644 -0.5626 -0.9658
  451TIP3    H2 1360   3.978   1.631   1.884  0.1105 -0.8883 -0.8762
  452TIP3   OH2 1361   0.629   0.564   0.191 -0.1594  0.1574 -0.3334
  452TIP3    H1 1362   0.656   0.645   0.234  1.7118 -0.9930  0.7926
  452TIP3    H2 1363   0.711   0.519   0.170 -1.1233 -2.0839  0.3635
  453TIP3   OH2 1364   5.475   3.418   3.324 -0.1839 -0.5944 -0.2156
  453TIP3    H1 1365   5.486   3.508   3.354 -0.1820 -0.5007 -0.4872
  453TIP3    H2 1366   5.479   3.424   3.228  1.0107 -1.0483 -0.2046
  454TIP3   OH2 1367   4.762   4.500   2.983  0.4079 -0.0403 -0.1059
  454TIP3    H1 1368   4.722   4.421   3.017 -0.1050  0.9538  1.6908
  454TIP3    H2 1369   4.720   4.572   3.030  1.5055  1.2693 -1.0152
  455TIP3   OH2 1370   0.210   2.341   5.099 -0.2753 -0.1555  0.2579
  455TIP3    H1 1371   0.165   2.296   5.171  2.9575 -2.2867  1.1856
  455TIP3    H2 1372   0.246   2.420   5.139 -0.2085 -0.2841  0.4538
  456TIP3   OH2 1373   2.671   5.650   4.059  0.4580  0.1941  0.1978
  456TIP3    H1 1374   2.760   5.633   4.088 -0.5631 -1.5476  2.6785
  456TIP3    H2 1375   2.634   5.563   4.045 -0.6154  0.8998 -1.7660
  457TIP3   OH2 1376   0.186   4.040   4.640 -0.4857  0.0985  0.5656
  457TIP3    H1 1377   0.130   4.116   4.628 -1.0540 -0.3501  0.3429
  457TIP3    H2 1378   0.273   4.070   4.613 -0.5804  0.8441  1.0743
  458TIP3   OH2 1379   5.501   1.789   2.999 -0.2668  0.4088 -0.1114
  458TIP3    H1 1380   5.460   1.705   2.977 -2.6236  1.1074  1.2810
  458TIP3    H2 1381   5.477   1.803   3.091  0.6752  2.3104 -0.1173
  459TIP3   OH2 1382   0.865   3.079   1.477  0.6710  0.1908  0.2408
  459TIP3    H1 1383   0.798   3.068   1.409  1.0743  1.0736 -0.3247
  459TIP3    H2 1384   0.818   3.067   1.560 -0.3587  1.4609 -0.1171
  460TIP3   OH2 1385   6.037   3.789   0.817  0.4512  0.1951 -0.0973
  460TIP3    H1 1386   6.066   3.850   0.750  1.1012  0.8162  0.7173
  460TIP3    H2 1387   6.115   3.773   0.871 -0.3216  0.7010  1.2423
  461TIP3   OH2 1388   2.577   5.803   3.444  0.2204  0.2921 -0.3175
  461TIP3    H1 1389   2.511   5.814   3.375  0.2757  1.0996 -0.2495
  461TIP3    H2 1390   2.606   5.891   3.464  0.6333  0.0190  0.3345
  462TIP3   OH2 1391   4.045   5.419   1.826 -0.0661  0.3428 -0.2010
  462TIP3    H1 1392   4.083   5.479   1.890 -0.0964  1.7314 -1.4341
  462TIP3    H2 1393   3.951   5.421   1.844 -0.1664  1.3722 -0.8006
  463TIP3   OH2 1394   2.992   4.044   4.429  0.0688 -0.6674  0.4264
  463TIP3    H1 1395   2.982   3.953   4.399  2.8362 -0.9021 -0.0574
  463TIP3    H2 1396   3.050   4.084   4.364 -1.0276  1.4463  0.6859
  464TIP3   OH2 1397   1.314   3.930   0.522 -0.3963  0.3132 -0.8622
  464TIP3    H1 1398   1.280   3.855   0.570  0.3474  0.2845 -0.3596
  464TIP3    H2 1399   1.409   3.922   0.530 -0.3170  1.6904 -0.1988
  465TIP3   OH2 1400   0.477   2.851   5.026 -0.1543 -0.0099 -0.1801
  465TIP3    H1 1401   0.418   2.917   4.990  0.3983 -0.3920 -1.9022
  465TIP3    H2 1402   0.509   2.804   4.949  1.2173 -0.7986  0.8356
  466TIP3   OH2 1403   0.253   0.605   3.067  0.1116  0.0499 -0.0632
  466TIP3    H1 1404   0.218   0.656   3.140 -1.5056  0.6627 -1.2231
  466TIP3    H2 1405   0.333   0.651   3.042  0.7656 -0.2424  1.3581
  467TIP3   OH2 1406   0.377   3.843   0.639 -0.3196  1.0270 -0.5769
  467TIP3    H1 1407   0.283   3.851   0.626 -0.8081 -2.6682 -0.4814
  467TIP3    H2 1408   0.388   3.841   0.734 -0.5930 -1.2046 -0.5335
  468TIP3   OH2 1409   0.048   3.616   2.951  0.4263 -0.0052 -0.6115
  468TIP3    H1 1410   0.005   3.538   2.986  1.3819 -1.1196 -1.8129
  468TIP3    H2 1411   0.012   3.689   3.002  0.0059 -1.2905  1.0003
  469TIP3   OH2 1412   0.993   1.970   0.296  0.0457 -0.2088 -0.5283
  469TIP3    H1 1413   1.068   1.944   0.243 -0.5555 -2.5096 -0.3702
  469TIP3    H2 1414   1.004   1.922   0.378 -1.5656 -0.5980 -0.5035
  470TIP3   OH2 1415   3.682   1.870   2.047 -0.3698  0.2942 -0.1609
  470TIP3    H1 1416   3.660   1.810   1.976  1.7048  0.9548 -1.4495
  470TIP3    H2 1417   3.747   1.822   2.099 -1.2409  0.1498  0.8334
  471TIP3   OH2 1418   4.248   1.359   0.482 -0.3828  0.4709 -0.3481
  471TIP3    H1 1419   4.323   1.413   0.458  0.1452 -0.9893 -2.1055
  471TIP3    H2 1420   4.181   1.423   0.509  0.8938  1.8698 -0.3435
  472TIP3   OH2 1421   1.290   2.222   4.582  0.1522 -0.0722 -0.0993
  472TIP3    H1 1422   1.328   2.288   4.523  1.9059 -0.8449  0.1164
  472TIP3    H2 1423   1.339   2.233   4.664  0.7259 -1.8589 -0.1734
  473TIP3   OH2 1424   4.852   5.977   3.743 -0.3950  0.5873  0.4857
  473TIP3    H1 1425   4.940   5.990   3.778 -1.0137  0.1267  2.3013
  473TIP3    H2 1426   4.860   5.903   3.683  0.6124  1.1132 -0.0459
  474TIP3   OH2 1427   3.752   5.508   2.163  0.8235 -0.0087 -0.1933
  474TIP3    H1 1428   3.720   5.443   2.225 -0.0541  0.3030 -0.2993
  474TIP3    H2 1429   3.683   5.574   2.160  1.3882  0.5828 -0.6039
  475TIP3   OH2 1430   4.878   4.605   1.444 -0.2710  0.4126 -0.2855
  475TIP3    H1 1431   4.968   4.625   1.419 -0.0347  1.0160  0.9511
  475TIP3    H2 1432   4.825   4.638   1.372  0.3761  2.0033 -0.0779
  476TIP3   OH2 1433   2.029   3.880   1.562 -0.2754 -0.4078  0.0078
  476TIP3    H1 1434   1.986   3.961   1.533  1.8739  1.9700  2.8357
  476TIP3    H2 1435   2.067   3.844   1.482  0.8497  2.8235 -1.0829
  477TIP3   OH2 1436   3.934   1.981   0.906 -0.1906  0.8959  0.0324
  477TIP3    H1 1437   4.004   1.983   0.972 -1.1878 -1.0659  1.2601
  477TIP3    H2 1438   3.978   1.953   0.826  0.6256  0.8175  0.4869
  478TIP3   OH2 1439   2.318   3.826   3.579  0.0707 -0.5484 -0.5404
  478TIP3    H1 1440   2.259   3.900   3.567 -0.5971 -1.1096 -0.7938
  478TIP3    H2 1441   2.303   3.799   3.670  0.9181  0.1323 -0.1901
  479TIP3   OH2 1442   5.503   3.694   3.363 -0.1745  0.0280 -0.1361
  479TIP3    H1 1443   5.474   3.755   3.430 -0.1767  0.1157 -0.2156
  479TIP3    H2 1444   5.477   3.735   3.280 -1.1953 -0.6123 -0.1478
  480TIP3   OH2 1445   1.868   1.544   3.404 -0.0499 -0.5184  0.1949
  480TIP3    H1 1446   1.839   1.464   3.361  0.8371 -1.0848  0.6101
  480TIP3    H2 1447   1.924   1.587   3.340  2.1701 -1.9067  1.0742
  481TIP3   OH2 1448   5.006   2.939   3.460 -0.1233 -0.2727  0.0295
  481TIP3    H1 1449   5.099   2.927   3.442 -0.4020 -0.0755 -1.8248
  481TIP3    H2 1450   4.986   3.026   3.425 -0.4936  0.8442  2.8104
  482TIP3   OH2 1451   4.442   5.846   3.976  0.1899 -0.6828 -0.0197
  482TIP3    H1 1452   4.438   5.912   4.045 -0.4377 -0.9139  0.1816
  482TIP3    H2 1453   4.494   5.885   3.907 -0.1156 -0.0071  0.1272
  483TIP3   OH2 1454   4.455   4.270   2.398 -0.2359  0.3309 -0.1776
  483TIP3    H1 1455   4.548   4.250   2.382 -0.0927 -0.2297  1.2069
  483TIP3    H2 1456   4.408   4.194   2.363 -0.2219  0.7538 -1.1623
  484TIP3   OH2 1457   4.876   3.234   1.121 -0.0894  0.0992 -0.4275
  484TIP3    H1 1458   4.934   3.186   1.062  0.1518 -0.1552  0.0055
  484TIP3    H2 1459   4.934   3.293   1.169 -0.3550  0.6641 -0.7967
  485TIP3   OH2 1460   0.760   0.763   0.633  0.0855  0.1025 -0.4026
  485TIP3    H1 1461   0.718   0.729   0.712  2.3070 -0.6248  0.5589
  485TIP3    H2 1462   0.821   0.693   0.607  0.2648  0.8310 -2.0670
  486TIP3   OH2 1463   4.165   2.525   5.159  0.0907  0.1920  0.3285
  486TIP3    H1 1464   4.188   2.533   5.066  0.8768  0.7174  0.5581
  486TIP3    H2 1465   4.191   2.609   5.197  1.1187 -0.5262  1.2958
  487TIP3   OH2 1466   4.760   1.647   1.209  0.0952  0.2120  0.1900
  487TIP3    H1 1467   4.774   1.682   1.297  3.5065 -0.9994  0.2713
  487TIP3    H2 1468   4.736   1.555   1.223 -2.8916  0.8602 -0.1529
  488TIP3   OH2 1469   6.161   0.748   3.325  0.2190  0.4709 -0.9029
  488TIP3    H1 1470   6.153   0.823   3.266 -1.3675  0.4116 -0.8095
  488TIP3    H2 1471   6.074   0.740   3.365  0.1037 -1.8536 -1.4663
  489TIP3   OH2 1472   4.858   4.021   4.860 -0.3754 -0.2548  0.4265
  489TIP3    H1 1473   4.790   3.969   4.816 -1.8753  1.9150 -0.0408
  489TIP3    H2 1474   4.920   4.043   4.791  0.1784 -1.2381  0.5930
  490TIP3   OH2 1475   5.082   2.044   5.117 -0.2946 -0.2277  0.3437
  490TIP3    H1 1476   5.173   2.020   5.136  0.1637  1.4171  0.3645
  490TIP3    H2 1477   5.078   2.048   5.021 -0.2141  0.1949  0.3591
  491TIP3   OH2 1478   5.598   1.524   4.123  0.1591 -0.2844  0.4683
  491TIP3    H1 1479   5.509   1.498   4.148 -0.1737  0.1193 -0.2658
  491TIP3    H2 1480   5.593   1.618   4.112  0.5179 -0.3460 -0.2442
  492TIP3   OH2 1481   4.914   1.145   0.170 -0.3990 -0.0516  0.5593
  492TIP3    H1 1482   4.835   1.105   0.208 -1.2280  0.7341 -0.3059
  492TIP3    H2 1483   4.881   1.206   0.105  0.8270  2.1240  1.8734
  493TIP3   OH2 1484   3.315   3.072   3.753 -0.4607  0.3564 -0.6989
  493TIP3    H1 1485   3.250   3.088   3.823 -0.3477 -0.1913 -0.4636
  493TIP3    H2 1486   3.333   2.979   3.759 -1.7911 -0.0864 -2.6271
  494TIP3   OH2 1487   4.081   2.380   3.417  0.7481 -0.3345 -0.3302
  494TIP3    H1 1488   4.036   2.301   3.387 -0.4774  0.3874 -0.4611
  494TIP3    H2 1489   4.085   2.436   3.339  1.8907 -0.3814 -0.3171
  495TIP3   OH2 1490   4.389   2.593   1.484  0.0099  0.2103  0.4263
  495TIP3    H1 1491   4.325   2.660   1.507 -0.4767  0.1997 -0.8394
  495TIP3    H2 1492   4.457   2.640   1.435 -0.6945 -0.3072 -1.0994
  496TIP3   OH2 1493   6.011   1.658   3.311 -0.0458  0.0639 -0.6754
  496TIP3    H1 1494   5.974   1.683   3.396  0.3043 -0.1514 -0.4562
  496TIP3    H2 1495   5.968   1.575   3.290 -0.8907  0.6107 -1.2014
  497TIP3   OH2 1496   0.615   2.674   0.987  0.1233  0.6279 -0.4967
  497TIP3    H1 1497   0.658   2.593   0.960  0.5693  0.7292 -0.1066
  497TIP3    H2 1498   0.648   2.740   0.927 -1.1722  0.3153 -1.6071
  498TIP3   OH2 1499   6.035   0.146   3.103  0.1359 -0.3509  0.3564
  498TIP3    H1 1500   6.006   0.217   3.160  0.9925  0.6114 -0.3915
  498TIP3    H2 1501   5.983   0.070   3.132 -1.2718  0.7051  0.7214
  499TIP3   OH2 1502   2.873   1.543   1.210 -0.0043 -0.0675  0.0109
  499TIP3    H1 1503   2.787   1.507   1.187  0.3758  0.1359 -1.8555
  499TIP3    H2 1504   2.903   1.489   1.283 -0.2809 -2.2896 -1.4529
  500TIP3   OH2 1505   5.961   0.640   3.009 -0.0849  0.2200 -0.9377
  500TIP3    H1 1506   6.032   0.587   2.974  0.2220  1.2311 -1.8870
  500TIP3    H2 1507   5.901   0.576   3.047  1.1301 -0.6736 -0.4621
  501TIP3   OH2 1508   5.811   2.805   1.703 -0.3780  1.1494 -0.0468
  501TIP3    H1 1509   5.793   2.875   1.641 -2.1017 -0.4603 -1.5079
  501TIP3    H2 1510   5.884   2.756   1.665  0.3527  1.7078  0.6076
  502TIP3   OH2 1511   6.206   2.840   3.147 -0.1653 -0.1348 -0.3683
  502TIP3    H1 1512   6.288   2.842   3.196 -1.1011 -0.5678  1.2932
  502TIP3    H2 1513   6.146   2.790   3.202 -2.1171  1.8141 -0.5834
  503TIP3   OH2 1514   1.687   0.480   3.917  0.0048 -0.4264  0.4320
  503TIP3    H1 1515   1.704   0.406   3.859 -1.7057 -0.5563  0.0156
  503TIP3    H2 1516   1.629   0.444   3.985 -0.5860  0.4468  0.4044
  504TIP3   OH2 1517   0.393   3.217   2.969  0.1415  0.1489  0.1103
  504TIP3    H1 1518   0.446   3.175   3.036  0.7444 -0.7564 -0.9156
  504TIP3    H2 1519   0.382   3.151   2.901 -1.7524  0.5279 -0.0259
  505TIP3   OH2 1520   0.708   5.286   3.915  0.2208  0.1939 -0.5756
  505TIP3    H1 1521   0.781   5.324   3.965 -0.2947 -0.3711  0.6583
  505TIP3    H2 1522   0.635   5.347   3.930 -0.6708 -1.2723  1.5842
  506TIP3   OH2 1523   4.532   1.087   5.054 -0.0756 -0.4438 -0.8065
  506TIP3    H1 1524   4.567   1.172   5.079 -0.8983  0.1320 -1.5508
  506TIP3    H2 1525   4.542   1.033   5.133 -1.1313  0.8565  0.2738
  507TIP3   OH2 1526   3.138   0.386   3.486 -0.6542  0.9522  0.1820
  507TIP3    H1 1527   3.084   0.356   3.413  0.3356  0.3609 -0.3329
  507TIP3    H2 1528   3.224   0.349   3.468 -0.7000 -0.4211  2.3818
  508TIP3   OH2 1529   4.923   5.838   1.265 -0.4736  0.3160 -0.2914
  508TIP3    H1 1530   4.969   5.842   1.181 -0.2786 -1.4551 -0.3201
  508TIP3    H2 1531   4.852   5.901   1.257 -1.4535 -0.9369 -2.4621
  509TIP3   OH2 1532   2.208   5.220   5.154 -0.0305 -0.5791  0.0450
  509TIP3    H1 1533   2.249   5.259   5.231 -1.3616 -0.8958  0.9447
  509TIP3    H2 1534   2.136   5.279   5.133 -0.2003 -0.9516 -0.4283
  510TIP3   OH2 1535   1.365   4.426   2.794 -0.7021 -0.0653  0.4595
  510TIP3    H1 1536   1.445   4.400   2.839  1.2395 -0.1569 -2.7931
  510TIP3    H2 1537   1.335   4.504   2.841  1.6681  0.3648  1.3600
  511TIP3   OH2 1538   3.764   3.901   3.494  0.3030 -0.3540  0.3859
  511TIP3    H1 1539   3.751   3.995   3.486 -1.2087 -0.5831 -0.2398
  511TIP3    H2 1540   3.811   3.876   3.415  0.1170 -0.2159  0.2309
  512TIP3   OH2 1541   2.740   5.271   0.417  0.3714 -0.1980  0.1769
  512TIP3    H1 1542   2.668   5.260   0.355  0.2758 -0.9960  0.4205
  512TIP3    H2 1543   2.796   5.194   0.402 -0.2656 -1.0388  1.8885
  513TIP3   OH2 1544   3.607   3.283   2.432  0.2599 -0.4080 -0.2160
  513TIP3    H1 1545   3.674   3.215   2.427 -0.4056 -1.0879 -0.0131
  513TIP3    H2 1546   3.632   3.336   2.508 -0.4125 -1.7534  0.9911
  514TIP3   OH2 1547   1.025   3.489   1.032  0.4562  0.6181  0.0408
  514TIP3    H1 1548   1.065   3.435   1.100  2.0198  1.2185 -0.3657
  514TIP3    H2 1549   1.027   3.578   1.067  2.1075  1.0831 -1.0758
  515TIP3   OH2 1550   2.421   5.436   3.896 -0.8796  0.3083  0.1825
  515TIP3    H1 1551   2.466   5.433   3.981 -0.7001  0.1476  0.0809
  515TIP3    H2 1552   2.448   5.520   3.859  0.2729 -0.2946 -0.3895
  516TIP3   OH2 1553   1.700   5.645   4.071  0.4527  0.7104  0.1181
  516TIP3    H1 1554   1.693   5.635   3.976 -0.3032 -0.8095  0.3077
  516TIP3    H2 1555   1.756   5.722   4.083  0.2435  1.1511 -1.5474
  517TIP3   OH2 1556   5.192   2.395   1.158  0.3732 -0.1964 -0.6516
  517TIP3    H1 1557   5.230   2.481   1.179 -1.9441  0.4521  1.4349
  517TIP3    H2 1558   5.100   2.413   1.142 -0.3950 -2.3830  0.8360
  518TIP3   OH2 1559   4.513   1.820   2.749 -0.3066  0.3438 -0.1202
  518TIP3    H1 1560   4.422   1.833   2.725 -0.3938 -1.3995 -0.9118
  518TIP3    H2 1561   4.543   1.748   2.692  0.5690 -1.4623  2.4273
  519TIP3   OH2 1562   0.537   3.402   0.759  0.3248  0.1339 -0.1806
  519TIP3    H1 1563   0.585   3.402   0.842 -0.7571 -0.9148  0.4820
  519TIP3    H2 1564   0.565   3.482   0.715  1.5517  0.2907  0.8270
  520TIP3   OH2 1565   5.434   4.480   0.570 -0.2109 -0.1927 -0.4131
  520TIP3    H1 1566   5.417   4.386   0.567 -1.6419 -0.0937  1.6249
  520TIP3    H2 1567   5.369   4.518   0.511  1.4582 -0.5034 -2.5693
  521TIP3   OH2 1568   4.612   5.785   3.686 -0.0615 -0.3352 -0.4042
  521TIP3    H1 1569   4.633   5.766   3.778 -0.2954 -1.7912 -0.6137
  521TIP3    H2 1570   4.689   5.756   3.638 -0.5477 -1.0329 -0.7781
  522TIP3   OH2 1571   0.356   3.865   1.286  0.3214 -0.8632  0.3671
  522TIP3    H1 1572   0.334   3.833   1.199  0.3547 -1.7477  0.6736
  522TIP3    H2 1573   0.427   3.809   1.315  0.2290 -0.6547  1.0147
  523TIP3   OH2 1574   3.470   1.135   4.263  0.3224 -0.2239 -0.1470
  523TIP3    H1 1575   3.532   1.104   4.197  0.8711 -1.0122  0.7148
  523TIP3    H2 1576   3.491   1.084   4.341  0.5282  1.5444  1.0208
  524TIP3   OH2 1577   6.173   2.738   2.806  0.2951  0.6408 -0.4018
  524TIP3    H1 1578   6.117   2.781   2.870 -0.5430 -0.0882 -0.6241
  524TIP3    H2 1579   6.163   2.644   2.825  0.6248  0.4535 -1.1204
  525TIP3   OH2 1580   4.093   1.924  -0.016 -0.1146 -0.6283  0.2977
  525TIP3    H1 1581   4.117   1.986   0.052 -0.1853  0.5025 -0.6743
  525TIP3    H2 1582   4.073   1.843   0.031 -1.6767  0.5456  1.7841
  526TIP3   OH2 1583   0.663   0.299   4.276  0.8456 -0.2163  0.5393
  526TIP3    H1 1584   0.632   0.380   4.317  0.6319  0.6977 -1.3250
  526TIP3    H2 1585   0.758   0.304   4.281  0.8693  0.6674 -0.4377
  527TIP3   OH2 1586   5.442   1.997   2.841 -0.1531  0.0670  0.0021
  527TIP3    H1 1587   5.405   2.071   2.888 -0.6790 -0.0418 -0.2284
  527TIP3    H2 1588   5.476   1.939   2.909  0.3059  0.5413  0.1792
  528TIP3   OH2 1589   2.711   4.804   0.465 -0.3239 -0.2921 -0.0419
  528TIP3    H1 1590   2.755   4.887   0.446  1.2504 -0.8392  1.0473
  528TIP3    H2 1591   2.651   4.793   0.391 -1.0046  2.0700  0.0667
  529TIP3   OH2 1592   2.004   3.899   4.336 -0.0232 -0.7466  0.1305
  529TIP3    H1 1593   2.033   3.931   4.422 -1.3173  0.5803  0.0952
  529TIP3    H2 1594   2.043   3.960   4.273 -0.1747 -0.9209 -0.1340
  530TIP3   OH2 1595   4.062   4.770   4.292 -0.6039  0.3342  0.4388
  530TIP3    H1 1596   3.986   4.726   4.253 -0.9995  0.6793  0.8079
  530TIP3    H2 1597   4.043   4.771   4.386  0.7517 -1.3090  0.7843
  531TIP3   OH2 1598   3.428   3.823   1.584 -0.2166 -0.2800 -0.3197
  531TIP3    H1 1599   3.374   3.767   1.640  0.1310 -0.4966 -0.2029
  531TIP3    H2 1600   3.483   3.872   1.645 -0.0944 -0.2502 -0.4539
  532TIP3   OH2 1601   0.208   2.855   1.495 -0.4424 -0.0463  0.1116
  532TIP3    H1 1602   0.260   2.913   1.550 -0.6152  0.7989 -0.5849
  532TIP3    H2 1603   0.125   2.901   1.484 -0.0130  0.3677 -1.7687
  533TIP3   OH2 1604   2.669   5.671   0.103  0.2825 -0.0684 -0.1342
  533TIP3    H1 1605   2.736   5.739   0.114 -1.1253  1.1481  1.5758
  533TIP3    H2 1606   2.702   5.597   0.154  0.3916  0.4776  0.6001
  534TIP3   OH2 1607   0.510   3.507   2.643  0.2045 -0.3028 -0.5192
  534TIP3    H1 1608   0.498   3.482   2.735 -1.3400 -0.4838 -0.7513
  534TIP3    H2 1609   0.479   3.431   2.594 -1.4166  0.7518 -1.2023
  535TIP3   OH2 1610   0.179   3.071   5.049 -0.0636  0.0693 -0.4496
  535TIP3    H1 1611   0.167   3.031   4.963  0.4126  0.9355 -0.9354
  535TIP3    H2 1612   0.135   3.011   5.109 -1.0455 -0.1722 -1.3741
  536TIP3   OH2 1613   2.885   2.474   1.004  0.2861  0.4957 -0.5090
  536TIP3    H1 1614   2.977   2.446   1.000  0.1697  0.1177 -0.5507
  536TIP3    H2 1615   2.888   2.566   0.979  0.5451  0.2449 -1.4671
  537TIP3   OH2 1616   3.752   5.541   4.625 -0.8360 -0.4534  0.1682
  537TIP3    H1 1617   3.729   5.457   4.585 -0.6633 -0.2777 -0.3139
  537TIP3    H2 1618   3.753   5.524   4.719 -0.5327 -1.0608  0.0590
  538TIP3   OH2 1619   5.942   2.688   0.576  0.6421 -0.4367 -0.5507
  538TIP3    H1 1620   5.858   2.664   0.617  0.2467 -0.7743 -1.5233
  538TIP3    H2 1621   5.932   2.781   0.556  0.1332 -0.6734 -1.4676
  539TIP3   OH2 1622   4.264   4.976   3.188  0.2565  0.3673  0.2268
  539TIP3    H1 1623   4.311   4.930   3.119 -1.8221 -0.9871 -0.3623
  539TIP3    H2 1624   4.297   5.066   3.184  0.2090  0.3476 -2.5510
  540TIP3   OH2 1625   1.335   3.220   2.991  0.3932 -0.4817  0.2686
  540TIP3    H1 1626   1.420   3.249   3.024 -0.7144  1.1692  1.8921
  540TIP3    H2 1627   1.286   3.195   3.070 -1.3274  0.6241 -0.3917
  541TIP3   OH2 1628   3.253   4.555   0.760  0.3303 -0.4137 -0.3789
  541TIP3    H1 1629   3.219   4.609   0.689  2.6065  0.9801 -0.4879
  541TIP3    H2 1630   3.275   4.617   0.830  0.5223 -1.4873  0.5463
  542TIP3   OH2 1631   1.770   2.233   5.043 -0.1072  0.4565  0.7411
  542TIP3    H1 1632   1.820   2.199   4.969 -1.3438 -1.1380  0.5755
  542TIP3    H2 1633   1.820   2.205   5.120 -0.4856 -0.7879  0.5672
  543TIP3   OH2 1634   4.671   5.554   3.458  0.5691 -0.2285 -0.2301
  543TIP3    H1 1635   4.642   5.528   3.545 -1.4376  0.4860 -0.6473
  543TIP3    H2 1636   4.740   5.619   3.475 -1.4921  1.8155  0.9386
  544TIP3   OH2 1637   6.221   3.450   4.045 -0.2111 -0.0493  0.2083
  544TIP3    H1 1638   6.129   3.439   4.022  0.1547  0.9178 -1.8948
  544TIP3    H2 1639   6.226   3.539   4.080  0.2983  0.9087 -2.1171
  545TIP3   OH2 1640   0.486   4.814   0.719  0.2099 -0.3566 -0.2127
  545TIP3    H1 1641   0.407   4.855   0.683  0.7820  0.2812 -0.7678
  545TIP3    H2 1642   0.556   4.876   0.700  0.6834 -0.4404  1.1906
  546TIP3   OH2 1643   4.212   3.071   4.892  0.2075 -0.1220 -0.4966
  546TIP3    H1 1644   4.291   3.126   4.896 -0.1244  0.3241  0.1974
  546TIP3    H2 1645   4.204   3.035   4.980 -0.1416 -0.4839 -0.6775
  547TIP3   OH2 1646   4.919   4.849   1.580  0.2904  0.1151  0.4334
  547TIP3    H1 1647   4.852   4.800   1.532 -0.1167  1.1895 -0.1347
  547TIP3    H2 1648   4.928   4.802   1.663  0.3288 -1.2374 -0.3096
  548TIP3   OH2 1649   3.226   2.315   1.912 -0.2153  1.0713 -0.0985
  548TIP3    H1 1650   3.306   2.363   1.931 -1.4150  4.0849 -1.8504
  548TIP3    H2 1651   3.212   2.329   1.818 -2.2189 -0.3196 -0.0691
  549TIP3   OH2 1652   2.879   2.015   3.818 -0.0273 -0.0955 -0.5342
  549TIP3    H1 1653   2.916   1.944   3.871 -1.0560 -0.6498 -0.5283
  549TIP3    H2 1654   2.914   2.094   3.857  1.6755 -0.6001 -0.9475
  550TIP3   OH2 1655   5.907   0.072   2.846  0.2881 -0.0629 -0.0465
  550TIP3    H1 1656   5.947   0.138   2.902  1.1947 -1.0889  0.5471
  550TIP3    H2 1657   5.972   0.055   2.778 -1.0325  1.6088 -1.8596
  551TIP3   OH2 1658   3.780   1.115   1.144 -0.3637 -0.2263 -0.1261
  551TIP3    H1 1659   3.782   1.101   1.049  1.2744 -0.4681 -0.0932
  551TIP3    H2 1660   3.864   1.080   1.175 -0.7730  0.0520  1.3911
  552TIP3   OH2 1661   2.678   2.552   3.509 -0.0257  0.4197  0.1783
  552TIP3    H1 1662   2.683   2.475   3.452 -2.8079 -0.0909  0.5158
  552TIP3    H2 1663   2.597   2.541   3.559 -1.1658  4.0907 -0.5542
  553TIP3   OH2 1664   4.123   3.029   1.579  0.3516  0.4269 -0.5796
  553TIP3    H1 1665   4.113   3.051   1.671  2.1036 -0.5725 -0.1054
  553TIP3    H2 1666   4.185   3.094   1.545  0.4292  0.2307 -0.8197
  554TIP3   OH2 1667   4.165   1.720   1.573  0.5780  0.8196  0.3402
  554TIP3    H1 1668   4.128   1.781   1.637 -0.4011 -0.3266  0.9113
  554TIP3    H2 1669   4.164   1.635   1.618  0.8584  0.1786 -0.8284
  555TIP3   OH2 1670   5.306   5.321   3.168 -0.0486 -0.3432 -0.2713
  555TIP3    H1 1671   5.352   5.241   3.194 -0.5692 -0.7950 -0.7093
  555TIP3    H2 1672   5.371   5.371   3.119 -0.1425 -1.2049 -1.3180
  556TIP3   OH2 1673   0.216   4.236   1.951 -0.0236 -0.2823 -0.5537
  556TIP3    H1 1674   0.166   4.318   1.949 -0.0651 -0.2141  1.3696
  556TIP3    H2 1675   0.273   4.241   1.874 -1.9678  0.2510 -2.0639
  557TIP3   OH2 1676   4.125   1.718   2.256 -0.0282 -0.2523  0.0361
  557TIP3    H1 1677   4.151   1.712   2.164  2.1120 -0.1951  0.5904
  557TIP3    H2 1678   4.185   1.658   2.301 -0.2603  0.6137  1.5429
  558TIP3   OH2 1679   0.691   4.153   0.982 -0.1652 -0.0019  0.0472
  558TIP3    H1 1680   0.782   4.152   1.013 -0.8549 -0.3168  2.1760
  558TIP3    H2 1681   0.676   4.065   0.948 -0.3224 -0.6800  1.7846
  559TIP3   OH2 1682   4.290   1.038   2.849 -0.5369  0.2436 -0.6379
  559TIP3    H1 1683   4.245   1.074   2.772  1.2436  2.0339 -0.9080
  559TIP3    H2 1684   4.287   1.107   2.914  0.2993 -0.2580 -0.0447
  560TIP3   OH2 1685   4.028   1.702   0.120  0.0770 -0.3065 -0.2747
  560TIP3    H1 1686   3.982   1.628   0.079  1.7076 -0.5249 -1.8396
  560TIP3    H2 1687   4.040   1.675   0.211 -1.7431 -0.7620 -0.1288
  561TIP3   OH2 1688   1.424   4.327   4.288 -0.1330 -0.2100 -0.0024
  561TIP3    H1 1689   1.512   4.328   4.252 -0.8228 -1.6457 -1.9189
  561TIP3    H2 1690   1.370   4.368   4.220 -0.8329  1.5794  1.5652
  562TIP3   OH2 1691   3.329   2.721   4.833 -0.3163 -0.2435  0.4088
  562TIP3    H1 1692   3.395   2.736   4.900  0.2220  0.4096 -0.2572
  562TIP3    H2 1693   3.318   2.626   4.831 -0.2820 -0.2764  1.3538
  563TIP3   OH2 1694   4.185   2.315   3.831 -0.4423 -0.5526 -0.2929
  563TIP3    H1 1695   4.211   2.353   3.748 -1.6353  1.4743  0.1974
  563TIP3    H2 1696   4.252   2.344   3.893 -0.1963 -1.0695 -0.3113
  564TIP3   OH2 1697   0.227   2.319   3.188  0.6206 -0.0446 -0.1164
  564TIP3    H1 1698   0.246   2.369   3.267  1.3015 -0.5737  0.0641
  564TIP3    H2 1699   0.310   2.314   3.142  0.0249  1.0638 -1.3451
  565TIP3   OH2 1700   1.975   5.605   4.994  0.1515  0.0550  0.0858
  565TIP3    H1 1701   1.885   5.574   5.005  0.1969 -0.4207 -0.8269
  565TIP3    H2 1702   2.030   5.531   5.018  0.3593  0.8353  2.2060
  566TIP3   OH2 1703   4.763   2.634   2.311 -0.7505  0.1408  0.2147
  566TIP3    H1 1704   4.705   2.576   2.262  0.2103  2.9101 -4.8929
  566TIP3    H2 1705   4.851   2.600   2.295 -0.4268  0.8064  0.5300
  567TIP3   OH2 1706   0.541   2.678   3.499  0.2713  0.0745 -0.6265
  567TIP3    H1 1707   0.590   2.664   3.418  0.2234 -0.2655 -0.5954
  567TIP3    H2 1708   0.602   2.657   3.569  0.3971  0.6279 -0.5667
  568TIP3   OH2 1709   4.055   3.524   2.342  0.4897 -0.0652 -0.4848
  568TIP3    H1 1710   4.092   3.472   2.271 -0.7435 -0.5837 -0.7673
  568TIP3    H2 1711   4.114   3.510   2.416  1.3642 -0.1258 -1.1811
  569TIP3   OH2 1712   2.256   3.509   0.531  0.6133 -0.0650 -0.2440
  569TIP3    H1 1713   2.286   3.597   0.511 -1.0308  0.1868 -1.9102
  569TIP3    H2 1714   2.267   3.500   0.626  1.8092  1.5045 -0.2055
  570TIP3   OH2 1715   3.480   4.819   0.304 -0.2795 -0.1592 -0.1397
  570TIP3    H1 1716   3.507   4.784   0.220 -0.8944  1.6262 -1.1328
  570TIP3    H2 1717   3.543   4.889   0.323 -0.6314 -0.0008  0.4807
  571TIP3   OH2 1718   2.055   3.242   0.181  0.2045 -0.4920 -0.1729
  571TIP3    H1 1719   2.144   3.271   0.161  0.3810 -1.8137 -1.5214
  571TIP3    H2 1720   2.044   3.259   0.274  0.8055  2.3916 -0.5403
  572TIP3   OH2 1721   0.742   1.532   3.042 -0.1684  0.6867 -0.4327
  572TIP3    H1 1722   0.648   1.514   3.034  0.0998 -0.6808 -0.6931
  572TIP3    H2 1723   0.778   1.454   3.083  0.9562  0.9358 -0.9144
  573TIP3   OH2 1724   3.179   3.884   3.744  0.3063  0.0748 -0.0037
  573TIP3    H1 1725   3.097   3.922   3.713  0.2408 -0.0138  0.0594
  573TIP3    H2 1726   3.239   3.958   3.751  0.3470  0.0844 -0.4158
  574TIP3   OH2 1727   5.926   0.943   4.989  0.2054 -1.1371 -0.1544
  574TIP3    H1 1728   5.971   1.001   4.927  0.4379 -0.6209  0.4906
  574TIP3    H2 1729   5.836   0.940   4.959  0.5076 -1.6303 -1.0589
  575TIP3   OH2 1730   5.541   5.936   1.762 -0.1510  0.0647 -0.1012
  575TIP3    H1 1731   5.608   5.980   1.815 -0.1101 -1.2579  1.0078
  575TIP3    H2 1732   5.590   5.897   1.690  0.2846 -0.7505  0.6113
  576TIP3   OH2 1733   3.355   5.121   1.029 -0.3881  0.0474  0.2011
  576TIP3    H1 1734   3.269   5.093   1.060 -0.2485  0.1775  0.7127
  576TIP3    H2 1735   3.406   5.040   1.021 -1.0222 -0.2243 -1.6244
  577TIP3   OH2 1736   0.131   4.085   4.035  0.1545  0.5514  0.4499
  577TIP3    H1 1737   0.094   4.019   4.093  0.2318 -0.3172 -0.4752
  577TIP3    H2 1738   0.220   4.099   4.068 -0.0269  0.5672  0.9430
  578TIP3   OH2 1739   5.385   4.946   4.685 -0.0464  0.1001 -0.4294
  578TIP3    H1 1740   5.380   4.929   4.780  2.3365  0.5023 -0.1649
  578TIP3    H2 1741   5.304   4.909   4.650 -0.3872 -1.2584  1.5982
  579TIP3   OH2 1742   5.504   3.757   1.597  0.3426 -0.1500  0.3285
  579TIP3    H1 1743   5.425   3.786   1.644  0.6678  0.1801  0.6768
  579TIP3    H2 1744   5.473   3.685   1.541  0.2873 -1.8175  2.3799
  580TIP3   OH2 1745   4.068   2.522   4.716  0.0364 -0.0998 -0.1054
  580TIP3    H1 1746   4.074   2.616   4.728 -0.5708  0.0485 -0.8369
  580TIP3    H2 1747   4.151   2.497   4.675  0.5747 -0.0405  0.9172
  581TIP3   OH2 1748   0.990   4.803   2.100  0.5947  0.1633 -0.9046
  581TIP3    H1 1749   1.059   4.838   2.157  2.3129 -0.9080 -2.1999
  581TIP3    H2 1750   0.992   4.708   2.115  0.7182 -0.0830 -2.2863
  582TIP3   OH2 1751   3.511   5.158   0.189 -0.1155  0.4669  0.8559
  582TIP3    H1 1752   3.452   5.087   0.163  0.4048  0.7907 -1.4122
  582TIP3    H2 1753   3.527   5.143   0.283 -2.0357 -0.8813  1.0227
  583TIP3   OH2 1754   2.481   3.214   2.842  0.2721 -0.1801  0.1838
  583TIP3    H1 1755   2.459   3.158   2.916 -2.4070  2.1777  1.3335
  583TIP3    H2 1756   2.427   3.180   2.770 -1.9273  1.2679  1.0799
  584TIP3   OH2 1757   5.950   3.175   1.908 -0.2142  0.1389 -0.4608
  584TIP3    H1 1758   5.929   3.264   1.937 -1.0852  0.1490 -1.0671
  584TIP3    H2 1759   5.959   3.125   1.989 -1.0265  0.5031 -0.1364
  585TIP3   OH2 1760   5.715   5.371   4.826  0.0619 -0.5216  0.2932
  585TIP3    H1 1761   5.622   5.362   4.804  0.0912 -1.8557  0.6848
  585TIP3    H2 1762   5.732   5.301   4.889  1.0896  0.3676  1.0353
  586TIP3   OH2 1763   5.689   0.283   5.066  0.0345 -1.1254  0.0519
  586TIP3    H1 1764   5.734   0.317   5.143  0.7366 -1.4925 -0.1910
  586TIP3    H2 1765   5.759   0.254   5.007 -0.4519 -0.1314 -1.0785
  587TIP3   OH2 1766   3.046   3.380   1.455  0.7169  0.2955 -0.6828
  587TIP3    H1 1767   2.994   3.424   1.522 -0.6681 -1.3351 -0.6290
  587TIP3    H2 1768   3.000   3.398   1.373 -1.3839 -3.0098 -0.3866
  588TIP3   OH2 1769   4.430   4.163   1.482  0.5739 -0.6515  0.0881
  588TIP3    H1 1770   4.437   4.077   1.440 -0.6482  0.0881 -1.7432
  588TIP3    H2 1771   4.465   4.224   1.417 -1.9984  0.6079 -0.2210
  589TIP3   OH2 1772   5.666   1.960   2.191  0.0830 -0.1059  0.2527
  589TIP3    H1 1773   5.619   2.036   2.156  0.9448 -0.8068 -2.7821
  589TIP3    H2 1774   5.714   1.994   2.266 -1.6811  1.6509  0.6804
  590TIP3   OH2 1775   2.727   4.171   4.914  0.7743 -0.1260  0.0880
  590TIP3    H1 1776   2.805   4.114   4.913  0.7306 -0.1813 -0.3612
  590TIP3    H2 1777   2.671   4.133   4.981  1.2149  0.0245  0.5527
  591TIP3   OH2 1778   6.090   3.703   0.344 -0.7555 -0.8911  0.4269
  591TIP3    H1 1779   6.124   3.769   0.283  0.1566 -1.3953  0.3592
  591TIP3    H2 1780   6.035   3.752   0.405  1.2108  0.2477  1.3984
  592TIP3   OH2 1781   1.504   5.132   0.240  0.1611 -0.0096 -0.5112
  592TIP3    H1 1782   1.509   5.220   0.278  1.1086 -0.0075 -0.6050
  592TIP3    H2 1783   1.594   5.099   0.247  0.0140 -0.6001 -1.3493
  593TIP3   OH2 1784   2.413   2.745   5.115 -0.1179  0.1411 -0.6118
  593TIP3    H1 1785   2.355   2.707   5.049  0.0404 -0.3828 -0.4559
  593TIP3    H2 1786   2.481   2.680   5.127  0.0967  0.4293 -0.2503
  594TIP3   OH2 1787   4.854   5.695   2.163 -0.4061  0.3166 -0.1244
  594TIP3    H1 1788   4.926   5.726   2.108 -0.3747  2.2415  0.9284
  594TIP3    H2 1789   4.780   5.689   2.103  0.1328  0.3069 -0.8070
  595TIP3   OH2 1790   2.834   3.644   3.674  0.6000 -0.4245 -0.6182
  595TIP3    H1 1791   2.786   3.720   3.640  0.2347 -1.4565 -2.5730
  595TIP3    H2 1792   2.891   3.618   3.601  1.0261 -1.7745  0.1641
  596TIP3   OH2 1793   0.340   5.042   0.964 -0.2322  0.1444  0.4879
  596TIP3    H1 1794   0.257   5.037   1.011 -0.7843 -1.0993 -0.5680
  596TIP3    H2 1795   0.406   5.020   1.030 -0.7405  0.8328  1.2557
  597TIP3   OH2 1796   1.333   4.349   2.118 -0.4982  0.1918 -0.3968
  597TIP3    H1 1797   1.316   4.426   2.172 -0.8370 -0.0002 -0.2200
  597TIP3    H2 1798   1.413   4.370   2.070 -0.9970  0.9655 -0.9242
  598TIP3   OH2 1799   5.521   3.581   0.702  0.5321  0.1042  0.4264
  598TIP3    H1 1800   5.439   3.585   0.750  0.1775  0.6701 -0.2209
  598TIP3    H2 1801   5.521   3.495   0.660 -0.1889  0.4834 -0.3724
  599TIP3   OH2 1802   5.659   3.891   2.576  0.1723 -0.3280  0.4243
  599TIP3    H1 1803   5.609   3.940   2.642  1.5810  1.3241  0.3375
  599TIP3    H2 1804   5.649   3.800   2.602 -1.7355  0.0434  1.1982
  600TIP3   OH2 1805   1.810   5.044   3.933 -0.1061 -0.0267 -0.0197
  600TIP3    H1 1806   1.882   5.107   3.934  0.4023 -0.5867 -0.4982
  600TIP3    H2 1807   1.847   4.966   3.891 -0.5926 -0.8046  0.9458
  601TIP3   OH2 1808   3.063   0.567   3.717 -0.0875 -0.3349 -0.3496
  601TIP3    H1 1809   3.074   0.494   3.656  0.5365 -0.2037 -0.4022
  601TIP3    H2 1810   3.017   0.529   3.792 -0.7846 -0.5143 -0.8586
  602TIP3   OH2 1811   1.203   5.354   4.970 -0.0643  0.7513 -0.1866
  602TIP3    H1 1812   1.121   5.374   5.014  0.5558  0.9985  0.8951
  602TIP3    H2 1813   1.271   5.390   5.027  0.8692 -0.5910 -0.3835
  603TIP3   OH2 1814   1.768   0.405   2.030 -0.7681  0.3009  0.6745
  603TIP3    H1 1815   1.673   0.410   2.015 -0.9126 -2.7148 -0.0617
  603TIP3    H2 1816   1.796   0.329   1.978  2.1183  1.2632  0.6700
  604TIP3   OH2 1817   3.891   2.681   2.229 -0.6025 -0.2027  0.4267
  604TIP3    H1 1818   3.973   2.636   2.248 -0.7018  0.1704  1.8222
  604TIP3    H2 1819   3.910   2.773   2.244 -0.8468  0.0764 -0.8430
  605TIP3   OH2 1820   2.166   2.247   3.153  0.2218  0.1084 -0.0051
  605TIP3    H1 1821   2.183   2.282   3.065  1.1849  0.3789  0.2698
  605TIP3    H2 1822   2.072   2.259   3.167  0.2041  0.7999 -0.6834
  606TIP3   OH2 1823   3.013   0.213   1.729 -0.0152 -1.1939  0.3912
  606TIP3    H1 1824   3.044   0.302   1.716  1.9754 -1.7135  1.2820
  606TIP3    H2 1825   2.931   0.223   1.778 -1.1518  0.1887 -1.6280
  607TIP3   OH2 1826   3.206   0.430   4.910 -0.2009  0.0251  0.5066
  607TIP3    H1 1827   3.261   0.354   4.928 -0.4130 -0.2185  0.1578
  607TIP3    H2 1828   3.193   0.427   4.815 -0.9649 -0.0351  0.6067
  608TIP3   OH2 1829   2.705   0.060   2.565 -0.0210 -0.8514 -0.3850
  608TIP3    H1 1830   2.618   0.029   2.590  0.3644 -1.1034  0.7228
  608TIP3    H2 1831   2.736  -0.004   2.501 -0.2181 -1.4073  0.0621
  609TIP3   OH2 1832   2.041   5.019   1.601  0.2423  0.2677 -0.4365
  609TIP3    H1 1833   1.946   5.013   1.611  0.2491  0.5853 -0.1237
  609TIP3    H2 1834   2.062   4.962   1.527  0.1398 -2.0360  1.2152
  610TIP3   OH2 1835   1.459   4.799   3.215 -0.1392 -0.6972  0.3349
  610TIP3    H1 1836   1.379   4.844   3.188 -0.9145 -1.7321  0.8321
  610TIP3    H2 1837   1.490   4.756   3.135  0.9181  1.0862 -0.2855
  611TIP3   OH2 1838   4.375   1.016   2.079  0.0906  0.5566  0.9880
  611TIP3    H1 1839   4.434   1.021   2.154  1.7597 -0.6902 -0.1522
  611TIP3    H2 1840   4.401   1.090   2.023  2.0291 -1.0675 -0.4199
  612TIP3   OH2 1841   4.759   5.997   0.358 -0.2981  0.0019 -0.0304
  612TIP3    H1 1842   4.777   5.998   0.264 -2.2709  1.2724 -0.4598
  612TIP3    H2 1843   4.732   5.907   0.377 -1.4554  0.1151 -1.0512
  613TIP3   OH2 1844   2.078   4.282   4.755  0.1266 -0.6621 -0.4033
  613TIP3    H1 1845   2.112   4.296   4.844  0.8741 -1.1784 -0.5988
  613TIP3    H2 1846   2.156   4.276   4.700 -0.3295 -0.4463 -1.0875
  614TIP3   OH2 1847   1.125   4.465   0.523 -0.0316 -0.3360  0.0768
  614TIP3    H1 1848   1.204   4.464   0.468 -1.3278  0.5781 -1.8918
  614TIP3    H2 1849   1.053   4.476   0.461 -1.6434 -0.0707  1.9243
  615TIP3   OH2 1850   3.840   0.397   3.284 -0.1635  0.2750 -0.1486
  615TIP3    H1 1851   3.793   0.445   3.217 -1.1318 -0.2287  0.1470
  615TIP3    H2 1852   3.861   0.313   3.243  0.8513  0.6378 -0.4105
  616TIP3   OH2 1853   6.176   4.074   1.617 -0.0802  0.2517  0.2142
  616TIP3    H1 1854   6.165   3.995   1.564  1.0237  0.6757 -0.7041
  616TIP3    H2 1855   6.270   4.092   1.614 -0.1451  0.9220  1.4306
  617TIP3   OH2 1856   1.506   3.786   0.041 -0.0213 -0.5947 -0.1017
  617TIP3    H1 1857   1.475   3.791  -0.049 -0.5596 -0.1591  0.1016
  617TIP3    H2 1858   1.505   3.876   0.072 -2.5242 -0.9710  1.2158
  618TIP3   OH2 1859   1.225   2.128   4.964  0.4953  0.5122  0.2817
  618TIP3    H1 1860   1.306   2.165   4.928  0.6264  0.8920  0.9611
  618TIP3    H2 1861   1.161   2.137   4.893  1.0459  0.2001 -0.2614
  619TIP3   OH2 1862   1.519   5.778   3.220 -0.2068  0.4493 -0.2103
  619TIP3    H1 1863   1.528   5.742   3.309  1.0345  1.4760  0.1054
  619TIP3    H2 1864   1.586   5.732   3.169  2.7932  3.4624  0.6317
  620TIP3   OH2 1865   0.291   3.795   3.418  0.0078  0.6215  0.1808
  620TIP3    H1 1866   0.354   3.799   3.346  0.4477 -1.7490  0.3665
  620TIP3    H2 1867   0.224   3.734   3.388  0.4585 -0.8014  1.9276
  621TIP3   OH2 1868   1.488   5.503   2.763  0.3728 -0.4426 -0.5063
  621TIP3    H1 1869   1.455   5.474   2.678  0.1139 -0.8241 -0.2808
  621TIP3    H2 1870   1.424   5.568   2.793 -0.4821 -1.5396  0.1552
  622TIP3   OH2 1871   0.713   1.437   0.530  0.4595 -0.5115  0.0963
  622TIP3    H1 1872   0.739   1.393   0.449  2.8116 -1.8471  1.4723
  622TIP3    H2 1873   0.638   1.386   0.562  0.2863 -0.7146 -0.6308
  623TIP3   OH2 1874   5.348   4.017   2.373 -0.2023  0.7485  0.1763
  623TIP3    H1 1875   5.308   4.004   2.287 -0.5031 -0.2334  0.4548
  623TIP3    H2 1876   5.286   3.979   2.434  0.4065  0.6667  0.7546
  624TIP3   OH2 1877   6.333   1.942   1.430  0.7152  0.3336  0.2332
  624TIP3    H1 1878   6.272   1.925   1.358  2.0691 -0.5849 -0.7350
  624TIP3    H2 1879   6.368   2.029   1.411 -1.2562  1.5005  1.5580
  625TIP3   OH2 1880   4.384   0.250   4.024 -0.7245  0.4707 -0.4627
  625TIP3    H1 1881   4.456   0.224   4.080 -0.3871 -0.8048 -1.4375
  625TIP3    H2 1882   4.306   0.242   4.078 -0.1479  2.1173  0.6848
  626TIP3   OH2 1883   1.558   3.623   3.499 -0.0788 -0.4463 -0.0617
  626TIP3    H1 1884   1.616   3.622   3.423 -0.4323 -1.7786 -0.3378
  626TIP3    H2 1885   1.614   3.652   3.571  0.0463  1.7146 -0.9507
  627TIP3   OH2 1886   5.419   5.441   2.518  0.1780  0.2518  0.5517
  627TIP3    H1 1887   5.417   5.357   2.473  0.2256 -0.6363  2.1137
  627TIP3    H2 1888   5.332   5.478   2.507 -0.1710 -0.5108  0.7461
  628TIP3   OH2 1889   0.685   1.646   4.614  0.1443  0.2580  0.2605
  628TIP3    H1 1890   0.728   1.563   4.593 -2.3170 -1.3282  1.0623
  628TIP3    H2 1891   0.616   1.622   4.676 -1.8258  2.6120 -0.8411
  629TIP3   OH2 1892   3.830   5.489   3.048 -0.3120 -0.2544  0.1654
  629TIP3    H1 1893   3.775   5.421   3.089  0.4114 -0.9643 -0.0163
  629TIP3    H2 1894   3.879   5.527   3.121 -0.8592  0.2126  0.2941
  630TIP3   OH2 1895   0.162   3.962   3.666 -0.1167  0.5909 -0.0801
  630TIP3    H1 1896   0.238   4.008   3.630  1.9463 -0.9224  2.0564
  630TIP3    H2 1897   0.132   3.906   3.595  2.0108 -0.1944 -0.4459
  631TIP3   OH2 1898   1.374   1.111   0.512 -0.3100  0.4540 -0.1585
  631TIP3    H1 1899   1.408   1.030   0.474 -0.0673  0.5386 -0.1205
  631TIP3    H2 1900   1.305   1.082   0.572 -0.2503  0.2782 -0.1746
  632TIP3   OH2 1901   4.610   0.802   3.841 -0.5063  0.1398 -0.0229
  632TIP3    H1 1902   4.618   0.718   3.796 -0.4053 -0.4445  1.0393
  632TIP3    H2 1903   4.547   0.785   3.912 -1.0801  1.1716 -0.2593
  633TIP3   OH2 1904   1.584   1.029   2.016  0.3152  0.0862 -0.0607
  633TIP3    H1 1905   1.561   0.940   2.043  0.6260 -0.1892 -0.6874
  633TIP3    H2 1906   1.673   1.043   2.048  0.0562  0.3974  0.5533
  634TIP3   OH2 1907   1.114   5.762   3.691 -0.0886 -0.1546 -0.3500
  634TIP3    H1 1908   1.176   5.711   3.639 -0.5895 -2.0720  0.8374
  634TIP3    H2 1909   1.062   5.810   3.626 -1.1020 -2.9170 -1.7125
  635TIP3   OH2 1910   5.382   4.328   0.150  0.1967 -0.3091  0.1101
  635TIP3    H1 1911   5.398   4.413   0.193 -0.3770 -0.4974  0.7065
  635TIP3    H2 1912   5.295   4.336   0.113 -0.1435 -0.8806  0.7727
  636TIP3   OH2 1913   3.105   0.148   0.261 -0.0261  0.7273 -0.1374
  636TIP3    H1 1914   3.055   0.230   0.258  0.1913  0.9221  1.1652
  636TIP3    H2 1915   3.049   0.087   0.310 -0.5115 -0.1697 -1.7184
  637TIP3   OH2 1916   5.828   2.147   2.659  0.4262  0.0519  0.7801
  637TIP3    H1 1917   5.923   2.138   2.652  0.5291  0.3229  1.6931
  637TIP3    H2 1918   5.815   2.191   2.743 -0.4529  0.9777  0.1726
  638TIP3   OH2 1919   1.535   2.873   3.919  0.5757  0.3361  0.2631
  638TIP3    H1 1920   1.528   2.851   4.012 -0.4388  1.9269  0.6023
  638TIP3    H2 1921   1.445   2.879   3.889  0.8731  1.0145 -0.5328
  639TIP3   OH2 1922   6.148   4.313   4.008  0.5243 -0.1446  0.6885
  639TIP3    H1 1923   6.243   4.320   4.010  0.5846  0.1438 -1.0391
  639TIP3    H2 1924   6.119   4.392   3.961 -0.5897 -0.1006  1.4035
  640TIP3   OH2 1925   1.598   3.735   1.155  0.6730 -0.9312 -0.3803
  640TIP3    H1 1926   1.641   3.679   1.218 -0.0061 -0.2756  0.7046
  640TIP3    H2 1927   1.601   3.823   1.194 -0.7388 -0.7003 -0.7123
  641TIP3   OH2 1928   4.502   3.918   4.932 -0.1281  0.4082  0.5353
  641TIP3    H1 1929   4.559   3.911   4.855 -1.4496  0.6511 -0.5067
  641TIP3    H2 1930   4.435   3.851   4.918  0.4609 -0.6114  2.2717
  642TIP3   OH2 1931   3.663   4.115   0.152 -0.1090 -0.1921 -0.2069
  642TIP3    H1 1932   3.624   4.077   0.231 -2.3806 -1.4595 -1.7927
  642TIP3    H2 1933   3.621   4.200   0.143  1.0849  0.5013  0.5711
  643TIP3   OH2 1934   2.463   0.540   4.214  0.3952  0.0142  0.1722
  643TIP3    H1 1935   2.504   0.518   4.298  1.5410 -0.1588 -0.4106
  643TIP3    H2 1936   2.371   0.515   4.225  1.0427 -2.4691  0.4982
  644TIP3   OH2 1937   2.515   3.491   0.008  0.1052 -0.7939 -0.1440
  644TIP3    H1 1938   2.494   3.514   0.098 -1.4790 -3.2549  0.2048
  644TIP3    H2 1939   2.587   3.429   0.015 -0.1625 -1.1553 -0.5366
  645TIP3   OH2 1940   2.673   2.256   1.676  0.3604 -0.1691 -0.0863
  645TIP3    H1 1941   2.757   2.212   1.686  0.3092 -0.6416 -1.5062
  645TIP3    H2 1942   2.608   2.185   1.676  0.1803 -0.0320 -1.2890
  646TIP3   OH2 1943   4.447   5.379   0.182  0.0750  0.0371 -0.5993
  646TIP3    H1 1944   4.507   5.447   0.212  0.9617  0.3249 -2.8216
  646TIP3    H2 1945   4.490   5.297   0.205  0.0671  0.2209  0.0965
  647TIP3   OH2 1946   1.205   4.247   1.232  0.4736 -0.0835 -0.1200
  647TIP3    H1 1947   1.256   4.256   1.151  2.0304  0.3322  0.8523
  647TIP3    H2 1948   1.270   4.259   1.301 -1.0843  1.0825  1.1936
  648TIP3   OH2 1949   2.640   5.944   0.838 -0.7575 -0.4247  0.0223
  648TIP3    H1 1950   2.596   5.897   0.909  0.5967 -0.8891  0.5843
  648TIP3    H2 1951   2.728   5.962   0.871  0.8134 -2.8297 -2.3432
  649TIP3   OH2 1952   6.168   2.707   0.761  0.3656  0.2753 -0.3852
  649TIP3    H1 1953   6.073   2.705   0.746  0.3045 -0.9730  0.0794
  649TIP3    H2 1954   6.177   2.705   0.856  0.8420  2.9366 -0.3124
  650TIP3   OH2 1955   2.969   1.149   2.125 -0.6319  0.1987 -0.4816
  650TIP3    H1 1956   2.938   1.239   2.133 -2.9874 -0.6132  0.3842
  650TIP3    H2 1957   2.931   1.103   2.200  1.0847 -1.4007 -0.4933
  651TIP3   OH2 1958   0.180   1.265   0.551 -0.6070 -0.2818 -0.3153
  651TIP3    H1 1959   0.270   1.256   0.582 -0.6000  0.4145 -0.1171
  651TIP3    H2 1960   0.178   1.219   0.468  0.2231  0.6403 -0.8635
  652TIP3   OH2 1961   0.054   3.690   1.948  0.6338 -0.0865  0.1563
  652TIP3    H1 1962   0.090   3.601   1.944  1.0013  0.1008 -1.1627
  652TIP3    H2 1963   0.067   3.725   1.860 -0.6217  0.8481  0.3177
  653TIP3   OH2 1964   5.899   0.539   1.070  0.3801  0.1154 -0.8220
  653TIP3    H1 1965   5.919   0.498   0.986  1.2303 -0.0927 -0.5272
  653TIP3    H2 1966   5.983   0.574   1.101  0.1573 -0.1189  0.0958
  654TIP3   OH2 1967   1.310   5.152   2.568 -0.2067  0.4016  0.0770
  654TIP3    H1 1968   1.391   5.100   2.570 -0.0029  0.7335  0.5466
  654TIP3    H2 1969   1.337   5.237   2.532 -0.7113 -0.0910 -1.5686
  655TIP3   OH2 1970   0.940   0.317   4.190  0.3898  0.2602  0.0270
  655TIP3    H1 1971   0.900   0.287   4.109 -1.6392 -1.4494  1.5350
  655TIP3    H2 1972   1.008   0.253   4.210  0.4392  0.3079  0.0127
  656TIP3   OH2 1973   2.532   4.453   0.320  0.0871  0.1814 -1.0267
  656TIP3    H1 1974   2.489   4.421   0.240  0.4246  0.1917 -1.2147
  656TIP3    H2 1975   2.621   4.477   0.291  0.4162 -0.4171 -0.5177
  657TIP3   OH2 1976   0.628   1.213   1.274 -0.0999  0.2924 -0.0762
  657TIP3    H1 1977   0.535   1.197   1.257  0.3259 -2.6313 -0.1303
  657TIP3    H2 1978   0.653   1.277   1.207 -1.7976  0.2292 -0.8467
  658TIP3   OH2 1979   3.612   5.944   2.254 -0.1248  0.1597  0.0936
  658TIP3    H1 1980   3.659   6.022   2.225  0.5825  0.0221  0.8173
  658TIP3    H2 1981   3.634   5.937   2.347 -0.6729 -0.5620  0.1751
  659TIP3   OH2 1982   2.566   1.833   3.626 -0.5017  0.1351 -0.0874
  659TIP3    H1 1983   2.642   1.875   3.585 -0.5025  0.9486  0.7179
  659TIP3    H2 1984   2.550   1.884   3.705 -3.0066  1.0773 -1.1239
  660TIP3   OH2 1985   5.474   4.739   1.773  0.4545 -0.0014 -0.3484
  660TIP3    H1 1986   5.437   4.762   1.688  0.3861 -0.3399 -0.4119
  660TIP3    H2 1987   5.484   4.643   1.770 -0.1230 -0.0874  0.2577
  661TIP3   OH2 1988   2.427   0.045   4.569 -0.0842 -0.0693  0.0764
  661TIP3    H1 1989   2.416   0.020   4.478 -1.6309  0.8439 -0.0337
  661TIP3    H2 1990   2.395   0.136   4.572  1.6544  0.5395  1.1739
  662TIP3   OH2 1991   1.048   0.962   2.406  0.1562 -0.2809  0.4784
  662TIP3    H1 1992   1.114   0.907   2.363 -0.5849 -1.6107  0.9805
  662TIP3    H2 1993   0.968   0.946   2.356 -0.3695 -0.7043  1.4243
  663TIP3   OH2 1994   1.569   0.029   0.002  0.1206 -0.1912 -0.9616
  663TIP3    H1 1995   1.604   0.055   0.087 -0.9838  1.5567 -0.9916
  663TIP3    H2 1996   1.477   0.010   0.019 -0.0874  0.0684 -1.7373
  664TIP3   OH2 1997   4.671   0.702   4.380 -0.1643 -0.1746 -0.9127
  664TIP3    H1 1998   4.622   0.771   4.336  0.8029 -0.0286 -1.7985
  664TIP3    H2 1999   4.609   0.629   4.387 -1.0757  0.6306 -0.3010
  665TIP3   OH2 2000   0.412   5.285   4.804  0.3138  0.1924  0.4166
  665TIP3    H1 2001   0.433   5.308   4.895  1.1371 -0.4575  0.4006
  665TIP3    H2 2002   0.486   5.233   4.775  0.3437  0.9059 -0.8348
  666TIP3   OH2 2003   1.240   4.643   0.719  0.1694 -0.0972 -0.1844
  666TIP3    H1 2004   1.306   4.680   0.660  0.5780  0.1867  0.4441
  666TIP3    H2 2005   1.195   4.577   0.666  0.3545  0.3384 -0.8965
  667TIP3   OH2 2006   2.581   4.029   3.131 -0.0476 -0.5292  0.2078
  667TIP3    H1 2007   2.518   4.003   3.199 -1.3525  0.7304 -0.4570
  667TIP3    H2 2008   2.597   3.949   3.081  1.3838 -1.6299  2.2758
  668TIP3   OH2 2009   0.559   3.314   1.265 -0.2160 -0.1891  0.3414
  668TIP3    H1 2010   0.649   3.333   1.242 -0.3132 -0.4165 -0.2366
  668TIP3    H2 2011   0.542   3.368   1.343 -0.1569  1.2546 -0.6092
  669TIP3   OH2 2012   3.691   2.387   3.318 -0.3338 -0.5302 -0.2044
  669TIP3    H1 2013   3.689   2.463   3.376  1.5209 -0.5657 -0.0461
  669TIP3    H2 2014   3.722   2.315   3.374  0.3322 -0.8302 -0.9428
  670TIP3   OH2 2015   0.388   3.196   0.304 -0.7975  0.3398  0.2164
  670TIP3    H1 2016   0.425   3.128   0.360 -0.5111 -0.8970 -1.3906
  670TIP3    H2 2017   0.304   3.218   0.344  0.7479  1.8560  2.8969
  671TIP3   OH2 2018   1.752   2.892   1.729  0.6495  0.2327 -0.2685
  671TIP3    H1 2019   1.727   2.845   1.808  0.7901 -0.0376 -0.3854
  671TIP3    H2 2020   1.835   2.853   1.702  0.3544 -0.0295 -0.8383
  672TIP3   OH2 2021   3.564   1.022   0.522 -0.3837  0.1530 -0.1849
  672TIP3    H1 2022   3.597   1.111   0.535  0.6364 -0.2919  0.3378
  672TIP3    H2 2023   3.625   0.983   0.460  1.3080 -1.3069  2.2509
  673TIP3   OH2 2024   5.848   3.083   5.189 -0.5135 -0.4137 -0.1212
  673TIP3    H1 2025   5.871   3.002   5.144  1.0834  0.5680 -1.1899
  673TIP3    H2 2026   5.794   3.131   5.126 -0.9874 -0.3999  0.2908
  674TIP3   OH2 2027   0.462   2.245   3.057  0.4170  0.2450  0.0038
  674TIP3    H1 2028   0.477   2.165   3.107  0.7198  0.8877  0.9614
  674TIP3    H2 2029   0.516   2.311   3.101 -0.1497  1.0724 -0.5211
  675TIP3   OH2 2030   5.012   5.287   2.376 -0.2761  0.0906  0.0879
  675TIP3    H1 2031   4.937   5.251   2.329 -1.0234 -0.4129  1.5982
  675TIP3    H2 2032   5.047   5.354   2.317 -0.7186 -0.9942 -1.4658
  676TIP3   OH2 2033   6.200   3.644   3.789  0.2083  0.1468 -0.4259
  676TIP3    H1 2034   6.234   3.723   3.831 -0.2139  0.1515 -0.0818
  676TIP3    H2 2035   6.278   3.594   3.767  0.4717  0.5414 -0.4123
  677TIP3   OH2 2036   2.702   4.087   4.090 -0.1983  0.1342  0.5158
  677TIP3    H1 2037   2.690   4.099   4.184 -0.7280 -0.3658  0.5174
  677TIP3    H2 2038   2.788   4.125   4.071 -0.3053  0.6755  1.1157
  678TIP3   OH2 2039   0.954   5.887   4.444 -0.2649  0.0453  0.2104
  678TIP3    H1 2040   0.942   5.805   4.396  1.2347 -0.0432 -0.0550
  678TIP3    H2 2041   0.893   5.948   4.403 -1.5778 -0.9709  0.5630
  679TIP3   OH2 2042   0.473   2.599   0.439  0.8497 -0.0013 -0.0151
  679TIP3    H1 2043   0.400   2.648   0.401  0.5110  1.8338  2.7019
  679TIP3    H2 2044   0.432   2.523   0.479  0.5064  0.5396  0.6962
  680TIP3   OH2 2045   0.877   4.638   4.277 -0.3383  0.0411 -1.0861
  680TIP3    H1 2046   0.973   4.641   4.276 -0.3380 -0.1495 -1.6156
  680TIP3    H2 2047   0.856   4.595   4.360 -0.0127  1.7055 -0.0961
  681TIP3   OH2 2048   2.292   3.494   0.857  0.4985 -0.0253  0.3193
  681TIP3    H1 2049   2.363   3.430   0.860  1.0972  0.6130 -0.0929
  681TIP3    H2 2050   2.336   3.579   0.853 -0.2865  0.3590 -0.3794
  682TIP3   OH2 2051   4.415   4.304   0.556  0.2292 -0.7417  0.5483
  682TIP3    H1 2052   4.377   4.251   0.486 -1.4962 -0.8567  1.5171
  682TIP3    H2 2053   4.504   4.272   0.565  0.9610  0.1350 -2.4306
  683TIP3   OH2 2054   4.345   4.773   1.612 -0.5195 -0.1209 -0.2409
  683TIP3    H1 2055   4.430   4.737   1.589 -1.2862 -2.5616  0.5067
  683TIP3    H2 2056   4.357   4.808   1.701 -0.2591 -0.2490 -0.2249
  684TIP3   OH2 2057   3.621   5.278   1.691  0.2999  0.0785 -0.2796
  684TIP3    H1 2058   3.698   5.247   1.643  0.4013  0.8230 -0.6074
  684TIP3    H2 2059   3.569   5.323   1.624  0.1421  0.5861  0.1837
  685TIP3   OH2 2060   3.896   4.234   4.937  0.0645 -0.3540 -0.0958
  685TIP3    H1 2061   3.957   4.190   4.995  0.4009  0.1195 -0.0898
  685TIP3    H2 2062   3.926   4.211   4.849 -1.0764 -1.9616 -0.1180
  686TIP3   OH2 2063   1.944   0.403   0.071  0.4404  0.1525  0.1146
  686TIP3    H1 2064   1.972   0.479   0.122 -0.2307  0.0039  0.7113
  686TIP3    H2 2065   2.024   0.373   0.027  1.4835 -0.8890  2.5756
  687TIP3   OH2 2066   2.150   5.403   2.284  0.1522  0.1873  0.1792
  687TIP3    H1 2067   2.130   5.386   2.376 -2.6144  1.0705 -0.1662
  687TIP3    H2 2068   2.171   5.317   2.248 -0.1373 -0.3864  1.3263
  688TIP3   OH2 2069   2.258   1.150   3.282 -0.1789  0.2003 -0.0126
  688TIP3    H1 2070   2.199   1.096   3.335 -1.8306  0.8397 -1.1156
  688TIP3    H2 2071   2.261   1.105   3.197 -0.7579  1.2779 -0.6207
  689TIP3   OH2 2072   2.287   3.586   3.909 -0.0209 -0.5281  0.5517
  689TIP3    H1 2073   2.315   3.677   3.894  0.6237 -0.9937 -1.4104
  689TIP3    H2 2074   2.319   3.566   3.996  1.9100  0.4208  0.1344
  690TIP3   OH2 2075   2.242   4.070   3.445 -0.0111  0.1498  0.1299
  690TIP3    H1 2076   2.320   4.114   3.480  0.9260 -0.2443 -1.3813
  690TIP3    H2 2077   2.218   4.120   3.368 -0.8096 -0.1971  0.1414
  691TIP3   OH2 2078   0.153   0.437   4.991 -0.4909 -0.6766  0.1393
  691TIP3    H1 2079   0.120   0.456   5.079  1.4560  0.6449  0.6519
  691TIP3    H2 2080   0.124   0.512   4.938  2.9165  1.4721  1.0028
  692TIP3   OH2 2081   3.471   2.820   3.868 -0.8458  0.1009 -0.4643
  692TIP3    H1 2082   3.503   2.853   3.952 -0.7763  0.4751 -0.6358
  692TIP3    H2 2083   3.508   2.732   3.860  0.3105  0.6006 -0.7524
  693TIP3   OH2 2084   0.312   2.582   5.177 -0.0015 -0.2293 -0.0280
  693TIP3    H1 2085   0.268   2.641   5.116 -0.1794  0.2591  0.5640
  693TIP3    H2 2086   0.379   2.636   5.218  0.6502 -0.7680 -0.3636
  694TIP3   OH2 2087   2.924   5.130   4.106 -0.1092 -0.8486 -0.3627
  694TIP3    H1 2088   2.903   5.079   4.027 -1.1731 -0.5794 -0.2654
  694TIP3    H2 2089   2.904   5.220   4.082 -0.0196 -0.7101  0.0851
  695TIP3   OH2 2090   5.360   5.295   3.614 -0.1613  0.1051 -0.0894
  695TIP3    H1 2091   5.283   5.245   3.643  1.0521 -2.1882 -0.6517
  695TIP3    H2 2092   5.324   5.360   3.553 -1.5286 -1.8318 -1.4610
  696TIP3   OH2 2093   4.700   0.117   4.533  0.3403  0.3074 -0.6971
  696TIP3    H1 2094   4.690   0.212   4.535  0.1831  0.2811  0.4744
  696TIP3    H2 2095   4.749   0.097   4.613  0.6776 -0.5692 -1.1091
  697TIP3   OH2 2096   1.245   4.909   0.869  0.0658 -0.6740  0.7826
  697TIP3    H1 2097   1.244   4.820   0.833 -0.5303 -0.3039 -0.1637
  697TIP3    H2 2098   1.158   4.921   0.907  1.0754 -1.5128  3.6184
  698TIP3   OH2 2099   2.910   3.081   3.747  0.1557 -0.0560  0.0576
  698TIP3    H1 2100   2.941   3.163   3.708  1.2022 -0.5594 -0.2004
  698TIP3    H2 2101   2.956   3.076   3.831  0.1276 -0.3973  0.0537
  699TIP3   OH2 2102   6.261   0.025   0.735 -0.5513 -0.0457 -0.2414
  699TIP3    H1 2103   6.309   0.077   0.670 -0.7802  1.3473  0.6720
  699TIP3    H2 2104   6.215   0.090   0.788 -0.8301 -1.1908  0.9557
  700TIP3   OH2 2105   4.029   2.936   2.209  0.3347  0.0464 -0.0122
  700TIP3    H1 2106   4.035   3.024   2.245 -1.3734 -0.5777  2.0194
  700TIP3    H2 2107   4.120   2.904   2.209  1.0331  1.8750 -1.1680
  701TIP3   OH2 2108   0.239   1.484   2.299 -0.1266 -0.5569 -0.1841
  701TIP3    H1 2109   0.229   1.562   2.354  0.5966 -0.0974 -0.6888
  701TIP3    H2 2110   0.149   1.453   2.286 -0.3442 -0.4598  0.9290
  702TIP3   OH2 2111   4.543   4.611   2.735  0.1091 -0.5987 -0.2829
  702TIP3    H1 2112   4.481   4.538   2.735 -2.2444  1.2456  0.7573
  702TIP3    H2 2113   4.570   4.619   2.826  0.6122 -0.3536 -0.4509
  703TIP3   OH2 2114   1.689   3.755   3.072  0.1442  0.7126 -0.0226
  703TIP3    H1 2115   1.748   3.695   3.026 -1.3374 -1.4175  0.7063
  703TIP3    H2 2116   1.733   3.771   3.156 -0.8947 -2.0565  1.1335
  704TIP3   OH2 2117   1.646   4.538   0.989  0.3270 -0.3836 -0.0971
  704TIP3    H1 2118   1.655   4.626   0.952  2.9693 -1.5675 -2.7112
  704TIP3    H2 2119   1.557   4.512   0.967 -0.0117  1.0824 -0.5852
  705TIP3   OH2 2120   6.005   0.881   1.136  0.3410 -0.1578  0.0476
  705TIP3    H1 2121   6.024   0.855   1.226 -2.2986 -0.8154  0.5099
  705TIP3    H2 2122   5.938   0.949   1.144  1.7608  1.5235 -1.4115
  706TIP3   OH2 2123   0.151   2.851   2.045  0.5376 -0.0575  0.2693
  706TIP3    H1 2124   0.152   2.906   2.123 -0.2581 -0.4209  0.5446
  706TIP3    H2 2125   0.075   2.794   2.056  0.2228  0.1050 -0.9177
  707TIP3   OH2 2126   0.127   4.487   1.892 -0.1867  0.1331  0.4805
  707TIP3    H1 2127   0.209   4.462   1.849  0.1131 -0.2303  1.2522
  707TIP3    H2 2128   0.110   4.575   1.860  0.7914  0.4228  0.7130
  708TIP3   OH2 2129   0.844   5.196   4.380  0.0671 -0.6263 -0.2416
  708TIP3    H1 2130   0.935   5.188   4.410  0.2365 -0.7200 -0.7694
  708TIP3    H2 2131   0.828   5.116   4.331 -0.4024 -0.7461  0.1009
  709TIP3   OH2 2132   0.203   4.813   2.101  0.0220  0.2245  0.4411
  709TIP3    H1 2133   0.263   4.882   2.073  0.9075 -0.2405  1.1522
  709TIP3    H2 2134   0.118   4.841   2.068  0.9228 -0.1813 -2.4915
  710TIP3   OH2 2135   5.303   0.730   4.533  0.0038  0.0294  0.0889
  710TIP3    H1 2136   5.359   0.787   4.481  1.9999  0.2246  2.3344
  710TIP3    H2 2137   5.290   0.653   4.477  3.8631 -0.7408 -0.0042
  711TIP3   OH2 2138   1.103   3.353   4.640 -0.4549  0.0556 -0.0962
  711TIP3    H1 2139   1.190   3.385   4.616 -0.3849 -0.3600 -0.4122
  711TIP3    H2 2140   1.119   3.289   4.709 -0.6252  0.9471  0.8037
  712TIP3   OH2 2141   4.499   2.780   2.392  0.1912 -0.0891  0.2303
  712TIP3    H1 2142   4.478   2.689   2.373 -0.0259 -0.1528  0.7686
  712TIP3    H2 2143   4.492   2.788   2.487  1.0157  0.2883  0.2706
  713TIP3   OH2 2144   0.258   2.855   0.453  0.1999 -0.4862 -0.0204
  713TIP3    H1 2145   0.330   2.914   0.427 -2.5943  3.0641 -0.5291
  713TIP3    H2 2146   0.217   2.830   0.370  0.0361 -1.4321  0.3348
  714TIP3   OH2 2147   1.301   1.170   3.616 -0.0908  0.8476  1.1172
  714TIP3    H1 2148   1.263   1.129   3.538 -0.2071 -0.2638  1.7431
  714TIP3    H2 2149   1.269   1.260   3.613  0.1133  0.9002 -0.2520
  715TIP3   OH2 2150   5.108   0.531   2.149 -0.0961  0.2584 -0.0056
  715TIP3    H1 2151   5.191   0.484   2.148 -1.2095 -1.8297  0.2918
  715TIP3    H2 2152   5.105   0.574   2.235  0.4471 -0.0911  0.1907
  716TIP3   OH2 2153   2.034   3.343   1.660  0.2946  0.5213 -0.1822
  716TIP3    H1 2154   1.952   3.329   1.612  1.2329  2.0678 -2.4012
  716TIP3    H2 2155   2.026   3.287   1.737 -1.8096 -1.2224 -1.5385
  717TIP3   OH2 2156   5.021   5.683   4.931  0.0084 -0.0494  0.2887
  717TIP3    H1 2157   5.048   5.601   4.973 -1.3661 -1.0496 -0.6929
  717TIP3    H2 2158   4.934   5.665   4.896 -1.5260  2.6183  2.2653
  718TIP3   OH2 2159   4.082   1.117   2.140  0.5774  0.6443 -0.0253
  718TIP3    H1 2160   4.173   1.145   2.125  0.2061  1.3515 -1.0523
  718TIP3    H2 2161   4.042   1.190   2.187  1.0592 -0.5270  2.3601
  719TIP3   OH2 2162   0.525   5.372   2.149 -0.2733  0.3878 -0.3955
  719TIP3    H1 2163   0.536   5.282   2.180  1.4158  1.0464  1.1001
  719TIP3    H2 2164   0.494   5.419   2.226 -1.4201  1.0505 -1.2460
  720TIP3   OH2 2165   4.728   2.019   0.247 -0.3808 -0.2550  0.2828
  720TIP3    H1 2166   4.770   2.080   0.307 -2.1346 -0.2398  1.5896
  720TIP3    H2 2167   4.706   1.943   0.302  0.5876 -1.5264 -1.0176
  721TIP3   OH2 2168   2.430   0.242   2.114 -0.5297  0.6371  0.6937
  721TIP3    H1 2169   2.417   0.147   2.110  1.6359  0.2699 -4.3730
  721TIP3    H2 2170   2.346   0.279   2.085 -0.4661  0.0973 -0.1963
  722TIP3   OH2 2171   5.703   5.831   0.674 -0.3674 -0.1511  0.4776
  722TIP3    H1 2172   5.733   5.843   0.764 -0.2691 -0.9111  0.5480
  722TIP3    H2 2173   5.670   5.741   0.670  2.2051 -1.1321 -0.9512
  723TIP3   OH2 2174   3.754   1.646   3.696  0.1205  0.0080  0.2933
  723TIP3    H1 2175   3.802   1.598   3.763 -0.8075 -0.7398  0.4388
  723TIP3    H2 2176   3.822   1.677   3.635  1.0203  0.9820  1.7197
  724TIP3   OH2 2177   0.611   5.716   0.846 -0.0604 -0.5254  0.6917
  724TIP3    H1 2178   0.679   5.784   0.849 -1.3898  0.8741  0.4695
  724TIP3    H2 2179   0.537   5.753   0.894 -1.3824 -1.1529 -0.7572
  725TIP3   OH2 2180   1.687   3.767   0.271  0.2239  0.3038  0.0017
  725TIP3    H1 2181   1.708   3.742   0.361 -0.3253  0.3819  0.1545
  725TIP3    H2 2182   1.593   3.751   0.262  0.3180  0.0771 -0.6324
  726TIP3   OH2 2183   3.879   4.736   1.389  0.0849  0.1406 -0.0569
  726TIP3    H1 2184   3.970   4.751   1.414  0.0028  2.0636 -0.7816
  726TIP3    H2 2185   3.839   4.823   1.389 -0.8736 -0.1954 -3.0393
  727TIP3   OH2 2186   2.526   0.536   4.518  0.3483  0.3234 -0.4439
  727TIP3    H1 2187   2.602   0.535   4.576  0.7227 -1.7687 -0.8789
  727TIP3    H2 2188   2.490   0.624   4.526  1.2635  0.5585  1.7999
  728TIP3   OH2 2189   1.468   4.923   2.287 -0.2986  0.1239 -0.1773
  728TIP3    H1 2190   1.516   5.004   2.269  0.8791 -0.3185  0.8304
  728TIP3    H2 2191   1.537   4.859   2.306 -1.1858 -1.1966 -1.2026
  729TIP3   OH2 2192   5.614   5.738   0.409 -0.2907 -0.3277 -0.3802
  729TIP3    H1 2193   5.685   5.793   0.444  0.3282  0.8620 -3.2205
  729TIP3    H2 2194   5.653   5.692   0.335 -2.6702  1.3591 -2.8979
  730TIP3   OH2 2195   4.266   1.347   4.323 -0.4541 -0.7446 -0.9756
  730TIP3    H1 2196   4.254   1.261   4.282  0.9529 -1.4590  0.0128
  730TIP3    H2 2197   4.347   1.380   4.286  1.0849 -1.5929  1.4050
  731TIP3   OH2 2198   0.703   0.898   0.236  0.3249 -0.1908 -0.0039
  731TIP3    H1 2199   0.746   0.971   0.280 -1.2589  0.9219 -0.1817
  731TIP3    H2 2200   0.640   0.865   0.301 -1.2436  0.7437 -0.9757
  732TIP3   OH2 2201   1.845   3.150   2.083 -0.4376  0.5762  0.2550
  732TIP3    H1 2202   1.759   3.107   2.085  0.3303 -1.0560 -0.4817
  732TIP3    H2 2203   1.868   3.162   2.175  0.0933 -2.2663  0.5707
  733TIP3   OH2 2204   5.063   2.897   2.250  0.9381  0.3028 -0.3864
  733TIP3    H1 2205   5.092   2.812   2.216 -1.2806 -0.5300 -0.3550
  733TIP3    H2 2206   5.110   2.907   2.332  2.6584  0.0182 -1.2872
  734TIP3   OH2 2207   3.757   1.239   0.536 -0.6891  0.6378 -0.4972
  734TIP3    H1 2208   3.799   1.273   0.615 -0.6140  0.8539 -0.6310
  734TIP3    H2 2209   3.822   1.178   0.499 -1.0451 -0.0790  0.0436
  735TIP3   OH2 2210   1.770   1.269   0.649  0.1360 -0.4485 -0.0550
  735TIP3    H1 2211   1.687   1.313   0.634  0.8100  0.7138 -0.5026
  735TIP3    H2 2212   1.761   1.229   0.735  0.1328  2.1611  1.2459
  736TIP3   OH2 2213   2.795   3.930   2.304  0.0963 -0.0045  0.0729
  736TIP3    H1 2214   2.706   3.899   2.288 -0.3639  1.0219  0.5903
  736TIP3    H2 2215   2.795   3.960   2.394  0.9860 -0.0262  0.0915
  737TIP3   OH2 2216   3.823   4.664   2.260  0.1894 -0.6067 -0.2688
  737TIP3    H1 2217   3.807   4.718   2.183 -0.4527 -0.7824 -0.2627
  737TIP3    H2 2218   3.770   4.586   2.246  1.1282 -1.2636 -0.2916
  738TIP3   OH2 2219   6.023   3.919   2.856 -0.3447 -0.2514  0.0726
  738TIP3    H1 2220   5.960   3.977   2.813  1.7792  1.3223 -1.0758
  738TIP3    H2 2221   6.040   3.850   2.792  2.2438  1.6789 -1.4742
  739TIP3   OH2 2222   6.293   5.318   4.341  0.0820 -0.6021 -0.5263
  739TIP3    H1 2223   6.220   5.372   4.311 -0.6906 -1.2295  0.1669
  739TIP3    H2 2224   6.337   5.290   4.261  0.0195  0.4073 -0.9181
  740TIP3   OH2 2225   3.915   5.131   5.112 -0.0913 -0.2244  0.5853
  740TIP3    H1 2226   3.849   5.197   5.134  1.1268  0.7590  1.4432
  740TIP3    H2 2227   3.917   5.130   5.017 -0.3102  0.8033  0.5580
  741TIP3   OH2 2228   5.510   1.612   0.126 -0.0605  0.5987  0.3642
  741TIP3    H1 2229   5.549   1.528   0.104  0.0918  0.5479  0.8230
  741TIP3    H2 2230   5.567   1.648   0.195  0.1038  1.2510 -0.1010
  742TIP3   OH2 2231   0.923   0.114   2.081  0.1113  0.5838  0.0247
  742TIP3    H1 2232   0.997   0.171   2.103  1.0693 -0.1607 -1.1408
  742TIP3    H2 2233   0.941   0.085   1.992 -1.0291 -0.4998  0.1228
  743TIP3   OH2 2234   0.393   4.807   1.270  0.3027 -0.6904 -0.1076
  743TIP3    H1 2235   0.361   4.797   1.180 -1.0146 -0.7956  0.3563
  743TIP3    H2 2236   0.436   4.892   1.271  0.7821 -0.9123 -0.9654
  744TIP3   OH2 2237   2.740   3.520   4.563 -0.6443 -1.0904  0.3523
  744TIP3    H1 2238   2.794   3.494   4.638 -3.5474 -3.0769  1.9425
  744TIP3    H2 2239   2.756   3.451   4.498  1.0563  0.0609 -0.5291
  745TIP3   OH2 2240   3.293   1.504   3.145  0.9023 -0.2502 -0.3020
  745TIP3    H1 2241   3.375   1.535   3.185  1.4477 -1.1567 -0.6868
  745TIP3    H2 2242   3.312   1.500   3.051 -0.0392  0.8649 -0.5609
  746TIP3   OH2 2243   1.325   4.580   0.970 -0.0966  0.3105  0.0874
  746TIP3    H1 2244   1.287   4.638   1.036  0.5012 -0.3610  1.0301
  746TIP3    H2 2245   1.267   4.590   0.894 -3.4429 -2.1707  2.0757
  747TIP3   OH2 2246   4.749   5.246   1.628  0.5179 -0.0636 -0.0518
  747TIP3    H1 2247   4.672   5.189   1.633  0.8635 -0.4697  0.9629
  747TIP3    H2 2248   4.729   5.319   1.686  0.1937  0.7244 -1.1357
  748TIP3   OH2 2249   6.024   1.770   2.907 -0.0654 -0.0994  0.3289
  748TIP3    H1 2250   6.068   1.771   2.822  1.5365 -1.5972  1.0698
  748TIP3    H2 2251   6.073   1.834   2.959  0.5908 -0.9615  0.8172
  749TIP3   OH2 2252   1.169   1.031   3.843 -0.1103 -1.0913 -0.3339
  749TIP3    H1 2253   1.220   1.082   3.779 -2.2802 -0.9279 -2.0449
  749TIP3    H2 2254   1.190   0.939   3.822 -0.4334 -1.0233 -1.0000
  750TIP3   OH2 2255   4.655   3.904   4.705  0.4649  0.6211  0.7576
  750TIP3    H1 2256   4.654   3.949   4.621 -2.4996  0.6926  0.7086
  750TIP3    H2 2257   4.683   3.815   4.685  0.4337  0.8181 -0.1850
  751TIP3   OH2 2258   1.249   3.201   2.502  0.1672  0.2606  0.1388
  751TIP3    H1 2259   1.335   3.182   2.465 -0.2238 -0.2257 -0.5411
  751TIP3    H2 2260   1.263   3.279   2.557  1.3163 -0.6486  1.1737
  752TIP3   OH2 2261   6.179   4.796   3.263  0.0490  0.3407 -0.9534
  752TIP3    H1 2262   6.097   4.780   3.217 -0.4881  2.7406 -0.9552
  752TIP3    H2 2263   6.209   4.880   3.230  1.8037  0.1709  0.0834
  753TIP3   OH2 2264   5.750   2.989   1.505  0.2917 -0.2659  0.2135
  753TIP3    H1 2265   5.750   3.083   1.487  0.1051 -0.5801 -1.5219
  753TIP3    H2 2266   5.660   2.970   1.531  0.3602  0.0365  0.6994
  754TIP3   OH2 2267   1.608   4.852   5.110 -0.1790  0.1112 -0.4112
  754TIP3    H1 2268   1.684   4.818   5.063  0.2574 -0.0996  0.4370
  754TIP3    H2 2269   1.554   4.775   5.126  0.4778 -0.0993  0.8980
  755TIP3   OH2 2270   5.747   2.608   0.811  0.5037 -0.2048 -0.3085
  755TIP3    H1 2271   5.742   2.680   0.874  2.2352 -0.2674 -0.0574
  755TIP3    H2 2272   5.694   2.539   0.851 -0.8866  0.7833 -0.3877
  756TIP3   OH2 2273   0.350   1.103   3.900 -0.4413  0.1829 -0.0155
  756TIP3    H1 2274   0.298   1.068   3.973 -0.4253  0.2899  0.0464
  756TIP3    H2 2275   0.431   1.051   3.901  0.9765  2.2534  2.0265
  757TIP3   OH2 2276   5.824   1.153   1.918  0.3425  0.0307 -0.3905
  757TIP3    H1 2277   5.876   1.074   1.933 -2.2361 -1.8629 -0.7782
  757TIP3    H2 2278   5.788   1.175   2.004  0.3110  0.2384 -0.4553
  758TIP3   OH2 2279   5.144   2.462   4.088  0.2542 -0.3374 -0.1032
  758TIP3    H1 2280   5.185   2.511   4.159  1.4521  0.0012 -0.9834
  758TIP3    H2 2281   5.212   2.401   4.059  0.5026  0.8212 -2.1659
  759TIP3   OH2 2282   5.012   1.603   0.078  0.0267  0.1256  0.0770
  759TIP3    H1 2283   5.096   1.648   0.065  1.6042 -2.2052  1.5091
  759TIP3    H2 2284   4.979   1.589  -0.011  0.8110  1.5842 -0.4927
  760TIP3   OH2 2285   2.638   0.496   5.009 -0.4908  0.2904 -0.3270
  760TIP3    H1 2286   2.661   0.403   5.004  0.9458  0.4513  1.7829
  760TIP3    H2 2287   2.719   0.541   4.983 -0.5919  0.9284  0.4464
  761TIP3   OH2 2288   2.190   2.914   4.863  0.7256 -0.6302 -0.0290
  761TIP3    H1 2289   2.130   2.840   4.864  0.3391 -0.3239 -0.2812
  761TIP3    H2 2290   2.214   2.924   4.771  2.0175 -1.4255  0.1938
  762TIP3   OH2 2291   3.956   1.548   0.382 -0.4645  0.4545  0.6921
  762TIP3    H1 2292   3.874   1.596   0.368  0.5562  2.5307  1.5302
  762TIP3    H2 2293   3.959   1.532   0.476  0.7361  1.6452  0.8801
  763TIP3   OH2 2294   4.700   2.697   2.998 -0.2398  0.2730  0.1311
  763TIP3    H1 2295   4.651   2.684   3.079  0.7214 -1.5724  0.4492
  763TIP3    H2 2296   4.657   2.640   2.934  0.6527 -0.3333  0.0618
  764TIP3   OH2 2297   1.465   5.583   3.717  0.4108 -0.3419 -0.1062
  764TIP3    H1 2298   1.433   5.624   3.637 -1.2556 -0.3053  0.5285
  764TIP3    H2 2299   1.510   5.653   3.764 -1.4895  0.5486  0.4817
  765TIP3   OH2 2300   4.772   4.153   2.056  0.1080 -0.0796 -0.3171
  765TIP3    H1 2301   4.746   4.191   2.140  0.1419 -1.3172  0.2632
  765TIP3    H2 2302   4.826   4.221   2.015  0.8059  0.2113  1.0345
  766TIP3   OH2 2303   2.940   0.274   3.638  0.2698  0.2428 -0.2326
  766TIP3    H1 2304   3.016   0.316   3.598  0.0981  2.5992  1.6967
  766TIP3    H2 2305   2.870   0.282   3.573  1.0102  0.3169 -1.0346
  767TIP3   OH2 2306   3.718   0.535   3.105 -0.5446  0.6124 -0.6126
  767TIP3    H1 2307   3.642   0.567   3.057 -0.9456  2.2658  1.0180
  767TIP3    H2 2308   3.792   0.578   3.064 -0.9346  2.4741  0.5078
  768TIP3   OH2 2309   6.195   2.892   1.567  0.6472 -0.5191 -0.2760
  768TIP3    H1 2310   6.243   2.909   1.486 -1.2417  1.0640 -1.1397
  768TIP3    H2 2311   6.128   2.960   1.570 -0.8322 -1.9602  1.4269
  769TIP3   OH2 2312   1.195   2.228   2.112  0.2735  0.4368 -0.2756
  769TIP3    H1 2313   1.275   2.225   2.164  0.1097  0.1775 -0.0308
  769TIP3    H2 2314   1.198   2.312   2.066  0.3479  0.7360  0.2688
  770TIP3   OH2 2315   6.196   3.171   4.958 -0.5052  0.3004  0.2783
  770TIP3    H1 2316   6.103   3.171   4.935 -0.5437  1.3647  0.4058
  770TIP3    H2 2317   6.208   3.250   5.010  0.5597  0.3960 -0.0895
  771TIP3   OH2 2318   2.833   1.138   2.368 -0.3722  0.1228  0.0087
  771TIP3    H1 2319   2.748   1.137   2.411  0.0774  0.7034  0.9443
  771TIP3    H2 2320   2.895   1.112   2.436  0.0674 -1.7237 -1.0264
  772TIP3   OH2 2321   0.926   3.822   3.743  0.5064 -0.2940 -0.4116
  772TIP3    H1 2322   0.997   3.867   3.698  1.0977 -1.1339 -0.3229
  772TIP3    H2 2323   0.935   3.847   3.835  0.1210  0.3312 -0.5366
  773TIP3   OH2 2324   2.357   1.849   2.807 -0.1956 -0.3210  0.1873
  773TIP3    H1 2325   2.416   1.776   2.788 -0.5114  0.1947 -3.3860
  773TIP3    H2 2326   2.274   1.807   2.830  0.3548 -1.0409  0.9190
  774TIP3   OH2 2327   0.229   5.167   1.855 -0.3544 -0.1367 -0.2397
  774TIP3    H1 2328   0.210   5.147   1.947  0.2893  0.4177  0.0213
  774TIP3    H2 2329   0.240   5.262   1.853  1.4689 -0.3298 -0.5381
  775TIP3   OH2 2330   3.175   1.914   0.068 -0.1148  0.1843 -0.7153
  775TIP3    H1 2331   3.246   1.858   0.101  0.1935  0.9339 -0.0695
  775TIP3    H2 2332   3.147   1.964   0.145 -1.7100 -0.4610 -0.8421
  776TIP3   OH2 2333   0.718   4.930   1.987 -0.1268 -0.2053 -0.0259
  776TIP3    H1 2334   0.775   4.854   1.974 -0.1010 -0.3023  0.6342
  776TIP3    H2 2335   0.769   4.990   2.041 -0.2805  0.1360 -0.2559
  777TIP3   OH2 2336   4.959   1.195   4.291  0.1339  0.0778 -0.3036
  777TIP3    H1 2337   4.978   1.247   4.369  0.2556  0.3783 -0.5290
  777TIP3    H2 2338   4.955   1.105   4.322  0.2110  0.1928  0.0433
  778TIP3   OH2 2339   4.294   3.800   2.029  0.4925 -0.4036 -0.7037
  778TIP3    H1 2340   4.257   3.889   2.025  1.1407 -0.0348  0.8338
  778TIP3    H2 2341   4.278   3.772   2.119  1.5460 -1.3036 -0.7805
  779TIP3   OH2 2342   1.954   1.511   2.706  0.2459 -0.5729 -0.1014
  779TIP3    H1 2343   1.884   1.574   2.687 -0.1336 -0.5481  1.2114
  779TIP3    H2 2344   1.952   1.503   2.802  3.9560  1.6368  0.3556
  780TIP3   OH2 2345   1.039   4.929   3.576 -0.2612 -0.3805 -0.3625
  780TIP3    H1 2346   1.131   4.946   3.555  0.0686 -0.2602  1.0805
  780TIP3    H2 2347   1.041   4.871   3.652 -1.3712 -0.1903 -0.1606
  781TIP3   OH2 2348   0.800   4.680   0.157  0.2888 -0.1197 -0.4695
  781TIP3    H1 2349   0.710   4.666   0.127  0.2352  0.3024 -0.5100
  781TIP3    H2 2350   0.804   4.774   0.177  0.7063 -0.1479 -0.4188
  782TIP3   OH2 2351   3.904   4.799   0.936  0.7252 -0.2056 -0.2082
  782TIP3    H1 2352   3.920   4.733   1.003  2.2382  1.1273  0.8361
  782TIP3    H2 2353   3.834   4.853   0.971  3.0805  1.9311  1.5588
  783TIP3   OH2 2354   1.994   2.819   2.571  0.6145 -0.1851 -0.6814
  783TIP3    H1 2355   1.978   2.725   2.579  2.2610 -0.3567  2.0887
  783TIP3    H2 2356   1.909   2.857   2.550 -0.7750 -2.0077  1.3048
  784TIP3   OH2 2357   0.214   1.096   0.338 -0.0244 -0.2087 -0.3726
  784TIP3    H1 2358   0.252   1.068   0.255  3.3149  0.6049  0.7257
  784TIP3    H2 2359   0.258   1.041   0.404 -1.2594  0.3869  1.0101
  785TIP3   OH2 2360   2.022   1.908   4.127  0.0676 -0.3960 -0.6569
  785TIP3    H1 2361   2.076   1.917   4.048  0.9379 -0.6814 -0.1098
  785TIP3    H2 2362   2.078   1.941   4.198 -1.8892  3.1551 -0.5447
  786TIP3   OH2 2363   4.585   5.626   2.997  0.0795  0.2309  0.3763
  786TIP3    H1 2364   4.654   5.624   3.064 -0.3140 -0.3148  0.7721
  786TIP3    H2 2365   4.582   5.718   2.969  1.6085  0.1059 -0.3229
  787TIP3   OH2 2366   0.792   4.490   4.886 -0.3071  0.0625 -0.0654
  787TIP3    H1 2367   0.874   4.534   4.864 -0.3593 -0.4897 -1.4612
  787TIP3    H2 2368   0.739   4.558   4.928  0.7405  0.5018  0.5921
  788TIP3   OH2 2369   1.223   0.648   1.470  0.5029 -0.0404  0.4091
  788TIP3    H1 2370   1.163   0.697   1.526 -0.8716 -1.9711  0.7236
  788TIP3    H2 2371   1.284   0.606   1.531  0.1061 -0.7196  0.3478
  789TIP3   OH2 2372   0.121   1.509   5.012 -0.3085 -0.2853 -0.5095
  789TIP3    H1 2373   0.140   1.471   4.927 -0.5591  0.8020 -1.0672
  789TIP3    H2 2374   0.200   1.558   5.035 -0.2235 -0.6105 -0.0909
  790TIP3   OH2 2375   3.106   5.113   0.325  0.5261 -0.0542  0.3137
  790TIP3    H1 2376   3.189   5.161   0.330  0.3479  0.2142  0.8516
  790TIP3    H2 2377   3.060   5.152   0.250  1.7586 -1.6527 -1.3423
  791TIP3   OH2 2378   1.344   5.122   3.956 -0.2392  0.5860  0.2408
  791TIP3    H1 2379   1.401   5.193   3.926 -0.0827  0.2219 -0.3526
  791TIP3    H2 2380   1.392   5.042   3.933  0.5166  0.2584  2.6710
  792TIP3   OH2 2381   4.966   5.559   2.811  0.1211  0.0827 -0.1493
  792TIP3    H1 2382   5.007   5.522   2.889 -2.7005 -1.0744  0.9167
  792TIP3    H2 2383   4.964   5.487   2.747 -0.7189 -0.0747  0.0356
  793TIP3   OH2 2384   0.496   4.746   2.105 -0.8037 -0.4450  0.3519
  793TIP3    H1 2385   0.532   4.829   2.073  1.4949 -1.6130 -0.2641
  793TIP3    H2 2386   0.411   4.739   2.062  0.3855  0.0445 -2.2410
  794TIP3   OH2 2387   4.232   5.751   0.414 -0.1557 -0.2839 -0.4464
  794TIP3    H1 2388   4.303   5.794   0.368  1.4669 -0.2985  1.8569
  794TIP3    H2 2389   4.259   5.660   0.421 -0.4276 -0.3191  0.3152
  795TIP3   OH2 2390   2.738   5.742   4.397 -0.3112  0.9851 -0.6937
  795TIP3    H1 2391   2.684   5.682   4.346 -0.7843  0.1563  0.7336
  795TIP3    H2 2392   2.677   5.784   4.457  0.4589  0.7765  0.2618
  796TIP3   OH2 2393   4.566   2.099   1.204 -0.3778  0.5704 -0.0998
  796TIP3    H1 2394   4.506   2.153   1.154  0.2434  1.1307 -0.2518
  796TIP3    H2 2395   4.566   2.015   1.159 -2.8591 -0.2595  1.2569
  797TIP3   OH2 2396   5.446   1.155   0.584  0.0876 -0.7351  0.6532
  797TIP3    H1 2397   5.526   1.140   0.636 -0.4005 -0.8180  1.4000
  797TIP3    H2 2398   5.478   1.173   0.496  0.8766 -3.2711  0.3204
  798TIP3   OH2 2399   1.000   1.405   0.087  0.0477 -0.0120 -0.5077
  798TIP3    H1 2400   1.007   1.429   0.180  0.4804  0.0927 -0.5664
  798TIP3    H2 2401   1.076   1.349   0.071 -0.8005 -1.2147 -0.4455
  799TIP3   OH2 2402   1.665   4.150   4.080 -0.6446 -0.3264  0.2961
  799TIP3    H1 2403   1.648   4.093   4.154  2.1108 -0.1998  1.1446
  799TIP3    H2 2404   1.671   4.238   4.118 -0.5451 -0.0730 -0.2886
  800TIP3   OH2 2405   5.825   1.193   1.358 -0.2442  0.2337  0.0212
  800TIP3    H1 2406   5.791   1.212   1.446  0.5181 -0.2712  0.4306
  800TIP3    H2 2407   5.760   1.134   1.320 -0.4996  0.3295  0.3056
  801TIP3   OH2 2408   2.417   2.022   2.591 -0.5052 -0.4588  0.4921
  801TIP3    H1 2409   2.343   2.049   2.536  1.0393 -1.4896 -2.2904
  801TIP3    H2 2410   2.378   1.960   2.653 -2.3335  0.7460  0.6458
  802TIP3   OH2 2411   2.129   0.046   1.678 -0.4797 -0.3636 -0.0801
  802TIP3    H1 2412   2.164   0.135   1.684 -0.4122 -0.3533 -0.6018
  802TIP3    H2 2413   2.058   0.053   1.614 -0.3998 -0.7062 -0.2067
  803TIP3   OH2 2414   1.863   3.427   0.108  0.4894  0.6188 -0.2334
  803TIP3    H1 2415   1.928   3.363   0.137  1.0509  1.1995 -0.1746
  803TIP3    H2 2416   1.860   3.492   0.179 -2.2012 -0.7838  1.1130
  804TIP3   OH2 2417   2.819   1.340   3.677  0.1202  0.6663 -0.5483
  804TIP3    H1 2418   2.831   1.250   3.707  2.0190 -0.5243 -4.2207
  804TIP3    H2 2419   2.805   1.390   3.757 -2.1649 -2.9461  1.6367
  805TIP3   OH2 2420   0.308   5.938   2.653  0.0655  0.6246  0.2271
  805TIP3    H1 2421   0.360   5.867   2.614  0.3961  2.0593 -2.1249
  805TIP3    H2 2422   0.243   5.893   2.706  0.6558 -1.4290 -0.6655
  806TIP3   OH2 2423   0.499   4.321   2.078 -0.4299 -0.3585 -0.7569
  806TIP3    H1 2424   0.426   4.379   2.102  0.0097  0.4976 -1.4535
  806TIP3    H2 2425   0.476   4.237   2.117 -0.3268  0.6526  1.6879
  807TIP3   OH2 2426   1.018   2.040   3.137  0.1999  0.2188 -0.2376
  807TIP3    H1 2427   0.955   2.006   3.200  1.4515 -0.9809  0.4211
  807TIP3    H2 2428   1.020   2.135   3.153 -2.8155  0.6351 -1.6172
  808TIP3   OH2 2429   4.065   1.549   2.736  0.3188 -0.2860 -0.0700
  808TIP3    H1 2430   4.051   1.507   2.821 -2.6095  1.3407  0.3780
  808TIP3    H2 2431   4.148   1.512   2.705  1.1800 -1.4188  3.1555
  809TIP3   OH2 2432   4.308   1.354   3.990 -0.3363 -0.1704 -0.1515
  809TIP3    H1 2433   4.361   1.371   3.911  0.0911 -1.0141 -0.0619
  809TIP3    H2 2434   4.365   1.378   4.063 -1.2502  2.0161 -0.0965
  810TIP3   OH2 2435   5.314   3.254   2.852 -0.1759 -0.4565 -0.2805
  810TIP3    H1 2436   5.263   3.252   2.934 -0.9971 -1.1401 -0.7856
  810TIP3    H2 2437   5.248   3.252   2.783  0.5413 -1.4572 -0.9599
  811TIP3   OH2 2438   0.992   2.463   0.302 -0.1545  0.0919 -0.0183
  811TIP3    H1 2439   1.019   2.375   0.273 -1.5288 -0.9211  1.5806
  811TIP3    H2 2440   0.970   2.452   0.394 -0.8382  2.0199  0.0871
  812TIP3   OH2 2441   0.270   0.803   3.715  0.8800  0.0300 -0.0471
  812TIP3    H1 2442   0.228   0.888   3.702  0.7730  0.0255  0.2737
  812TIP3    H2 2443   0.200   0.746   3.746  0.6675 -0.4957 -1.4101
  813TIP3   OH2 2444   2.920   3.165   4.893 -0.4948 -0.0532  0.0615
  813TIP3    H1 2445   2.855   3.094   4.896  1.3215 -1.8128 -0.5492
  813TIP3    H2 2446   2.923   3.198   4.983 -2.3191  0.1906  0.0753
  814TIP3   OH2 2447   6.141   2.015   4.593  0.3599  0.1730 -0.4670
  814TIP3    H1 2448   6.119   2.084   4.656  0.0443  0.5430 -0.9753
  814TIP3    H2 2449   6.059   1.998   4.546  0.5394 -0.2542 -0.6307
  815TIP3   OH2 2450   0.321   3.440   4.907 -0.2753 -0.8755  0.0955
  815TIP3    H1 2451   0.323   3.457   4.812 -0.0889  0.8977  0.3871
  815TIP3    H2 2452   0.236   3.475   4.935  0.4255  0.2706  0.8493
  816TIP3   OH2 2453   5.531   4.033   3.598 -0.4019  0.1862  0.2086
  816TIP3    H1 2454   5.555   3.941   3.612  0.8016  0.5303  0.5027
  816TIP3    H2 2455   5.469   4.053   3.668  0.2443 -0.0763  0.8672
  817TIP3   OH2 2456   1.593   4.708   1.397 -0.0479 -0.4657 -0.0530
  817TIP3    H1 2457   1.617   4.679   1.485 -1.0895  0.4442  0.5556
  817TIP3    H2 2458   1.569   4.627   1.351  1.0740 -1.0204  0.2886
  818TIP3   OH2 2459   1.799   4.128   1.919 -0.5092 -0.4251  0.1287
  818TIP3    H1 2460   1.758   4.076   1.850 -0.1755  0.3685 -0.6745
  818TIP3    H2 2461   1.876   4.167   1.878 -0.1124 -0.2116  1.0478
  819TIP3   OH2 2462   0.889   5.392   4.083  0.3210  0.2556  0.6078
  819TIP3    H1 2463   0.954   5.347   4.028  0.9242  1.4531  0.3070
  819TIP3    H2 2464   0.892   5.345   4.166  1.2318 -0.0128  0.4354
  820TIP3   OH2 2465   2.272   0.553   0.096  0.5096  0.5705  0.3427
  820TIP3    H1 2466   2.227   0.636   0.114  1.3191  1.2422 -0.6420
  820TIP3    H2 2467   2.347   0.553   0.156 -0.7625 -0.5712  2.0187
  821TIP3   OH2 2468   5.132   3.601   1.867 -0.1484 -0.7628 -0.9045
  821TIP3    H1 2469   5.048   3.641   1.890  0.4616  0.3112 -0.4672
  821TIP3    H2 2470   5.146   3.533   1.933  0.2546  0.4069  0.2524
  822TIP3   OH2 2471   2.900   2.562   2.191  0.3403 -0.1140 -0.0446
  822TIP3    H1 2472   2.973   2.596   2.243  0.1376  1.2161 -0.5893
  822TIP3    H2 2473   2.941   2.502   2.129  0.7071 -0.9142  0.9491
  823TIP3   OH2 2474   2.664   3.519   5.055 -0.4509 -0.8678  0.2303
  823TIP3    H1 2475   2.619   3.436   5.040 -0.8888 -0.7528  0.8467
  823TIP3    H2 2476   2.649   3.537   5.148 -0.6999  0.1061  0.0054
  824TIP3   OH2 2477   6.228   2.919   5.082 -0.6686 -0.2757  0.0850
  824TIP3    H1 2478   6.198   2.946   5.169  3.4071 -1.7200  2.2010
  824TIP3    H2 2479   6.203   2.992   5.024 -2.4695  1.3034  2.6501
  825TIP3   OH2 2480   1.000   3.217   5.045 -0.7796  0.9483 -0.3220
  825TIP3    H1 2481   1.036   3.288   5.097 -0.4221 -0.0414  0.8101
  825TIP3    H2 2482   1.052   3.219   4.964 -0.4919  1.6978 -0.1326
  826TIP3   OH2 2483   3.638   1.382   0.312 -0.5219  0.2246 -0.0510
  826TIP3    H1 2484   3.692   1.344   0.382 -1.6761 -2.1624 -0.3320
  826TIP3    H2 2485   3.634   1.313   0.246  0.5287  2.3907 -2.5545
  827TIP3   OH2 2486   1.006   5.497   0.575  0.2398 -0.2812  0.1953
  827TIP3    H1 2487   1.077   5.435   0.589  1.9766  1.5850  0.1066
  827TIP3    H2 2488   0.967   5.471   0.492  0.6504 -1.4813  0.3689
  828TIP3   OH2 2489   5.446   5.767   1.325 -0.2979 -0.0466 -0.1178
  828TIP3    H1 2490   5.510   5.837   1.331 -1.2400  0.8371 -0.1179
  828TIP3    H2 2491   5.362   5.809   1.343 -1.0361 -0.9191 -1.2952
  829TIP3   OH2 2492   0.466   5.065   1.213 -0.3264  0.1401 -0.0780
  829TIP3    H1 2493   0.550   5.047   1.255 -0.0764 -1.9077 -1.3296
  829TIP3    H2 2494   0.467   5.159   1.196  1.9030  0.0949 -0.4321
  830TIP3   OH2 2495   0.389   3.784   4.849  0.0829  0.1438  0.5967
  830TIP3    H1 2496   0.478   3.819   4.846  0.5546 -0.9250  1.3591
  830TIP3    H2 2497   0.359   3.788   4.759  0.8398  0.6769  0.3566
  831TIP3   OH2 2498   4.103   4.355   4.150  0.5989 -0.4530  0.0353
  831TIP3    H1 2499   4.185   4.396   4.122  1.4258 -0.4697  2.2224
  831TIP3    H2 2500   4.078   4.403   4.229 -0.7974 -1.2913  0.1255
  832TIP3   OH2 2501   2.107   5.634   2.980 -0.8337  0.2705  0.2068
  832TIP3    H1 2502   2.164   5.620   3.056  1.7556  0.6753 -1.5654
  832TIP3    H2 2503   2.095   5.728   2.976 -0.0684  0.3454 -0.4828
  833TIP3   OH2 2504   3.534   4.011   1.796 -0.3527 -0.1903 -0.2487
  833TIP3    H1 2505   3.512   3.985   1.886  2.2520 -2.5631 -0.1477
  833TIP3    H2 2506   3.587   4.090   1.807 -0.9829  0.1770  0.2052
  834TIP3   OH2 2507   5.420   1.219   2.238  0.3427  0.0988  0.1754
  834TIP3    H1 2508   5.452   1.155   2.175 -2.0998 -1.4035  0.3489
  834TIP3    H2 2509   5.393   1.294   2.184  0.9016 -0.0062 -0.2615
  835TIP3   OH2 2510   3.060   2.294   0.383  0.3230  0.0135  0.0011
  835TIP3    H1 2511   3.029   2.246   0.459  0.4210  1.6148  1.1147
  835TIP3    H2 2512   3.151   2.267   0.373  0.3364 -0.1480  0.5190
  836TIP3   OH2 2513   3.380   0.005   1.649 -0.2018 -0.0941 -0.1633
  836TIP3    H1 2514   3.340   0.004   1.736 -0.8447 -1.0447 -0.4474
  836TIP3    H2 2515   3.449   0.070   1.655 -0.4866  0.1293  0.9487
  837TIP3   OH2 2516   5.077   1.660   5.064  0.1241  0.6004  0.0955
  837TIP3    H1 2517   5.089   1.673   5.158 -1.4660 -1.3314  0.6294
  837TIP3    H2 2518   5.011   1.725   5.040 -2.6068 -1.5240  1.2862
  838TIP3   OH2 2519   4.115   5.300   5.182  0.2525  0.5155  0.0972
  838TIP3    H1 2520   4.159   5.367   5.129  0.5020 -0.1675 -0.5695
  838TIP3    H2 2521   4.056   5.256   5.121  1.0264 -0.7239  0.2049
  839TIP3   OH2 2522   0.109   1.094   2.387  0.0247 -0.3050  0.0532
  839TIP3    H1 2523   0.120   1.189   2.390 -0.4365 -0.2445 -0.0973
  839TIP3    H2 2524   0.029   1.078   2.436 -0.4040 -0.5297 -0.7090
  840TIP3   OH2 2525   5.174   4.458   1.867  0.0521 -0.0058  0.3433
  840TIP3    H1 2526   5.237   4.484   1.800  0.6841  2.3306  1.7361
  840TIP3    H2 2527   5.211   4.490   1.949 -2.2436  0.1572  1.3994
  841TIP3   OH2 2528   0.861   3.295   1.997  0.0922 -0.2097  0.0225
  841TIP3    H1 2529   0.820   3.356   2.058 -0.5912 -1.6128  1.0326
  841TIP3    H2 2530   0.815   3.212   2.012 -0.4542 -0.5153 -2.7572
  842TIP3   OH2 2531   4.623   2.829   3.550 -0.4629 -0.0463 -0.1913
  842TIP3    H1 2532   4.686   2.760   3.569 -0.3591  0.0333 -0.2466
  842TIP3    H2 2533   4.646   2.900   3.609 -0.9839 -0.3061  0.3362
  843TIP3   OH2 2534   2.054   3.255   1.920 -0.1399  0.1034  0.2266
  843TIP3    H1 2535   1.981   3.217   1.969  0.1780  0.5473  1.0741
  843TIP3    H2 2536   2.132   3.216   1.958  0.0899 -0.0032 -0.3463
  844TIP3   OH2 2537   3.767  -0.006   4.797  0.1313 -0.0539  0.3327
  844TIP3    H1 2538   3.717   0.027   4.872 -0.6085  0.8399 -0.5180
  844TIP3    H2 2539   3.858   0.015   4.819  0.0042 -0.3997  1.2631
  845TIP3   OH2 2540   5.740   1.318   4.197  0.1639  0.2857 -0.1396
  845TIP3    H1 2541   5.700   1.403   4.178 -0.4854  0.0437  0.1325
  845TIP3    H2 2542   5.691   1.284   4.272  1.6266  0.4910  0.9507
  846TIP3   OH2 2543   2.949   4.444   4.971  0.3740  0.1114  0.1572
  846TIP3    H1 2544   2.897   4.385   5.025  0.7147 -0.0522  0.3090
  846TIP3    H2 2545   3.030   4.458   5.021 -0.5651  2.4557  1.1978
  847TIP3   OH2 2546   0.934   5.447   1.955 -0.2261  0.1382  0.4638
  847TIP3    H1 2547   0.902   5.411   2.037 -1.1098 -1.5250 -0.5657
  847TIP3    H2 2548   0.855   5.470   1.906  0.1288 -2.0688 -1.2630
  848TIP3   OH2 2549   5.279   1.608   0.916 -0.9570 -0.1453 -0.8602
  848TIP3    H1 2550   5.368   1.590   0.946 -1.5360 -2.4620 -0.3744
  848TIP3    H2 2551   5.225   1.596   0.994 -1.6545  2.3624 -0.8648
  849TIP3   OH2 2552   6.046   1.301   2.067  0.1984 -0.1146 -0.3682
  849TIP3    H1 2553   6.002   1.302   1.981 -0.0836 -0.5761 -0.2357
  849TIP3    H2 2554   6.133   1.267   2.049  1.1919  2.4950 -0.9291
  850TIP3   OH2 2555   4.922   3.961   2.257  0.8431 -0.6592  0.4979
  850TIP3    H1 2556   4.868   4.007   2.193  1.3699  0.5130  0.8722
  850TIP3    H2 2557   5.012   3.975   2.227  1.0112 -1.4625  0.6144
  851TIP3   OH2 2558   1.760   1.297   2.537 -0.1542  0.3786 -0.4449
  851TIP3    H1 2559   1.668   1.316   2.554  0.1042  1.7873 -0.5494
  851TIP3    H2 2560   1.785   1.237   2.608 -1.4648 -1.0948 -1.1620
  852TIP3   OH2 2561   1.494   3.758   3.740  0.2048  0.8686 -0.2512
  852TIP3    H1 2562   1.398   3.757   3.735 -0.0388  1.7937  2.4672
  852TIP3    H2 2563   1.518   3.665   3.744 -0.7028  0.6362  0.2260
  853TIP3   OH2 2564   5.458   5.174   4.290 -0.4359 -0.3549  0.5915
  853TIP3    H1 2565   5.386   5.202   4.346  0.1011  0.0358  1.1042
  853TIP3    H2 2566   5.416   5.124   4.220 -1.2579  0.3905  0.5308
  854TIP3   OH2 2567   1.021   2.830   4.352 -0.5671  0.4831 -0.0936
  854TIP3    H1 2568   1.003   2.767   4.282  3.2656 -0.9291 -0.0131
  854TIP3    H2 2569   1.034   2.776   4.430  2.8977  1.1868 -0.0407
  855TIP3   OH2 2570   5.490   2.436   2.674  0.6434  0.3127 -0.1069
  855TIP3    H1 2571   5.405   2.398   2.652  1.3928 -0.5052 -1.8108
  855TIP3    H2 2572   5.495   2.433   2.769 -2.0243  2.1615  0.1992
  856TIP3   OH2 2573   1.919   4.292   0.601 -0.4869  0.1890 -0.3234
  856TIP3    H1 2574   1.945   4.280   0.692 -1.1266  1.1924  0.0028
  856TIP3    H2 2575   1.972   4.229   0.552 -0.7990 -1.0046  0.8381
  857TIP3   OH2 2576   5.897   1.456   0.379  0.3886 -0.3486  0.2142
  857TIP3    H1 2577   5.834   1.429   0.313  0.4749 -0.7702  0.3026
  857TIP3    H2 2578   5.977   1.409   0.357  0.6596  0.1406  0.1341
  858TIP3   OH2 2579   1.437   5.772   4.752 -0.4416  0.2378 -0.2643
  858TIP3    H1 2580   1.367   5.782   4.687  0.1651  0.5993 -0.8898
  858TIP3    H2 2581   1.395   5.732   4.828 -1.3170  0.4404 -0.6315
  859TIP3   OH2 2582   5.985   3.542   0.987  0.2460  0.3896  0.2538
  859TIP3    H1 2583   6.003   3.476   0.920 -1.6291 -0.8439  0.8762
  859TIP3    H2 2584   6.051   3.527   1.055  0.5216 -0.0953 -0.1188
  860TIP3   OH2 2585   2.515   0.171   0.237  0.2122  0.7546  0.2854
  860TIP3    H1 2586   2.480   0.098   0.185 -0.8366  0.4887  1.3321
  860TIP3    H2 2587   2.589   0.134   0.284 -0.8454  0.1080  1.4810
  861TIP3   OH2 2588   2.030   4.297   1.787  0.1495  0.9759 -1.2009
  861TIP3    H1 2589   2.074   4.373   1.825  0.1894  0.1074  0.5797
  861TIP3    H2 2590   2.056   4.298   1.695  4.0732  0.4276 -0.2593
  862TIP3   OH2 2591   6.321   5.267   0.965  0.1715  0.7070 -0.1611
  862TIP3    H1 2592   6.318   5.193   0.905  0.6338  0.3825  0.2034
  862TIP3    H2 2593   6.399   5.316   0.938 -0.3914  1.3222 -0.6966
  863TIP3   OH2 2594   5.441   4.459   1.746 -0.3949  0.2146  0.0219
  863TIP3    H1 2595   5.512   4.433   1.804  0.2153  1.5695 -0.0924
  863TIP3    H2 2596   5.452   4.403   1.668 -0.5036 -0.7703  0.6951
  864TIP3   OH2 2597   2.665   3.345   2.990 -0.8373  0.1410  0.4181
  864TIP3    H1 2598   2.682   3.323   3.082  2.9261 -0.3243 -0.2324
  864TIP3    H2 2599   2.597   3.284   2.964 -0.0698 -1.6352  2.2328
  865TIP3   OH2 2600   1.466   3.519   1.800 -0.4561  0.0376 -0.0942
  865TIP3    H1 2601   1.483   3.437   1.752 -0.1976 -1.3458  2.2176
  865TIP3    H2 2602   1.372   3.519   1.815 -0.6860  0.9663 -1.3679
  866TIP3   OH2 2603   5.413   0.602   2.249  0.2142  0.1754  0.0601
  866TIP3    H1 2604   5.418   0.566   2.161 -1.3753 -0.9426  0.3947
  866TIP3    H2 2605   5.458   0.687   2.242  0.5730 -0.1134 -1.6788
  867TIP3   OH2 2606   3.054   4.075   1.511  0.1556  0.1097 -0.3436
  867TIP3    H1 2607   3.006   4.033   1.583 -1.8501  2.7903  0.0208
  867TIP3    H2 2608   2.993   4.074   1.438 -0.6381  3.5754  0.1167
  868TIP3   OH2 2609   4.174   4.995   3.808 -1.0095  0.3284  0.3136
  868TIP3    H1 2610   4.148   4.963   3.721 -1.1724 -0.0174  0.4886
  868TIP3    H2 2611   4.117   4.949   3.869 -0.6526  0.3054  0.6352
  869TIP3   OH2 2612   6.103   1.708   4.562 -0.4247  0.3280  0.1909
  869TIP3    H1 2613   6.042   1.691   4.490  0.5292  0.6684 -0.7261
  869TIP3    H2 2614   6.125   1.801   4.553  0.1393  0.2366  0.5640
  870TIP3   OH2 2615   1.053   0.472   3.174 -0.1421  0.3038  0.3497
  870TIP3    H1 2616   0.985   0.429   3.123  1.0038  0.2012 -1.1515
  870TIP3    H2 2617   1.080   0.547   3.121 -0.6762  1.7522  1.9855
  871TIP3   OH2 2618   2.491   2.950   2.965  0.2273  0.4889 -0.4290
  871TIP3    H1 2619   2.481   2.908   2.880 -1.2932  2.2906 -1.2222
  871TIP3    H2 2620   2.579   2.925   2.995  0.4493 -0.8799 -2.1143
  872TIP3   OH2 2621   4.585   4.663   4.338  0.0369 -0.1002  0.0719
  872TIP3    H1 2622   4.647   4.630   4.404  1.5841  0.3651 -1.0844
  872TIP3    H2 2623   4.618   4.628   4.255 -2.0583 -0.9401 -0.4653
  873TIP3   OH2 2624   1.646   4.641   0.391 -0.5379 -0.0630  0.0154
  873TIP3    H1 2625   1.666   4.616   0.481 -1.0604  0.5764  0.3220
  873TIP3    H2 2626   1.725   4.620   0.342  0.1302  0.5032  0.8122
  874TIP3   OH2 2627   4.541   4.240   0.187  0.1577 -0.1534  0.3428
  874TIP3    H1 2628   4.604   4.310   0.170  1.6489 -1.5463 -0.1536
  874TIP3    H2 2629   4.483   4.240   0.110  1.4174 -0.7378 -0.6378
  875TIP3   OH2 2630   4.229   0.103   3.666  0.3406  0.2914  0.3041
  875TIP3    H1 2631   4.182   0.019   3.664 -1.2689  1.1348  1.1546
  875TIP3    H2 2632   4.188   0.151   3.738  0.8469  2.0365 -0.5397
  876TIP3   OH2 2633   3.080   0.572   4.106 -0.1201 -0.3355  1.0535
  876TIP3    H1 2634   3.052   0.526   4.027 -0.4095  1.8925 -0.2334
  876TIP3    H2 2635   3.005   0.628   4.130  0.8193  0.8133  1.4489
  877TIP3   OH2 2636   1.125   5.678   2.010 -0.6779 -0.4574  0.1045
  877TIP3    H1 2637   1.088   5.755   1.968 -0.1621  0.4118  1.2172
  877TIP3    H2 2638   1.067   5.606   1.984 -0.4179  0.0430 -2.0204
  878TIP3   OH2 2639   1.128   0.504   4.056 -0.2164 -0.3412 -0.1151
  878TIP3    H1 2640   1.112   0.427   4.111  1.0273 -0.9246 -0.5331
  878TIP3    H2 2641   1.097   0.478   3.969 -0.2840 -0.1748 -0.1403
  879TIP3   OH2 2642   0.376   4.159   4.424  0.1523 -0.5104 -0.1055
  879TIP3    H1 2643   0.328   4.224   4.372  1.6109  0.0136 -0.8663
  879TIP3    H2 2644   0.445   4.128   4.364  0.2618 -1.8244  0.6750
  880TIP3   OH2 2645   5.314   5.613   4.162  0.1706  0.3356 -0.3012
  880TIP3    H1 2646   5.322   5.549   4.092  2.3834  0.5579 -0.3218
  880TIP3    H2 2647   5.268   5.567   4.232  0.9515 -1.0129 -0.6355
  881TIP3   OH2 2648   0.992   1.275   4.237  0.3511 -0.2431 -0.3324
  881TIP3    H1 2649   1.035   1.359   4.254 -1.2455  0.7235 -0.8369
  881TIP3    H2 2650   1.061   1.219   4.202  2.1874 -0.1642  2.7955
  882TIP3   OH2 2651   2.782   3.749   4.985 -0.0853 -0.1663 -0.2641
  882TIP3    H1 2652   2.732   3.672   5.012  0.9314 -0.6623  0.2314
  882TIP3    H2 2653   2.715   3.813   4.958 -0.9212 -1.6230 -1.8427
  883TIP3   OH2 2654   0.284   3.828   5.190  0.3802 -0.4134  0.2992
  883TIP3    H1 2655   0.364   3.778   5.174 -0.2601 -1.1444 -0.7100
  883TIP3    H2 2656   0.243   3.837   5.104 -0.7167 -0.1969  0.8250
  884TIP3   OH2 2657   5.532   5.120   3.245 -0.4904  0.1065  0.0006
  884TIP3    H1 2658   5.575   5.166   3.317  0.3990 -2.5364  1.3036
  884TIP3    H2 2659   5.600   5.062   3.211 -2.1960 -2.1337  0.2292
  885TIP3   OH2 2660   1.441   0.103   2.425  0.1993  0.0901  0.5893
  885TIP3    H1 2661   1.474   0.189   2.449  1.3453  0.3492 -1.6475
  885TIP3    H2 2662   1.348   0.118   2.405 -0.3364  0.1873  2.9023
  886TIP3   OH2 2663   4.862   0.690   0.380  0.0141 -0.1146  0.1989
  886TIP3    H1 2664   4.829   0.626   0.443 -1.0249  0.7817  0.6019
  886TIP3    H2 2665   4.819   0.668   0.298  1.4193 -1.3246 -0.2630
  887TIP3   OH2 2666   3.822   5.156   0.905 -0.5039 -0.1538  0.1963
  887TIP3    H1 2667   3.774   5.095   0.962 -0.6919  0.9079  1.2191
  887TIP3    H2 2668   3.910   5.158   0.942 -0.0160 -1.1040 -0.8855
  888TIP3   OH2 2669   3.925   2.426   2.486  0.3056 -0.2357  0.6693
  888TIP3    H1 2670   3.924   2.390   2.397  0.4646 -1.5858  1.1883
  888TIP3    H2 2671   3.837   2.459   2.499  0.0995 -0.5913  0.2210
  889TIP3   OH2 2672   3.657   1.489   2.743 -0.7783  0.1890  0.3080
  889TIP3    H1 2673   3.628   1.484   2.652 -0.7589  1.2559  0.2354
  889TIP3    H2 2674   3.703   1.406   2.758 -0.5493  0.1168 -0.7391
  890TIP3   OH2 2675   3.866   1.234   1.724  0.2470 -0.1860  0.7072
  890TIP3    H1 2676   3.846   1.255   1.633  1.8277 -1.1839  0.0889
  890TIP3    H2 2677   3.799   1.169   1.748  0.0206 -0.1705  0.1496
  891TIP3   OH2 2678   3.210   2.859   2.811 -0.2396 -0.1684 -0.5531
  891TIP3    H1 2679   3.249   2.851   2.724  0.7449  3.3888 -0.5899
  891TIP3    H2 2680   3.131   2.912   2.797  0.7973  1.8414  0.8338
  892TIP3   OH2 2681   5.780   5.643   4.916  0.3223 -0.3151 -0.5877
  892TIP3    H1 2682   5.692   5.622   4.948  0.8578 -1.3480  0.2599
  892TIP3    H2 2683   5.820   5.558   4.898  0.4046  0.1697 -3.1020
  893TIP3   OH2 2684   6.239   0.256   2.908 -0.1759 -0.1066 -0.2291
  893TIP3    H1 2685   6.230   0.323   2.975 -2.7725 -1.1447  0.5862
  893TIP3    H2 2686   6.208   0.175   2.950 -0.5813 -1.0713 -2.2337
  894TIP3   OH2 2687   1.634   2.048   4.825 -0.0438  0.2808  0.0103
  894TIP3    H1 2688   1.717   2.010   4.852  0.6206  2.0033  0.5250
  894TIP3    H2 2689   1.611   2.001   4.745  1.0682 -0.6994  0.2431
  895TIP3   OH2 2690   0.592   5.136   4.349  0.3456 -0.1618  0.1090
  895TIP3    H1 2691   0.675   5.183   4.343  1.4151 -1.9475 -0.0507
  895TIP3    H2 2692   0.581   5.097   4.262 -0.2039 -0.6643  0.4012
  896TIP3   OH2 2693   6.209   5.032   0.697 -0.0028  0.0026  0.3839
  896TIP3    H1 2694   6.199   4.992   0.784 -0.8132  1.0192  0.7894
  896TIP3    H2 2695   6.296   5.071   0.698  0.4799 -1.0369  0.2725
  897TIP3   OH2 2696   3.274   2.433   2.743 -0.3940  0.8226 -0.0061
  897TIP3    H1 2697   3.197   2.451   2.689  0.1175  0.9460 -0.7152
  897TIP3    H2 2698   3.259   2.480   2.824 -1.7312 -0.3362  0.4537
  898TIP3   OH2 2699   4.818   1.870   5.096  0.2965  0.0957 -0.6148
  898TIP3    H1 2700   4.816   1.966   5.101  0.2541  0.0574  0.1522
  898TIP3    H2 2701   4.761   1.841   5.167  1.2286 -0.5118 -0.0884
  899TIP3   OH2 2702   6.102   5.861   3.119 -0.3971  0.3340 -0.3616
  899TIP3    H1 2703   6.165   5.825   3.056  1.1799 -0.1152  1.4041
  899TIP3    H2 2704   6.019   5.861   3.071  0.4419 -1.3138 -1.9677
  900TIP3   OH2 2705   1.426   3.587   2.291  0.3142 -0.2901  0.6462
  900TIP3    H1 2706   1.477   3.660   2.327  0.2563 -0.3388  0.8290
  900TIP3    H2 2707   1.342   3.626   2.267  0.5811 -0.1257 -0.0359
  901TIP3   OH2 2708   2.933   1.327   2.964  0.8553  0.3548  0.5179
  901TIP3    H1 2709   2.952   1.361   3.051 -1.7432  3.6819  0.0111
  901TIP3    H2 2710   2.849   1.367   2.941  1.4467 -0.3177 -3.5384
  902TIP3   OH2 2711   3.012   1.753   1.120  0.2162 -0.1379  0.1939
  902TIP3    H1 2712   2.967   1.679   1.161  0.0874  0.3790  1.0190
  902TIP3    H2 2713   2.987   1.750   1.028 -1.9577  0.4449  0.7124
  903TIP3   OH2 2714   1.970   4.005   3.446 -0.7666 -0.2095 -0.2858
  903TIP3    H1 2715   1.947   4.093   3.416 -1.7457 -0.3957 -0.0931
  903TIP3    H2 2716   2.060   3.992   3.414 -0.2117  1.2542  0.5944
  904TIP3   OH2 2717   2.462   0.820   4.507 -0.5814  0.0978 -0.2138
  904TIP3    H1 2718   2.502   0.887   4.562  1.2307 -0.6500 -0.5524
  904TIP3    H2 2719   2.450   0.862   4.422  1.5234 -0.2490 -0.7314
  905TIP3   OH2 2720   3.068   2.564   2.610 -0.4031 -0.2370 -0.2177
  905TIP3    H1 2721   3.005   2.632   2.630  0.0694  0.4883 -1.0914
  905TIP3    H2 2722   3.073   2.563   2.514  1.0909 -0.0794 -0.1709
  906TIP3   OH2 2723   3.961   5.555   4.081 -0.3815 -0.2896  0.6197
  906TIP3    H1 2724   3.901   5.510   4.141  0.7219 -1.6914  0.7250
  906TIP3    H2 2725   4.041   5.568   4.133  0.1368 -0.3494 -0.1452
  907TIP3   OH2 2726   2.039   1.654   3.201 -0.5530 -0.3873  0.5790
  907TIP3    H1 2727   1.984   1.716   3.153  0.4626  0.1636  0.0841
  907TIP3    H2 2728   2.128   1.684   3.185 -0.0434 -1.8201  0.5700
  908TIP3   OH2 2729   4.979   5.424   3.930  0.2560  0.0681  0.6417
  908TIP3    H1 2730   5.060   5.393   3.972  1.4485  1.5716 -0.3912
  908TIP3    H2 2731   4.910   5.400   3.991  1.6429 -0.0124  2.2813
  909TIP3   OH2 2732   0.796   5.211   0.993  0.8395 -0.3276  0.2522
  909TIP3    H1 2733   0.857   5.211   0.919  0.6521 -0.7828  0.0972
  909TIP3    H2 2734   0.710   5.193   0.954  0.5012  0.8800  0.3911
  910TIP3   OH2 2735   4.527   2.486   0.276  0.1926 -0.0121  0.0388
  910TIP3    H1 2736   4.528   2.578   0.301  0.0184 -0.3947  1.5706
  910TIP3    H2 2737   4.618   2.459   0.277  0.6736  0.9046 -3.7330
  911TIP3   OH2 2738   2.548   5.761   1.030 -0.1367  0.0898 -0.3706
  911TIP3    H1 2739   2.530   5.815   1.107  3.1285  2.5405 -1.0850
  911TIP3    H2 2740   2.586   5.681   1.065 -2.0129 -0.4148  0.6161
  912TIP3   OH2 2741   4.737   5.700   3.978  0.5001  0.0620  0.2838
  912TIP3    H1 2742   4.828   5.728   3.990  0.3027  0.1333  1.8198
  912TIP3    H2 2743   4.686   5.759   4.033 -0.6275  0.7568 -1.4556
  913TIP3   OH2 2744   1.637   2.451   4.614 -0.1662  0.1911 -0.0551
  913TIP3    H1 2745   1.581   2.467   4.537 -0.8480  1.8500  0.7562
  913TIP3    H2 2746   1.627   2.529   4.668  0.2544 -0.9736  1.7742
  914TIP3   OH2 2747   1.386   4.986   4.756  0.3168 -0.2391  0.0486
  914TIP3    H1 2748   1.458   4.946   4.805  0.8889  0.6404 -0.0466
  914TIP3    H2 2749   1.402   5.080   4.763 -0.9445 -0.0186  0.1899
  915TIP3   OH2 2750   1.268   1.707   0.344 -0.2027 -0.7098 -0.1920
  915TIP3    H1 2751   1.216   1.710   0.425  1.0734 -1.6336  0.7079
  915TIP3    H2 2752   1.212   1.659   0.283 -1.1333 -0.1290  0.1700
  916TIP3   OH2 2753   0.245   1.874   2.436 -0.0870  0.3135 -0.0998
  916TIP3    H1 2754   0.223   1.787   2.471  1.2235 -0.9480 -2.1797
  916TIP3    H2 2755   0.161   1.920   2.434 -0.8336 -0.9198  0.9857
  917TIP3   OH2 2756   0.140   3.671   4.981 -0.0215 -0.4620  0.0243
  917TIP3    H1 2757   0.060   3.705   4.941  1.1582  0.8157 -1.2904
  917TIP3    H2 2758   0.211   3.697   4.923  1.4179 -1.3651  1.2807
  918TIP3   OH2 2759   6.235   3.888   5.133 -0.1990 -0.3367  0.1744
  918TIP3    H1 2760   6.252   3.862   5.043 -1.4750 -1.2412  0.1636
  918TIP3    H2 2761   6.205   3.979   5.127 -1.7529 -0.8586 -0.5122
  919TIP3   OH2 2762   4.024   1.637   1.341 -0.4292 -0.8031 -0.0037
  919TIP3    H1 2763   4.069   1.657   1.423 -0.6955 -0.1191 -0.0244
  919TIP3    H2 2764   4.026   1.541   1.337  1.1329 -0.7980 -0.0774
  920TIP3   OH2 2765   0.833   1.033   4.105  0.3785 -0.4298 -0.7839
  920TIP3    H1 2766   0.926   1.015   4.090  0.5043 -0.9030  0.4270
  920TIP3    H2 2767   0.789   0.951   4.082  0.3693 -0.5244 -0.4330
  921TIP3   OH2 2768   2.625   5.568   3.052 -0.3668 -1.2172 -0.3784
  921TIP3    H1 2769   2.682   5.556   2.976  0.9424 -0.3253  0.4121
  921TIP3    H2 2770   2.645   5.657   3.083 -0.4971 -1.7392  1.2963
  922TIP3   OH2 2771   1.148   1.769   2.158 -0.2428  0.0941  0.3154
  922TIP3    H1 2772   1.130   1.772   2.064 -0.6494  1.0938  0.4063
  922TIP3    H2 2773   1.083   1.709   2.193 -1.2212  1.0277  0.1654
  923TIP3   OH2 2774   3.495   1.429   0.556 -0.1320 -0.1564 -0.8741
  923TIP3    H1 2775   3.538   1.498   0.607 -0.7475  1.3220 -2.2934
  923TIP3    H2 2776   3.554   1.413   0.482 -0.4406 -0.5094 -1.0457
  924TIP3   OH2 2777   4.981   2.429   0.573 -0.0097  0.6691 -0.8995
  924TIP3    H1 2778   4.992   2.371   0.648  0.3299  0.9059 -0.7631
  924TIP3    H2 2779   5.068   2.467   0.559 -0.3764  1.6644 -0.5602
  925TIP3   OH2 2780   1.865   3.622   2.924 -0.5662  0.6578 -0.5331
  925TIP3    H1 2781   1.884   3.557   2.856 -0.3462  2.4695 -2.2868
  925TIP3    H2 2782   1.912   3.700   2.896 -0.2969  1.4179  1.8537
  926TIP3   OH2 2783   0.732   2.049   0.876  0.4714 -0.5426  0.4505
  926TIP3    H1 2784   0.717   2.089   0.790  0.1948 -0.1872  0.6586
  926TIP3    H2 2785   0.647   2.013   0.900  0.7837 -1.5240  0.1401
  927TIP3   OH2 2786   5.100   0.890   3.568  0.2265  0.1831  0.5115
  927TIP3    H1 2787   5.035   0.934   3.514 -0.0434 -0.4972  0.2721
  927TIP3    H2 2788   5.061   0.888   3.655  0.1262  0.1880  0.4668
  928TIP3   OH2 2789   0.293   5.256   2.350  0.0878 -0.0082 -0.0691
  928TIP3    H1 2790   0.241   5.207   2.287 -0.4512  0.5891 -0.0999
  928TIP3    H2 2791   0.384   5.237   2.327 -0.1112 -0.6326 -0.3537
  929TIP3   OH2 2792   5.102   3.247   2.673  0.0844  0.0032  0.7254
  929TIP3    H1 2793   5.104   3.269   2.580  2.1985  0.1655  0.7659
  929TIP3    H2 2794   5.056   3.163   2.677 -0.8386  0.4362 -0.3485
  930TIP3   OH2 2795   5.508   3.446   3.816  0.2621 -0.4262  0.0807
  930TIP3    H1 2796   5.602   3.450   3.796  0.4261 -0.4679  0.8387
  930TIP3    H2 2797   5.487   3.353   3.814 -0.0585 -0.3496 -1.3900
  931TIP3   OH2 2798   4.809   3.173   2.371 -0.2136 -0.4444  0.0994
  931TIP3    H1 2799   4.840   3.221   2.448 -1.9529 -1.2368  1.3384
  931TIP3    H2 2800   4.836   3.083   2.386  1.2021 -0.2902 -1.2329
  932TIP3   OH2 2801   3.932   0.916   1.989  0.2418  0.1921  0.3475
  932TIP3    H1 2802   3.980   0.988   2.030 -0.4087  0.5453  0.5065
  932TIP3    H2 2803   3.914   0.855   2.061 -0.1815  0.4160  0.4363
  933TIP3   OH2 2804   0.087   5.747   3.774  0.0944 -0.2394  0.1085
  933TIP3    H1 2805   0.177   5.778   3.762  0.6666 -1.1085  1.7946
  933TIP3    H2 2806   0.096   5.667   3.826 -1.7810  1.2517  3.0092
  934TIP3   OH2 2807   4.724   2.131   5.151 -0.4834  0.2521  0.1552
  934TIP3    H1 2808   4.640   2.107   5.191 -0.1188 -0.4395  0.5238
  934TIP3    H2 2809   4.748   2.214   5.191 -0.4845 -0.0677  0.8235
  935TIP3   OH2 2810   2.716   3.188   2.187 -0.4645 -0.1997 -0.0520
  935TIP3    H1 2811   2.784   3.122   2.174  0.4132  0.5232  0.7878
  935TIP3    H2 2812   2.730   3.220   2.276 -1.7732  0.1213  0.0590
  936TIP3   OH2 2813   1.307   0.344   1.358 -0.2637 -0.2206 -0.2259
  936TIP3    H1 2814   1.399   0.364   1.375  0.3563 -2.5502 -0.5961
  936TIP3    H2 2815   1.297   0.252   1.381 -1.5082 -1.2109 -4.0000
  937TIP3   OH2 2816   3.247   4.221   2.923  0.6404  0.0237 -0.8983
  937TIP3    H1 2817   3.328   4.179   2.895  1.3423  0.5554  0.2275
  937TIP3    H2 2818   3.179   4.156   2.907  1.5301 -1.1081 -0.2820
  938TIP3   OH2 2819   0.815   3.822   1.434 -0.2044 -0.0496  0.7441
  938TIP3    H1 2820   0.835   3.772   1.513 -0.6553 -0.0848  0.8405
  938TIP3    H2 2821   0.827   3.914   1.460  0.7066 -0.0977  0.5428
  939TIP3   OH2 2822   5.952   5.813   4.410 -0.3100 -0.4592  0.4214
  939TIP3    H1 2823   5.942   5.766   4.493 -0.1393 -3.1303 -0.9376
  939TIP3    H2 2824   6.046   5.818   4.396 -0.3445 -1.0555 -0.1014
  940TIP3   OH2 2825   3.743   1.147   4.510 -0.3162 -0.3315  0.2086
  940TIP3    H1 2826   3.813   1.147   4.444  0.3804  2.0649  0.8564
  940TIP3    H2 2827   3.676   1.205   4.474  0.0977  1.0577  1.5827
  941TIP3   OH2 2828   5.698   3.915   0.513  0.1650 -0.9542 -0.2477
  941TIP3    H1 2829   5.684   3.994   0.460  0.2256 -0.8472 -0.1033
  941TIP3    H2 2830   5.611   3.877   0.522 -0.0582 -0.2602  0.6910
  942TIP3   OH2 2831   4.746   1.266   0.995 -0.2453  0.4795  0.1831
  942TIP3    H1 2832   4.719   1.174   1.001 -1.3518  0.8266  1.0928
  942TIP3    H2 2833   4.728   1.291   0.905 -0.2825 -0.0976  0.0271
  943TIP3   OH2 2834   2.954   2.442   1.581  0.3891  0.2514  0.3343
  943TIP3    H1 2835   2.879   2.407   1.628  0.2789 -0.0523 -0.0635
  943TIP3    H2 2836   2.936   2.422   1.489  0.8212  0.4311  0.2091
  944TIP3   OH2 2837   0.615   0.288   4.945 -0.0950  0.0123  0.3013
  944TIP3    H1 2838   0.590   0.288   5.037 -0.6866  1.9646  0.1886
  944TIP3    H2 2839   0.675   0.362   4.936 -0.7519  0.4252 -1.0378
  945TIP3   OH2 2840   4.904   1.242   1.379 -0.7254  0.0772 -0.2621
  945TIP3    H1 2841   4.870   1.326   1.410 -1.6833 -0.5069  0.3061
  945TIP3    H2 2842   4.919   1.191   1.459 -0.8822 -0.5667 -0.6362
  946TIP3   OH2 2843   1.286   4.444   3.126 -0.6839 -0.0154 -0.3096
  946TIP3    H1 2844   1.196   4.462   3.154 -0.5193  0.0281  0.1913
  946TIP3    H2 2845   1.304   4.512   3.061 -0.4914  0.8965  0.6863
  947TIP3   OH2 2846   1.559   4.691   1.778  0.4153  0.3742  0.3188
  947TIP3    H1 2847   1.641   4.740   1.785  0.8303 -0.2618  0.0896
  947TIP3    H2 2848   1.519   4.698   1.864  1.7970 -1.1253  1.1515
  948TIP3   OH2 2849   2.665   3.344   2.667 -0.0284 -0.6594 -0.3543
  948TIP3    H1 2850   2.596   3.300   2.717 -0.3728  0.8293  0.5481
  948TIP3    H2 2851   2.642   3.329   2.576 -1.0819 -0.9098 -0.0638
  949TIP3   OH2 2852   3.236   2.063   4.422  0.1534  0.2544 -0.4215
  949TIP3    H1 2853   3.319   2.077   4.468  0.0453  1.5896 -0.5848
  949TIP3    H2 2854   3.173   2.115   4.471 -0.6110 -0.8107 -0.2600
  950TIP3   OH2 2855   1.944   5.821   4.077 -0.7475  0.2164 -0.3330
  950TIP3    H1 2856   1.935   5.910   4.044 -0.7421  0.5645  0.5651
  950TIP3    H2 2857   2.003   5.829   4.152 -0.6780 -0.5547 -0.2945
  951TIP3   OH2 2858   6.383   1.393   4.785  0.0118 -0.0099  0.4330
  951TIP3    H1 2859   6.296   1.432   4.790 -0.2690 -0.4972 -0.4217
  951TIP3    H2 2860   6.366   1.298   4.782  0.5522 -0.0967 -0.0062
  952TIP3   OH2 2861   3.135   2.029   0.771 -0.0970 -0.0479 -0.1183
  952TIP3    H1 2862   3.089   2.106   0.737 -0.0738 -0.0723 -0.2066
  952TIP3    H2 2863   3.216   2.026   0.721  0.5103  0.6330  0.8017
  953TIP3   OH2 2864   1.835   0.173   1.882 -0.2881  0.2543  0.3055
  953TIP3    H1 2865   1.880   0.192   1.800  1.2283 -1.2724  0.7124
  953TIP3    H2 2866   1.745   0.157   1.858  0.2868 -0.9112 -1.1846
  954TIP3   OH2 2867   0.167   5.122   4.656  0.1039  0.3573  0.1708
  954TIP3    H1 2868   0.229   5.081   4.596  0.5420 -0.5963  1.2405
  954TIP3    H2 2869   0.216   5.192   4.699 -0.5868  1.9542 -1.5056
  955TIP3   OH2 2870   3.934   4.325   1.716  0.1889  0.1959  0.0803
  955TIP3    H1 2871   3.858   4.340   1.661 -0.0019  0.3024  0.3745
  955TIP3    H2 2872   3.926   4.233   1.743 -0.0721  0.3326  0.4729
  956TIP3   OH2 2873   6.247   2.798   3.520 -0.6024 -0.4395  0.0810
  956TIP3    H1 2874   6.243   2.796   3.616  0.0151  2.2813  0.2469
  956TIP3    H2 2875   6.167   2.842   3.493  0.2900  0.9113 -0.4637
  957TIP3   OH2 2876   5.645   2.713   4.181 -0.1337  0.1243 -0.3796
  957TIP3    H1 2877   5.726   2.666   4.201 -0.1253  0.6286  0.8723
  957TIP3    H2 2878   5.591   2.649   4.136  0.3056 -0.7441  0.2958
  958TIP3   OH2 2879   4.114   3.321   2.171 -0.0571 -0.1744 -0.0489
  958TIP3    H1 2880   4.065   3.295   2.093 -1.1826 -2.5514  1.3409
  958TIP3    H2 2881   4.193   3.268   2.169  0.5165  0.6571 -0.1640
  959TIP3   OH2 2882   0.998   5.744   0.409  0.1864 -0.4558 -0.0129
  959TIP3    H1 2883   0.996   5.672   0.472  0.3851  0.8074  1.5019
  959TIP3    H2 2884   1.091   5.756   0.390  0.1225 -0.8780 -0.6312
  960TIP3   OH2 2885   1.425   3.086   4.582  0.3406 -0.1940  0.3046
  960TIP3    H1 2886   1.420   3.081   4.678 -0.1094  0.4907  0.3268
  960TIP3    H2 2887   1.392   3.173   4.561  0.8562 -0.1725 -0.4496
  961TIP3   OH2 2888   5.694   0.859   4.446 -0.8856  0.5266  0.3751
  961TIP3    H1 2889   5.631   0.863   4.374 -1.0341  1.8122  0.5523
  961TIP3    H2 2890   5.639   0.860   4.525 -0.7232 -0.8469  0.5355
  962TIP3   OH2 2891   3.446   3.343   4.427  0.0786 -0.1162 -0.3917
  962TIP3    H1 2892   3.355   3.323   4.406  0.2752 -1.6443  0.1049
  962TIP3    H2 2893   3.444   3.371   4.519  0.2803 -1.5896  0.0779
  963TIP3   OH2 2894   6.010   3.514   4.372 -0.0214 -0.0041  0.4026
  963TIP3    H1 2895   6.022   3.608   4.386 -0.1589 -0.2450  2.5624
  963TIP3    H2 2896   6.098   3.479   4.360 -0.0367  0.4971 -1.3358
  964TIP3   OH2 2897   2.806   2.040   4.729  0.0575  0.2839 -0.3376
  964TIP3    H1 2898   2.728   2.053   4.783  0.5193 -0.1213  0.4407
  964TIP3    H2 2899   2.778   1.981   4.659 -0.3615  0.2137 -0.1102
  965TIP3   OH2 2900   3.016   5.649   5.062  0.5626 -0.4050  0.0843
  965TIP3    H1 2901   2.922   5.630   5.071  0.4673  0.6989  2.0359
  965TIP3    H2 2902   3.027   5.672   4.970 -1.1691 -0.1498 -0.1000
  966TIP3   OH2 2903   0.752   0.618   3.038  0.0054  0.0850  0.1895
  966TIP3    H1 2904   0.759   0.523   3.024  2.2600  0.2349 -0.0396
  966TIP3    H2 2905   0.773   0.631   3.130 -1.6558  0.2737  0.5651
  967TIP3   OH2 2906   1.258   2.577   0.583 -0.0948 -0.7273  0.0640
  967TIP3    H1 2907   1.228   2.641   0.647  0.2575 -0.8149  0.3191
  967TIP3    H2 2908   1.227   2.610   0.499  0.3505 -0.0617  0.1546
  968TIP3   OH2 2909   6.147   5.050   4.875 -0.2199  0.6433 -0.0803
  968TIP3    H1 2910   6.156   5.093   4.959  0.5333  1.4782 -0.5785
  968TIP3    H2 2911   6.229   5.003   4.862 -0.5793 -0.0096 -0.0740
  969TIP3   OH2 2912   5.116   0.063   0.072  0.0450  0.2423 -0.2809
  969TIP3    H1 2913   5.147   0.081   0.161 -0.9377 -1.3097  0.4114
  969TIP3    H2 2914   5.147   0.138   0.021 -0.5826  1.9093  1.6262
  970TIP3   OH2 2915   4.518   3.879   2.311  0.2009 -0.2222 -0.2227
  970TIP3    H1 2916   4.459   3.930   2.256 -0.5351  0.9761  1.5575
  970TIP3    H2 2917   4.468   3.799   2.331  0.1304 -0.2777 -0.6250
  971TIP3   OH2 2918   2.532   5.879   4.915 -0.0102  0.1676 -0.4657
  971TIP3    H1 2919   2.542   5.819   4.841  0.0981 -0.5530  0.1349
  971TIP3    H2 2920   2.578   5.958   4.887 -0.8999  0.3112 -1.6149
  972TIP3   OH2 2921   3.375   4.796   2.527 -0.2405  0.2366  0.3255
  972TIP3    H1 2922   3.368   4.707   2.493  1.2685 -1.1460  3.2891
  972TIP3    H2 2923   3.456   4.831   2.490 -0.1978 -0.0879  0.1174
  973TIP3   OH2 2924   4.565   0.842   1.367 -0.2349 -0.2291  0.0968
  973TIP3    H1 2925   4.550   0.824   1.460  1.2004 -1.2070  0.1604
  973TIP3    H2 2926   4.636   0.783   1.341  0.2885  0.9388 -1.3051
  974TIP3   OH2 2927   4.144   0.164   2.164 -0.0024  0.2183  0.3447
  974TIP3    H1 2928   4.196   0.243   2.152 -0.2503  0.7148  2.1686
  974TIP3    H2 2929   4.093   0.181   2.244 -0.0625 -1.7760  0.7927
  975TIP3   OH2 2930   3.035   4.647   1.705 -0.4127 -0.3511 -0.2465
  975TIP3    H1 2931   2.975   4.572   1.695 -1.9505  0.8380 -0.4104
  975TIP3    H2 2932   3.019   4.678   1.794 -0.0135 -0.0424 -0.2837
  976TIP3   OH2 2933   0.038   4.852   4.647  0.1283  0.4496 -0.1780
  976TIP3    H1 2934  -0.007   4.774   4.680 -1.1053  0.7338 -1.1247
  976TIP3    H2 2935   0.124   4.820   4.619  1.0734  0.1111  2.7935
  977TIP3   OH2 2936   0.686   3.798   3.656 -0.8017  0.0866 -0.4364
  977TIP3    H1 2937   0.775   3.820   3.686 -1.3317  1.0148  0.4983
  977TIP3    H2 2938   0.692   3.706   3.632  0.1295 -0.1988  0.7620
  978TIP3   OH2 2939   3.615   3.271   3.097  0.3017  0.1106 -0.0985
  978TIP3    H1 2940   3.584   3.180   3.106 -1.1677  0.6033  0.0834
  978TIP3    H2 2941   3.614   3.305   3.186 -0.8289  0.8085 -0.3571
  979TIP3   OH2 2942   5.806   5.088   3.747  0.5823 -0.2168 -0.3551
  979TIP3    H1 2943   5.711   5.084   3.750  0.4321  2.0881  2.7809
  979TIP3    H2 2944   5.826   5.136   3.666 -0.8370 -1.0662 -1.2468
  980TIP3   OH2 2945   4.729   0.515   2.824  0.0665 -0.2123 -0.2146
  980TIP3    H1 2946   4.736   0.553   2.736 -1.0947 -0.1201 -0.2830
  980TIP3    H2 2947   4.788   0.568   2.878 -1.3088  1.5542 -0.3677
  981TIP3   OH2 2948   2.281   3.682   2.314 -0.6656 -0.1220 -1.0164
  981TIP3    H1 2949   2.190   3.651   2.313 -0.2090 -1.6963  0.3802
  981TIP3    H2 2950   2.280   3.754   2.376 -0.4850 -2.1185  1.4784
  982TIP3   OH2 2951   3.253   5.948   4.981  0.5805  0.6789 -0.4836
  982TIP3    H1 2952   3.307   5.997   4.919 -1.1429  1.5840 -1.3160
  982TIP3    H2 2953   3.203   5.887   4.928  0.8908 -0.3161  0.3108
  983TIP3   OH2 2954   5.579   5.944   2.837  0.1723 -0.1938  0.3906
  983TIP3    H1 2955   5.552   5.971   2.925  1.0281 -0.6141  0.7946
  983TIP3    H2 2956   5.512   5.883   2.809  0.2668 -0.6205  1.0562
  984TIP3   OH2 2957   4.576   1.118   0.699  0.1277 -0.4803 -0.0388
  984TIP3    H1 2958   4.490   1.155   0.714  0.7458  0.8737  0.2959
  984TIP3    H2 2959   4.563   1.054   0.629 -1.4055 -1.4238  1.0606
  985TIP3   OH2 2960   3.194   3.699   1.722  0.3428  0.1200 -0.2193
  985TIP3    H1 2961   3.199   3.604   1.727 -1.6061 -0.0451 -0.3955
  985TIP3    H2 2962   3.150   3.725   1.803  0.1291  0.7860 -0.5392
  986TIP3   OH2 2963   5.635   5.248   3.462  0.0620 -0.0334 -0.1187
  986TIP3    H1 2964   5.627   5.343   3.471  1.8099  0.1650 -0.2779
  986TIP3    H2 2965   5.583   5.212   3.534 -0.6225  1.0396 -0.0632
  987TIP3   OH2 2966   2.101   1.980   3.888 -0.1181 -0.1012  0.2005
  987TIP3    H1 2967   2.177   2.025   3.851  0.0128 -1.1459 -0.8483
  987TIP3    H2 2968   2.027   2.013   3.838 -0.6379  2.0369  2.1850
  988TIP3   OH2 2969   4.717   3.348   1.360 -0.2553 -0.0330 -0.3089
  988TIP3    H1 2970   4.728   3.280   1.294 -0.3459 -0.0806 -0.2744
  988TIP3    H2 2971   4.782   3.415   1.336 -0.3240 -0.0256 -0.4758
  989TIP3   OH2 2972   0.423   4.203   0.123 -0.4869  0.1822  0.4025
  989TIP3    H1 2973   0.397   4.278   0.069 -1.6448 -1.0256 -0.8140
  989TIP3    H2 2974   0.518   4.207   0.126 -0.5751  2.7029  1.9167
  990TIP3   OH2 2975   3.788   1.274   3.551  0.1946 -0.5002  0.2885
  990TIP3    H1 2976   3.873   1.287   3.591  1.1887  1.2396 -2.1226
  990TIP3    H2 2977   3.725   1.300   3.619  1.6762  0.5015  1.3347
  991TIP3   OH2 2978   6.065   5.918   3.932  0.0934  0.3615  0.1369
  991TIP3    H1 2979   6.116   5.918   4.013 -0.7316 -1.8374  0.7481
  991TIP3    H2 2980   6.130   5.910   3.863  0.6903 -1.7603  0.8688
  992TIP3   OH2 2981   4.886   0.205   0.674 -0.1254 -0.5189 -0.3894
  992TIP3    H1 2982   4.928   0.184   0.757 -1.0144 -1.1284 -0.0726
  992TIP3    H2 2983   4.810   0.146   0.670 -1.5141  1.1866 -0.4874
  993TIP3   OH2 2984   0.981   4.546   2.204 -0.0231 -0.3301  0.1370
  993TIP3    H1 2985   1.033   4.498   2.269 -0.6904  0.8050  1.5713
  993TIP3    H2 2986   0.891   4.539   2.235 -0.1163  2.0384  0.5885
  994TIP3   OH2 2987   4.387   5.922   0.886  0.5209  0.0524 -0.0557
  994TIP3    H1 2988   4.302   5.964   0.873  0.3995 -0.4030 -0.7604
  994TIP3    H2 2989   4.371   5.829   0.869  0.8209 -0.2790  1.3468
  995TIP3   OH2 2990   6.287   5.786   1.866 -0.0322 -0.4244 -0.6201
  995TIP3    H1 2991   6.346   5.756   1.935  1.1291 -0.1550 -1.4807
  995TIP3    H2 2992   6.246   5.865   1.903  0.2301 -0.5363 -0.0682
  996TIP3   OH2 2993   4.608   4.271   4.114 -0.2573 -0.1023  0.2632
  996TIP3    H1 2994   4.620   4.240   4.203 -3.0334 -0.0841  0.7472
  996TIP3    H2 2995   4.557   4.203   4.071 -1.5544  1.2039 -0.3719
  997TIP3   OH2 2996   6.259   3.420   4.457  0.8809  0.1328 -0.2581
  997TIP3    H1 2997   6.338   3.471   4.475 -0.5669  2.9743 -1.4129
  997TIP3    H2 2998   6.282   3.331   4.485  3.6044  1.3176  1.7686
  998TIP3   OH2 2999   4.541   4.876   3.776  0.2933 -0.4189  0.1422
  998TIP3    H1 3000   4.472   4.866   3.711 -1.0344  1.8979  1.0786
  998TIP3    H2 3001   4.508   4.832   3.854  0.4687 -0.4621  0.1923
  999TIP3   OH2 3002   1.322   2.840   4.583 -0.3307 -0.0301 -0.1086
  999TIP3    H1 3003   1.279   2.822   4.500  2.3349 -1.8892 -1.2350
  999TIP3    H2 3004   1.368   2.923   4.569  0.4794 -0.5664 -0.6737
 1000TIP3   OH2 3005   5.749   1.103   2.368 -0.5420 -0.1337  0.0887
 1000TIP3    H1 3006   5.787   1.153   2.296 -1.1950 -0.1150 -0.2528
 1000TIP3    H2 3007   5.654   1.113   2.357 -0.6753 -1.1459  0.2239
 1001TIP3   OH2 3008   5.140   0.946   0.692  0.5063  0.1227  0.6450
 1001TIP3    H1 3009   5.124   1.009   0.763 -0.6290  0.3466  0.2229
 1001TIP3    H2 3010   5.212   0.891   0.723  3.0234  2.9109  0.1988
 1002TIP3   OH2 3011   5.851   5.563   3.192 -0.2021 -0.5741  0.1668
 1002TIP3    H1 3012   5.841   5.472   3.219 -2.8694 -0.9883 -1.8742
 1002TIP3    H2 3013   5.835   5.563   3.098 -0.3914  2.0038  0.1146
 1003TIP3   OH2 3014   3.157   2.997   3.458  0.2943 -0.4262 -0.1212
 1003TIP3    H1 3015   3.113   2.955   3.532 -0.5216 -0.9782 -0.9007
 1003TIP3    H2 3016   3.086   3.021   3.399  0.8471  0.9306 -0.2757
 1004TIP3   OH2 3017   0.603   0.311   2.021  0.5428  0.2666 -0.0858
 1004TIP3    H1 3018   0.555   0.324   1.939  2.3426 -0.9285 -1.4000
 1004TIP3    H2 3019   0.617   0.216   2.026  0.6139  0.3268  1.5507
 1005TIP3   OH2 3020   5.954   0.273   0.467 -0.3341  0.0672 -0.1723
 1005TIP3    H1 3021   5.867   0.313   0.464 -1.0828 -1.5105 -1.1073
 1005TIP3    H2 3022   5.937   0.182   0.491  0.9354 -0.5322 -1.3770
 1006TIP3   OH2 3023   3.820   0.987   4.725 -0.3226  0.3942  0.1696
 1006TIP3    H1 3024   3.803   1.072   4.684 -0.7555  0.1287 -0.2267
 1006TIP3    H2 3025   3.807   0.924   4.654 -1.5753 -0.1209  0.8316
 1007TIP3   OH2 3026   0.395   5.970   0.640 -0.6687 -0.2185 -0.1547
 1007TIP3    H1 3027   0.485   6.002   0.635 -0.1372 -1.7843 -1.2952
 1007TIP3    H2 3028   0.380   5.956   0.734  0.5799 -0.7457 -0.0090
 1008TIP3   OH2 3029   1.253   4.435   4.118  0.0282  0.0251 -0.0663
 1008TIP3    H1 3030   1.159   4.441   4.133 -0.1437 -3.7404  1.5514
 1008TIP3    H2 3031   1.261   4.404   4.028 -0.1888  1.2313 -0.5152
 1009TIP3   OH2 3032   2.386   2.173   3.918 -0.1586 -0.1028  0.1086
 1009TIP3    H1 3033   2.376   2.227   3.840  1.2235  2.2988  1.4438
 1009TIP3    H2 3034   2.467   2.124   3.904  1.2961  1.9497  0.7922
 1010TIP3   OH2 3035   5.916   3.630   3.921 -0.4712  0.2071  0.4770
 1010TIP3    H1 3036   5.986   3.629   3.856 -0.5651  0.6442  0.3699
 1010TIP3    H2 3037   5.907   3.538   3.947 -0.7823 -0.0563 -0.5056
 1011TIP3   OH2 3038   1.581   0.691   2.273 -0.4122 -0.1100 -0.1465
 1011TIP3    H1 3039   1.587   0.700   2.178  1.3165 -2.2537 -0.3140
 1011TIP3    H2 3040   1.504   0.742   2.297  0.6987  2.9194 -2.3283
 1012TIP3   OH2 3041   2.966   2.983   1.231 -0.3626  0.2583  0.1739
 1012TIP3    H1 3042   3.054   2.992   1.194 -0.0764  1.8559  1.1735
 1012TIP3    H2 3043   2.981   2.973   1.325 -1.2418  0.0747  0.3015
 1013TIP3   OH2 3044   5.854   0.647   4.292  0.0171  0.2684 -0.9023
 1013TIP3    H1 3045   5.849   0.696   4.374 -0.5280 -0.4359 -0.4987
 1013TIP3    H2 3046   5.943   0.612   4.290 -0.5916 -1.5705  0.5316
 1014TIP3   OH2 3047   6.045   3.302   2.944 -0.1199  0.3455 -0.3069
 1014TIP3    H1 3048   5.967   3.358   2.949 -0.7674 -0.4687 -0.9823
 1014TIP3    H2 3049   6.055   3.284   2.850  0.3027 -0.3495 -0.1307
 1015TIP3   OH2 3050   6.311   4.208   3.656  0.1328 -0.1390 -0.3511
 1015TIP3    H1 3051   6.367   4.132   3.670  0.0688 -0.1793 -0.3123
 1015TIP3    H2 3052   6.244   4.177   3.595 -0.7771 -0.5574  0.8286
 1016TIP3   OH2 3053   5.223   5.265   0.677  0.0109 -0.1518  0.1898
 1016TIP3    H1 3054   5.261   5.322   0.611  0.4942  1.8227  2.0630
 1016TIP3    H2 3055   5.249   5.304   0.761 -0.7001 -2.4403  1.5777
 1017TIP3   OH2 3056   2.240   4.510   1.265  0.5841 -0.2565  0.2885
 1017TIP3    H1 3057   2.171   4.573   1.244 -0.2040 -1.0422  0.4538
 1017TIP3    H2 3058   2.261   4.527   1.357 -0.2083 -0.7624  0.5710
 1018TIP3   OH2 3059   3.347   1.715   4.012  0.0102  0.2123  0.5976
 1018TIP3    H1 3060   3.313   1.647   3.955  0.2256  0.9221 -0.4173
 1018TIP3    H2 3061   3.278   1.731   4.076 -0.8766  0.4558 -0.3970
 1019TIP3   OH2 3062   1.998   0.425   5.006 -0.3305 -0.2043  0.8923
 1019TIP3    H1 3063   1.947   0.450   5.082 -1.7924  1.5464 -0.5766
 1019TIP3    H2 3064   2.036   0.507   4.975 -0.1731 -0.7931 -0.5338
 1020TIP3   OH2 3065   4.221   4.341   1.292 -0.0293  0.1139  0.1285
 1020TIP3    H1 3066   4.178   4.262   1.259 -0.0140  0.7536 -1.5084
 1020TIP3    H2 3067   4.159   4.379   1.353  0.1651 -1.4144  1.3217
 1021TIP3   OH2 3068   4.650   5.373   0.846 -0.3271 -0.3156  0.2926
 1021TIP3    H1 3069   4.743   5.392   0.848 -0.8042  2.1974  0.9574
 1021TIP3    H2 3070   4.627   5.353   0.936 -0.6541  0.2442  0.3344
 1022TIP3   OH2 3071   2.887   0.727   4.225  0.0721 -0.3043  0.1245
 1022TIP3    H1 3072   2.801   0.770   4.224 -0.4501 -1.1428  2.2509
 1022TIP3    H2 3073   2.949   0.796   4.203 -1.0958  0.4509 -0.9053
 1023TIP3   OH2 3074   1.210   3.218   4.859  0.1119  0.3425  0.3128
 1023TIP3    H1 3075   1.188   3.134   4.819 -0.7853  0.1110  1.2436
 1023TIP3    H2 3076   1.300   3.207   4.889  0.0880 -0.1940  0.2045
 1024TIP3   OH2 3077   3.009   2.591   1.810 -0.2365 -0.2799 -0.4254
 1024TIP3    H1 3078   2.914   2.590   1.809 -0.3009 -2.6378  0.3952
 1024TIP3    H2 3079   3.034   2.551   1.727  0.1249  1.6744 -1.3061
 1025TIP3   OH2 3080   1.778   5.926   5.114 -0.0710 -0.2020 -0.9986
 1025TIP3    H1 3081   1.793   5.887   5.200 -4.0626 -1.0131 -0.4808
 1025TIP3    H2 3082   1.866   5.937   5.077  1.6853 -1.8017  2.2702
 1026TIP3   OH2 3083   0.835   5.387   2.236  0.1167  0.6669 -0.5168
 1026TIP3    H1 3084   0.877   5.377   2.322  0.9524  1.3448 -0.8329
 1026TIP3    H2 3085   0.750   5.427   2.256  0.6885  1.6973 -0.0728
 1027TIP3   OH2 3086   4.321   2.225   3.375  0.6831 -0.4211  0.7586
 1027TIP3    H1 3087   4.367   2.203   3.456  0.5490  0.0840  0.9785
 1027TIP3    H2 3088   4.246   2.278   3.404  2.1978  2.2557  0.1525
 1028TIP3   OH2 3089   1.651   1.899   2.792  0.1762  0.1626  0.3081
 1028TIP3    H1 3090   1.575   1.856   2.753  0.2110  0.1061  0.3028
 1028TIP3    H2 3091   1.716   1.901   2.721  0.5207 -0.6363  0.5855
 1029TIP3   OH2 3092   5.426   4.993   2.981  0.5034 -0.4992 -0.2082
 1029TIP3    H1 3093   5.415   5.042   3.062 -0.1047 -1.5722  0.3669
 1029TIP3    H2 3094   5.350   5.018   2.927  1.1930  0.6427 -0.7110
 1030TIP3   OH2 3095   5.686   3.699   3.029 -0.2009  0.7928  0.9084
 1030TIP3    H1 3096   5.748   3.768   3.053 -0.9755  1.7903  0.1451
 1030TIP3    H2 3097   5.611   3.714   3.086 -0.9249  1.4456 -0.1841
 1031TIP3   OH2 3098   2.917   3.349   0.181  0.2243 -0.2524  0.7094
 1031TIP3    H1 3099   3.012   3.348   0.175  0.3879 -1.8694  2.5097
 1031TIP3    H2 3100   2.898   3.413   0.250  0.0498 -0.2923  0.6996
 1032TIP3   OH2 3101   2.852   1.549   4.588 -0.0370 -0.1315  0.3896
 1032TIP3    H1 3102   2.862   1.599   4.669 -0.6761 -0.3245  0.5980
 1032TIP3    H2 3103   2.926   1.576   4.534  0.3284  0.0945  0.9880
 1033TIP3   OH2 3104   3.048   1.187   2.772 -0.8307 -0.2614  0.0600
 1033TIP3    H1 3105   3.014   1.213   2.858  1.5067 -1.5881  1.4783
 1033TIP3    H2 3106   3.070   1.269   2.729  0.3248  0.3827  1.7882
 1034TIP3   OH2 3107   4.178   1.801   0.957 -0.2672  0.4891 -0.3192
 1034TIP3    H1 3108   4.176   1.707   0.940  1.7733  0.0894  1.2304
 1034TIP3    H2 3109   4.159   1.809   1.051  3.2161  1.1760  0.4931
 1035TIP3   OH2 3110   0.132   5.380   3.532  0.1185  0.0419  0.4461
 1035TIP3    H1 3111   0.066   5.350   3.595 -0.7852  2.2982  0.6852
 1035TIP3    H2 3112   0.090   5.453   3.487  1.5500 -0.1219 -1.2687
 1036TIP3   OH2 3113   1.910   3.061   4.283 -0.1303 -0.6350  0.0193
 1036TIP3    H1 3114   1.957   3.095   4.359 -1.4519  1.5970 -0.0650
 1036TIP3    H2 3115   1.979   3.037   4.221  0.9516 -1.9960  1.6885
 1037TIP3   OH2 3116   0.450   5.927   2.250 -0.0042 -0.5781  0.5838
 1037TIP3    H1 3117   0.482   5.838   2.234 -1.1837 -0.9326  0.0860
 1037TIP3    H2 3118   0.375   5.916   2.308  1.3328  0.3345  2.6261
 1038TIP3   OH2 3119   0.068   3.233   3.124 -0.1857  0.1687  0.6728
 1038TIP3    H1 3120   0.029   3.157   3.083  0.8704 -0.0807  0.0829
 1038TIP3    H2 3121   0.136   3.197   3.181  1.2659  0.6898 -0.6520
 1039TIP3   OH2 3122   2.224   5.251   3.727  0.5506 -0.2826 -0.2586
 1039TIP3    H1 3123   2.277   5.277   3.803  1.4541  0.9910 -1.2616
 1039TIP3    H2 3124   2.147   5.307   3.731  0.4690 -0.4054 -0.1284
 1040TIP3   OH2 3125   3.573   0.008   3.574 -0.4700  0.4322  0.2815
 1040TIP3    H1 3126   3.611   0.094   3.555 -1.2855  0.8436  0.4619
 1040TIP3    H2 3127   3.499   0.027   3.632 -0.7726 -0.3738  0.1689
 1041TIP3   OH2 3128   3.380   2.137   1.620 -0.1510  0.2688 -0.2342
 1041TIP3    H1 3129   3.391   2.147   1.526  0.6100  1.6529 -0.0149
 1041TIP3    H2 3130   3.318   2.206   1.645 -1.3722 -0.9024  0.1173
 1042TIP3   OH2 3131   5.473   4.289   4.352 -0.1954 -0.2199 -0.4978
 1042TIP3    H1 3132   5.532   4.246   4.413 -2.0830  0.5897  2.0652
 1042TIP3    H2 3133   5.524   4.362   4.317  1.5347 -1.7819 -1.4216
 1043TIP3   OH2 3134   1.756   1.593   1.524  0.3647 -0.4882 -0.4761
 1043TIP3    H1 3135   1.722   1.584   1.613  1.2512  0.0300 -0.0702
 1043TIP3    H2 3136   1.708   1.528   1.473  0.2954 -1.2399  0.5175
 1044TIP3   OH2 3137   2.334   0.122   1.127  0.1504 -0.0211 -0.2768
 1044TIP3    H1 3138   2.371   0.158   1.046  1.7273  1.1079  0.9008
 1044TIP3    H2 3139   2.344   0.027   1.118  0.4753  0.1021 -1.3142
 1045TIP3   OH2 3140   3.062   1.895   4.850 -0.1502  0.7708  0.4747
 1045TIP3    H1 3141   3.031   1.808   4.827 -0.8332  0.8542  1.0686
 1045TIP3    H2 3142   2.983   1.945   4.867  0.1018  2.0730 -1.7738
 1046TIP3   OH2 3143   3.194   4.965   4.416  0.0664  1.0248  0.5678
 1046TIP3    H1 3144   3.187   4.915   4.334 -0.8962  0.1320  1.1573
 1046TIP3    H2 3145   3.213   5.055   4.388  0.3136  0.6275 -0.6004
 1047TIP3   OH2 3146   2.938   0.341   2.529 -0.1028  0.2798  0.4621
 1047TIP3    H1 3147   3.008   0.399   2.560  0.8444 -0.3663 -0.3797
 1047TIP3    H2 3148   2.861   0.366   2.580  0.2541  2.3092  0.0887
 1048TIP3   OH2 3149   4.589   1.641   3.588  0.2805  0.5602  0.1557
 1048TIP3    H1 3150   4.576   1.727   3.627 -1.6888  0.8540 -0.9759
 1048TIP3    H2 3151   4.613   1.659   3.497  1.4412 -0.1071  0.3103
 1049TIP3   OH2 3152   4.538   1.281   2.034 -0.1631 -0.5347 -0.1803
 1049TIP3    H1 3153   4.544   1.326   2.119 -0.2495  0.5797 -0.7371
 1049TIP3    H2 3154   4.624   1.291   1.995 -0.1140 -1.0740 -0.2150
 1050TIP3   OH2 3155   0.641   2.855   2.893 -0.0642  0.6921  0.2412
 1050TIP3    H1 3156   0.640   2.839   2.987 -2.1284 -1.7730 -0.0673
 1050TIP3    H2 3157   0.720   2.810   2.862  0.4814  1.2888  0.7451
 1051TIP3   OH2 3158   3.778   3.091   0.510 -0.0860  0.6291 -0.1725
 1051TIP3    H1 3159   3.732   3.079   0.427 -0.0278  1.5121 -0.3369
 1051TIP3    H2 3160   3.710   3.116   0.572  0.1169  1.6550 -0.3510
 1052TIP3   OH2 3161   1.917   3.844   2.041  0.1098  0.6656  0.5867
 1052TIP3    H1 3162   1.866   3.771   2.078 -1.8381  2.1811  1.0198
 1052TIP3    H2 3163   1.969   3.803   1.971 -1.6223 -0.9803  0.1841
 1053TIP3   OH2 3164   3.731   0.858   0.373 -0.6284 -0.3744  0.5139
 1053TIP3    H1 3165   3.797   0.886   0.310 -2.1085  0.3314 -0.7886
 1053TIP3    H2 3166   3.744   0.763   0.380  0.3506 -0.2839  0.0807
 1054TIP3   OH2 3167   2.811   2.085   2.252  0.1241  0.0253  0.5151
 1054TIP3    H1 3168   2.802   2.006   2.200 -0.6005  1.0363 -0.9803
 1054TIP3    H2 3169   2.733   2.088   2.306  0.0651 -0.1783  0.4412
 1055TIP3   OH2 3170   0.671   1.406   2.395  0.4681 -0.3827  0.1322
 1055TIP3    H1 3171   0.629   1.434   2.476  1.5229 -1.5381  1.1207
 1055TIP3    H2 3172   0.621   1.329   2.367 -0.4758  0.5636 -0.8531
 1056TIP3   OH2 3173   1.008   2.839   1.355 -0.7783 -0.2609 -0.5134
 1056TIP3    H1 3174   1.011   2.932   1.374 -0.6286 -0.5293  0.9339
 1056TIP3    H2 3175   1.050   2.798   1.431 -0.4877 -1.4812 -1.3085
 1057TIP3   OH2 3176   4.102   2.674   2.891 -0.0854  0.1560  0.2956
 1057TIP3    H1 3177   4.077   2.756   2.848  1.2724  0.3782 -0.0971
 1057TIP3    H2 3178   4.193   2.686   2.916  0.6814 -1.8122 -1.2312
 1058TIP3   OH2 3179   6.020   4.810   4.574 -0.7316 -0.0921  0.6250
 1058TIP3    H1 3180   5.941   4.801   4.627  0.2449  1.9245  2.5949
 1058TIP3    H2 3181   6.046   4.902   4.585  0.3687  0.0573 -2.2266
 1059TIP3   OH2 3182   5.919   4.734   0.966  0.4796 -0.1947 -0.0306
 1059TIP3    H1 3183   5.881   4.763   0.884 -0.4113 -0.7652  0.1605
 1059TIP3    H2 3184   6.005   4.775   0.969 -0.1703  1.2627 -0.4178
 1060TIP3   OH2 3185   2.709   5.141   1.094 -0.0244 -0.2573  0.1450
 1060TIP3    H1 3186   2.623   5.176   1.069  0.7411  0.4000 -1.7288
 1060TIP3    H2 3187   2.771   5.207   1.064  1.2928 -1.9296 -0.9647
 1061TIP3   OH2 3188   6.181   1.823   2.363  0.3689  0.0004  0.3274
 1061TIP3    H1 3189   6.254   1.820   2.301 -0.1706 -1.3798 -0.2719
 1061TIP3    H2 3190   6.103   1.811   2.309 -0.2944  0.9499  1.0207
 1062TIP3   OH2 3191   2.095   5.723   0.386  0.1139  0.2925  0.3770
 1062TIP3    H1 3192   2.080   5.668   0.308  2.6472  0.4241 -0.3078
 1062TIP3    H2 3193   2.161   5.675   0.436 -0.0827  1.1395  1.4873
 1063TIP3   OH2 3194   5.789   3.761   1.024  0.7487  0.4633 -0.2334
 1063TIP3    H1 3195   5.812   3.845   1.065  4.0908 -1.4208  2.2165
 1063TIP3    H2 3196   5.742   3.713   1.092  2.4675 -1.0958 -0.0727
 1064TIP3   OH2 3197   4.773   5.647   1.632  0.5611 -0.3051  0.0719
 1064TIP3    H1 3198   4.767   5.743   1.635 -0.3602 -0.3497  0.0114
 1064TIP3    H2 3199   4.781   5.627   1.539  3.5401 -0.1801  0.2045
 1065TIP3   OH2 3200   5.535   2.446   4.176 -0.4223  0.2601  0.1067
 1065TIP3    H1 3201   5.623   2.413   4.191 -0.4144  0.4358  0.4419
 1065TIP3    H2 3202   5.484   2.418   4.252 -0.4646  0.8383  0.2979
 1066TIP3   OH2 3203   3.844   5.421   2.719 -0.3432  0.2337 -0.4756
 1066TIP3    H1 3204   3.793   5.346   2.749 -1.1739  0.5183 -1.1301
 1066TIP3    H2 3205   3.868   5.467   2.800  0.9183 -1.1711  0.0011
 1067TIP3   OH2 3206   0.859   3.544   0.551  0.3502 -0.0479  0.5921
 1067TIP3    H1 3207   0.774   3.586   0.564  0.6024  0.5518  0.3786
 1067TIP3    H2 3208   0.846   3.453   0.577 -0.1214  0.2515  1.4226
 1068TIP3   OH2 3209   0.472   5.978   1.952  0.3272  0.2701  0.1577
 1068TIP3    H1 3210   0.439   5.961   2.040 -1.1734 -0.2243 -0.4600
 1068TIP3    H2 3211   0.516   5.897   1.927 -2.8365 -1.2632 -1.0373
 1069TIP3   OH2 3212   2.393   5.763   4.541 -0.0722  0.5606 -0.3009
 1069TIP3    H1 3213   2.366   5.852   4.517 -0.0503  1.0896  1.4489
 1069TIP3    H2 3214   2.314   5.722   4.576  0.1412  0.2283 -0.1996
 1070TIP3   OH2 3215   0.371   2.909   1.255 -0.0401 -0.0728  0.3517
 1070TIP3    H1 3216   0.375   2.822   1.216 -1.4602 -0.5927  1.2812
 1070TIP3    H2 3217   0.315   2.898   1.332  0.6076  1.4487  1.0794
 1071TIP3   OH2 3218   3.209   2.098   3.533 -0.1425 -0.0145 -0.1697
 1071TIP3    H1 3219   3.194   2.192   3.545 -2.9607 -0.4711  0.5058
 1071TIP3    H2 3220   3.214   2.086   3.438 -0.9306  0.6835 -0.3060
 1072TIP3   OH2 3221   2.962   4.740   4.426 -0.1735  0.4838 -0.1982
 1072TIP3    H1 3222   2.967   4.647   4.403  0.5652 -0.0461  1.8944
 1072TIP3    H2 3223   2.898   4.776   4.365 -2.1845 -1.8725  0.3651
 1073TIP3   OH2 3224   3.142   5.764   0.843  0.3699  0.5531  0.3872
 1073TIP3    H1 3225   3.212   5.702   0.820  0.0953  0.4397 -0.1658
 1073TIP3    H2 3226   3.125   5.811   0.761 -1.1663 -0.3932  0.1291
 1074TIP3   OH2 3227   0.471   2.498   0.159 -0.1688 -0.5316 -0.1192
 1074TIP3    H1 3228   0.465   2.416   0.208 -0.1920 -0.9415 -0.7985
 1074TIP3    H2 3229   0.563   2.524   0.166  0.1452 -1.3380 -1.0426
 1075TIP3   OH2 3230   0.229   2.618   0.212 -0.1434 -0.0469  0.4284
 1075TIP3    H1 3231   0.318   2.588   0.192 -0.5119 -0.3073 -0.9672
 1075TIP3    H2 3232   0.190   2.634   0.126 -1.2085  0.7864  1.0464
 1076TIP3   OH2 3233   0.756   4.028   0.625  0.3073 -0.2125 -0.2737
 1076TIP3    H1 3234   0.708   4.024   0.543 -2.3158  0.1458  1.1313
 1076TIP3    H2 3235   0.795   4.115   0.627  0.1768 -0.1346 -0.9972
 1077TIP3   OH2 3236   5.975   5.484   5.147 -0.8385  0.0385  0.3681
 1077TIP3    H1 3237   5.914   5.551   5.176 -0.0797  0.0647  2.0043
 1077TIP3    H2 3238   5.949   5.405   5.195 -0.7330 -0.4259 -0.3262
 1078TIP3   OH2 3239   2.056   3.719   3.786  0.4717  0.1596 -0.5552
 1078TIP3    H1 3240   2.033   3.665   3.711 -0.8650  0.3314 -0.2871
 1078TIP3    H2 3241   2.103   3.659   3.845  0.1877 -0.3615 -0.8521
 1079TIP3   OH2 3242   4.266   4.847   2.728  0.2403  0.0423  0.1334
 1079TIP3    H1 3243   4.347   4.888   2.698 -0.7480 -0.2205 -3.2199
 1079TIP3    H2 3244   4.217   4.919   2.769  1.3657  0.6199  0.5080
 1080TIP3   OH2 3245   5.163   1.200   0.515 -0.4019 -0.1198 -0.0128
 1080TIP3    H1 3246   5.257   1.192   0.531 -0.0282  2.0231 -0.8060
 1080TIP3    H2 3247   5.145   1.134   0.449  0.9605  0.6045 -1.1724
 1081TIP3   OH2 3248   4.635   5.417   2.337  0.5975 -0.5196 -0.2805
 1081TIP3    H1 3249   4.640   5.455   2.249 -2.0923 -2.8172 -1.5578
 1081TIP3    H2 3250   4.703   5.349   2.338  0.3585 -0.7649 -0.7341
 1082TIP3   OH2 3251   2.012   0.706   5.118  0.1039 -0.0909  0.0041
 1082TIP3    H1 3252   1.925   0.743   5.137  0.0948  0.4379 -1.0092
 1082TIP3    H2 3253   2.073   0.764   5.163 -0.0729 -0.6512  0.9926
 1083TIP3   OH2 3254   6.349   4.057   1.166  0.3617 -0.2786 -0.0470
 1083TIP3    H1 3255   6.309   4.107   1.237  1.0159  0.5458 -0.2383
 1083TIP3    H2 3256   6.390   4.124   1.111 -0.0727 -0.9017 -1.1618
 1084TIP3   OH2 3257   4.044   4.301   0.573 -0.4687  1.0684  0.0489
 1084TIP3    H1 3258   4.033   4.308   0.478  2.4210  0.5719 -0.4244
 1084TIP3    H2 3259   4.011   4.214   0.594  0.4270  0.4792 -0.8418
 1085TIP3   OH2 3260   3.362   4.398   3.556  0.2353 -0.0105 -0.7554
 1085TIP3    H1 3261   3.431   4.451   3.515  3.3581 -1.7638  1.8455
 1085TIP3    H2 3262   3.328   4.454   3.626  0.8492 -0.0602 -0.4123
 1086TIP3   OH2 3263   3.693   2.786   3.209  0.3542  0.9215  0.0410
 1086TIP3    H1 3264   3.707   2.703   3.254  0.8689  0.6750 -0.5557
 1086TIP3    H2 3265   3.747   2.780   3.131 -0.5067  1.3429 -0.6111
 1087TIP3   OH2 3266   2.402   5.350   3.049 -0.1570 -0.1491  0.0053
 1087TIP3    H1 3267   2.389   5.325   3.141 -0.2626 -0.1812 -0.0189
 1087TIP3    H2 3268   2.485   5.398   3.049  0.4100 -1.1124 -0.0563
 1088TIP3   OH2 3269   5.424   2.435   4.422 -0.0484  0.1214 -1.1480
 1088TIP3    H1 3270   5.433   2.385   4.503  1.8020  0.0758 -1.3502
 1088TIP3    H2 3271   5.445   2.525   4.447 -0.0741  0.2126 -1.4529
 1089TIP3   OH2 3272   5.742   5.208   2.009 -0.1795 -0.4027  0.6445
 1089TIP3    H1 3273   5.778   5.127   2.044 -0.3913 -0.5146  0.6023
 1089TIP3    H2 3274   5.649   5.206   2.033  0.0633  0.4167  1.7410
 1090TIP3   OH2 3275   5.071   1.430   2.086  0.1991  0.2757  0.3089
 1090TIP3    H1 3276   5.073   1.523   2.065  0.8811  0.5478  1.5046
 1090TIP3    H2 3277   5.065   1.427   2.182  0.2390 -0.9070  0.2881
 1091TIP3   OH2 3278   1.518   4.920   1.154 -0.2219  0.5101 -0.2644
 1091TIP3    H1 3279   1.431   4.882   1.157 -0.0314  0.0790 -0.1289
 1091TIP3    H2 3280   1.546   4.924   1.246 -0.0072  0.4321 -0.3253
 1092TIP3   OH2 3281   0.004   5.486   1.175  0.7195  0.2243 -0.0268
 1092TIP3    H1 3282   0.033   5.481   1.084  0.2419 -0.0570 -0.1693
 1092TIP3    H2 3283   0.072   5.537   1.220 -0.0581  2.2299 -0.9767
 1093TIP3   OH2 3284   5.655   0.488   0.833 -0.3981  0.1956 -0.1759
 1093TIP3    H1 3285   5.630   0.445   0.915  0.1753  0.5376  0.1857
 1093TIP3    H2 3286   5.574   0.526   0.800 -0.5466  0.4367  0.4599
 1094TIP3   OH2 3287   6.147   1.677   1.042  0.0794  0.0458  0.3142
 1094TIP3    H1 3288   6.128   1.702   0.952  1.2532  0.4374  0.1739
 1094TIP3    H2 3289   6.211   1.606   1.035  0.3872  0.2640  0.8436
 1095TIP3   OH2 3290   0.397   5.555   1.740  0.2438  0.4444 -0.3829
 1095TIP3    H1 3291   0.460   5.513   1.798  0.0503  0.8464  0.1292
 1095TIP3    H2 3292   0.317   5.505   1.749  0.3701  0.1725 -0.7332
 1096TIP3   OH2 3293   3.402   1.254   0.792  0.4042 -0.4135  0.4031
 1096TIP3    H1 3294   3.344   1.208   0.731  0.9575 -2.6679  1.4449
 1096TIP3    H2 3295   3.365   1.342   0.799  0.1053 -0.1532 -2.8371
 1097TIP3   OH2 3296   2.041   1.954   2.804 -0.4242  0.2696  0.3419
 1097TIP3    H1 3297   2.075   1.911   2.725  2.1111  1.6681  0.5880
 1097TIP3    H2 3298   1.977   2.016   2.771 -0.5463 -0.2543 -0.4549
 1098TIP3   OH2 3299   5.529   1.483   1.413 -0.1958 -0.4178  0.6843
 1098TIP3    H1 3300   5.463   1.433   1.460  0.0338 -0.9196  0.4733
 1098TIP3    H2 3301   5.559   1.425   1.344 -0.9530  0.5005 -0.4748
 1099TIP3   OH2 3302   3.943   2.233   0.115 -0.4520  0.1198  0.4012
 1099TIP3    H1 3303   3.991   2.281   0.047  0.7554  2.1006  2.5225
 1099TIP3    H2 3304   4.005   2.167   0.147  0.1778  1.2688  1.6651
 1100TIP3   OH2 3305   1.251   0.377   2.808 -0.3775 -0.4124 -0.2999
 1100TIP3    H1 3306   1.223   0.304   2.863 -0.6084 -0.6325 -0.7085
 1100TIP3    H2 3307   1.306   0.431   2.866  1.4814 -1.9518 -0.5326
 1101TIP3   OH2 3308   4.744   3.362   3.878 -0.0511  0.1408  0.0239
 1101TIP3    H1 3309   4.750   3.449   3.839 -0.8341  0.2879  0.2000
 1101TIP3    H2 3310   4.671   3.369   3.940 -0.2100 -0.6735 -0.0597
 1102TIP3   OH2 3311   3.717   3.414   4.803 -0.2593 -0.3723  0.0714
 1102TIP3    H1 3312   3.774   3.363   4.744 -0.4140  0.3496 -0.7224
 1102TIP3    H2 3313   3.695   3.493   4.753 -1.3825 -0.3006  0.6427
 1103TIP3   OH2 3314   4.645   2.822   4.785  0.4922 -0.4883  0.0615
 1103TIP3    H1 3315   4.645   2.915   4.761 -0.8213 -0.6982 -0.8597
 1103TIP3    H2 3316   4.736   2.804   4.810  0.6205  1.2012  0.9373
 1104TIP3   OH2 3317   4.916   2.525   3.013  0.4706  0.2365 -0.7113
 1104TIP3    H1 3318   4.840   2.545   2.959  0.4564  0.0566 -0.7579
 1104TIP3    H2 3319   4.888   2.547   3.102 -0.0214 -0.8468 -0.5741
 1105TIP3   OH2 3320   1.617   1.866   2.181 -0.3199  0.0043 -0.0150
 1105TIP3    H1 3321   1.566   1.785   2.175 -0.1223 -0.1615  0.4806
 1105TIP3    H2 3322   1.589   1.905   2.264  1.5485 -0.9166  1.1167
 1106TIP3   OH2 3323   5.613   4.880   1.979  0.1908  0.0984  0.8890
 1106TIP3    H1 3324   5.581   4.848   1.895  2.2183 -0.2906  0.2225
 1106TIP3    H2 3325   5.534   4.902   2.028 -1.0568 -0.5430 -0.7647
 1107TIP3   OH2 3326   1.083   3.949   2.538  0.7191 -0.0830  0.0275
 1107TIP3    H1 3327   1.081   3.936   2.443  0.6833 -0.6246  0.1010
 1107TIP3    H2 3328   0.992   3.940   2.566  0.4385  1.9132 -0.1151
 1108TIP3   OH2 3329   1.577   2.257   3.469 -0.8188 -0.1907  0.0545
 1108TIP3    H1 3330   1.573   2.166   3.499  1.6302 -1.0322 -1.9321
 1108TIP3    H2 3331   1.616   2.305   3.543 -0.4804 -1.0847  0.4671
 1109TIP3   OH2 3332   2.003   5.390   1.952  0.8903  0.1533 -0.5787
 1109TIP3    H1 3333   1.956   5.450   1.894  0.5661  1.1365  0.6568
 1109TIP3    H2 3334   2.039   5.446   2.021 -0.7799 -1.1962  1.5168
 1110TIP3   OH2 3335   2.755   2.272   4.983  0.3879 -0.1593  0.3876
 1110TIP3    H1 3336   2.795   2.203   5.036  2.0608  1.0257  0.7609
 1110TIP3    H2 3337   2.822   2.293   4.917  0.0074  1.2421  0.4147
 1111TIP3   OH2 3338   4.052   2.145   2.574 -0.1236  0.2553  0.3293
 1111TIP3    H1 3339   3.975   2.187   2.613  0.4166  0.2770  1.3995
 1111TIP3    H2 3340   4.052   2.057   2.611 -1.4666 -0.9097 -2.1792
 1112TIP3   OH2 3341   1.209   4.328   0.729  0.3628 -0.1335 -0.6224
 1112TIP3    H1 3342   1.199   4.242   0.687  0.6209 -0.4641 -0.0245
 1112TIP3    H2 3343   1.189   4.391   0.660  1.9027 -0.6390 -1.5884
 1113TIP3   OH2 3344   4.741   5.290   4.463 -0.0344 -0.7571  0.0055
 1113TIP3    H1 3345   4.757   5.196   4.470 -0.5048 -0.8045  0.5227
 1113TIP3    H2 3346   4.779   5.326   4.544  0.6991 -0.4205 -0.4752
 1114TIP3   OH2 3347   3.820   3.720   4.435  0.8726 -0.1666  0.6036
 1114TIP3    H1 3348   3.860   3.804   4.457 -1.9875  1.1897  1.0866
 1114TIP3    H2 3349   3.773   3.737   4.353  0.9677 -1.5564  0.2408
 1115TIP3   OH2 3350   5.628   4.875   3.538  0.0462  0.5634 -0.0601
 1115TIP3    H1 3351   5.626   4.946   3.603 -0.8679  0.3822  0.1375
 1115TIP3    H2 3352   5.538   4.871   3.506  0.8322  1.8415 -2.7038
 1116TIP3   OH2 3353   1.308   4.337   3.878 -0.0124 -0.1675  0.3694
 1116TIP3    H1 3354   1.313   4.248   3.915 -1.2924 -0.0735  0.7969
 1116TIP3    H2 3355   1.374   4.337   3.809 -0.3022 -1.6100  0.0583
 1117TIP3   OH2 3356   4.376   2.200   1.513  0.4206 -0.2855  0.2024
 1117TIP3    H1 3357   4.431   2.260   1.463 -0.0060 -0.7106 -0.8220
 1117TIP3    H2 3358   4.289   2.211   1.474  0.0901 -0.6750  0.8240
 1118TIP3   OH2 3359   4.222   1.778   0.471 -0.0447  0.0399 -0.3428
 1118TIP3    H1 3360   4.162   1.792   0.544 -0.3490 -0.3492 -0.5142
 1118TIP3    H2 3361   4.280   1.708   0.500  1.1086  1.2176  0.2910
 1119TIP3   OH2 3362   0.634   4.013   0.391  0.0376  0.0866  0.2169
 1119TIP3    H1 3363   0.667   4.036   0.304 -1.0999 -0.8861 -0.5151
 1119TIP3    H2 3364   0.555   3.961   0.373 -0.0218 -0.4263  1.8325
 1120TIP3   OH2 3365   5.230   3.887   1.471 -0.0387 -0.2315 -0.3947
 1120TIP3    H1 3366   5.153   3.945   1.470  0.6295  0.6733 -0.3891
 1120TIP3    H2 3367   5.304   3.946   1.476  0.7044 -1.0608 -1.2734
 1121TIP3   OH2 3368   2.954   5.173   2.979 -0.4312 -0.4861  0.1243
 1121TIP3    H1 3369   3.010   5.113   3.029 -0.4024 -0.2357  0.3901
 1121TIP3    H2 3370   2.957   5.139   2.889  1.7137  0.6404 -0.2905
 1122TIP3   OH2 3371   6.001   4.256   4.232  0.1846 -0.2703  0.0698
 1122TIP3    H1 3372   5.930   4.202   4.197 -0.1273 -0.2416  0.6449
 1122TIP3    H2 3373   6.050   4.285   4.155 -0.8955  0.3553 -0.4016
 1123TIP3   OH2 3374   4.338   2.078   3.599  0.3009  0.0918 -0.2568
 1123TIP3    H1 3375   4.406   2.102   3.661  0.4393  1.4434 -0.9003
 1123TIP3    H2 3376   4.358   1.988   3.574  2.0774  0.5818 -0.7124
 1124TIP3   OH2 3377   3.641   4.609   1.455  0.9733 -0.4251 -0.1938
 1124TIP3    H1 3378   3.722   4.660   1.446  2.7153 -2.7363  1.2151
 1124TIP3    H2 3379   3.664   4.522   1.421 -1.1203 -1.0217 -0.2438
 1125TIP3   OH2 3380   5.874   2.988   4.587 -0.3496 -0.1901 -0.1957
 1125TIP3    H1 3381   5.917   2.908   4.555 -1.0837 -0.8897  0.5236
 1125TIP3    H2 3382   5.782   2.963   4.596 -0.0332 -0.4601  3.6149
 1126TIP3   OH2 3383   2.646   1.049   4.626  0.1043 -0.4393 -1.0171
 1126TIP3    H1 3384   2.656   1.116   4.559  0.8227  2.3500  1.7078
 1126TIP3    H2 3385   2.734   1.032   4.657 -0.3858  3.6727  3.9003
 1127TIP3   OH2 3386   2.329   2.704   2.471  0.4851  0.7346  0.0513
 1127TIP3    H1 3387   2.259   2.754   2.431  0.9344  0.6065 -0.9154
 1127TIP3    H2 3388   2.291   2.670   2.552 -0.7632  0.2054 -0.7207
 1128TIP3   OH2 3389   2.526   1.274   4.455 -0.3773 -0.3904 -0.6576
 1128TIP3    H1 3390   2.449   1.261   4.399 -1.4173  0.6649  0.4752
 1128TIP3    H2 3391   2.497   1.333   4.523  1.3899 -0.1777 -0.0278
 1129TIP3   OH2 3392   5.372   4.399   4.660  0.1742  0.3261 -0.0613
 1129TIP3    H1 3393   5.440   4.350   4.614  0.1238  0.0541  0.1486
 1129TIP3    H2 3394   5.397   4.491   4.649  0.1865  0.2594 -0.5848
 1130TIP3   OH2 3395   0.291   2.846   4.124 -0.0097  0.4625  0.3369
 1130TIP3    H1 3396   0.364   2.787   4.142 -0.9365 -0.5299  0.9766
 1130TIP3    H2 3397   0.331   2.925   4.089  1.2429 -0.6737 -0.8624
 1131TIP3   OH2 3398   5.506   1.556   4.969 -0.3152 -0.0570 -0.3220
 1131TIP3    H1 3399   5.560   1.590   5.040 -0.6402 -0.7613  0.2758
 1131TIP3    H2 3400   5.434   1.619   4.962 -1.5537 -1.1810  1.5685
 1132TIP3   OH2 3401   4.122   1.852   4.131 -0.2087 -0.1994 -0.2427
 1132TIP3    H1 3402   4.027   1.861   4.121 -0.2471 -0.5670 -0.2435
 1132TIP3    H2 3403   4.137   1.757   4.132  0.2101 -0.1465 -0.7548
 1133TIP3   OH2 3404   4.340   1.844   0.239  0.0877  0.1367  0.0138
 1133TIP3    H1 3405   4.295   1.831   0.322 -1.2034  2.4323 -0.2529
 1133TIP3    H2 3406   4.349   1.755   0.203 -0.8406 -0.7391  1.8028
 1134TIP3   OH2 3407   4.507   0.892   4.583  0.2118  0.1088  0.1720
 1134TIP3    H1 3408   4.467   0.903   4.669 -1.0978 -1.9932 -0.1028
 1134TIP3    H2 3409   4.521   0.798   4.575  4.5053  0.5742 -0.1222
 1135TIP3   OH2 3410   2.372   0.560   2.562  0.2591 -1.0286  0.4059
 1135TIP3    H1 3411   2.391   0.488   2.502  3.1034 -0.9437  1.0493
 1135TIP3    H2 3412   2.277   0.569   2.561  0.1358 -1.1027 -3.9416
 1136TIP3   OH2 3413   4.432   5.830   1.907 -0.1095 -0.5620  0.0664
 1136TIP3    H1 3414   4.389   5.899   1.856 -0.5754 -1.9447 -1.4838
 1136TIP3    H2 3415   4.375   5.754   1.898  0.2356 -1.0917  2.0052
 1137TIP3   OH2 3416   6.013   5.916   0.855  0.3684  0.5790  0.1273
 1137TIP3    H1 3417   5.933   5.908   0.907  0.4677 -2.3365  0.0072
 1137TIP3    H2 3418   6.081   5.877   0.910  1.1576  0.5862 -0.8245
 1138TIP3   OH2 3419   5.489   4.958   1.289  0.4253  0.0581 -0.0110
 1138TIP3    H1 3420   5.552   4.895   1.254 -0.6945 -1.2862  0.3193
 1138TIP3    H2 3421   5.427   4.973   1.217 -0.0218 -0.1912  0.3188
 1139TIP3   OH2 3422   1.036   3.802   2.261  0.2493 -0.0631 -0.2738
 1139TIP3    H1 3423   1.124   3.838   2.261  1.1688 -2.1552 -0.4089
 1139TIP3    H2 3424   0.993   3.844   2.187  1.9469 -0.7990 -1.7440
 1140TIP3   OH2 3425   1.404   0.194   3.134 -0.0303  0.8554  0.4314
 1140TIP3    H1 3426   1.487   0.234   3.107  1.1646 -1.0067  1.1649
 1140TIP3    H2 3427   1.358   0.264   3.181  1.5526  1.6612  0.8566
 1141TIP3   OH2 3428   3.695   4.253   1.928  0.0523 -0.1251 -0.6652
 1141TIP3    H1 3429   3.770   4.199   1.903  0.5725  0.4570 -0.4168
 1141TIP3    H2 3430   3.732   4.317   1.990 -0.6816  0.0788 -0.4308
 1142TIP3   OH2 3431   0.537   5.435   0.296  0.0642 -0.2321 -0.5342
 1142TIP3    H1 3432   0.516   5.450   0.204 -1.0414  0.6811 -0.1542
 1142TIP3    H2 3433   0.603   5.501   0.318 -0.6951  0.4599 -0.3160
 1143TIP3   OH2 3434   1.490   4.496   1.600 -0.1041 -0.7072  0.2703
 1143TIP3    H1 3435   1.507   4.574   1.654  0.6678 -1.3512  0.9752
 1143TIP3    H2 3436   1.437   4.529   1.527 -0.8195  0.2595  1.1955
 1144TIP3   OH2 3437   4.448   3.410   3.965  0.1049 -0.5447 -0.3913
 1144TIP3    H1 3438   4.373   3.350   3.960 -1.0950  0.8854 -0.2838
 1144TIP3    H2 3439   4.434   3.458   4.047 -0.3027  1.5431 -1.6125
 1145TIP3   OH2 3440   5.377   3.206   5.037  0.3971  0.3944  0.4229
 1145TIP3    H1 3441   5.325   3.286   5.030 -1.7867 -0.8856  0.9257
 1145TIP3    H2 3442   5.375   3.184   5.130  0.2424 -0.6777  0.1812
 1146TIP3   OH2 3443   0.350   3.976   1.967 -0.1961  0.0006 -0.0190
 1146TIP3    H1 3444   0.270   4.005   1.924 -0.2750  0.4870  0.4514
 1146TIP3    H2 3445   0.336   3.995   2.060  1.3002  2.1776 -0.1474
 1147TIP3   OH2 3446   1.479   3.496   2.705  0.0138 -0.2257 -0.1725
 1147TIP3    H1 3447   1.575   3.493   2.706  0.0270 -0.0046 -0.7854
 1147TIP3    H2 3448   1.454   3.414   2.662 -0.0334  0.3774 -1.3174
 1148TIP3   OH2 3449   4.090   4.140   0.192 -0.7035  0.0505  0.5755
 1148TIP3    H1 3450   4.042   4.113   0.271 -1.4034  1.4538  0.6640
 1148TIP3    H2 3451   4.057   4.228   0.173  0.1569  0.1146 -0.7377
 1149TIP3   OH2 3452   5.315   5.354   1.499  0.3191 -0.2071  0.1506
 1149TIP3    H1 3453   5.335   5.384   1.410 -2.8157 -0.0074 -0.5829
 1149TIP3    H2 3454   5.315   5.258   1.493  0.0079 -0.1908 -0.0720
 1150TIP3   OH2 3455   2.275   2.621   2.012  0.1524  0.2514 -0.3360
 1150TIP3    H1 3456   2.216   2.623   1.936  0.4306 -0.3973 -0.5727
 1150TIP3    H2 3457   2.252   2.540   2.057  0.0345  0.6017  0.2460
 1151TIP3   OH2 3458   2.666   5.150   3.388  0.0520 -0.2379 -0.1567
 1151TIP3    H1 3459   2.721   5.072   3.397  1.6387  0.9258  0.6634
 1151TIP3    H2 3460   2.708   5.201   3.320 -1.6291 -0.5727 -1.5023
 1152TIP3   OH2 3461   1.181   4.860   2.304 -0.0174 -0.2713  0.1650
 1152TIP3    H1 3462   1.188   4.798   2.377  0.8552 -0.5634 -0.1585
 1152TIP3    H2 3463   1.267   4.902   2.300 -0.6275  1.0552  0.4401
 1153TIP3   OH2 3464   0.649   0.286   3.653  0.2857  0.0941  0.2272
 1153TIP3    H1 3465   0.639   0.193   3.670 -0.6053  0.4878  2.1080
 1153TIP3    H2 3466   0.576   0.327   3.698  0.5625  1.7150 -0.6943
 1154TIP3   OH2 3467   1.348   3.479   5.141  0.0383 -0.3548  0.0892
 1154TIP3    H1 3468   1.419   3.522   5.188  0.6191  1.1979 -2.0103
 1154TIP3    H2 3469   1.356   3.514   5.051 -2.7707 -0.8806 -0.4344
 1155TIP3   OH2 3470   4.810   5.581   3.151  0.2934  0.3243  0.1616
 1155TIP3    H1 3471   4.897   5.577   3.112  0.2959 -1.0600  0.2421
 1155TIP3    H2 3472   4.810   5.512   3.217 -0.8041  0.4178  0.2840
 1156TIP3   OH2 3473   2.183   4.173   2.016 -0.2213 -0.3576 -0.6624
 1156TIP3    H1 3474   2.249   4.236   1.987 -1.4384  1.3934  0.1460
 1156TIP3    H2 3475   2.107   4.191   1.960 -1.3304  0.5052  1.0104
 1157TIP3   OH2 3476   1.949   5.551   0.198  0.4284  0.0665 -0.2813
 1157TIP3    H1 3477   1.862   5.520   0.173  0.8089  0.0122 -1.6194
 1157TIP3    H2 3478   2.009   5.489   0.155  1.1710  1.5968 -1.5385
 1158TIP3   OH2 3479   3.368   2.084   3.303  0.5088 -0.0417  0.2865
 1158TIP3    H1 3480   3.380   2.026   3.227  0.6016  0.5765 -0.1852
 1158TIP3    H2 3481   3.409   2.166   3.276  0.7576  0.1117  1.1068
 1159TIP3   OH2 3482   2.039   1.664   3.930 -0.9115 -0.2317  0.1848
 1159TIP3    H1 3483   2.015   1.635   3.842 -0.7511 -0.9668  0.3771
 1159TIP3    H2 3484   1.963   1.713   3.961 -1.6399 -1.3792  0.2669
 1160TIP3   OH2 3485   3.126   3.253   2.051  0.1024 -0.1900 -0.0817
 1160TIP3    H1 3486   3.078   3.290   1.976 -0.2478  0.6482  0.5357
 1160TIP3    H2 3487   3.113   3.159   2.043 -1.2856 -0.0213 -0.2012
 1161TIP3   OH2 3488   3.080   1.284   0.882 -0.4345  0.4201 -0.2027
 1161TIP3    H1 3489   2.995   1.287   0.838  0.0112  0.8966 -1.0550
 1161TIP3    H2 3490   3.126   1.212   0.840  0.2773  1.3563 -1.0827
 1162TIP3   OH2 3491   3.819   2.690   4.587 -0.6111 -0.1750  0.0393
 1162TIP3    H1 3492   3.881   2.761   4.572 -0.5007  0.0522  1.3893
 1162TIP3    H2 3493   3.865   2.612   4.556 -0.3167  0.2094 -0.5037
 1163TIP3   OH2 3494   0.191   4.025   4.918 -0.3594 -0.1353  0.4349
 1163TIP3    H1 3495   0.179   4.018   4.823  0.1935  1.9103  0.1753
 1163TIP3    H2 3496   0.158   4.112   4.940  0.0271 -0.3727  2.0448
 1164TIP3   OH2 3497   6.095   0.816   4.624 -0.3231 -0.2715  0.2824
 1164TIP3    H1 3498   6.135   0.902   4.634 -0.4993 -0.0397 -0.8993
 1164TIP3    H2 3499   6.103   0.776   4.711 -0.7944  1.1694  1.0287
 1165TIP3   OH2 3500   4.794   5.197   2.261 -0.0385  0.3668 -0.0980
 1165TIP3    H1 3501   4.787   5.192   2.166 -0.4817 -1.0438 -0.0127
 1165TIP3    H2 3502   4.793   5.106   2.290 -0.0581  0.7795  1.2715
 1166TIP3   OH2 3503   4.894   4.443   0.353 -0.7500  0.2542  0.0334
 1166TIP3    H1 3504   4.880   4.486   0.269  0.4705 -0.1546 -0.3996
 1166TIP3    H2 3505   4.808   4.406   0.375 -0.8402 -0.6639 -1.6357
 1167TIP3   OH2 3506   0.771   0.158   0.277  0.2826  0.4275 -0.8138
 1167TIP3    H1 3507   0.703   0.128   0.337  2.1336 -1.1132  0.6667
 1167TIP3    H2 3508   0.821   0.079   0.258  1.8244  1.5572 -1.5871
 1168TIP3   OH2 3509   1.380   2.016   3.167  0.5046  0.5869 -0.1979
 1168TIP3    H1 3510   1.289   2.028   3.141  0.2782 -0.3016  0.1430
 1168TIP3    H2 3511   1.378   2.020   3.263  0.9734  1.5214 -0.2198
 1169TIP3   OH2 3512   3.836   4.396   0.962 -0.6756  0.1274 -0.1656
 1169TIP3    H1 3513   3.801   4.482   0.985 -0.4692 -0.0232  0.7441
 1169TIP3    H2 3514   3.822   4.388   0.868  0.3759  1.6646 -0.4894
 1170TIP3   OH2 3515   0.803   1.033   3.073  0.3742 -0.0231  0.2232
 1170TIP3    H1 3516   0.728   0.974   3.082  0.9897 -0.7912  0.4213
 1170TIP3    H2 3517   0.836   1.016   2.984  1.2738 -0.8838  0.6908
 1171TIP3   OH2 3518   1.916   4.790   0.880 -0.0549 -0.0092 -0.1414
 1171TIP3    H1 3519   1.865   4.802   0.961 -2.7985  1.2913 -1.9228
 1171TIP3    H2 3520   1.903   4.698   0.858  0.5953 -0.3421  0.7830
 1172TIP3   OH2 3521   3.414   0.269   4.664  0.3693  0.1620  0.8787
 1172TIP3    H1 3522   3.324   0.301   4.660  0.9386  1.9937  1.5985
 1172TIP3    H2 3523   3.464   0.331   4.611  1.4288  0.0649  1.7253
 1173TIP3   OH2 3524   2.151   4.704   1.025  0.2943  0.3576 -0.0134
 1173TIP3    H1 3525   2.064   4.711   0.985 -0.1863  1.7882  1.1995
 1173TIP3    H2 3526   2.166   4.788   1.067  2.4988  0.3066 -0.5744
 1174TIP3   OH2 3527   4.424   3.674   1.824 -0.6180 -0.1012  0.4202
 1174TIP3    H1 3528   4.434   3.750   1.767 -3.0535  0.5691  0.7497
 1174TIP3    H2 3529   4.361   3.702   1.890 -0.6152 -2.0189  1.3112
 1175TIP3   OH2 3530   3.758   0.264   1.854 -0.0299  0.9126  0.1821
 1175TIP3    H1 3531   3.830   0.270   1.916  0.2635  0.5806 -0.1275
 1175TIP3    H2 3532   3.705   0.342   1.872  0.2258  0.9864  0.6291
 1176TIP3   OH2 3533   0.222   1.354   2.005  0.0175 -0.2280  0.1396
 1176TIP3    H1 3534   0.146   1.408   1.982 -0.6571 -1.4457 -0.5516
 1176TIP3    H2 3535   0.189   1.291   2.069  0.5434 -0.5046  0.1453
 1177TIP3   OH2 3536   5.697   4.454   0.660  0.1846 -0.3305 -0.2863
 1177TIP3    H1 3537   5.631   4.499   0.607  0.9184  1.6644  0.4180
 1177TIP3    H2 3538   5.706   4.507   0.739  3.0190 -0.2134 -0.5825
 1178TIP3   OH2 3539   3.919   0.171   2.338  0.5331  0.0951  0.1286
 1178TIP3    H1 3540   3.835   0.174   2.383  0.9799 -1.3983  1.1405
 1178TIP3    H2 3541   3.952   0.260   2.344 -0.5808  0.5018  0.4898
 1179TIP3   OH2 3542   2.261   4.971   3.726  0.5256 -0.2394  0.0261
 1179TIP3    H1 3543   2.247   4.972   3.631  0.2328  0.9764  0.0565
 1179TIP3    H2 3544   2.230   5.057   3.755  1.0120 -0.4306  1.1656
 1180TIP3   OH2 3545   3.287   3.692   2.439  0.4784 -0.6131  0.0421
 1180TIP3    H1 3546   3.228   3.652   2.375  0.4649 -1.6282  0.6734
 1180TIP3    H2 3547   3.273   3.786   2.429 -0.9262 -0.8194 -0.1202
 1181TIP3   OH2 3548   1.586   4.751   3.682  0.1771  0.4022  0.6708
 1181TIP3    H1 3549   1.626   4.784   3.602 -3.3218  1.5737 -0.7955
 1181TIP3    H2 3550   1.565   4.660   3.663 -0.4375  0.6123  0.3244
 1182TIP3   OH2 3551   4.464   1.900   0.650 -0.6702 -0.9974  0.2546
 1182TIP3    H1 3552   4.554   1.929   0.655 -0.7307 -0.8245  0.3331
 1182TIP3    H2 3553   4.463   1.815   0.693 -0.2828 -1.6074 -0.8898
 1183TIP3   OH2 3554   0.940   5.440   3.632 -0.0445 -0.3226  0.3880
 1183TIP3    H1 3555   0.884   5.367   3.659 -0.3887 -0.4450 -0.6208
 1183TIP3    H2 3556   1.025   5.399   3.614 -0.5104 -0.6590 -1.1568
 1184TIP3   OH2 3557   3.072   1.526   2.211  0.0394 -0.1906 -0.2699
 1184TIP3    H1 3558   3.067   1.578   2.131  0.3331 -1.6379 -1.2798
 1184TIP3    H2 3559   3.001   1.462   2.202 -2.2796  1.7899  2.3315
 1185TIP3   OH2 3560   2.028   3.355   0.432 -0.3040 -0.9129  0.1462
 1185TIP3    H1 3561   2.102   3.415   0.444 -1.2178  0.1170  0.9688
 1185TIP3    H2 3562   1.951   3.410   0.449 -1.1492 -2.5397  2.0119
 1186TIP3   OH2 3563   1.145   4.122   4.316  0.6677 -0.2801  0.7594
 1186TIP3    H1 3564   1.227   4.137   4.267  0.8586  2.1160  1.7121
 1186TIP3    H2 3565   1.140   4.195   4.377 -1.9462 -0.6800  1.1094
 1187TIP3   OH2 3566   2.918   0.618   4.496 -0.3850 -0.0724 -0.9121
 1187TIP3    H1 3567   2.896   0.647   4.407 -1.4187  1.4286 -0.1997
 1187TIP3    H2 3568   2.997   0.667   4.518  1.0564 -1.9175 -1.6866
 1188TIP3   OH2 3569   6.286   5.310   1.831  0.2010  0.1166  0.3576
 1188TIP3    H1 3570   6.243   5.233   1.868  0.5083  0.3483  1.2440
 1188TIP3    H2 3571   6.253   5.383   1.884  1.8427  0.2670  1.2541
 1189TIP3   OH2 3572   0.305   3.063   0.745 -0.4573 -0.1464  0.0685
 1189TIP3    H1 3573   0.333   3.071   0.836  0.1766  1.5995 -0.2280
 1189TIP3    H2 3574   0.301   2.969   0.728 -0.8153 -0.5028  1.9504
 1190TIP3   OH2 3575   4.265   2.113   1.760  0.1123 -0.2196 -0.2321
 1190TIP3    H1 3576   4.176   2.099   1.729 -0.0110 -0.2362  0.1249
 1190TIP3    H2 3577   4.311   2.151   1.685 -0.2776  0.0822 -0.3194
 1191TIP3   OH2 3578   4.304   4.733   0.106 -0.2601  0.1591 -0.2588
 1191TIP3    H1 3579   4.246   4.681   0.162  1.3020  0.3204  1.5872
 1191TIP3    H2 3580   4.310   4.682   0.025 -0.4278 -1.4960  0.7269
 1192TIP3   OH2 3581   4.721   4.789   0.657 -0.1927  0.2755  0.3148
 1192TIP3    H1 3582   4.655   4.726   0.627  0.0741  0.5857 -1.0087
 1192TIP3    H2 3583   4.728   4.774   0.751  1.3462 -3.1874 -0.1729
 1193TIP3   OH2 3584   0.895   0.949   4.795 -0.0695  0.3586 -0.7164
 1193TIP3    H1 3585   0.975   0.902   4.768  0.7010  0.5333  1.1438
 1193TIP3    H2 3586   0.918   0.991   4.878 -2.1376  0.3310 -0.0714
 1194TIP3   OH2 3587   5.958   5.195   0.468  0.3109 -0.9097  0.3027
 1194TIP3    H1 3588   6.019   5.198   0.542 -0.0221  2.5047  0.5748
 1194TIP3    H2 3589   6.009   5.227   0.394 -1.1996  2.9652  0.7327
 1195TIP3   OH2 3590   2.577   5.501   1.635  0.0034 -0.2977  0.0577
 1195TIP3    H1 3591   2.566   5.406   1.635 -2.9986 -0.0586 -0.9892
 1195TIP3    H2 3592   2.560   5.527   1.544  0.6590  1.2849  0.3517
 1196TIP3   OH2 3593   6.027   1.020   4.157 -0.4353 -0.8581  0.2573
 1196TIP3    H1 3594   5.997   1.037   4.247 -2.1839  0.5115 -0.5343
 1196TIP3    H2 3595   6.001   0.930   4.140 -0.0910 -1.1352  1.1090
 1197TIP3   OH2 3596   2.111   1.701   2.908  0.0844  0.1172 -0.4426
 1197TIP3    H1 3597   2.070   1.777   2.865 -0.0506  0.7483  0.7716
 1197TIP3    H2 3598   2.039   1.640   2.921  0.2619 -0.4007 -1.7676
 1198TIP3   OH2 3599   5.086   2.063   4.770  0.3451  0.2214 -0.8804
 1198TIP3    H1 3600   4.994   2.039   4.779 -0.2855  2.7624  0.4778
 1198TIP3    H2 3601   5.126   1.988   4.726 -1.9346 -1.8433  0.3002
 1199TIP3   OH2 3602   4.889   4.114   1.772  0.3991 -0.2138 -0.1974
 1199TIP3    H1 3603   4.813   4.173   1.773 -0.1342 -0.8175  2.1910
 1199TIP3    H2 3604   4.850   4.027   1.765  0.7081 -0.6191  2.3544
 1200TIP3   OH2 3605   2.726   0.470   0.938 -0.0426  0.1470  0.0058
 1200TIP3    H1 3606   2.707   0.451   1.030 -0.3414 -2.0228 -0.4478
 1200TIP3    H2 3607   2.755   0.561   0.938  0.0115  0.1917  2.2516
 1201TIP3   OH2 3608   3.814   0.254   4.174 -0.5134  0.0850 -0.3058
 1201TIP3    H1 3609   3.824   0.224   4.264  0.3029 -2.0899 -1.0780
 1201TIP3    H2 3610   3.825   0.349   4.179 -1.1447  0.0838  1.9528
 1202TIP3   OH2 3611   3.288   3.749   0.981 -0.4080  0.6592 -0.3660
 1202TIP3    H1 3612   3.367   3.722   0.933 -0.5450  0.5085 -0.5103
 1202TIP3    H2 3613   3.219   3.746   0.915 -0.8709 -0.9248  0.1473
 1203TIP3   OH2 3614   1.334   2.922   2.257 -0.0304 -0.4998 -0.1500
 1203TIP3    H1 3615   1.275   2.972   2.200 -1.2405 -0.2932  1.2353
 1203TIP3    H2 3616   1.395   2.987   2.291 -2.7189  0.5953  3.1146
 1204TIP3   OH2 3617   3.357   0.075   3.728 -0.2093 -0.2412  0.2976
 1204TIP3    H1 3618   3.319   0.042   3.810 -0.4384  0.2968  0.4128
 1204TIP3    H2 3619   3.344   0.170   3.733  1.6996  0.0410  0.6227
 1205TIP3   OH2 3620   6.155   2.575   1.233  0.5137  0.5816  0.4082
 1205TIP3    H1 3621   6.082   2.522   1.200  0.0385  0.1615  2.0340
 1205TIP3    H2 3622   6.233   2.523   1.213  0.1247 -0.3118  1.1607
 1206TIP3   OH2 3623   1.207   4.049   4.947 -0.2278  0.0479  0.0730
 1206TIP3    H1 3624   1.235   4.091   4.865  0.4837 -0.5675 -0.0184
 1206TIP3    H2 3625   1.253   4.098   5.015  2.9792 -2.2602 -0.1892
 1207TIP3   OH2 3626   1.354   1.370   1.643  0.1663 -0.0827  0.6347
 1207TIP3    H1 3627   1.353   1.345   1.551 -0.4171 -2.8336  1.2868
 1207TIP3    H2 3628   1.395   1.295   1.688  0.4144  1.1600  2.6274
 1208TIP3   OH2 3629   4.213   2.867   4.203  0.4855 -0.0803 -0.2669
 1208TIP3    H1 3630   4.194   2.850   4.111  1.1839  0.7240 -0.5759
 1208TIP3    H2 3631   4.285   2.931   4.202  0.3445  0.1301  0.8291
 1209TIP3   OH2 3632   3.594   3.357   0.449 -0.0592  0.2931 -0.2495
 1209TIP3    H1 3633   3.619   3.375   0.540  2.5109 -1.7694 -0.4019
 1209TIP3    H2 3634   3.662   3.398   0.397 -2.0057  2.2521 -1.4106
 1210TIP3   OH2 3635   4.379   0.008   4.706 -0.3107 -0.3294 -0.0362
 1210TIP3    H1 3636   4.333  -0.051   4.765 -1.6872  1.5401  0.8562
 1210TIP3    H2 3637   4.446   0.049   4.760 -0.2204 -0.1127 -0.3057
 1211TIP3   OH2 3638   2.563   4.447   3.311 -0.8300 -0.4277  0.0734
 1211TIP3    H1 3639   2.506   4.413   3.242 -1.9394 -0.4181  0.9502
 1211TIP3    H2 3640   2.585   4.536   3.283 -1.4733 -0.3343 -0.1412
 1212TIP3   OH2 3641   3.495   0.696   4.684 -0.0721  0.0433  0.5094
 1212TIP3    H1 3642   3.416   0.657   4.648 -0.2564 -0.1400  1.1024
 1212TIP3    H2 3643   3.464   0.765   4.743  0.2448  0.8387 -0.2294
 1213TIP3   OH2 3644   4.968   3.672   2.512 -0.5682  0.4053  0.1572
 1213TIP3    H1 3645   4.902   3.740   2.501  0.1198  1.1757  0.7097
 1213TIP3    H2 3646   5.018   3.699   2.589 -0.1215 -0.5939  0.2309
 1214TIP3   OH2 3647   6.105   1.136   1.553  0.0100 -0.0589 -0.0470
 1214TIP3    H1 3648   6.041   1.108   1.618 -1.3713  0.0569 -1.3273
 1214TIP3    H2 3649   6.169   1.186   1.604 -0.2101 -1.2276  1.4513
 1215TIP3   OH2 3650   5.567   0.041   3.111  0.2672 -0.0978 -0.3810
 1215TIP3    H1 3651   5.618  -0.020   3.164 -1.0792 -0.8372  0.1086
 1215TIP3    H2 3652   5.601   0.028   3.022  0.0705 -1.5161 -0.2724
 1216TIP3   OH2 3653   1.821   5.785   0.214  0.0703  0.0548 -0.6977
 1216TIP3    H1 3654   1.859   5.847   0.277 -1.0978 -1.1869  1.3291
 1216TIP3    H2 3655   1.886   5.716   0.207  0.0403  0.0146 -0.5769
 1217TIP3   OH2 3656   2.288   2.137   0.536  0.3557 -0.3490  0.5133
 1217TIP3    H1 3657   2.324   2.075   0.599  0.6820  0.2113  0.8843
 1217TIP3    H2 3658   2.195   2.142   0.558  0.3433 -0.6576  0.5245
 1218TIP3   OH2 3659   2.778   2.755   2.025  0.1313 -0.2299  0.1828
 1218TIP3    H1 3660   2.787   2.672   2.073  0.9261 -0.3039 -0.0800
 1218TIP3    H2 3661   2.699   2.743   1.972  0.6842 -1.1344 -0.4645
 1219TIP3   OH2 3662   2.464   4.335   1.165  0.1330  0.3205  0.4034
 1219TIP3    H1 3663   2.399   4.404   1.180 -1.3336 -1.0246  0.5434
 1219TIP3    H2 3664   2.413   4.254   1.162  1.3116 -0.4925 -3.1030
 1220TIP3   OH2 3665   4.412   3.367   3.490 -0.4893 -0.0645 -0.5041
 1220TIP3    H1 3666   4.450   3.418   3.561  0.3541 -0.7655 -0.4377
 1220TIP3    H2 3667   4.460   3.396   3.412  1.6689 -2.3527 -0.1433
 1221TIP3   OH2 3668   0.296   1.443   4.660 -0.1247  0.1902 -0.3117
 1221TIP3    H1 3669   0.332   1.395   4.735  0.1974  1.5832  0.4514
 1221TIP3    H2 3670   0.358   1.513   4.644  0.2949 -0.6030 -2.5178
 1222TIP3   OH2 3671   2.996   0.382   0.179  0.2343 -0.3857 -0.2140
 1222TIP3    H1 3672   3.033   0.432   0.251 -1.8058  0.8935  0.0224
 1222TIP3    H2 3673   2.999   0.441   0.104 -0.4440 -0.5910 -0.4118
 1223TIP3   OH2 3674   2.257   4.527   1.553  0.0789  0.0576  0.1052
 1223TIP3    H1 3675   2.162   4.540   1.559 -0.4409 -3.2059  0.9239
 1223TIP3    H2 3676   2.293   4.580   1.623 -1.1436  1.1510 -0.0461
 1224TIP3   OH2 3677   2.739   0.958   3.020 -0.1461  0.0326 -0.4311
 1224TIP3    H1 3678   2.661   0.914   2.989 -0.3452 -0.4252  0.7009
 1224TIP3    H2 3679   2.756   1.026   2.954 -1.3526 -0.0137 -0.8012
 1225TIP3   OH2 3680   2.659   1.716   3.177 -0.2603  0.2167 -0.1868
 1225TIP3    H1 3681   2.705   1.765   3.245  0.9055 -0.5159 -0.4272
 1225TIP3    H2 3682   2.568   1.743   3.186  0.3011  2.3421 -0.2150
 1226TIP3   OH2 3683   3.465   0.640   3.012  0.6841 -0.5193 -0.5620
 1226TIP3    H1 3684   3.484   0.630   2.919 -0.4333  0.1767 -0.8856
 1226TIP3    H2 3685   3.372   0.616   3.020 -0.1956  2.5574 -0.2382
 1227TIP3   OH2 3686   3.962   3.769   0.635  0.2492 -0.1254  0.0005
 1227TIP3    H1 3687   3.953   3.863   0.646 -0.3070  0.0583 -1.6562
 1227TIP3    H2 3688   4.053   3.756   0.606 -0.2888  0.2065 -2.0099
 1228TIP3   OH2 3689   4.509   5.362   5.147 -0.2047 -0.2407 -0.1175
 1228TIP3    H1 3690   4.419   5.363   5.180 -0.6911 -0.3935 -1.3950
 1228TIP3    H2 3691   4.504   5.314   5.064  1.4349 -2.2389  0.8438
 1229TIP3   OH2 3692   0.346   1.721   1.262 -0.2513 -0.2310 -0.1677
 1229TIP3    H1 3693   0.346   1.801   1.210  1.1040  1.0442  1.6459
 1229TIP3    H2 3694   0.295   1.744   1.340  0.3516 -1.0350  0.4778
 1230TIP3   OH2 3695   1.129   5.301   1.236  0.0704  0.1513  0.1991
 1230TIP3    H1 3696   1.171   5.254   1.307 -3.3964 -2.0368  1.0216
 1230TIP3    H2 3697   1.156   5.254   1.157  0.4767 -0.1598  0.5178
 1231TIP3   OH2 3698   4.183   5.030   1.599  0.2167  0.1010 -0.3010
 1231TIP3    H1 3699   4.146   5.069   1.678  0.6690 -1.1681  0.5820
 1231TIP3    H2 3700   4.221   4.947   1.629  0.5127 -0.3549 -1.8312
 1232TIP3   OH2 3701   0.142   4.001   1.405  0.0116 -0.0806  0.3086
 1232TIP3    H1 3702   0.224   3.962   1.374 -0.3108  0.0782 -0.7934
 1232TIP3    H2 3703   0.093   4.020   1.325 -0.9216  0.2250  0.9367
 1233TIP3   OH2 3704   3.121   0.772   4.917 -0.8334  0.0643 -0.4526
 1233TIP3    H1 3705   3.114   0.701   4.981 -0.1659  0.4416  0.0553
 1233TIP3    H2 3706   3.177   0.837   4.960  2.3216 -1.0016 -2.5662
 1234TIP3   OH2 3707   2.272   2.137   5.114  0.0665  0.0765 -0.4030
 1234TIP3    H1 3708   2.177   2.141   5.105  0.1371  0.1658 -1.2039
 1234TIP3    H2 3709   2.299   2.227   5.128  0.1761  0.3044 -1.9179
 1235TIP3   OH2 3710   1.155   1.804   4.939  0.1688 -0.1890 -0.1020
 1235TIP3    H1 3711   1.076   1.856   4.928 -0.8296 -1.4889  0.6181
 1235TIP3    H2 3712   1.200   1.845   5.013 -0.3085 -0.0137  0.0953
 1236TIP3   OH2 3713   1.658   4.004   0.607  0.2167 -0.2412 -0.1190
 1236TIP3    H1 3714   1.592   4.062   0.569 -1.4451 -0.3930  2.2728
 1236TIP3    H2 3715   1.684   4.047   0.688  2.7313 -0.4636 -0.7532
 1237TIP3   OH2 3716   2.087   1.356   0.371 -0.1078  0.1288 -0.5344
 1237TIP3    H1 3717   2.119   1.437   0.332  1.0441 -0.0870 -0.1032
 1237TIP3    H2 3718   1.995   1.351   0.346 -0.6235  2.3342  0.7233
 1238TIP3   OH2 3719   5.575   0.126   0.698  0.1360 -0.3659  0.3465
 1238TIP3    H1 3720   5.516   0.135   0.773 -1.7724  0.3069 -1.1514
 1238TIP3    H2 3721   5.556   0.039   0.663 -1.1999  0.4197 -1.0424
 1239TIP3   OH2 3722   0.155   3.836   1.063 -0.3899  0.4876 -0.6396
 1239TIP3    H1 3723   0.157   3.918   1.015 -2.2594 -0.1459 -1.9248
 1239TIP3    H2 3724   0.109   3.858   1.145 -1.4073  0.6491 -1.2280
 1240TIP3   OH2 3725   5.307   2.766   0.239  0.0508 -0.1901  0.4527
 1240TIP3    H1 3726   5.346   2.680   0.253 -1.2407 -0.5662  1.9954
 1240TIP3    H2 3727   5.280   2.795   0.326 -0.3805  1.3720 -0.1667
 1241TIP3   OH2 3728   3.518   4.411   2.180  0.0239  0.7757 -0.5468
 1241TIP3    H1 3729   3.594   4.451   2.140 -0.8943  1.5969 -1.5261
 1241TIP3    H2 3730   3.551   4.332   2.222  1.1818  0.3718 -2.1523
 1242TIP3   OH2 3731   2.972   4.372   2.630  0.4103 -0.0551 -0.4054
 1242TIP3    H1 3732   2.918   4.293   2.633  0.7553 -0.2594  1.5277
 1242TIP3    H2 3733   3.010   4.379   2.717 -0.4347  2.8120 -0.1296
 1243TIP3   OH2 3734   2.316   2.853   1.040 -0.0946  0.4368 -0.3617
 1243TIP3    H1 3735   2.318   2.944   1.067  0.7658  0.1305  0.6459
 1243TIP3    H2 3736   2.332   2.855   0.945 -0.3846  1.3309 -0.3970
 1244TIP3   OH2 3737   1.171   5.282   3.304 -0.0214  0.5542  0.0842
 1244TIP3    H1 3738   1.221   5.343   3.249  0.6101 -0.3822 -0.4142
 1244TIP3    H2 3739   1.194   5.307   3.393  0.8829  0.5411 -0.1290
 1245TIP3   OH2 3740   4.989   4.669   1.769  0.5270  0.0123 -0.3614
 1245TIP3    H1 3741   5.047   4.593   1.762  2.5262  1.3868  0.0644
 1245TIP3    H2 3742   4.956   4.666   1.859 -2.9666 -2.6427 -1.5493
 1246TIP3   OH2 3743   5.138   1.203   2.700 -0.1521 -0.6608  0.4507
 1246TIP3    H1 3744   5.160   1.229   2.611  1.3358  0.6705  1.1450
 1246TIP3    H2 3745   5.222   1.184   2.741 -0.6059  0.5085  2.0588
 1247TIP3   OH2 3746   3.809   4.388   2.137 -0.6484 -0.3082 -0.0732
 1247TIP3    H1 3747   3.899   4.420   2.132 -1.1507  0.9825 -2.9851
 1247TIP3    H2 3748   3.792   4.377   2.230  2.4145 -0.3412  0.5656
 1248TIP3   OH2 3749   3.867   1.599   4.750  0.1069 -0.1012 -0.2699
 1248TIP3    H1 3750   3.820   1.614   4.832  1.5528 -1.5336  0.8948
 1248TIP3    H2 3751   3.870   1.685   4.708 -1.0876  0.5720  0.9292
 1249TIP3   OH2 3752   0.630   2.862   2.350 -0.0179 -0.7090 -0.7523
 1249TIP3    H1 3753   0.702   2.799   2.341 -0.3941 -1.2495 -0.0441
 1249TIP3    H2 3754   0.589   2.840   2.433  0.6878  1.3659  0.2085
 1250TIP3   OH2 3755   5.289   1.147   1.296  0.0848  0.5969  0.4944
 1250TIP3    H1 3756   5.333   1.072   1.256 -0.0515  1.8201 -2.2427
 1250TIP3    H2 3757   5.196   1.123   1.297  0.1431  0.3697  0.4968
 1251TIP3   OH2 3758   0.748   4.927   0.717  0.8101  0.6193  0.1634
 1251TIP3    H1 3759   0.741   4.984   0.641  0.3960  0.1289 -0.1683
 1251TIP3    H2 3760   0.841   4.903   0.721  0.6332 -0.3044 -0.8956
 1252TIP3   OH2 3761   1.093   1.608   2.532  0.3139  0.5643  0.2103
 1252TIP3    H1 3762   1.042   1.533   2.500  0.3651  0.7717 -0.3636
 1252TIP3    H2 3763   1.086   1.602   2.628  0.9476 -0.5997  0.1965
 1253TIP3   OH2 3764   2.897   2.120   1.911  0.2784 -0.0470 -0.2565
 1253TIP3    H1 3765   2.823   2.070   1.944 -1.5457  3.2545  1.1339
 1253TIP3    H2 3766   2.893   2.109   1.816 -1.6510 -0.4292 -0.1720
 1254TIP3   OH2 3767   0.606   5.753   2.824 -0.0119 -0.6779  0.0763
 1254TIP3    H1 3768   0.594   5.673   2.876  0.9836 -0.3933  0.7880
 1254TIP3    H2 3769   0.696   5.746   2.791  0.2540  0.3576  0.5397
 1255TIP3   OH2 3770   5.116   0.230   3.543 -0.3990 -0.2966  0.5110
 1255TIP3    H1 3771   5.047   0.230   3.477  0.1752 -1.2911 -0.1166
 1255TIP3    H2 3772   5.197   0.230   3.493  0.1015  1.3983  1.2380
 1256TIP3   OH2 3773   0.214   0.497   2.824 -0.4084 -0.2128  0.3027
 1256TIP3    H1 3774   0.293   0.479   2.875  0.2510  0.4771 -0.4556
 1256TIP3    H2 3775   0.154   0.537   2.886 -0.6055 -1.7986  1.1695
 1257TIP3   OH2 3776   1.140   5.276   4.551 -0.1236  0.1827 -0.2248
 1257TIP3    H1 3777   1.137   5.283   4.456 -1.0425 -3.4804 -0.6195
 1257TIP3    H2 3778   1.060   5.319   4.581  0.1095  1.2447 -1.0789
 1258TIP3   OH2 3779   3.542   0.865   0.200 -0.3281  0.7616 -0.1117
 1258TIP3    H1 3780   3.491   0.944   0.218 -0.2563  0.7532  0.1259
 1258TIP3    H2 3781   3.612   0.866   0.265 -0.0008  0.7914 -0.4652
 1259TIP3   OH2 3782   0.580   0.092   0.908 -0.4922 -0.2126 -0.3106
 1259TIP3    H1 3783   0.558   0.169   0.960  1.1000 -0.2234  0.4435
 1259TIP3    H2 3784   0.566   0.119   0.817  1.7063  1.5968 -0.1865
 1260TIP3   OH2 3785   0.132   1.030   3.687  0.3190 -0.3852 -0.5503
 1260TIP3    H1 3786   0.201   1.092   3.713  2.9876 -3.0533 -0.6378
 1260TIP3    H2 3787   0.068   1.083   3.641  0.5661  2.8612  2.4404
 1261TIP3   OH2 3788   1.685   2.344   0.895 -0.1041 -0.3270  0.8505
 1261TIP3    H1 3789   1.761   2.386   0.935 -0.3360 -0.1308  1.0873
 1261TIP3    H2 3790   1.613   2.363   0.955 -0.2348 -0.9594  0.9022
 1262TIP3   OH2 3791   1.667   2.527   5.069 -0.1443  0.3631  0.0411
 1262TIP3    H1 3792   1.588   2.525   5.014 -0.0915 -1.4966 -0.0222
 1262TIP3    H2 3793   1.716   2.449   5.043 -0.1204 -0.6131  2.7111
 1263TIP3   OH2 3794   3.630   1.035   2.383 -0.4446 -0.5677 -0.3266
 1263TIP3    H1 3795   3.696   0.977   2.422  0.9185  1.9102  1.3699
 1263TIP3    H2 3796   3.558   1.036   2.447  0.5270  1.2349  0.8404
 1264TIP3   OH2 3797   2.507   1.313   3.660 -0.1828  0.3260  0.8546
 1264TIP3    H1 3798   2.521   1.264   3.579  0.7855  0.1383  1.1204
 1264TIP3    H2 3799   2.554   1.396   3.646  2.3182 -0.7423  2.1752
 1265TIP3   OH2 3800   1.384   0.016   5.039  0.2624  0.2285 -0.0321
 1265TIP3    H1 3801   1.315   0.057   4.987 -0.5226 -2.5558 -1.3852
 1265TIP3    H2 3802   1.348   0.009   5.127 -0.6504 -0.0353 -0.4269
 1266TIP3   OH2 3803   1.103   3.218   1.523 -0.0792  0.0065 -0.5821
 1266TIP3    H1 3804   1.022   3.175   1.495 -0.7941  0.7687  0.2794
 1266TIP3    H2 3805   1.134   3.166   1.597 -0.8672  0.8482  0.3675
 1267TIP3   OH2 3806   0.690   2.766   0.351  0.2939  0.2066  0.2199
 1267TIP3    H1 3807   0.734   2.769   0.436  0.9217  1.6246 -0.1152
 1267TIP3    H2 3808   0.604   2.729   0.370  1.1327 -1.3639  1.1122
 1268TIP3   OH2 3809   4.804   1.432   1.540 -0.7720 -0.7875 -0.6747
 1268TIP3    H1 3810   4.778   1.355   1.590 -1.5066 -0.2116 -0.1574
 1268TIP3    H2 3811   4.722   1.473   1.513 -0.4087  0.1408 -0.4253
 1269TIP3   OH2 3812   4.585   2.662   1.275 -0.0644  0.3758 -0.0543
 1269TIP3    H1 3813   4.613   2.586   1.225 -0.3769  1.8824 -2.7245
 1269TIP3    H2 3814   4.666   2.700   1.310  0.2982 -0.0855 -0.3864
 1270TIP3   OH2 3815   0.861   4.442   3.822  0.6261 -0.2240  0.1650
 1270TIP3    H1 3816   0.782   4.495   3.832  1.0485  0.4773 -0.1611
 1270TIP3    H2 3817   0.875   4.437   3.727  0.9416 -0.3887  0.2179
 1271TIP3   OH2 3818   2.095   5.778   4.791  0.1495 -0.4624  0.0943
 1271TIP3    H1 3819   2.132   5.722   4.723 -1.5876  0.2251 -1.4955
 1271TIP3    H2 3820   2.070   5.718   4.861  2.1937 -1.1624  0.3009
 1272TIP3   OH2 3821   1.083   5.752   2.576 -0.1854  0.1518  0.6934
 1272TIP3    H1 3822   1.105   5.794   2.493 -0.1104 -0.8267  0.2143
 1272TIP3    H2 3823   1.062   5.662   2.554 -0.0746 -0.1530  1.7483
 1273TIP3   OH2 3824   0.272   4.909   0.112  0.2025  0.2210  0.5969
 1273TIP3    H1 3825   0.219   4.860   0.175 -1.2137  1.3970  0.3812
 1273TIP3    H2 3826   0.358   4.917   0.154 -0.2504 -0.3449  1.6795
 1274TIP3   OH2 3827   4.100   3.844   4.804 -0.0470  0.1736 -0.4813
 1274TIP3    H1 3828   4.166   3.892   4.756  0.0282  1.2917  0.7022
 1274TIP3    H2 3829   4.135   3.835   4.893 -0.6752 -0.8322 -0.3134
 1275TIP3   OH2 3830   3.700   0.541   4.740 -0.2643  0.1945 -0.3744
 1275TIP3    H1 3831   3.639   0.608   4.708 -0.2358  0.8793  0.9374
 1275TIP3    H2 3832   3.694   0.547   4.836  0.7570 -0.7509 -0.2320
 1276TIP3   OH2 3833   1.886   1.157   4.194  0.1357 -0.3189 -0.2061
 1276TIP3    H1 3834   1.846   1.077   4.227 -0.1930 -0.2871 -0.5237
 1276TIP3    H2 3835   1.847   1.169   4.108 -1.7949  1.6070  0.8554
 1277TIP3   OH2 3836   3.311   2.250   0.299  0.9673 -0.7726 -0.5091
 1277TIP3    H1 3837   3.348   2.254   0.211  1.1565 -0.1662 -0.4081
 1277TIP3    H2 3838   3.349   2.326   0.344  1.2874 -1.3631  0.2509
 1278TIP3   OH2 3839   1.431   3.672   0.268 -0.9507  0.3315  0.1116
 1278TIP3    H1 3840   1.351   3.726   0.270 -1.2567 -0.0792 -0.5152
 1278TIP3    H2 3841   1.458   3.673   0.176 -0.0000  0.7901  0.3883
 1279TIP3   OH2 3842   1.984   2.740   1.615  0.6497  0.5222  0.4542
 1279TIP3    H1 3843   2.044   2.805   1.652 -1.7293  2.9182  0.4835
 1279TIP3    H2 3844   2.017   2.725   1.526  1.4760  1.5468  0.5619
 1280TIP3   OH2 3845   3.291   5.056   4.806 -0.4247 -0.3118  0.1592
 1280TIP3    H1 3846   3.309   4.987   4.741 -2.7719 -2.1173  1.2875
 1280TIP3    H2 3847   3.311   5.015   4.890 -2.6037  0.0460  0.9144
 1281TIP3   OH2 3848   2.967   2.001   3.557 -0.5046  0.2621 -0.5191
 1281TIP3    H1 3849   2.953   2.001   3.652  1.4595 -1.7990 -0.1305
 1281TIP3    H2 3850   3.062   2.014   3.547 -0.5295 -0.4781 -2.1301
 1282TIP3   OH2 3851   4.859   0.083   2.065  0.3674 -0.0358 -0.2671
 1282TIP3    H1 3852   4.817   0.054   1.984 -1.0167 -1.5064  0.9160
 1282TIP3    H2 3853   4.838   0.015   2.129  1.4914  1.0382  1.3259
 1283TIP3   OH2 3854  -0.000   1.754   3.700  0.3124 -0.1933  0.3348
 1283TIP3    H1 3855   0.063   1.692   3.737  0.9624 -0.3857 -1.0372
 1283TIP3    H2 3856  -0.040   1.707   3.627  2.5175  1.6998 -2.2581
 1284TIP3   OH2 3857   3.054   1.900   2.436  0.2573 -0.3827 -0.2708
 1284TIP3    H1 3858   2.998   1.892   2.359  0.9614  0.3495 -0.8894
 1284TIP3    H2 3859   3.134   1.940   2.403  1.0689 -1.2008  0.6261
 1285TIP3   OH2 3860   5.822   1.116   0.289  0.0213 -0.1446 -0.3784
 1285TIP3    H1 3861   5.854   1.075   0.369 -0.0138  0.3692 -0.0943
 1285TIP3    H2 3862   5.901   1.136   0.239  0.0165 -0.9581 -0.7268
 1286TIP3   OH2 3863   0.366   5.013   4.485  0.1762  0.2628  0.2195
 1286TIP3    H1 3864   0.444   5.052   4.445  1.1628 -0.1845  1.6302
 1286TIP3    H2 3865   0.397   4.931   4.523 -1.5641 -1.3032 -1.4860
 1287TIP3   OH2 3866   5.009   4.695   3.230 -0.2833  0.1218  0.1738
 1287TIP3    H1 3867   4.955   4.616   3.235 -0.3444  0.1585  0.0965
 1287TIP3    H2 3868   4.947   4.765   3.209  0.0000 -0.0905 -1.5547
 1288TIP3   OH2 3869   5.107   0.124   3.097  0.2757  0.4752  0.0461
 1288TIP3    H1 3870   5.172   0.193   3.081 -0.5068  0.8592 -1.7480
 1288TIP3    H2 3871   5.158   0.048   3.125  1.3160  1.2741  0.3861
 1289TIP3   OH2 3872   5.147   2.168   1.927  0.4381  0.1320 -0.4712
 1289TIP3    H1 3873   5.070   2.143   1.876 -1.5005 -0.0151  2.3368
 1289TIP3    H2 3874   5.113   2.222   1.998  2.6115 -1.5280  2.0073
 1290TIP3   OH2 3875   1.291   3.906   0.247 -0.8260  0.1134 -0.1299
 1290TIP3    H1 3876   1.295   3.992   0.205  2.7715  0.4253  0.5519
 1290TIP3    H2 3877   1.286   3.924   0.340 -2.1468 -0.4982 -0.0596
 1291TIP3   OH2 3878   4.739   2.448   3.689  0.0021  0.5606 -0.0063
 1291TIP3    H1 3879   4.780   2.429   3.773  0.3318  0.9885 -0.0704
 1291TIP3    H2 3880   4.781   2.528   3.659  2.0703 -1.1060 -1.9576
 1292TIP3   OH2 3881   5.277   5.080   1.440 -0.2095 -0.1716  0.0213
 1292TIP3    H1 3882   5.356   5.038   1.404 -0.7775 -2.1459  0.9505
 1292TIP3    H2 3883   5.205   5.027   1.407 -1.0034  0.2930  0.9666
 1293TIP3   OH2 3884   1.914   3.589   4.638  0.0272 -0.0036  0.2635
 1293TIP3    H1 3885   1.979   3.527   4.672 -0.1199  0.2786  1.0749
 1293TIP3    H2 3886   1.964   3.646   4.579 -0.0968 -1.7566 -1.6606
 1294TIP3   OH2 3887   5.891   0.842   1.599 -0.0336  0.0342 -0.3045
 1294TIP3    H1 3888   5.963   0.862   1.538  0.0466 -0.1587 -0.2752
 1294TIP3    H2 3889   5.934   0.796   1.672 -0.1378  0.2169 -0.1287
 1295TIP3   OH2 3890   1.767   2.857   0.584  0.2720 -0.4899  0.1589
 1295TIP3    H1 3891   1.726   2.944   0.587 -0.3415 -0.7543 -0.3447
 1295TIP3    H2 3892   1.699   2.799   0.550  0.8399 -1.0783 -0.0067
 1296TIP3   OH2 3893   4.769   2.156   3.036 -0.2941 -0.4461  0.4429
 1296TIP3    H1 3894   4.707   2.152   3.110 -1.8839 -0.1509 -0.8117
 1296TIP3    H2 3895   4.745   2.081   2.981  0.5509 -0.3840 -0.0184
 1297TIP3   OH2 3896   4.862   5.050   1.195 -0.0971  0.5270 -0.1764
 1297TIP3    H1 3897   4.853   5.129   1.248 -0.7458  0.0234  0.4719
 1297TIP3    H2 3898   4.845   5.079   1.106  0.7538  1.3321 -0.0945
 1298TIP3   OH2 3899   5.434   1.241   0.855 -0.4780 -0.1110 -0.3223
 1298TIP3    H1 3900   5.433   1.269   0.763 -1.7064  1.1885  0.0427
 1298TIP3    H2 3901   5.349   1.200   0.868 -0.1895 -0.5620  0.1692
 1299TIP3   OH2 3902   2.320   3.829   3.226 -0.2296 -0.4290 -0.2365
 1299TIP3    H1 3903   2.324   3.831   3.322 -3.4584 -1.8436  0.0683
 1299TIP3    H2 3904   2.340   3.738   3.203 -1.7767 -0.7096 -0.6282
 1300TIP3   OH2 3905   4.965   0.684   1.703  0.7436  0.6172 -0.3595
 1300TIP3    H1 3906   4.881   0.729   1.696  2.4108  3.8701 -1.3661
 1300TIP3    H2 3907   4.990   0.664   1.613  1.9998  1.7554 -0.3033
 1301TIP3   OH2 3908   1.978   2.590   2.275  0.3714 -0.0542 -0.7817
 1301TIP3    H1 3909   1.950   2.531   2.205 -2.2778 -1.1543  1.0532
 1301TIP3    H2 3910   1.941   2.675   2.251 -2.1648 -0.8224  0.0485
 1302TIP3   OH2 3911   0.285   4.554   0.302 -0.1077  0.8186 -0.0355
 1302TIP3    H1 3912   0.307   4.465   0.326 -0.1728  0.0616 -2.5107
 1302TIP3    H2 3913   0.196   4.548   0.266 -0.2565  1.9524  0.0955
 1303TIP3   OH2 3914   3.158   0.409   0.767  0.4921  0.0772 -0.3314
 1303TIP3    H1 3915   3.204   0.433   0.686  4.1018 -0.5278  1.3236
 1303TIP3    H2 3916   3.208   0.335   0.801 -1.0916  0.1066  2.2872
 1304TIP3   OH2 3917   2.947   4.013   1.049 -0.1295  0.4201 -0.2738
 1304TIP3    H1 3918   2.959   4.107   1.038  0.2600  0.3174 -0.7598
 1304TIP3    H2 3919   2.948   3.999   1.143 -1.7343  1.1001 -0.1134
 1305TIP3   OH2 3920   1.527   4.707   2.576 -0.1386  0.0061  0.2989
 1305TIP3    H1 3921   1.545   4.614   2.560  0.2706  0.2700 -0.8697
 1305TIP3    H2 3922   1.486   4.709   2.663  1.1993 -1.1035  0.9894
 1306TIP3   OH2 3923   3.206   5.231   2.507 -0.4866 -0.1856  0.0304
 1306TIP3    H1 3924   3.216   5.239   2.602  0.2464 -1.2058  0.0582
 1306TIP3    H2 3925   3.209   5.321   2.475 -1.8665  0.2619  1.0586
 1307TIP3   OH2 3926   4.368   4.691   5.081 -0.0140 -0.0024  0.0383
 1307TIP3    H1 3927   4.366   4.605   5.039  0.7156 -0.1176  0.2190
 1307TIP3    H2 3928   4.353   4.753   5.009  0.2370 -0.2416 -0.2234
 1308TIP3   OH2 3929   0.234   1.338   1.359 -0.4038  0.0100  0.1030
 1308TIP3    H1 3930   0.203   1.249   1.343  2.0090 -0.9352  0.2207
 1308TIP3    H2 3931   0.321   1.341   1.318 -0.6468  2.5174 -0.4151
 1309TIP3   OH2 3932   4.663   3.291   1.935 -0.4877 -0.3038  0.2186
 1309TIP3    H1 3933   4.628   3.347   2.004  0.3538 -0.1830  0.5552
 1309TIP3    H2 3934   4.622   3.324   1.855 -0.5297  0.3457  0.4992
 1310TIP3   OH2 3935   4.163   0.191   2.893 -0.5293 -0.0991 -0.3590
 1310TIP3    H1 3936   4.236   0.185   2.832 -0.8119  0.4129 -0.7524
 1310TIP3    H2 3937   4.092   0.230   2.842 -0.7610  0.3514  0.2976
 1311TIP3   OH2 3938   3.595   2.874   4.101 -0.7435 -0.2185  0.2179
 1311TIP3    H1 3939   3.570   2.903   4.189 -1.6625 -0.0717 -0.0760
 1311TIP3    H2 3940   3.690   2.884   4.099 -0.8060  0.7024  0.8687
 1312TIP3   OH2 3941   1.226   5.462   0.277 -0.5732  0.3886 -0.8090
 1312TIP3    H1 3942   1.213   5.421   0.362  0.7957 -0.1439 -0.8317
 1312TIP3    H2 3943   1.244   5.554   0.297 -0.3317  0.2812 -0.5143
 1313TIP3   OH2 3944   5.971   0.946   2.015 -0.1472  0.6113 -0.1868
 1313TIP3    H1 3945   5.917   0.878   2.054  0.9738  0.3705  1.0304
 1313TIP3    H2 3946   6.051   0.901   1.989  0.9432  1.5495  1.3713
 1314TIP3   OH2 3947   3.971   0.448   4.000 -0.2942  0.2719 -0.0692
 1314TIP3    H1 3948   4.024   0.525   3.980 -2.4453  1.5545 -1.2308
 1314TIP3    H2 3949   3.909   0.478   4.067 -1.1782 -0.4127 -0.5457
 1315TIP3   OH2 3950   0.941   4.734   1.148 -0.1549  0.5162  0.4771
 1315TIP3    H1 3951   0.991   4.766   1.223  0.2364 -0.0563  0.4688
 1315TIP3    H2 3952   0.971   4.644   1.136  0.8407  1.0254 -1.2228
 1316TIP3   OH2 3953   2.542   0.401   1.422 -0.0180 -0.0935  0.0776
 1316TIP3    H1 3954   2.546   0.496   1.421  1.2556 -0.1204 -0.0763
 1316TIP3    H2 3955   2.449   0.380   1.423 -0.3166  1.1415 -0.4490
 1317TIP3   OH2 3956   3.761   1.858   2.508 -0.3172 -0.3246  0.5366
 1317TIP3    H1 3957   3.840   1.805   2.516  0.5712  0.8021 -0.3773
 1317TIP3    H2 3958   3.747   1.895   2.595 -1.2387 -2.3651  1.3290
 1318TIP3   OH2 3959   2.782   4.060   3.299  0.2480  0.5701  0.0724
 1318TIP3    H1 3960   2.804   4.148   3.330  1.3055  0.7012 -0.9536
 1318TIP3    H2 3961   2.710   4.073   3.238  0.1870  0.6784  0.1661
 1319TIP3   OH2 3962   0.016   0.473   4.120  0.3500 -0.3021 -0.1829
 1319TIP3    H1 3963   0.079   0.406   4.148  0.2060 -0.6382 -0.6421
 1319TIP3    H2 3964  -0.068   0.442   4.152  0.3815  0.0282  0.2271
 1320TIP3   OH2 3965   0.882   0.702   0.241 -0.3040 -0.1412 -0.1938
 1320TIP3    H1 3966   0.832   0.783   0.254  0.7681  0.6665 -0.9148
 1320TIP3    H2 3967   0.896   0.698   0.146  1.5668  0.0296  0.0396
 1321TIP3   OH2 3968   2.527   3.309   0.874  0.0254 -0.2543  0.0618
 1321TIP3    H1 3969   2.512   3.215   0.884 -0.9618 -0.0698  0.4729
 1321TIP3    H2 3970   2.583   3.332   0.949 -0.1999 -0.4201  0.2855
 1322TIP3   OH2 3971   2.561   3.760   2.566 -0.5193  0.1905 -0.1298
 1322TIP3    H1 3972   2.598   3.819   2.631 -1.1229 -2.4989  2.8769
 1322TIP3    H2 3973   2.494   3.812   2.521  0.1205  2.2410  1.2008
 1323TIP3   OH2 3974   1.996   0.930   1.837 -0.9025 -0.1136 -0.1031
 1323TIP3    H1 3975   2.043   0.965   1.762 -2.0284  0.8454 -0.3945
 1323TIP3    H2 3976   2.024   0.984   1.911 -1.0987  0.0771 -0.1670
 1324TIP3   OH2 3977   5.282   4.963   2.737 -0.1325 -0.6017 -0.2591
 1324TIP3    H1 3978   5.297   5.057   2.731  0.3055 -0.6912 -0.6228
 1324TIP3    H2 3979   5.201   4.948   2.688  0.6226 -0.6165 -1.5415
 1325TIP3   OH2 3980   1.011   0.401   4.692  0.2877 -0.5752  0.3435
 1325TIP3    H1 3981   0.948   0.332   4.710 -0.2380  0.0726  1.0772
 1325TIP3    H2 3982   1.084   0.357   4.648 -0.1007 -1.5550  0.6591
 1326TIP3   OH2 3983   1.845   0.685   1.563  0.0696  0.4859 -0.1055
 1326TIP3    H1 3984   1.865   0.765   1.515 -2.7887  2.1155  1.1745
 1326TIP3    H2 3985   1.841   0.713   1.655 -1.2372 -1.0413  0.3461
 1327TIP3   OH2 3986   1.826   4.867   2.133  0.3373 -0.4701  0.1748
 1327TIP3    H1 3987   1.911   4.822   2.136 -0.0527 -1.2167  0.4353
 1327TIP3    H2 3988   1.768   4.811   2.184 -0.0461  0.6303  0.9788
 1328TIP3   OH2 3989   4.498   5.964   2.860 -0.4886 -0.2931 -0.4945
 1328TIP3    H1 3990   4.521   5.978   2.768 -0.5089  2.2924 -0.1907
 1328TIP3    H2 3991   4.414   6.009   2.871 -0.4907 -0.5744  0.7814
 1329TIP3   OH2 3992   0.541   5.742   3.780 -0.0104  0.3608 -0.1675
 1329TIP3    H1 3993   0.600   5.798   3.830 -0.5113  0.5428  0.2218
 1329TIP3    H2 3994   0.600   5.687   3.728  0.4935  1.1299 -0.4425
 1330TIP3   OH2 3995   0.448   0.903   2.080  0.4518  0.3200 -0.4077
 1330TIP3    H1 3996   0.452   0.986   2.128  0.3158  0.9390 -1.4295
 1330TIP3    H2 3997   0.447   0.929   1.988  0.5280 -0.8294 -0.7484
 1331TIP3   OH2 3998   1.350   0.858   0.318  0.2713  0.0395 -0.0410
 1331TIP3    H1 3999   1.282   0.856   0.250  0.2888  1.0576 -0.1161
 1331TIP3    H2 4000   1.426   0.897   0.274  1.0013 -1.3336 -0.0305
 1332TIP3   OH2 4001   4.569   1.998   1.557  0.3705  0.1920 -0.7134
 1332TIP3    H1 4002   4.632   2.059   1.519 -0.2393  0.8713 -0.6625
 1332TIP3    H2 4003   4.489   2.050   1.568 -0.8012 -1.1277 -2.4981
 1333TIP3   OH2 4004   0.440   1.132   3.041 -0.2003 -0.9561  0.2297
 1333TIP3    H1 4005   0.457   1.043   3.012 -1.6164 -0.3421 -2.9347
 1333TIP3    H2 4006   0.345   1.139   3.045 -0.2965  1.1274 -2.6105
 1334TIP3   OH2 4007   2.941   2.661   0.814 -0.6903 -0.6363  0.2745
 1334TIP3    H1 4008   3.025   2.678   0.770 -1.0474 -0.7280 -0.4540
 1334TIP3    H2 4009   2.875   2.681   0.748 -1.2958  0.6267  1.2305
 1335TIP3   OH2 4010   6.335   3.165   1.718  0.3528 -0.2904  0.6335
 1335TIP3    H1 4011   6.246   3.173   1.685  0.8364 -0.6288 -0.8409
 1335TIP3    H2 4012   6.339   3.078   1.755  0.6538 -1.1748 -1.3299
 1336TIP3   OH2 4013   1.190   3.554   1.896 -0.4424 -0.3806 -0.0983
 1336TIP3    H1 4014   1.168   3.549   1.989  0.3715  0.4890  0.1510
 1336TIP3    H2 4015   1.154   3.637   1.867 -2.1389 -1.3763 -0.9814
 1337TIP3   OH2 4016   4.937   1.868   2.995 -0.2008 -0.1279 -0.6322
 1337TIP3    H1 4017   4.954   1.908   3.080  0.4690 -0.8258 -0.4261
 1337TIP3    H2 4018   4.850   1.900   2.971  0.6796  2.2626 -0.9497
 1338TIP3   OH2 4019   6.230   5.145   4.593  0.2074  0.6937 -0.0194
 1338TIP3    H1 4020   6.189   5.201   4.660 -1.7824 -1.9079  1.0900
 1338TIP3    H2 4021   6.194   5.177   4.510 -1.5360  0.6023  0.6604
 1339TIP3   OH2 4022   0.647   5.496  -0.005 -0.0812  0.3207  0.2100
 1339TIP3    H1 4023   0.559   5.511   0.030  0.8574  0.3792  2.8161
 1339TIP3    H2 4024   0.698   5.572   0.025  0.8119  0.4335 -1.4994
 1340TIP3   OH2 4025   2.586   2.251   1.237 -0.2748 -0.0264  0.5640
 1340TIP3    H1 4026   2.589   2.284   1.148  1.3458  0.1573  0.6595
 1340TIP3    H2 4027   2.601   2.157   1.229 -0.3986 -0.0516  0.6229
 1341TIP3   OH2 4028   0.487   4.523   1.230 -0.4577 -0.0957  0.2368
 1341TIP3    H1 4029   0.560   4.489   1.178 -0.6502  0.4080 -0.3756
 1341TIP3    H2 4030   0.488   4.617   1.214 -0.7599  0.0132  0.8493
 1342TIP3   OH2 4031   6.044   4.405   3.292 -1.1140  0.1914  0.8936
 1342TIP3    H1 4032   6.014   4.322   3.327  1.2777 -0.4617  1.5624
 1342TIP3    H2 4033   6.008   4.471   3.352 -1.3120 -0.5119  1.5597
 1343TIP3   OH2 4034   3.148   0.409   4.637  0.2187  0.0306 -0.1225
 1343TIP3    H1 4035   3.094   0.341   4.598  1.5602 -0.7045 -0.7424
 1343TIP3    H2 4036   3.151   0.478   4.570 -0.8650  0.5998  0.3754
 1344TIP3   OH2 4037   0.026   2.858   0.294  0.4390 -0.2154 -0.3111
 1344TIP3    H1 4038   0.025   2.762   0.298 -3.2040 -0.4388 -2.5021
 1344TIP3    H2 4039  -0.045   2.885   0.352  1.2778  1.2230  0.1130
 1345TIP3   OH2 4040   3.431   5.067   2.286  0.6837 -0.2285 -0.2463
 1345TIP3    H1 4041   3.381   5.059   2.368 -0.4373 -0.7956 -0.9631
 1345TIP3    H2 4042   3.501   5.129   2.307 -0.2129  0.4558  0.8446
 1346TIP3   OH2 4043   3.353   4.876   5.018  0.5141  0.4247 -0.2113
 1346TIP3    H1 4044   3.423   4.821   5.054 -0.8578 -0.8210  0.6726
 1346TIP3    H2 4045   3.312   4.916   5.095 -0.9489 -0.3986 -0.5281
 1347TIP3   OH2 4046   0.497   0.446   2.895  0.3826 -0.1528  0.2152
 1347TIP3    H1 4047   0.581   0.490   2.909  0.5639  0.1772 -1.6441
 1347TIP3    H2 4048   0.520   0.356   2.875  0.2703 -0.1283 -0.0246
 1348TIP3   OH2 4049   5.372   4.911   3.810  0.0717 -0.5146 -0.2583
 1348TIP3    H1 4050   5.286   4.874   3.790  0.6676 -0.6911 -2.7813
 1348TIP3    H2 4051   5.430   4.834   3.815  0.2186 -0.3493  0.7836
 1349TIP3   OH2 4052   1.506   1.952   4.601  0.5483  0.6019 -0.2809
 1349TIP3    H1 4053   1.413   1.946   4.623  0.4825  0.5807 -0.5628
 1349TIP3    H2 4054   1.530   1.864   4.572  0.8973  0.3550  0.7154
 1350TIP3   OH2 4055   3.944   4.085   1.345  0.1747  0.0260  0.4959
 1350TIP3    H1 4056   3.988   4.130   1.417  0.5615 -0.7791  0.7784
 1350TIP3    H2 4057   4.014   4.067   1.282  0.4262 -1.8568  1.2478
 1351TIP3   OH2 4058   1.604   4.677   2.995 -0.1789  0.0390  0.0942
 1351TIP3    H1 4059   1.635   4.735   2.926 -2.6180  0.7458 -0.5183
 1351TIP3    H2 4060   1.640   4.591   2.973  3.4675  1.1429  0.9845
 1352TIP3   OH2 4061   6.110   4.732   2.807 -0.8328  0.1203  0.3103
 1352TIP3    H1 4062   6.197   4.714   2.841 -0.6167 -0.3901 -0.4688
 1352TIP3    H2 4063   6.064   4.648   2.814 -0.6894 -0.0769 -0.8837
 1353TIP3   OH2 4064   5.217   4.292   2.416 -0.2003  0.3901  0.3914
 1353TIP3    H1 4065   5.284   4.224   2.422  1.3394  1.7689 -0.2851
 1353TIP3    H2 4066   5.206   4.323   2.506 -0.6330 -0.4701  0.6428
 1354TIP3   OH2 4067   5.711   2.602   1.481  0.1948  0.1070 -0.3531
 1354TIP3    H1 4068   5.694   2.544   1.407  0.8741  1.1681 -1.3833
 1354TIP3    H2 4069   5.801   2.582   1.507  0.2079  0.2339 -0.3007
 1355TIP3   OH2 4070   1.057   3.306   2.338  0.9302 -0.1262  0.3931
 1355TIP3    H1 4071   1.120   3.252   2.385 -2.1899 -3.3928  1.2446
 1355TIP3    H2 4072   0.997   3.338   2.406 -0.7171 -0.6530 -0.7520
 1356TIP3   OH2 4073   3.687   1.652   0.323  0.4508 -0.0993  0.0132
 1356TIP3    H1 4074   3.670   1.560   0.306  1.3316 -0.0882 -1.0576
 1356TIP3    H2 4075   3.610   1.698   0.288  0.6852 -0.3381 -0.8506
 1357TIP3   OH2 4076   6.008   5.608   3.652 -0.1088  0.4301 -0.1760
 1357TIP3    H1 4077   6.072   5.680   3.649  1.4483 -0.8814  0.1454
 1357TIP3    H2 4078   5.985   5.600   3.745  1.0223 -0.5365  0.0487
 1358TIP3   OH2 4079   5.642   1.208   3.450 -0.7452  0.3377 -0.8020
 1358TIP3    H1 4080   5.594   1.177   3.373 -0.3253  0.0717 -0.9612
 1358TIP3    H2 4081   5.696   1.280   3.417  1.4356 -1.4319 -1.3789
 1359TIP3   OH2 4082   5.243   4.534   5.081  0.1871 -0.4327 -0.0740
 1359TIP3    H1 4083   5.193   4.612   5.106 -1.0011 -1.2356  0.1072
 1359TIP3    H2 4084   5.331   4.567   5.065  0.0701  0.7273  1.4290
 1360TIP3   OH2 4085   1.549   1.664   4.532  0.2051 -0.6037 -0.2889
 1360TIP3    H1 4086   1.641   1.689   4.543  0.9801 -3.2709  0.1535
 1360TIP3    H2 4087   1.544   1.633   4.441 -0.9223  1.6768 -1.0967
 1361TIP3   OH2 4088   3.463   1.610   4.270 -0.3433  0.6189 -0.0290
 1361TIP3    H1 4089   3.559   1.606   4.275 -0.3380  0.1812 -0.3874
 1361TIP3    H2 4090   3.439   1.531   4.223 -1.0327 -0.3001  1.7909
 1362TIP3   OH2 4091   1.645   2.426   3.690 -0.1616  0.2238 -0.5093
 1362TIP3    H1 4092   1.672   2.376   3.767 -0.2143 -0.7685 -1.1207
 1362TIP3    H2 4093   1.725   2.435   3.638 -0.1431  0.8250 -0.3824
 1363TIP3   OH2 4094   4.378   1.533   3.287 -0.3807 -0.2950  0.5005
 1363TIP3    H1 4095   4.407   1.616   3.250  3.6505 -0.9550  1.7130
 1363TIP3    H2 4096   4.402   1.468   3.221  0.4169 -0.8166  1.2802
 1364TIP3   OH2 4097   1.857   2.383   0.283 -0.0340 -0.2604  0.5958
 1364TIP3    H1 4098   1.762   2.381   0.293 -0.2854 -3.3362 -1.2147
 1364TIP3    H2 4099   1.871   2.374   0.189  2.1211  2.0230  0.5826
 1365TIP3   OH2 4100   1.247   3.306   2.754 -0.1102  0.2508  0.0217
 1365TIP3    H1 4101   1.288   3.319   2.840  0.6117  1.1623 -0.4392
 1365TIP3    H2 4102   1.226   3.213   2.751 -0.5504  0.2892  1.3606
 1366TIP3   OH2 4103   1.498   0.896   2.552  0.3847  0.0210 -0.4777
 1366TIP3    H1 4104   1.584   0.869   2.585  0.2838  0.9707  0.5855
 1366TIP3    H2 4105   1.486   0.985   2.585 -0.9995 -0.0885 -0.6394
 1367TIP3   OH2 4106   1.095   3.905   2.972 -0.1186 -0.1623 -0.2730
 1367TIP3    H1 4107   1.143   3.885   3.052  0.7852 -0.6549 -0.9127
 1367TIP3    H2 4108   1.074   3.998   2.980 -0.1423 -0.2310  0.5856
 1368TIP3   OH2 4109   1.460   2.908   0.753  0.2180  0.1521  0.0557
 1368TIP3    H1 4110   1.484   3.001   0.754  0.8310  0.0016  0.4069
 1368TIP3    H2 4111   1.395   2.900   0.683 -0.1886  0.9273  0.3292
 1369TIP3   OH2 4112   1.552   1.188   4.307  0.7481 -0.0090  0.5823
 1369TIP3    H1 4113   1.622   1.133   4.272  0.1531  0.0565 -0.7625
 1369TIP3    H2 4114   1.587   1.221   4.390  2.4656  0.3329 -0.2347
 1370TIP3   OH2 4115   0.361   4.571   2.328  0.3166 -0.4138  0.0014
 1370TIP3    H1 4116   0.389   4.663   2.326 -1.3325  0.1126 -1.1308
 1370TIP3    H2 4117   0.435   4.524   2.367  1.4252  1.3075  0.0761
 1371TIP3   OH2 4118   0.547   4.724   1.816  0.4831 -0.0286 -0.0044
 1371TIP3    H1 4119   0.544   4.629   1.802  0.6944 -0.1655  0.8120
 1371TIP3    H2 4120   0.641   4.744   1.820  0.4932  0.4958 -1.8541
 1372TIP3   OH2 4121   2.441   4.655   2.935  0.0313 -0.1346  0.1881
 1372TIP3    H1 4122   2.427   4.572   2.981  1.0430 -0.9592 -0.9103
 1372TIP3    H2 4123   2.353   4.688   2.917 -0.5211 -2.2829 -1.5678
 1373TIP3   OH2 4124   5.304   4.549   3.348  0.1088  0.5346 -0.4150
 1373TIP3    H1 4125   5.274   4.571   3.437 -0.7909  2.6399 -1.1802
 1373TIP3    H2 4126   5.398   4.536   3.358 -0.1874 -0.8308  1.0908
 1374TIP3   OH2 4127   5.610   0.872   4.972  0.3810 -0.2375  0.1134
 1374TIP3    H1 4128   5.568   0.851   4.888 -0.7077 -2.0158  1.0515
 1374TIP3    H2 4129   5.566   0.952   5.001  1.2720  0.8173 -1.3069
 1375TIP3   OH2 4130   5.295   3.891   3.503  0.3055  0.5193 -0.2629
 1375TIP3    H1 4131   5.292   3.982   3.474  0.2917  0.3990 -0.6389
 1375TIP3    H2 4132   5.358   3.891   3.575 -1.9919  1.4355  1.9243
 1376TIP3   OH2 4133   3.524   5.195   4.028 -0.2131  0.2840  0.3622
 1376TIP3    H1 4134   3.619   5.203   4.039 -0.2607  0.0648  0.9641
 1376TIP3    H2 4135   3.492   5.285   4.025 -0.0246  0.3580  0.5456
 1377TIP3   OH2 4136   1.642   1.357   3.352 -0.1253  0.3843 -0.0743
 1377TIP3    H1 4137   1.556   1.335   3.317  0.4773 -2.6378  0.0980
 1377TIP3    H2 4138   1.650   1.305   3.432  0.3765  3.6084  2.1495
 1378TIP3   OH2 4139   0.978   5.723   3.038 -0.0477  0.1995  0.3514
 1378TIP3    H1 4140   1.002   5.632   3.057 -0.2533  0.5254  2.3608
 1378TIP3    H2 4141   1.037   5.775   3.092 -1.2208  1.1887  0.7308
 1379TIP3   OH2 4142   1.815   1.739   2.624 -0.0220  0.3920 -0.9021
 1379TIP3    H1 4143   1.723   1.735   2.600  0.1879  1.4963 -2.0299
 1379TIP3    H2 4144   1.860   1.758   2.542  1.4709 -2.3241 -0.8242
 1380TIP3   OH2 4145   3.468   1.110   1.064  0.2489  0.1285 -0.3385
 1380TIP3    H1 4146   3.420   1.159   0.998 -0.3840  0.3764  0.2961
 1380TIP3    H2 4147   3.531   1.173   1.100 -0.1310  0.2979  0.0331
 1381TIP3   OH2 4148   1.314   1.478   0.126  0.3781  0.3347  0.3098
 1381TIP3    H1 4149   1.406   1.461   0.111  0.4581 -0.0709  1.1552
 1381TIP3    H2 4150   1.298   1.444   0.214 -0.7203 -0.1703 -0.0721
 1382TIP3   OH2 4151   1.796   3.254   1.528  0.1752 -0.1858 -0.0414
 1382TIP3    H1 4152   1.852   3.181   1.500  0.6908  0.1793  0.0172
 1382TIP3    H2 4153   1.748   3.220   1.604  1.1540 -0.1507  0.6101
 1383TIP3   OH2 4154   1.916   0.175   1.593  0.4786  0.2529  0.1961
 1383TIP3    H1 4155   1.858   0.115   1.546  2.6731 -0.8912 -1.2129
 1383TIP3    H2 4156   1.890   0.262   1.563 -0.6648 -0.2039 -0.1931
 1384TIP3   OH2 4157   3.251   2.076   2.315 -0.2227  0.4628 -0.0533
 1384TIP3    H1 4158   3.281   2.132   2.387 -1.4260  0.4190  0.5055
 1384TIP3    H2 4159   3.183   2.128   2.272  0.5214  0.5158 -1.2247
 1385TIP3   OH2 4160   4.824   2.192   2.038  0.1268  0.1212 -0.0129
 1385TIP3    H1 4161   4.761   2.125   2.013  0.2414 -0.6238  1.5774
 1385TIP3    H2 4162   4.792   2.225   2.122  2.0302 -0.5690  1.0609
 1386TIP3   OH2 4163   0.629   5.755   4.435 -1.0217  0.4052 -0.4678
 1386TIP3    H1 4164   0.693   5.693   4.468  0.8553  1.0378 -2.7120
 1386TIP3    H2 4165   0.547   5.705   4.431 -0.8481 -0.3552  2.6495
 1387TIP3   OH2 4166   5.042   4.535   1.119 -0.4731  0.3281  0.1530
 1387TIP3    H1 4167   5.104   4.571   1.183 -0.1889  1.5219 -0.7518
 1387TIP3    H2 4168   4.973   4.601   1.113  0.6637  1.4159 -2.4523
 1388TIP3   OH2 4169   2.529   4.985   3.822 -0.0162  0.6207  0.0431
 1388TIP3    H1 4170   2.434   4.983   3.833  0.1228 -0.0934  1.2581
 1388TIP3    H2 4171   2.546   5.070   3.781 -1.0463  1.5207  1.3644
 1389TIP3   OH2 4172   2.910   5.152   5.107 -0.1971 -0.2494 -0.6073
 1389TIP3    H1 4173   2.922   5.135   5.014  0.0541 -0.2639 -0.5740
 1389TIP3    H2 4174   2.969   5.226   5.126  0.4336 -0.8279 -0.2744
 1390TIP3   OH2 4175   1.199   3.642   3.826  0.0371 -0.2132 -0.0115
 1390TIP3    H1 4176   1.122   3.592   3.853  0.7422 -0.5391  1.5206
 1390TIP3    H2 4177   1.181   3.669   3.736 -1.9226 -0.1457  0.3752
 1391TIP3   OH2 4178   0.183   0.277   0.091 -0.0191 -0.2239  0.4553
 1391TIP3    H1 4179   0.104   0.266   0.037  0.1116 -0.0660  0.2288
 1391TIP3    H2 4180   0.189   0.371   0.105  1.1348 -0.0286 -1.0710
 1392TIP3   OH2 4181   4.088   2.140   1.105  0.6201 -0.2563  0.4865
 1392TIP3    H1 4182   4.048   2.134   1.192  3.1878 -0.6569  1.7609
 1392TIP3    H2 4183   4.118   2.231   1.099  1.6288 -0.5562  0.6587
 1393TIP3   OH2 4184   4.179   4.410   2.821 -0.0735 -0.2537  0.2878
 1393TIP3    H1 4185   4.213   4.487   2.868  0.1187 -0.4243  0.4273
 1393TIP3    H2 4186   4.228   4.409   2.739  1.7119 -1.6436  1.3188
 1394TIP3   OH2 4187   5.140   0.733   0.425  0.2499  0.0148 -0.6192
 1394TIP3    H1 4188   5.044   0.735   0.423  0.0582 -0.0860  2.6778
 1394TIP3    H2 4189   5.166   0.825   0.435  0.4315 -0.0413 -0.5748
 1395TIP3   OH2 4190   1.550   2.013   1.548 -0.0517 -0.0302 -0.4775
 1395TIP3    H1 4191   1.567   1.951   1.477 -0.2863  1.5542 -1.9736
 1395TIP3    H2 4192   1.464   1.987   1.581 -0.7838  0.3123 -2.0172
 1396TIP3   OH2 4193   3.645   1.893   1.577  0.4436 -0.5462 -0.1615
 1396TIP3    H1 4194   3.595   1.952   1.521  0.0893  0.6714  1.4020
 1396TIP3    H2 4195   3.709   1.852   1.517 -0.1659  0.4176 -1.5130
 1397TIP3   OH2 4196   4.491   0.367   3.174 -0.2455  0.4653  0.1196
 1397TIP3    H1 4197   4.404   0.390   3.141 -0.0699  1.6738  0.4398
 1397TIP3    H2 4198   4.528   0.450   3.201  0.9519 -0.0660  0.1496
 1398TIP3   OH2 4199   6.100   1.419   2.625  0.4173 -0.1554  0.2107
 1398TIP3    H1 4200   6.130   1.340   2.670 -0.0013  0.3962  1.5199
 1398TIP3    H2 4201   6.027   1.450   2.679  0.4884  1.0490 -0.3636
 1399TIP3   OH2 4202   5.902   5.849   1.633  0.5509 -0.3423 -0.8206
 1399TIP3    H1 4203   5.931   5.907   1.562 -0.0840  1.3076  0.2296
 1399TIP3    H2 4204   5.812   5.828   1.611  0.6040 -0.4870 -0.9045
 1400TIP3   OH2 4205   1.931   5.353   1.346 -0.0690 -0.4864  0.2976
 1400TIP3    H1 4206   2.007   5.361   1.403 -0.6583  0.1888  1.0080
 1400TIP3    H2 4207   1.911   5.443   1.320 -1.0290 -0.5744  0.6805
 1401TIP3   OH2 4208   0.484   4.071   2.236 -0.7839  0.1945  0.0617
 1401TIP3    H1 4209   0.546   4.001   2.258  1.1339  1.6514 -0.4093
 1401TIP3    H2 4210   0.416   4.065   2.303 -0.1627 -1.4989  0.5862
 1402TIP3   OH2 4211   3.634   1.380   1.159 -0.4763  0.2687  0.2131
 1402TIP3    H1 4212   3.660   1.305   1.213 -0.8801 -0.1564 -0.1748
 1402TIP3    H2 4213   3.700   1.383   1.090 -0.3147  0.4297  0.3733
 1403TIP3   OH2 4214   6.165   2.347   0.205  0.7267 -1.0650  0.4530
 1403TIP3    H1 4215   6.143   2.408   0.276 -0.7510 -0.6224 -0.3519
 1403TIP3    H2 4216   6.232   2.290   0.243 -0.8490 -1.6018  2.6074
 1404TIP3   OH2 4217   4.455   0.880   2.704 -0.0819 -0.4163 -0.0802
 1404TIP3    H1 4218   4.460   0.806   2.763  0.6563 -0.6199 -0.3849
 1404TIP3    H2 4219   4.441   0.956   2.761 -0.0497 -0.6923  0.2983
 1405TIP3   OH2 4220   0.919   3.538   1.398 -0.7152 -0.5691  0.0261
 1405TIP3    H1 4221   0.908   3.518   1.491  0.1367 -2.0485 -0.1721
 1405TIP3    H2 4222   0.951   3.629   1.397 -0.7578 -0.5254  1.1594
 1406TIP3   OH2 4223   5.197   3.737   4.268 -0.6546 -0.3302  0.3025
 1406TIP3    H1 4224   5.270   3.700   4.318  0.0357 -0.6342 -0.8871
 1406TIP3    H2 4225   5.233   3.816   4.227 -0.5509 -1.1854 -1.3587
 1407TIP3   OH2 4226   1.819   4.310   3.047  0.0905 -0.3652  0.1612
 1407TIP3    H1 4227   1.781   4.286   3.131  0.8861 -0.2803  0.5516
 1407TIP3    H2 4228   1.875   4.236   3.024 -0.0451 -0.3445 -0.2488
 1408TIP3   OH2 4229   3.150   3.925   2.394 -0.5118 -0.5448  0.2947
 1408TIP3    H1 4230   3.140   3.945   2.301  0.7622  0.3552  0.3273
 1408TIP3    H2 4231   3.106   3.998   2.438 -1.4979 -1.1915  0.4244
 1409TIP3   OH2 4232   1.702   4.525   4.446 -0.3916  0.0288  0.3823
 1409TIP3    H1 4233   1.781   4.523   4.501  1.0355  1.4013 -1.4982
 1409TIP3    H2 4234   1.649   4.596   4.483 -0.9716 -1.1070  1.8504
 1410TIP3   OH2 4235   4.849   1.150   2.687  0.0252  0.4429 -0.1653
 1410TIP3    H1 4236   4.945   1.149   2.690  0.0165 -1.3081  0.4677
 1410TIP3    H2 4237   4.828   1.119   2.599  0.0370  0.7394 -0.2730
 1411TIP3   OH2 4238   5.059   3.026   1.892  0.3781  0.4411 -0.1678
 1411TIP3    H1 4239   5.015   3.098   1.846 -1.7435 -0.0052  1.0323
 1411TIP3    H2 4240   5.046   3.046   1.985  0.7223 -0.9245  0.1912
 1412TIP3   OH2 4241   1.039   4.698   0.311 -0.5594  0.1463 -0.2083
 1412TIP3    H1 4242   0.954   4.715   0.272 -1.2497 -3.6975 -0.7834
 1412TIP3    H2 4243   1.064   4.611   0.279  2.9172  0.4869  1.0969
 1413TIP3   OH2 4244   3.433   4.108   4.090  0.2403  0.5769  0.1383
 1413TIP3    H1 4245   3.516   4.122   4.135 -0.5866  0.9320  1.6233
 1413TIP3    H2 4246   3.422   4.187   4.037  0.4630  0.9188  0.5859
 1414TIP3   OH2 4247   5.891   2.625   2.934  0.5721  0.0098  0.6117
 1414TIP3    H1 4248   5.873   2.630   2.840  0.0167  1.6580  0.7678
 1414TIP3    H2 4249   5.959   2.558   2.942  0.2338 -0.5529 -0.8973
 1415TIP3   OH2 4250   3.264   2.349   4.303 -0.7435  0.1392  0.0943
 1415TIP3    H1 4251   3.311   2.431   4.284 -2.1170  0.5642 -1.7823
 1415TIP3    H2 4252   3.326   2.280   4.277 -0.6104  0.6608 -1.0691
 1416TIP3   OH2 4253   1.158   1.488   5.190  0.2637 -0.1797  0.3188
 1416TIP3    H1 4254   1.112   1.479   5.107 -2.6342 -3.1910  2.0364
 1416TIP3    H2 4255   1.133   1.576   5.221 -1.9463 -0.5577 -0.2175
 1417TIP3   OH2 4256   1.699   5.116   3.321 -0.1593 -0.2922  0.0135
 1417TIP3    H1 4257   1.766   5.111   3.254  0.2121 -1.9806  0.4625
 1417TIP3    H2 4258   1.696   5.028   3.359 -2.8617 -0.3704 -0.2112
 1418TIP3   OH2 4259   1.473   1.453   2.549  0.5821  0.1803 -0.0357
 1418TIP3    H1 4260   1.410   1.420   2.615  1.9188 -1.6821  0.4104
 1418TIP3    H2 4261   1.516   1.526   2.592  1.8830 -1.3987  1.5233
 1419TIP3   OH2 4262   2.251   2.310   1.148  0.1595  0.0750  0.0738
 1419TIP3    H1 4263   2.239   2.285   1.239 -1.4062 -0.3980 -0.2324
 1419TIP3    H2 4264   2.343   2.288   1.129  0.5355  0.3002  1.5439
 1420TIP3   OH2 4265   4.570   1.589   1.521 -0.3297  0.8238  0.2588
 1420TIP3    H1 4266   4.533   1.549   1.600  0.8442  2.2790  1.6050
 1420TIP3    H2 4267   4.506   1.655   1.495 -0.5770  0.5463  0.1534
 1421TIP3   OH2 4268   5.565   5.533   4.232 -0.7241 -0.0771 -0.5663
 1421TIP3    H1 4269   5.530   5.444   4.219 -1.4765  0.3152 -1.3317
 1421TIP3    H2 4270   5.496   5.591   4.201  0.2994  0.7491 -1.4291
 1422TIP3   OH2 4271   6.113   4.094   0.987 -0.3261 -0.1883  0.5024
 1422TIP3    H1 4272   6.184   4.092   1.050  0.1200 -1.0283 -0.0120
 1422TIP3    H2 4273   6.156   4.113   0.903 -0.4460 -2.3174 -0.1009
 1423TIP3   OH2 4274   0.478   4.125   4.908  0.3760 -0.1893  0.1058
 1423TIP3    H1 4275   0.503   4.049   4.855  2.7337  0.8759 -0.4380
 1423TIP3    H2 4276   0.407   4.093   4.963  1.3703 -2.8317  0.0098
 1424TIP3   OH2 4277   0.254   5.591   2.816 -0.4144  0.2660  0.2372
 1424TIP3    H1 4278   0.277   5.511   2.768  0.9432  0.6943  0.1077
 1424TIP3    H2 4279   0.161   5.581   2.837  0.1083 -2.1622  1.8081
 1425TIP3   OH2 4280   5.330   5.068   4.048 -0.7590 -0.7813 -0.0520
 1425TIP3    H1 4281   5.246   5.027   4.065  0.1490 -2.6188  0.2605
 1425TIP3    H2 4282   5.368   5.016   3.977 -0.3793  0.7785 -1.0331
 1426TIP3   OH2 4283   3.426   0.479   5.114 -0.0738 -0.3351 -0.0777
 1426TIP3    H1 4284   3.356   0.482   5.049  0.3780 -1.0210 -0.6082
 1426TIP3    H2 4285   3.498   0.527   5.074  0.3972 -1.2289 -0.3373
 1427TIP3   OH2 4286   5.827   3.739   1.869  0.1125  0.9435  0.3343
 1427TIP3    H1 4287   5.909   3.780   1.842  1.7060 -0.6425  2.4081
 1427TIP3    H2 4288   5.811   3.773   1.957 -0.5694 -0.0068  0.5897
 1428TIP3   OH2 4289   3.280   1.319   0.441  0.0468  0.0937  0.0049
 1428TIP3    H1 4290   3.364   1.357   0.468  1.6555 -2.1250 -1.4285
 1428TIP3    H2 4291   3.268   1.245   0.500 -1.4882  0.9824  0.8504
 1429TIP3   OH2 4292   3.789   2.813   0.298 -0.3157 -0.5118 -0.3237
 1429TIP3    H1 4293   3.753   2.896   0.265  1.1093  1.0361  1.7567
 1429TIP3    H2 4294   3.726   2.783   0.363 -0.8270 -1.0903 -1.0701
 1430TIP3   OH2 4295   4.788   0.349   0.059 -0.1107 -0.1343  0.2848
 1430TIP3    H1 4296   4.827   0.296   0.129  0.7920 -0.9672 -0.7924
 1430TIP3    H2 4297   4.697   0.319   0.053  0.3716 -1.6175 -0.2823
 1431TIP3   OH2 4298   3.663   2.944   2.839 -0.3444 -0.2025 -0.6343
 1431TIP3    H1 4299   3.724   3.013   2.865 -0.9713 -0.7214  2.6938
 1431TIP3    H2 4300   3.595   2.988   2.790  1.5095  0.7376 -2.5117
 1432TIP3   OH2 4301   1.753   3.581   2.403 -0.1573 -0.8548 -0.0999
 1432TIP3    H1 4302   1.724   3.505   2.453  0.4225 -0.1999  1.2919
 1432TIP3    H2 4303   1.697   3.653   2.435  1.3561 -0.0732  0.9226
 1433TIP3   OH2 4304   2.785   0.551   2.573  0.2956  0.1177 -0.1038
 1433TIP3    H1 4305   2.739   0.594   2.500  1.8131  2.5032  0.2477
 1433TIP3    H2 4306   2.870   0.594   2.576  0.7908 -0.9053  2.2168
 1434TIP3   OH2 4307   0.019   5.861   5.094  0.4374 -0.4797  0.5929
 1434TIP3    H1 4308  -0.053   5.920   5.117 -0.8395 -1.1374 -1.4693
 1434TIP3    H2 4309   0.061   5.841   5.178 -0.7280  1.2327  1.6486
 1435TIP3   OH2 4310   1.736   3.928   1.747 -0.1132  0.7356  0.0406
 1435TIP3    H1 4311   1.669   3.860   1.736 -0.2879  0.6034  1.7561
 1435TIP3    H2 4312   1.808   3.883   1.791  0.3119  1.3582 -0.0155
 1436TIP3   OH2 4313   0.503   3.449   2.908 -0.3412  0.0508 -0.6088
 1436TIP3    H1 4314   0.537   3.486   2.989 -2.1114  1.0237 -0.2658
 1436TIP3    H2 4315   0.477   3.360   2.931  0.8960 -0.3305 -0.6126
 1437TIP3   OH2 4316   2.639   2.694   1.114  0.3845 -0.0719  0.2519
 1437TIP3    H1 4317   2.617   2.774   1.161  0.9314 -0.3741  1.0539
 1437TIP3    H2 4318   2.734   2.684   1.126  0.0810 -1.7665  1.7172
 1438TIP3   OH2 4319   2.339   1.784   4.463  0.1413  0.0298 -0.0993
 1438TIP3    H1 4320   2.338   1.715   4.396 -2.1262  0.8460 -1.0166
 1438TIP3    H2 4321   2.429   1.786   4.494  1.3688 -0.2926 -3.2556
 1439TIP3   OH2 4322   4.862   4.194   0.610  0.0330 -0.2726 -0.3030
 1439TIP3    H1 4323   4.900   4.106   0.611  2.5706  0.7163 -1.3790
 1439TIP3    H2 4324   4.771   4.181   0.584  0.1009 -2.6254  0.4224
 1440TIP3   OH2 4325   3.805   3.076   1.251 -0.3791  0.1124 -0.6602
 1440TIP3    H1 4326   3.743   3.146   1.273 -0.6859  0.7972 -3.4014
 1440TIP3    H2 4327   3.750   3.004   1.220  0.1051  0.5629 -2.6889
 1441TIP3   OH2 4328   5.587   0.326   2.245 -0.0111 -0.3173 -0.2775
 1441TIP3    H1 4329   5.493   0.309   2.237  0.1467 -0.7515 -1.3477
 1441TIP3    H2 4330   5.622   0.250   2.290  0.0613 -0.9148 -1.3220
 1442TIP3   OH2 4331   5.420   2.036   1.312  0.1373  0.0602  0.4481
 1442TIP3    H1 4332   5.503   1.992   1.293 -0.3698 -1.1478  0.9556
 1442TIP3    H2 4333   5.355   1.988   1.261 -0.2311  1.1630 -0.1512
 1443TIP3   OH2 4334   2.145   5.816   4.266 -0.3730 -0.1735 -0.2676
 1443TIP3    H1 4335   2.208   5.752   4.232 -1.4059 -0.6274 -1.4262
 1443TIP3    H2 4336   2.194   5.868   4.329  0.6744 -1.6702  0.1838
 1444TIP3   OH2 4337   0.493   3.049   3.441  0.1073 -0.2364 -0.6947
 1444TIP3    H1 4338   0.419   3.079   3.492  0.8153 -0.4941  0.5305
 1444TIP3    H2 4339   0.480   3.086   3.354  0.7375  3.3710  0.5735
 1445TIP3   OH2 4340   0.048   2.504   2.967  0.2026  0.5760  0.2636
 1445TIP3    H1 4341   0.144   2.502   2.972  0.6351 -4.6628 -2.7022
 1445TIP3    H2 4342   0.028   2.561   2.893  0.9062  2.0310  1.1570
 1446TIP3   OH2 4343   1.596   0.716   0.584 -0.3162  0.5483 -0.0824
 1446TIP3    H1 4344   1.622   0.631   0.620 -0.5433  0.2391 -0.6454
 1446TIP3    H2 4345   1.616   0.779   0.654 -0.4749 -0.0119  0.4673
 1447TIP3   OH2 4346   5.634   1.282   4.977 -0.5235 -0.4431 -0.9685
 1447TIP3    H1 4347   5.557   1.248   5.023  2.3394 -1.6150  3.6096
 1447TIP3    H2 4348   5.650   1.367   5.016  2.0262 -1.4585  0.4383
 1448TIP3   OH2 4349   2.579   3.512   3.412  0.1238  0.2257 -0.4353
 1448TIP3    H1 4350   2.600   3.476   3.498  0.2657 -0.1243 -0.6156
 1448TIP3    H2 4351   2.484   3.502   3.405 -0.2206  2.2509  0.5806
 1449TIP3   OH2 4352   1.263   5.619   0.723 -0.2227 -0.2014 -0.4196
 1449TIP3    H1 4353   1.341   5.596   0.673 -0.6928 -1.4354 -0.6028
 1449TIP3    H2 4354   1.248   5.545   0.782  0.0217  0.9854  1.2392
 1450TIP3   OH2 4355   3.297   1.845   2.160  0.3079 -0.5188  0.1088
 1450TIP3    H1 4356   3.351   1.781   2.206 -1.5714 -1.9095  0.5189
 1450TIP3    H2 4357   3.288   1.918   2.221  1.8145 -0.1749 -0.0401
 1451TIP3   OH2 4358   3.054   4.758   1.149  0.3653 -0.3045  0.6183
 1451TIP3    H1 4359   3.029   4.842   1.109 -1.1200 -1.7113 -1.6503
 1451TIP3    H2 4360   2.972   4.710   1.156  1.1758 -1.5666  1.9971
 1452TIP3   OH2 4361   2.264   1.200   0.205  0.0359  0.4061 -0.1147
 1452TIP3    H1 4362   2.198   1.147   0.160  0.1746 -0.7568  0.9871
 1452TIP3    H2 4363   2.216   1.239   0.279  0.0709  1.4191 -0.5971
 1453TIP3   OH2 4364   5.939   1.435   4.513  0.1569 -0.2783 -0.2257
 1453TIP3    H1 4365   5.931   1.349   4.472 -1.1228 -0.6132  0.6482
 1453TIP3    H2 4366   6.014   1.427   4.572 -0.4641 -1.0933  0.4820
 1454TIP3   OH2 4367   3.529   4.223   1.581  0.1828  0.4586 -0.5163
 1454TIP3    H1 4368   3.480   4.160   1.529  0.8010 -0.1001 -0.4327
 1454TIP3    H2 4369   3.508   4.201   1.672  0.1748  0.5620 -0.4923
 1455TIP3   OH2 4370   2.501   5.209   1.744  0.1259 -0.0538  0.1375
 1455TIP3    H1 4371   2.415   5.216   1.702  0.0189 -2.7540 -0.2735
 1455TIP3    H2 4372   2.492   5.261   1.824 -2.0600 -0.6000  0.3230
 1456TIP3   OH2 4373   2.159   5.333   0.530 -0.3948  0.2591 -0.2022
 1456TIP3    H1 4374   2.088   5.359   0.588 -0.4490 -1.1548  0.4045
 1456TIP3    H2 4375   2.141   5.242   0.508  1.9100 -0.5889  1.0587
 1457TIP3   OH2 4376   3.157   1.416   2.650  0.1040  0.6673  0.0349
 1457TIP3    H1 4377   3.122   1.478   2.585  1.4061  2.2972  0.8098
 1457TIP3    H2 4378   3.242   1.392   2.615  0.7039  1.3620  0.9819
 1458TIP3   OH2 4379   2.947   4.465   0.992 -0.2255 -0.0836 -0.2150
 1458TIP3    H1 4380   2.995   4.388   1.023  0.3142  0.4138  0.1737
 1458TIP3    H2 4381   2.906   4.501   1.070 -0.1674  0.2504 -0.3378
 1459TIP3   OH2 4382   5.228   0.846   2.780 -0.2019  0.7422  0.2209
 1459TIP3    H1 4383   5.281   0.925   2.790  1.7760 -0.4671 -0.1590
 1459TIP3    H2 4384   5.194   0.829   2.868  1.0815  0.8701  0.7692
 1460TIP3   OH2 4385   4.494   1.445   1.730  0.5271 -0.0112 -0.0010
 1460TIP3    H1 4386   4.552   1.501   1.783  2.3358  0.2914 -2.1198
 1460TIP3    H2 4387   4.546   1.367   1.713 -0.6294 -0.7868 -0.0296
 1461TIP3   OH2 4388   3.362   1.849   0.462  0.9934  0.1171  0.0031
 1461TIP3    H1 4389   3.287   1.793   0.441  0.5567  1.3029 -1.8589
 1461TIP3    H2 4390   3.416   1.795   0.520 -0.4235 -1.4279 -0.0165
 1462TIP3   OH2 4391   2.855   4.080   0.010  0.8752 -0.7743  0.0576
 1462TIP3    H1 4392   2.901   4.162   0.025 -1.6893  0.4048  2.1472
 1462TIP3    H2 4393   2.912   4.013   0.049  1.6445  0.3632  0.9366
 1463TIP3   OH2 4394   1.829   2.149   0.801  0.0696 -0.1522  0.0221
 1463TIP3    H1 4395   1.758   2.208   0.828 -0.1591 -0.9025  1.1501
 1463TIP3    H2 4396   1.783   2.071   0.768  0.3026 -1.2850  2.1944
 1464TIP3   OH2 4397   0.235   1.878   3.907  0.4887 -0.0931 -0.7229
 1464TIP3    H1 4398   0.143   1.855   3.901  0.7463 -1.2331 -0.5641
 1464TIP3    H2 4399   0.251   1.889   4.001  0.8240 -1.2767 -0.6337
 1465TIP3   OH2 4400   4.378   2.021   2.503 -0.4529  0.4160 -0.3088
 1465TIP3    H1 4401   4.308   2.012   2.438 -0.6110 -1.7510  0.0757
 1465TIP3    H2 4402   4.339   1.987   2.584  0.9038 -0.4516  0.0038
 1466TIP3   OH2 4403   0.811   5.588   2.517  0.0666 -0.0422  0.4382
 1466TIP3    H1 4404   0.720   5.564   2.538  0.5150 -0.9522  1.4487
 1466TIP3    H2 4405   0.864   5.536   2.577  1.2554  0.7878  0.1523
 1467TIP3   OH2 4406   0.130   5.851   2.864  0.0580 -0.0268 -0.0086
 1467TIP3    H1 4407   0.204   5.836   2.923  0.7524 -0.7382 -1.0224
 1467TIP3    H2 4408   0.068   5.782   2.886 -0.5273  0.8198  1.1324
 1468TIP3   OH2 4409   3.890   2.390   1.272  0.6136  0.2246 -0.0549
 1468TIP3    H1 4410   3.869   2.477   1.305 -0.7329 -0.6283  1.5385
 1468TIP3    H2 4411   3.827   2.375   1.202  0.9382  0.5744 -0.4244
 1469TIP3   OH2 4412   0.131   1.569   3.852  0.0679 -0.6278  0.5991
 1469TIP3    H1 4413   0.215   1.546   3.813 -0.2831 -0.6510 -0.1718
 1469TIP3    H2 4414   0.102   1.489   3.896 -1.4487 -2.0267 -2.6035
 1470TIP3   OH2 4415   4.775   4.854   1.993 -0.3009  0.1426 -0.6740
 1470TIP3    H1 4416   4.805   4.935   1.952  2.7096 -0.2115  0.5764
 1470TIP3    H2 4417   4.703   4.881   2.050  1.0700  2.0872  0.2324
 1471TIP3   OH2 4418   1.008   3.198   3.003 -0.2796  0.0037  0.0160
 1471TIP3    H1 4419   1.021   3.282   2.959  1.4883 -0.0520  0.3477
 1471TIP3    H2 4420   1.095   3.174   3.034 -0.8102 -1.8122  0.1982
 1472TIP3   OH2 4421   2.701   3.593   4.106  0.2712  1.0077 -0.5930
 1472TIP3    H1 4422   2.729   3.678   4.139  1.3741  0.0195  1.2097
 1472TIP3    H2 4423   2.769   3.568   4.043  1.8735  0.0423  1.3903
 1473TIP3   OH2 4424   4.149   5.034   4.611 -0.3165 -0.5855 -0.3033
 1473TIP3    H1 4425   4.084   5.007   4.546  0.7013 -1.4995 -0.9797
 1473TIP3    H2 4426   4.202   4.955   4.626  0.2126 -0.0535  0.7432
 1474TIP3   OH2 4427   0.878   2.551   1.429  0.0345 -0.1427  0.1640
 1474TIP3    H1 4428   0.820   2.627   1.425  0.0805  0.0334  1.8966
 1474TIP3    H2 4429   0.887   2.523   1.338 -4.4042 -1.4750 -0.1110
 1475TIP3   OH2 4430   4.282   5.904   3.182  0.1031 -0.0073 -0.4202
 1475TIP3    H1 4431   4.372   5.934   3.175  0.4173 -0.6125  0.8050
 1475TIP3    H2 4432   4.230   5.984   3.182  0.7501  0.4306  0.4129
 1476TIP3   OH2 4433   6.363   3.108   2.233 -0.6193  0.1042  0.0627
 1476TIP3    H1 4434   6.387   3.199   2.219  0.7992 -0.0770  1.0761
 1476TIP3    H2 4435   6.287   3.094   2.177  0.3017  1.3670 -1.5678
 1477TIP3   OH2 4436   5.212   3.452   4.534  0.1830  0.4810  0.2371
 1477TIP3    H1 4437   5.172   3.524   4.584  0.0112  0.1363  0.6019
 1477TIP3    H2 4438   5.273   3.496   4.474  0.9441  0.8780  1.2601
 1478TIP3   OH2 4439   4.243   5.459   4.974  0.0520  0.6400  0.8596
 1478TIP3    H1 4440   4.280   5.477   4.888 -0.9065 -0.0277  0.2760
 1478TIP3    H2 4441   4.252   5.541   5.022  2.2476  0.5039  0.7711
 1479TIP3   OH2 4442   3.118   1.604   0.680 -0.2239  0.4246 -0.0946
 1479TIP3    H1 4443   3.153   1.631   0.595 -0.2888  0.9460  0.0415
 1479TIP3    H2 4444   3.076   1.520   0.663  0.7909 -0.0557 -0.3363
 1480TIP3   OH2 4445   2.380   5.530   0.602 -0.1086  0.3487  0.9140
 1480TIP3    H1 4446   2.301   5.484   0.573 -0.0253  1.2769 -0.9106
 1480TIP3    H2 4447   2.363   5.548   0.695 -1.3689 -0.8052  0.9509
 1481TIP3   OH2 4448   4.825   4.352   4.551  0.4432  0.1626 -0.3473
 1481TIP3    H1 4449   4.800   4.442   4.531 -2.1617 -0.6664 -1.3171
 1481TIP3    H2 4450   4.920   4.353   4.554  0.4907  2.9154 -0.3878
 1482TIP3   OH2 4451   2.791   3.583   0.845  0.1445 -0.1239 -0.1499
 1482TIP3    H1 4452   2.754   3.643   0.780  0.4374 -0.4236 -0.6028
 1482TIP3    H2 4453   2.773   3.625   0.929  0.1595  0.4967 -0.4465
 1483TIP3   OH2 4454   2.379   3.988   4.788  0.1032  0.1789  0.0004
 1483TIP3    H1 4455   2.391   4.080   4.814 -1.8361  1.2704 -2.5562
 1483TIP3    H2 4456   2.288   3.969   4.809 -1.1324  0.6621 -4.1006
 1484TIP3   OH2 4457   0.452   3.510   3.500 -0.3360  0.0143  0.0696
 1484TIP3    H1 4458   0.407   3.591   3.478  1.2541  1.1662  0.7617
 1484TIP3    H2 4459   0.389   3.441   3.484 -2.4793  1.5439  1.3967
 1485TIP3   OH2 4460   3.516   4.326   2.550 -0.6060  0.2051  0.0543
 1485TIP3    H1 4461   3.582   4.270   2.591 -0.3495  0.9083  0.6149
 1485TIP3    H2 4462   3.449   4.264   2.519 -0.8734 -0.3542  1.6386
 1486TIP3   OH2 4463   3.318   0.282   3.006 -0.2585 -0.9576 -0.2820
 1486TIP3    H1 4464   3.244   0.272   2.946  0.4208 -0.3165 -1.2476
 1486TIP3    H2 4465   3.391   0.237   2.964  0.6643  0.9054 -0.7833
 1487TIP3   OH2 4466   3.248   2.303   3.798  0.2246 -0.1589 -0.1620
 1487TIP3    H1 4467   3.238   2.386   3.751  2.2156  0.0431 -0.3259
 1487TIP3    H2 4468   3.166   2.293   3.846 -0.4718  1.3869 -0.9330
 1488TIP3   OH2 4469   2.603   0.788   4.180 -0.1247  0.0757  0.1982
 1488TIP3    H1 4470   2.517   0.829   4.192  0.2210  0.6669  0.6756
 1488TIP3    H2 4471   2.585   0.694   4.188 -0.9464  0.0999 -1.0493
 1489TIP3   OH2 4472   3.830   0.693   2.876 -0.1397  0.1030 -0.2345
 1489TIP3    H1 4473   3.743   0.671   2.842 -0.7949  2.7088 -0.4389
 1489TIP3    H2 4474   3.876   0.730   2.801  1.0290 -0.8350 -0.0139
 1490TIP3   OH2 4475   0.518   0.734   2.340 -0.0214  0.3050  0.4989
 1490TIP3    H1 4476   0.548   0.802   2.280 -0.4477  0.4194  0.4107
 1490TIP3    H2 4477   0.432   0.764   2.369 -0.4237 -0.4168  0.0903
 1491TIP3   OH2 4478   1.814   1.142   2.981 -0.1073  0.0586  0.1490
 1491TIP3    H1 4479   1.725   1.178   2.976  0.1142  1.1033  2.5467
 1491TIP3    H2 4480   1.804   1.060   3.031  0.1348 -0.4951 -0.6829
 1492TIP3   OH2 4481   1.262   1.882   4.699 -0.1640 -0.3852 -0.6675
 1492TIP3    H1 4482   1.243   1.859   4.790  0.0870  0.6325 -0.3431
 1492TIP3    H2 4483   1.199   1.951   4.678  0.0440 -0.3338 -1.1341
 1493TIP3   OH2 4484   5.948   0.143   1.286 -0.4479  0.2007 -0.4008
 1493TIP3    H1 4485   6.037   0.176   1.279  0.1893 -1.2849  0.1218
 1493TIP3    H2 4486   5.953   0.076   1.354 -1.3597 -1.7865 -2.1679
 1494TIP3   OH2 4487   2.858   0.789   2.150  0.2093  0.1281  0.6163
 1494TIP3    H1 4488   2.791   0.777   2.218  0.4081  0.0765  0.8052
 1494TIP3    H2 4489   2.937   0.813   2.199 -0.0756  1.8576  0.2846
 1495TIP3   OH2 4490   5.879   4.091   2.697 -0.2218  0.3027 -0.7846
 1495TIP3    H1 4491   5.853   4.108   2.606 -0.5728  2.3811 -0.3506
 1495TIP3    H2 4492   5.803   4.116   2.749  0.0602 -0.6504  0.1056
 1496TIP3   OH2 4493   1.224   2.654   2.264 -0.2533 -0.4548  0.5567
 1496TIP3    H1 4494   1.282   2.730   2.260 -0.5476 -0.1809  1.2252
 1496TIP3    H2 4495   1.270   2.586   2.216 -0.0542  0.1867 -0.1962
 1497TIP3   OH2 4496   6.288   3.908   3.841 -0.0682 -0.7561 -0.5219
 1497TIP3    H1 4497   6.299   3.935   3.933 -3.1440  1.4518 -0.6432
 1497TIP3    H2 4498   6.369   3.934   3.798  0.3840  0.6146  1.0763
 1498TIP3   OH2 4499   0.878   2.395   3.643 -0.2769  0.2229  0.8117
 1498TIP3    H1 4500   0.973   2.402   3.649 -0.2230  0.5680 -0.2074
 1498TIP3    H2 4501   0.861   2.302   3.631  0.0036  0.2757 -0.0030
 1499TIP3   OH2 4502   2.375   4.217   1.668 -0.0891 -0.5766 -0.1076
 1499TIP3    H1 4503   2.363   4.236   1.761  1.1398 -1.1605  0.1843
 1499TIP3    H2 4504   2.311   4.273   1.624 -1.4251 -1.0717  1.1367
 1500TIP3   OH2 4505   3.866   3.617   2.921 -0.4767  0.2454  0.0869
 1500TIP3    H1 4506   3.860   3.565   2.841 -0.0752  0.3005  0.0191
 1500TIP3    H2 4507   3.791   3.676   2.917 -0.4739  0.2266 -0.2366
 1501TIP3   OH2 4508   0.694   2.590   3.715 -0.0894  0.3468 -0.4789
 1501TIP3    H1 4509   0.750   2.524   3.672  1.1999  0.6033  0.7347
 1501TIP3    H2 4510   0.647   2.541   3.783 -0.2183  0.4147 -0.5182
 1502TIP3   OH2 4511   3.740   5.922   1.448 -0.5287  0.3306 -0.1233
 1502TIP3    H1 4512   3.728   5.873   1.366 -0.8178  1.0492 -0.5197
 1502TIP3    H2 4513   3.659   5.906   1.497 -0.7796  0.6951 -0.4103
 1503TIP3   OH2 4514   5.308   5.814   3.804 -0.2632 -0.0710  0.0794
 1503TIP3    H1 4515   5.355   5.888   3.765  0.2286  0.2675  1.2614
 1503TIP3    H2 4516   5.287   5.757   3.730 -1.9512  1.9275 -1.0926
 1504TIP3   OH2 4517   0.374   2.872   3.066  0.0751 -0.7949 -0.0028
 1504TIP3    H1 4518   0.412   2.919   2.992 -0.7668  1.2956  0.8100
 1504TIP3    H2 4519   0.450   2.852   3.122  0.3702  0.7588  0.2169
 1505TIP3   OH2 4520   4.831   4.364   1.115  0.7528  0.6398 -0.3441
 1505TIP3    H1 4521   4.852   4.282   1.070 -1.8711  0.2672 -1.0470
 1505TIP3    H2 4522   4.917   4.400   1.140  2.0621 -1.4715 -1.4677
 1506TIP3   OH2 4523   4.166   0.758   2.158  0.0243  0.6074  0.3498
 1506TIP3    H1 4524   4.186   0.850   2.172 -0.7070  0.8711 -0.2243
 1506TIP3    H2 4525   4.189   0.715   2.240  2.9307  0.8345 -0.2311
 1507TIP3   OH2 4526   6.068   0.077   2.638  0.1887 -0.1848 -0.0053
 1507TIP3    H1 4527   6.068   0.173   2.636 -0.1031 -0.1925 -0.2899
 1507TIP3    H2 4528   6.087   0.051   2.548 -2.2617 -0.4069 -0.5226
 1508TIP3   OH2 4529   3.044   0.086   2.478 -0.5293  0.8595  0.4910
 1508TIP3    H1 4530   2.979   0.156   2.486 -0.3052  1.2163 -0.7270
 1508TIP3    H2 4531   3.095   0.091   2.559 -0.2344  2.3915  0.2365
 1509TIP3   OH2 4532   0.904   0.075   3.759  0.1605  0.3327 -0.0522
 1509TIP3    H1 4533   0.897   0.113   3.846  0.5431 -0.1717  0.2087
 1509TIP3    H2 4534   0.996   0.090   3.734  0.1021  0.3073 -0.2859
 1510TIP3   OH2 4535   4.340   0.399   2.151  0.0217 -0.2013  0.1905
 1510TIP3    H1 4536   4.430   0.395   2.183 -0.4977  1.6444  2.1729
 1510TIP3    H2 4537   4.347   0.427   2.060  1.4484  0.5761  0.5199
 1511TIP3   OH2 4538   1.568   2.787   4.189  0.0972  0.2821 -0.6845
 1511TIP3    H1 4539   1.596   2.822   4.274 -1.1262 -0.7806  0.2068
 1511TIP3    H2 4540   1.597   2.696   4.190 -2.0033 -0.4290 -0.3494
 1512TIP3   OH2 4541   4.610   1.921   2.436  0.9185  0.4599 -0.2939
 1512TIP3    H1 4542   4.670   1.980   2.481  1.0068 -1.1981  1.9085
 1512TIP3    H2 4543   4.523   1.950   2.462  0.7870  1.6049 -1.8705
 1513TIP3   OH2 4544   4.671   1.935   2.936 -0.2510  0.3868  0.0159
 1513TIP3    H1 4545   4.586   1.935   2.978 -0.1324 -1.1014  0.2802
 1513TIP3    H2 4546   4.652   1.923   2.843 -0.4005  1.7551 -0.1542
 1514TIP3   OH2 4547   1.500   0.691   3.944  0.0010 -0.4597 -0.1817
 1514TIP3    H1 4548   1.564   0.620   3.951  0.0944 -0.5387 -1.5548
 1514TIP3    H2 4549   1.488   0.723   4.034  0.3687 -1.8432  0.3699
 1515TIP3   OH2 4550   3.659   4.529   4.612 -0.1875  0.1696  0.3043
 1515TIP3    H1 4551   3.659   4.434   4.597 -1.1881  0.3185 -0.7670
 1515TIP3    H2 4552   3.607   4.565   4.540 -0.3549  1.4897  1.0529
 1516TIP3   OH2 4553   1.337   0.521   0.719 -0.4492  0.4583 -0.3853
 1516TIP3    H1 4554   1.417   0.505   0.770 -0.1662  0.8623 -0.7000
 1516TIP3    H2 4555   1.307   0.607   0.747 -1.3111 -0.0809  0.4238
 1517TIP3   OH2 4556   0.805  -0.013   0.644 -0.4170 -0.4154  1.2349
 1517TIP3    H1 4557   0.866   0.056   0.617  1.4679 -2.0407  1.1081
 1517TIP3    H2 4558   0.719   0.027   0.637  0.0966  0.4519 -3.8192
 1518TIP3   OH2 4559   6.044   3.181   0.078 -0.3850 -0.7259  0.4832
 1518TIP3    H1 4560   6.083   3.111   0.026  0.2053 -0.9699  1.2332
 1518TIP3    H2 4561   6.037   3.254   0.017  0.8632 -0.8130  0.1957
 1519TIP3   OH2 4562   1.930   0.197   3.542 -0.2139 -0.5747 -0.1954
 1519TIP3    H1 4563   1.919   0.123   3.481  0.3111  2.5741 -4.5828
 1519TIP3    H2 4564   2.025   0.205   3.553 -0.2837 -0.7503  0.5458
 1520TIP3   OH2 4565   3.242   3.400   5.034 -0.6321  0.1307 -0.1511
 1520TIP3    H1 4566   3.197   3.385   5.117 -1.3636  0.5451 -0.4548
 1520TIP3    H2 4567   3.229   3.493   5.017 -0.2254  0.1101 -0.5777
 1521TIP3   OH2 4568   5.650   0.128   1.644  0.2950 -0.5507 -0.7104
 1521TIP3    H1 4569   5.713   0.178   1.592  1.1039  0.4325  1.1388
 1521TIP3    H2 4570   5.566   0.169   1.623  0.5826 -0.2559 -1.3322
 1522TIP3   OH2 4571   6.275   1.068   0.390 -0.3881 -0.4647  0.4089
 1522TIP3    H1 4572   6.367   1.065   0.361 -1.0263 -2.6153 -1.7459
 1522TIP3    H2 4573   6.278   1.041   0.482  1.0292 -2.5760 -0.1690
 1523TIP3   OH2 4574   2.796   2.276   0.279  0.1154  0.2259  0.2500
 1523TIP3    H1 4575   2.883   2.309   0.302  0.9943 -0.4316 -1.8623
 1523TIP3    H2 4576   2.803   2.251   0.187 -2.1476 -0.4507  0.1855
 1524TIP3   OH2 4577   2.203   1.646   1.040 -0.1722 -0.6876 -0.5688
 1524TIP3    H1 4578   2.176   1.673   0.952  0.3663 -0.7529 -0.7531
 1524TIP3    H2 4579   2.269   1.579   1.025 -2.7294 -3.5543 -0.1794
 1525TIP3   OH2 4580   4.125   4.411   0.110 -0.1456 -0.5878 -0.9624
 1525TIP3    H1 4581   4.103   4.503   0.118 -2.3258 -0.9812 -1.7879
 1525TIP3    H2 4582   4.207   4.402   0.158  0.6897  1.9618 -1.7350
 1526TIP3   OH2 4583   5.138   2.569   3.335 -0.1139  0.6231 -0.2669
 1526TIP3    H1 4584   5.083   2.492   3.319 -1.0920  1.1001  0.7122
 1526TIP3    H2 4585   5.184   2.582   3.252 -0.9203 -0.2315 -0.8790
 1527TIP3   OH2 4586   2.927   4.601   4.078 -0.2761 -0.3561 -0.5152
 1527TIP3    H1 4587   2.874   4.629   4.004 -0.1106  0.5243 -0.3079
 1527TIP3    H2 4588   2.961   4.682   4.117  0.0203 -0.8237  0.2442
 1528TIP3   OH2 4589   0.047   4.013   1.820  0.1621 -1.1434 -0.2017
 1528TIP3    H1 4590   0.062   4.091   1.767  0.8532 -0.6872  0.6492
 1528TIP3    H2 4591  -0.019   4.040   1.884 -0.9682 -1.8071 -1.0420
 1529TIP3   OH2 4592   1.690   3.078   1.294  0.3277  0.2327 -0.4746
 1529TIP3    H1 4593   1.636   3.092   1.216 -0.3586 -1.6093 -0.3742
 1529TIP3    H2 4594   1.759   3.018   1.264 -0.2736 -0.9545  0.4311
 1530TIP3   OH2 4595   5.164   5.922   0.257  0.4393 -0.0208 -0.1732
 1530TIP3    H1 4596   5.158   5.898   0.165 -0.0527  0.7411 -0.3465
 1530TIP3    H2 4597   5.227   5.860   0.294 -1.0715 -1.8486 -0.4969
 1531TIP3   OH2 4598   6.118   1.798   4.226 -0.5043 -0.3437  0.1500
 1531TIP3    H1 4599   6.184   1.829   4.288 -0.2311  1.4395 -0.9500
 1531TIP3    H2 4600   6.108   1.704   4.246  0.5722 -0.1278  1.9213
 1532TIP3   OH2 4601   5.792   3.618   0.725 -0.1050 -0.7900  0.1650
 1532TIP3    H1 4602   5.700   3.637   0.710  0.4741  0.9917 -1.5903
 1532TIP3    H2 4603   5.819   3.565   0.651  0.7084  0.4297 -0.4578
 1533TIP3   OH2 4604   3.988   1.462   3.045  0.2613 -0.4217  0.7313
 1533TIP3    H1 4605   3.902   1.423   3.028  1.4280 -2.1369 -1.8512
 1533TIP3    H2 4606   4.049   1.388   3.040  2.1450  1.1221 -0.1639
 1534TIP3   OH2 4607   2.772   2.040   3.193  0.4194 -0.1495 -0.5167
 1534TIP3    H1 4608   2.842   2.043   3.127  0.1138 -0.7744 -0.8797
 1534TIP3    H2 4609   2.732   2.127   3.190 -0.8956 -0.7452 -2.6023
 1535TIP3   OH2 4610   3.578   2.574   3.830 -1.0081  0.8319 -0.3287
 1535TIP3    H1 4611   3.593   2.495   3.778 -0.8258  0.4111  0.3510
 1535TIP3    H2 4612   3.663   2.618   3.831 -0.6817  0.2193  0.6109
 1536TIP3   OH2 4613   5.701   5.222   4.142  0.2422  0.1100  0.2533
 1536TIP3    H1 4614   5.632   5.202   4.205  0.5451 -0.0623  0.5379
 1536TIP3    H2 4615   5.705   5.144   4.087  1.4865 -0.7051  1.4202
 1537TIP3   OH2 4616   0.802   1.529   1.947 -0.7762  0.3512  0.1233
 1537TIP3    H1 4617   0.729   1.562   1.894 -1.8690 -2.7587 -0.4869
 1537TIP3    H2 4618   0.867   1.499   1.884 -0.0706  0.7031  0.6569
 1538TIP3   OH2 4619   2.108   5.930   3.010  0.1855 -0.0259  0.3757
 1538TIP3    H1 4620   2.185   5.966   3.055  0.9490  0.7504 -1.4307
 1538TIP3    H2 4621   2.095   5.988   2.935 -1.9421 -0.3838  0.3995
 1539TIP3   OH2 4622   0.283   0.178   0.808  0.0376 -0.5193 -0.2864
 1539TIP3    H1 4623   0.263   0.096   0.854  1.0245 -0.5235  0.1704
 1539TIP3    H2 4624   0.372   0.165   0.775  0.8375  0.9491  1.1512
 1540TIP3   OH2 4625   0.145   0.342   3.713 -0.7025 -0.5058 -0.0531
 1540TIP3    H1 4626   0.122   0.262   3.761  0.5099 -0.7671  0.1177
 1540TIP3    H2 4627   0.230   0.368   3.749 -0.4220  0.0620 -1.0890
 1541TIP3   OH2 4628   5.803   1.354   1.139  0.0455 -0.1556  0.1169
 1541TIP3    H1 4629   5.840   1.442   1.129  0.1608 -0.2148  0.0195
 1541TIP3    H2 4630   5.819   1.331   1.230 -0.3356  0.0842  0.2450
 1542TIP3   OH2 4631   5.473   4.292   3.497 -0.1818 -0.0824 -0.3319
 1542TIP3    H1 4632   5.522   4.281   3.416  2.0843 -0.1486  0.9752
 1542TIP3    H2 4633   5.482   4.209   3.542 -1.1384  0.0658  0.1505
 1543TIP3   OH2 4634   5.933   5.502   1.503 -0.2108  0.4226  0.0377
 1543TIP3    H1 4635   5.966   5.577   1.553 -2.7092  1.2734  0.6066
 1543TIP3    H2 4636   5.967   5.426   1.549 -1.3786  1.2066  2.3807
 1544TIP3   OH2 4637   2.446   3.997   0.690 -0.0073 -0.0376 -0.0239
 1544TIP3    H1 4638   2.525   4.049   0.677  0.1020  0.0000  0.7334
 1544TIP3    H2 4639   2.378   4.062   0.711 -0.0849 -0.1255 -0.0021
 1545TIP3   OH2 4640   1.766   4.252   4.461  0.2366  0.9460  0.4719
 1545TIP3    H1 4641   1.702   4.324   4.462  1.0618  1.7238 -0.4052
 1545TIP3    H2 4642   1.722   4.180   4.504 -1.2891  1.4226 -0.2292
 1546TIP3   OH2 4643   6.112   3.736   1.778  0.0894  0.0983 -0.1050
 1546TIP3    H1 4644   6.117   3.830   1.795 -0.5722  0.1830 -0.3504
 1546TIP3    H2 4645   6.124   3.695   1.864  1.6930  0.3494 -0.1802
 1547TIP3   OH2 4646   2.585   3.771   2.979  0.3587  0.2259  0.3545
 1547TIP3    H1 4647   2.542   3.693   2.943  0.0869  0.0147  1.1007
 1547TIP3    H2 4648   2.631   3.810   2.905 -1.0761  0.4239 -0.4718
 1548TIP3   OH2 4649   5.540   5.271   0.057  0.1392  0.4203  0.1865
 1548TIP3    H1 4650   5.617   5.217   0.073  0.0858  0.2949  0.0268
 1548TIP3    H2 4651   5.524   5.262  -0.037 -0.6042 -0.2644  0.3698
 1549TIP3   OH2 4652   1.868   2.083   3.521  0.1440 -0.1446 -0.1631
 1549TIP3    H1 4653   1.930   2.018   3.489  0.5066  0.5480 -0.9098
 1549TIP3    H2 4654   1.828   2.120   3.442 -0.3345  0.2674  0.2616
 1550TIP3   OH2 4655   4.359   2.965   4.676 -0.2127  0.4233 -0.0916
 1550TIP3    H1 4656   4.294   2.996   4.739  0.2265 -1.1890  1.2368
 1550TIP3    H2 4657   4.408   3.044   4.651 -1.3225  1.3199  0.4808
 1551TIP3   OH2 4658   3.875   2.339   4.746  0.6162 -0.6110  0.5210
 1551TIP3    H1 4659   3.911   2.273   4.805  0.4999  0.3275  1.6832
 1551TIP3    H2 4660   3.936   2.412   4.752 -1.2508  0.9458  2.4057
 1552TIP3   OH2 4661   1.193   1.568   0.580 -0.3900  0.0755  0.3087
 1552TIP3    H1 4662   1.156   1.603   0.661  0.5833 -0.3679  0.9720
 1552TIP3    H2 4663   1.287   1.586   0.587 -0.0703 -1.3679  0.0245
 1553TIP3   OH2 4664   0.757   3.261   4.910 -0.0555  0.2566 -0.4364
 1553TIP3    H1 4665   0.735   3.341   4.958  1.5235 -0.7666  2.1493
 1553TIP3    H2 4666   0.823   3.218   4.963 -0.5064 -2.5879 -1.9779
 1554TIP3   OH2 4667   4.039   1.303   4.084  0.1012 -0.3746  0.2185
 1554TIP3    H1 4668   4.110   1.364   4.064  0.3602 -1.3407 -2.1152
 1554TIP3    H2 4669   3.961   1.357   4.088  0.2486  0.1416 -2.2930
 1555TIP3   OH2 4670   0.973   0.088   3.188 -0.9506  0.6974 -0.2074
 1555TIP3    H1 4671   1.012   0.063   3.272 -0.5588  0.5985 -0.4168
 1555TIP3    H2 4672   0.879   0.077   3.201 -1.0149  2.0611  0.6792
 1556TIP3   OH2 4673   4.587   2.637   4.232 -0.4077  0.3063 -0.8201
 1556TIP3    H1 4674   4.667   2.595   4.264 -0.3171 -0.4724 -2.0168
 1556TIP3    H2 4675   4.617   2.710   4.179 -0.5639  2.8291  2.2418
 1557TIP3   OH2 4676   0.082   2.060   1.965 -0.0675 -0.1017  0.0600
 1557TIP3    H1 4677   0.157   2.001   1.968 -0.7229 -1.0918 -1.4918
 1557TIP3    H2 4678   0.058   2.073   2.056  1.9795  0.2544  0.5909
 1558TIP3   OH2 4679   5.103   4.776   3.815 -0.1705 -0.6091 -0.9228
 1558TIP3    H1 4680   5.044   4.851   3.812 -0.3090 -0.6718 -0.1200
 1558TIP3    H2 4681   5.056   4.712   3.869  0.4563 -0.8082 -0.6067
 1559TIP3   OH2 4682   1.213   5.354   3.555 -0.1540  0.0524  0.1540
 1559TIP3    H1 4683   1.247   5.419   3.617 -1.0900 -0.3377  1.0999
 1559TIP3    H2 4684   1.286   5.293   3.543 -0.6488 -1.1963  2.7364
 1560TIP3   OH2 4685   0.006   1.757   4.903 -0.0099  0.2765  0.1018
 1560TIP3    H1 4686   0.035   1.816   4.973  0.4774 -0.2129  0.3157
 1560TIP3    H2 4687  -0.028   1.680   4.949 -1.3128  0.6767 -0.1585
 1561TIP3   OH2 4688   4.980   1.338   3.640 -0.3371  0.0943  0.2948
 1561TIP3    H1 4689   5.000   1.311   3.730 -0.0511 -0.6016  0.0313
 1561TIP3    H2 4690   4.894   1.379   3.646 -0.0443  0.6399  0.9929
 1562TIP3   OH2 4691   5.636   1.711   1.079 -0.0685  0.3512  0.1904
 1562TIP3    H1 4692   5.725   1.689   1.107  0.1292  0.3723 -0.3999
 1562TIP3    H2 4693   5.613   1.643   1.016  0.1165  1.1681 -0.7918
 1563TIP3   OH2 4694   3.173   0.656   1.298  0.0169 -0.6443  0.1185
 1563TIP3    H1 4695   3.116   0.608   1.359  0.4792  0.6060  1.6099
 1563TIP3    H2 4696   3.141   0.747   1.302  1.1743 -0.2118 -0.1633
 1564TIP3   OH2 4697   6.210   1.008   2.521 -0.3426 -0.4413 -0.0877
 1564TIP3    H1 4698   6.140   1.056   2.476 -0.4579 -0.9436 -0.4627
 1564TIP3    H2 4699   6.164   0.951   2.583 -0.1561  0.6711  1.1152
 1565TIP3   OH2 4700   2.736   3.396   4.314  0.7123 -0.2083 -0.1814
 1565TIP3    H1 4701   2.746   3.318   4.260  0.2296  0.5661 -1.4139
 1565TIP3    H2 4702   2.699   3.462   4.256 -0.9562  0.3158  1.3706
 1566TIP3   OH2 4703   4.875   4.622   2.430  0.0336 -0.2645  0.0897
 1566TIP3    H1 4704   4.899   4.606   2.339 -0.4106  0.9091 -0.2587
 1566TIP3    H2 4705   4.951   4.591   2.480  0.6402 -0.1613 -0.7322
 1567TIP3   OH2 4706   1.860   2.423   1.520 -0.0469  0.4112  0.2057
 1567TIP3    H1 4707   1.841   2.514   1.495  1.5421  0.3963 -1.2105
 1567TIP3    H2 4708   1.804   2.371   1.462  0.0112  0.4600  0.1052
 1568TIP3   OH2 4709   2.414   0.448   0.371  0.1902 -0.6048  0.3083
 1568TIP3    H1 4710   2.473   0.430   0.445  2.6127  2.4579 -0.6652
 1568TIP3    H2 4711   2.428   0.374   0.312  2.5876 -0.3624  0.4660
 1569TIP3   OH2 4712   0.441   3.898   1.579  0.2366  0.2965 -0.0647
 1569TIP3    H1 4713   0.445   3.924   1.487 -0.0214  1.3616  0.2187
 1569TIP3    H2 4714   0.514   3.943   1.620 -0.4306  0.8729  0.5029
 1570TIP3   OH2 4715   0.460   1.367   0.133  0.0736 -0.3131  0.2972
 1570TIP3    H1 4716   0.413   1.401   0.209  0.1699  1.5567 -0.4400
 1570TIP3    H2 4717   0.409   1.290   0.106  0.1230 -1.1224  2.2908
 1571TIP3   OH2 4718   1.932   5.137   4.943  0.2642 -0.4973  0.4848
 1571TIP3    H1 4719   1.885   5.061   4.907 -2.6082  1.2118  0.3087
 1571TIP3    H2 4720   1.931   5.201   4.872  0.2183  0.6609  1.5025
 1572TIP3   OH2 4721   3.555   1.467   0.053  0.3226  0.2017 -0.0314
 1572TIP3    H1 4722   3.497   1.393   0.036  0.4934  0.0973 -0.1702
 1572TIP3    H2 4723   3.557   1.474   0.149 -2.5246  2.2858  0.0088
 1573TIP3   OH2 4724   3.882   2.630   3.391 -0.0704 -0.0648  0.0904
 1573TIP3    H1 4725   3.940   2.600   3.321  0.3916 -1.9991  1.2489
 1573TIP3    H2 4726   3.931   2.617   3.471 -2.0092 -1.6085  1.1084
 1574TIP3   OH2 4727   4.961   0.133   0.947 -0.3227  0.3674  0.1613
 1574TIP3    H1 4728   4.931   0.201   1.007  0.4151  0.6343  0.2411
 1574TIP3    H2 4729   5.042   0.101   0.986 -0.5347 -0.3892 -0.0042
 1575TIP3   OH2 4730   4.854   4.813   0.381 -0.1889  0.4591 -0.0363
 1575TIP3    H1 4731   4.801   4.801   0.460  0.8709  2.5738  1.0798
 1575TIP3    H2 4732   4.941   4.837   0.414  0.3458  1.1636 -1.8452
 1576TIP3   OH2 4733   3.706  -0.015   1.822  0.3590 -0.1379  0.5898
 1576TIP3    H1 4734   3.683   0.073   1.852 -0.0196  1.5290 -3.8937
 1576TIP3    H2 4735   3.799  -0.009   1.800  0.5922 -1.2211  1.1917
 1577TIP3   OH2 4736   2.954   0.812   3.704 -0.0975 -0.0712 -0.0612
 1577TIP3    H1 4737   2.921   0.792   3.792  1.2269 -0.5267  0.3590
 1577TIP3    H2 4738   3.002   0.733   3.678  1.7699  1.0074 -0.0654
 1578TIP3   OH2 4739   2.597   1.423   1.220  1.0542  0.3198  0.4858
 1578TIP3    H1 4740   2.647   1.370   1.159 -0.3452 -0.0807 -0.3563
 1578TIP3    H2 4741   2.609   1.380   1.305 -0.8824 -2.0476 -0.3291
 1579TIP3   OH2 4742   1.513   1.350   0.533  0.4081  0.0166 -0.4033
 1579TIP3    H1 4743   1.470   1.267   0.553  1.1602 -0.1221  0.7402
 1579TIP3    H2 4744   1.473   1.413   0.594  1.5361 -0.0374  0.4116
 1580TIP3   OH2 4745   1.937   4.634   4.577 -0.0753 -0.3326 -0.0539
 1580TIP3    H1 4746   1.990   4.698   4.624 -1.3494  0.1083  0.8424
 1580TIP3    H2 4747   1.989   4.611   4.500  2.4183 -1.6177  1.8742
 1581TIP3   OH2 4748   2.959   1.000   0.230  0.0336  0.7735  0.3406
 1581TIP3    H1 4749   2.868   1.028   0.228  0.3843  1.9398  0.0827
 1581TIP3    H2 4750   2.996   1.043   0.307 -0.0252 -1.0320  1.4277
 1582TIP3   OH2 4751   3.674   2.303   4.390 -0.0910  0.5871 -0.5221
 1582TIP3    H1 4752   3.616   2.233   4.360  0.2194  0.5953 -1.1456
 1582TIP3    H2 4753   3.724   2.264   4.463 -0.6764  0.4983 -0.1646
 1583TIP3   OH2 4754   3.945   1.480   0.658  0.2327  0.3809  0.3848
 1583TIP3    H1 4755   3.876   1.526   0.705  0.7355  0.0428  1.4868
 1583TIP3    H2 4756   3.943   1.391   0.693  0.9000  0.2391  0.0816
 1584TIP3   OH2 4757   4.539   0.659   0.668 -0.6198  0.3240  0.7296
 1584TIP3    H1 4758   4.608   0.726   0.666 -0.0585 -0.1355  2.7728
 1584TIP3    H2 4759   4.479   0.688   0.736  0.3788 -1.8679  2.6814
 1585TIP3   OH2 4760   4.870   5.652   0.159  0.0211  0.4032  0.1430
 1585TIP3    H1 4761   4.955   5.615   0.135 -0.5370  0.3644 -1.8638
 1585TIP3    H2 4762   4.878   5.668   0.254  1.6118 -1.2525  0.3502
 1586TIP3   OH2 4763   1.017   5.086   2.338 -0.1320 -0.0596  0.6300
 1586TIP3    H1 4764   1.066   5.136   2.272 -2.3764 -1.4254 -2.3413
 1586TIP3    H2 4765   1.058   4.999   2.337 -0.7363 -0.3477  0.3277
 1587TIP3   OH2 4766   2.911   5.464   3.735  0.0027  0.3426  0.3282
 1587TIP3    H1 4767   2.834   5.501   3.692  0.4019  0.7773 -0.0229
 1587TIP3    H2 4768   2.965   5.430   3.663  1.1438  1.9661  0.3623
 1588TIP3   OH2 4769   3.835   2.304   0.440 -0.1670  0.2249  0.2862
 1588TIP3    H1 4770   3.914   2.332   0.393  0.0355  1.6043  1.3829
 1588TIP3    H2 4771   3.867   2.274   0.525 -0.7111 -0.4966  0.2501
 1589TIP3   OH2 4772   5.409   0.570   0.713 -0.2604  0.1171 -0.3064
 1589TIP3    H1 4773   5.339   0.527   0.663 -0.4669  0.9922 -0.7860
 1589TIP3    H2 4774   5.414   0.658   0.677  0.4783  0.3563  0.3468
 1590TIP3   OH2 4775   4.684   5.730   4.406 -0.2266 -0.1970  0.1235
 1590TIP3    H1 4776   4.634   5.672   4.348  0.5840 -1.6314  0.8015
 1590TIP3    H2 4777   4.708   5.674   4.480  3.0778  0.1796 -0.5471
 1591TIP3   OH2 4778   6.080   3.199   1.619  0.3868  0.2306  0.2002
 1591TIP3    H1 4779   6.032   3.281   1.607 -0.6116 -0.4731 -0.8358
 1591TIP3    H2 4780   6.054   3.169   1.706  3.0332  2.4067  1.9101
 1592TIP3   OH2 4781   3.771   3.775   3.754  1.0101 -0.0724  0.1344
 1592TIP3    H1 4782   3.765   3.790   3.660  1.2690 -0.0733  0.1180
 1592TIP3    H2 4783   3.681   3.787   3.786 -0.0046 -4.1745 -0.6934
 1593TIP3   OH2 4784   3.041   2.642   3.451  0.3447  0.1550 -0.0219
 1593TIP3    H1 4785   3.030   2.702   3.525  3.3014 -1.2052  1.7109
 1593TIP3    H2 4786   2.983   2.568   3.470  1.5649 -0.4885  1.3810
 1594TIP3   OH2 4787   2.397   1.289   5.097  0.1197  0.4199 -0.2091
 1594TIP3    H1 4788   2.417   1.350   5.025  2.3944  2.4071  1.9179
 1594TIP3    H2 4789   2.455   1.214   5.081 -0.8890 -0.1429 -1.4788
 1595TIP3   OH2 4790   2.757   4.530   0.521  0.3909  0.2662 -0.3031
 1595TIP3    H1 4791   2.720   4.617   0.505  0.4221  0.0621 -1.5844
 1595TIP3    H2 4792   2.793   4.503   0.437  2.0923 -0.2078  0.5351
 1596TIP3   OH2 4793   0.122   0.482   3.493 -0.3198 -0.0923  0.3145
 1596TIP3    H1 4794   0.215   0.488   3.474 -0.5376  0.1801 -0.7123
 1596TIP3    H2 4795   0.117   0.421   3.567  0.7780  1.1217  1.4267
 1597TIP3   OH2 4796   6.184   4.941   2.665  0.1482 -0.2868  0.7998
 1597TIP3    H1 4797   6.278   4.934   2.683  0.1821  0.4977  0.9564
 1597TIP3    H2 4798   6.145   4.866   2.710  1.0224 -2.4603 -1.8149
 1598TIP3   OH2 4799   1.191   1.925   0.754 -0.0344  0.0457 -0.4667
 1598TIP3    H1 4800   1.162   1.885   0.835 -0.4420  1.6187  0.2063
 1598TIP3    H2 4801   1.286   1.933   0.764  0.0605 -0.8088 -0.6476
 1599TIP3   OH2 4802   4.345   4.128   2.143  0.9929  0.0294  0.2297
 1599TIP3    H1 4803   4.399   4.096   2.071  1.0751 -0.6245  0.5735
 1599TIP3    H2 4804   4.264   4.157   2.102  1.5427  0.8936 -0.2788
 1600TIP3   OH2 4805   5.171   1.716   3.883  0.0211 -0.2387 -0.5618
 1600TIP3    H1 4806   5.238   1.773   3.919 -0.0459  0.7584 -1.9255
 1600TIP3    H2 4807   5.114   1.774   3.833 -1.2987 -1.2070 -0.2444
 1601TIP3   OH2 4808   4.043   0.548   3.396 -0.4445  0.4448  0.3637
 1601TIP3    H1 4809   4.115   0.487   3.382  0.4776  1.6390 -0.3305
 1601TIP3    H2 4810   3.971   0.513   3.343  0.4673  0.5991 -1.0440
 1602TIP3   OH2 4811   0.286   2.792   3.487 -0.3678  0.2669 -0.0307
 1602TIP3    H1 4812   0.279   2.878   3.529  1.7996 -0.2588  1.5912
 1602TIP3    H2 4813   0.379   2.771   3.492 -0.9408 -2.4885  0.2330
 1603TIP3   OH2 4814   3.412   3.454   0.917 -0.1030 -0.2557  0.5698
 1603TIP3    H1 4815   3.361   3.452   0.998  0.3922 -1.2929  0.8885
 1603TIP3    H2 4816   3.497   3.489   0.944  0.3744 -1.4684  0.7252
 1604TIP3   OH2 4817   6.006   2.946   3.500  0.2046  0.2938  0.1609
 1604TIP3    H1 4818   6.028   2.978   3.588  0.4019 -1.1507  0.6735
 1604TIP3    H2 4819   5.917   2.912   3.509 -0.2566  1.2800 -0.5410
 1605TIP3   OH2 4820   2.218   0.817   2.846  0.4698  0.0671 -0.5413
 1605TIP3    H1 4821   2.218   0.912   2.846  3.3624  0.1366 -0.7302
 1605TIP3    H2 4822   2.136   0.793   2.802 -0.4649  2.4324 -0.1985
 1606TIP3   OH2 4823   0.642   3.901   1.970  0.0332  0.0720 -0.1430
 1606TIP3    H1 4824   0.550   3.890   1.994 -0.2071  1.7500 -0.1588
 1606TIP3    H2 4825   0.644   3.982   1.919  1.8200  1.3598  1.7887
 1607TIP3   OH2 4826   2.071   2.363   2.637 -0.7208  0.3516  0.0409
 1607TIP3    H1 4827   2.074   2.334   2.546  0.2165 -1.7608  0.6938
 1607TIP3    H2 4828   1.995   2.422   2.640 -0.1804  1.2825 -2.2875
 1608TIP3   OH2 4829   2.572   2.027   2.361 -0.3472  0.4290 -0.3712
 1608TIP3    H1 4830   2.485   2.039   2.322 -0.8954  0.4955  0.8131
 1608TIP3    H2 4831   2.555   2.025   2.455  0.8349 -0.5431 -0.1632
 1609TIP3   OH2 4832   2.908   2.907   1.844 -0.1698 -0.3733  0.3352
 1609TIP3    H1 4833   2.932   2.842   1.778 -0.1429 -1.6834  1.5955
 1609TIP3    H2 4834   2.863   2.857   1.912  1.3741  0.6099  2.1758
 1610TIP3   OH2 4835   0.833   0.533   3.944  0.9596 -0.4965  0.2259
 1610TIP3    H1 4836   0.891   0.533   3.868  0.6529  1.0418 -0.0375
 1610TIP3    H2 4837   0.887   0.569   4.015  0.5721  0.2598  0.1520
 1611TIP3   OH2 4838   6.257   1.137   3.581  0.4498  0.0328  0.5466
 1611TIP3    H1 4839   6.165   1.146   3.556  0.2527  0.0281  1.2511
 1611TIP3    H2 4840   6.290   1.067   3.524 -0.7006 -1.8724  2.0876
 1612TIP3   OH2 4841   2.828   1.217   0.536 -0.4025  0.2261 -0.2826
 1612TIP3    H1 4842   2.759   1.193   0.598 -0.6264  1.2874 -0.0910
 1612TIP3    H2 4843   2.786   1.213   0.451 -0.2590 -0.6582 -0.3166
 1613TIP3   OH2 4844   3.751   1.227   2.737  0.3181  0.4734 -0.0685
 1613TIP3    H1 4845   3.773   1.212   2.645  1.4897 -0.6653  0.3659
 1613TIP3    H2 4846   3.777   1.146   2.782 -0.3304  0.9587  1.2558
 1614TIP3   OH2 4847   1.879   5.280   4.700 -0.6193  0.0281 -0.4569
 1614TIP3    H1 4848   1.807   5.274   4.763 -0.8139 -1.3237 -0.7708
 1614TIP3    H2 4849   1.867   5.365   4.658 -1.5962  0.1397  0.0034
 1615TIP3   OH2 4850   4.147   0.571   1.940 -0.3404 -0.0161 -0.5773
 1615TIP3    H1 4851   4.147   0.636   2.009  2.0982  0.1078 -0.6145
 1615TIP3    H2 4852   4.239   0.550   1.926 -0.9184 -1.9201 -2.0346
 1616TIP3   OH2 4853   5.773   1.239   1.669  0.5271  0.2313 -0.2926
 1616TIP3    H1 4854   5.723   1.310   1.708  0.0624 -0.5109  0.5040
 1616TIP3    H2 4855   5.821   1.200   1.743  1.7564  0.4920 -0.9207
 1617TIP3   OH2 4856   2.839   1.507   0.373 -0.6193 -0.2082  0.1606
 1617TIP3    H1 4857   2.785   1.493   0.295  0.8691  0.8770 -1.1421
 1617TIP3    H2 4858   2.904   1.437   0.371 -0.6083 -0.2081  0.4551
 1618TIP3   OH2 4859   5.003   5.484   3.662 -0.5170  0.0084  0.2897
 1618TIP3    H1 4860   5.001   5.450   3.751  1.3242  0.1214  0.4100
 1618TIP3    H2 4861   4.949   5.424   3.612  2.4188 -3.1369  0.5258
 1619TIP3   OH2 4862   1.802   3.950   0.066  0.3507 -0.1341  0.5213
 1619TIP3    H1 4863   1.755   3.898   0.132  0.3065  0.9657  1.3870
 1619TIP3    H2 4864   1.736   3.969  -0.001 -0.6035  1.6611  1.8784
 1620TIP3   OH2 4865   5.611   2.249   4.862  0.0523  0.5572  0.3826
 1620TIP3    H1 4866   5.526   2.219   4.894  1.5918 -1.6822  2.7041
 1620TIP3    H2 4867   5.643   2.309   4.928 -0.2475  2.5324 -1.1741
 1621TIP3   OH2 4868   0.370   0.051   3.855 -0.3061 -0.2823 -0.2570
 1621TIP3    H1 4869   0.358   0.145   3.844 -0.9063 -0.5754 -2.5729
 1621TIP3    H2 4870   0.445   0.030   3.799  2.2784 -0.7198  3.0205
 1622TIP3   OH2 4871   1.361   2.555   1.625  0.2724  0.1667  0.1752
 1622TIP3    H1 4872   1.412   2.544   1.545  0.5896 -0.1469  0.4172
 1622TIP3    H2 4873   1.272   2.532   1.600  0.3332  0.2599 -0.1357
 1623TIP3   OH2 4874   0.269   2.376   2.366  0.7223  0.5204  0.3603
 1623TIP3    H1 4875   0.319   2.454   2.390  0.1822  0.8648  0.3814
 1623TIP3    H2 4876   0.333   2.305   2.366  0.8893  0.6143  2.1843
 1624TIP3   OH2 4877   4.340   0.853   3.590 -0.1058  0.2812  0.6163
 1624TIP3    H1 4878   4.386   0.901   3.521  1.2886 -0.8737  0.6941
 1624TIP3    H2 4879   4.355   0.761   3.569 -0.3264 -0.0981  2.0144
 1625TIP3   OH2 4880   1.360   3.434   3.617  0.0623  0.0761  0.5796
 1625TIP3    H1 4881   1.399   3.430   3.704 -1.1756  3.2640  1.4264
 1625TIP3    H2 4882   1.417   3.492   3.567 -1.0154  0.9836  0.3651
 1626TIP3   OH2 4883   5.531   0.407   4.421  0.1534  0.0714 -0.3083
 1626TIP3    H1 4884   5.521   0.317   4.389 -1.1906  0.5703 -1.3788
 1626TIP3    H2 4885   5.573   0.453   4.348  1.5679  0.1794  0.5241
 1627TIP3   OH2 4886   5.494   4.299   1.539  0.3031 -0.3268 -0.2887
 1627TIP3    H1 4887   5.549   4.339   1.472  0.5224  0.5345  0.3939
 1627TIP3    H2 4888   5.531   4.212   1.551  0.3323 -0.4487 -1.1986
 1628TIP3   OH2 4889   2.158   4.872   2.515  0.4067  0.0090  0.3329
 1628TIP3    H1 4890   2.169   4.961   2.480 -0.3983 -0.3431 -0.8816
 1628TIP3    H2 4891   2.231   4.823   2.477  0.2026 -0.1003  0.0754
 1629TIP3   OH2 4892   4.949   5.267   4.745 -0.1140 -0.0235 -0.5471
 1629TIP3    H1 4893   4.921   5.342   4.798 -0.4150  0.4444 -1.3450
 1629TIP3    H2 4894   4.934   5.191   4.801 -3.4104  0.1181 -1.0452
 1630TIP3   OH2 4895   6.196   2.668   1.940 -0.0842  0.1378 -0.0616
 1630TIP3    H1 4896   6.181   2.609   1.867  1.3437 -1.4110  0.8275
 1630TIP3    H2 4897   6.113   2.670   1.987 -0.0995 -1.3568  0.0072
 1631TIP3   OH2 4898   5.930   4.537   3.909 -0.1649 -0.5653  0.0564
 1631TIP3    H1 4899   5.996   4.555   3.842 -0.8272  0.2952 -0.3775
 1631TIP3    H2 4900   5.868   4.477   3.867  0.0481 -0.9683  0.3011
 1632TIP3   OH2 4901   2.146   2.733   4.501 -0.1839  0.4175  0.2942
 1632TIP3    H1 4902   2.187   2.704   4.420 -0.0209 -0.7415  0.7696
 1632TIP3    H2 4903   2.052   2.736   4.480 -0.3696 -1.8023  0.5712
 1633TIP3   OH2 4904   5.982   0.796   0.711 -0.1151 -0.2834  0.0647
 1633TIP3    H1 4905   5.902   0.776   0.663  1.3776 -2.8563 -1.6222
 1633TIP3    H2 4906   5.954   0.813   0.800 -2.5518 -0.5450 -0.5852
 1634TIP3   OH2 4907   5.399   3.839   2.075  0.5824  0.5147 -0.1052
 1634TIP3    H1 4908   5.442   3.793   2.148 -0.0919  0.3331  0.1851
 1634TIP3    H2 4909   5.383   3.770   2.010  1.4839  0.7351 -0.5816
 1635TIP3   OH2 4910   1.065   6.003   1.208 -0.2171  0.0855 -0.0005
 1635TIP3    H1 4911   0.997   5.947   1.171  0.2133  0.0853 -0.8049
 1635TIP3    H2 4912   1.057   5.991   1.303 -1.3336  0.0885 -0.0823
 1636TIP3   OH2 4913   3.728   2.894   0.895 -0.0788  0.0777  0.0531
 1636TIP3    H1 4914   3.701   2.862   0.809 -0.7279 -1.9998  0.9667
 1636TIP3    H2 4915   3.821   2.915   0.885 -0.3120  0.5306 -1.3194
 1637TIP3   OH2 4916   0.711   2.902   3.455 -0.1085 -0.3465  0.2847
 1637TIP3    H1 4917   0.750   2.870   3.536  0.3663 -1.5557 -0.3903
 1637TIP3    H2 4918   0.623   2.931   3.481  0.5010  0.5391  1.4520
 1638TIP3   OH2 4919   3.902   4.658   5.025  0.1721 -0.4314  0.0882
 1638TIP3    H1 4920   3.976   4.691   5.075  1.0733  0.4496 -1.7368
 1638TIP3    H2 4921   3.892   4.720   4.953 -0.7167 -1.9150 -1.1302
 1639TIP3   OH2 4922   2.133   2.288   0.227  0.3018 -0.0329 -0.1103
 1639TIP3    H1 4923   2.068   2.293   0.156  1.1466  0.3492 -0.8885
 1639TIP3    H2 4924   2.081   2.281   0.307 -0.6694 -1.4114 -0.8286
 1640TIP3   OH2 4925   2.928   5.658   0.592 -0.1143 -0.7260  0.0305
 1640TIP3    H1 4926   2.900   5.748   0.579  0.7193 -0.4521  0.0653
 1640TIP3    H2 4927   2.854   5.615   0.634 -0.0811  0.2412  1.1103
 1641TIP3   OH2 4928   5.632   0.200   3.679  0.1890 -0.0777 -0.2535
 1641TIP3    H1 4929   5.695   0.211   3.751  0.9806  0.2681 -0.9843
 1641TIP3    H2 4930   5.652   0.271   3.619 -2.1809  1.2114  0.3763
 1642TIP3   OH2 4931   1.156   4.534   0.133  0.3836  0.4283  0.4730
 1642TIP3    H1 4932   1.104   4.454   0.119  0.0279  0.8240 -0.5861
 1642TIP3    H2 4933   1.246   4.504   0.136  0.6830  0.2734 -3.8078
 1643TIP3   OH2 4934   1.642   4.184   1.081  0.1259 -0.2978 -0.3087
 1643TIP3    H1 4935   1.727   4.211   1.117  0.1338 -1.5704  0.7042
 1643TIP3    H2 4936   1.605   4.127   1.148  0.3702 -3.2691 -2.4908
 1644TIP3   OH2 4937   0.582   4.460   1.801 -0.5089 -0.6010  0.1876
 1644TIP3    H1 4938   0.608   4.470   1.892 -0.9700 -1.2941  0.4014
 1644TIP3    H2 4939   0.658   4.419   1.759 -1.0557 -2.2547  0.7272
 1645TIP3   OH2 4940   2.363   3.633   4.795 -0.5353  0.0898 -0.4690
 1645TIP3    H1 4941   2.276   3.665   4.818 -0.1408  0.9060 -0.0446
 1645TIP3    H2 4942   2.390   3.581   4.871 -0.1964  0.8062 -0.0827
 1646TIP3   OH2 4943   5.472   5.874   2.199 -0.3176 -0.2812 -0.0056
 1646TIP3    H1 4944   5.552   5.926   2.212 -0.2877 -0.1336 -0.7300
 1646TIP3    H2 4945   5.481   5.801   2.260  0.5844 -0.5124 -0.3965
 1647TIP3   OH2 4946   0.100   3.870   3.107 -0.0720  0.3676 -0.0879
 1647TIP3    H1 4947   0.156   3.904   3.037 -0.2663  1.0631  0.0802
 1647TIP3    H2 4948   0.043   3.944   3.130 -0.7169 -0.1711  0.0870
 1648TIP3   OH2 4949   1.765   4.562   4.813  0.1543  0.1794  0.0435
 1648TIP3    H1 4950   1.817   4.541   4.891 -0.6463 -2.2138  0.0207
 1648TIP3    H2 4951   1.825   4.551   4.740  0.3204  0.1173  0.1882
 1649TIP3   OH2 4952   5.226   0.272   2.772 -0.5485  0.1274 -0.9080
 1649TIP3    H1 4953   5.262   0.314   2.850  2.1560 -2.0051 -0.8249
 1649TIP3    H2 4954   5.153   0.327   2.746  2.0707  4.3566 -0.3225
 1650TIP3   OH2 4955   2.835   4.791   1.446  0.1329 -0.2689 -0.2243
 1650TIP3    H1 4956   2.781   4.720   1.481 -0.1351  1.0890  2.3077
 1650TIP3    H2 4957   2.793   4.815   1.364 -2.7644  0.2346  1.2857
 1651TIP3   OH2 4958   5.316  -0.000   1.926 -0.5452  0.7128 -0.0814
 1651TIP3    H1 4959   5.404   0.016   1.960  0.3294 -1.9238 -0.8695
 1651TIP3    H2 4960   5.258   0.023   1.999  1.0085 -0.7516  1.7345
 1652TIP3   OH2 4961   1.136   2.431   3.484  0.3661 -0.2314 -0.3764
 1652TIP3    H1 4962   1.208   2.488   3.459  1.2220 -1.3072 -0.4256
 1652TIP3    H2 4963   1.158   2.346   3.447  0.6160 -1.3611  2.1455
 1653TIP3   OH2 4964   5.961   3.887   3.725 -0.3094  0.0523 -0.2442
 1653TIP3    H1 4965   5.899   3.819   3.752  0.2499 -0.1010  0.7135
 1653TIP3    H2 4966   5.960   3.949   3.798 -0.8852  1.1382 -1.1416
 1654TIP3   OH2 4967   6.302   5.649   2.916 -0.2310  0.1374  0.2267
 1654TIP3    H1 4968   6.215   5.626   2.883  0.4356 -1.7603 -0.3223
 1654TIP3    H2 4969   6.332   5.570   2.961  0.4014  1.4396  2.2411
 1655TIP3   OH2 4970   5.139   0.948   5.114 -0.1152 -0.1486  0.0701
 1655TIP3    H1 4971   5.173   0.933   5.203  0.9133 -1.1430 -0.4678
 1655TIP3    H2 4972   5.157   0.866   5.068 -1.8320 -0.1321 -0.7036
 1656TIP3   OH2 4973   5.691   3.631   0.174 -0.1244 -0.0029  0.1102
 1656TIP3    H1 4974   5.675   3.707   0.119  0.5478 -0.2280 -0.4000
 1656TIP3    H2 4975   5.743   3.664   0.247 -0.2968  0.1251  0.1774
 1657TIP3   OH2 4976   2.852   4.328   3.385  0.0669 -0.4483  0.3200
 1657TIP3    H1 4977   2.947   4.328   3.401  0.6450  0.6284 -2.5931
 1657TIP3    H2 4978   2.816   4.380   3.457  1.8645  0.4572  0.6198
 1658TIP3   OH2 4979   3.033   4.317   2.189  0.6476  0.3570  0.3302
 1658TIP3    H1 4980   3.077   4.304   2.273  1.0308  1.9778  0.4202
 1658TIP3    H2 4981   3.104   4.327   2.126  0.4150  1.3727  0.2075
 1659TIP3   OH2 4982   5.184   5.715   3.128 -0.4702  0.2530 -0.4349
 1659TIP3    H1 4983   5.194   5.782   3.060 -0.1365  0.8381  0.1822
 1659TIP3    H2 4984   5.272   5.679   3.140 -0.0643  1.6971  1.2359
 1660TIP3   OH2 4985   4.259   2.842   0.686  0.4680  0.2366 -0.5874
 1660TIP3    H1 4986   4.278   2.752   0.712 -1.1760 -0.4436 -1.5625
 1660TIP3    H2 4987   4.331   2.894   0.721  1.7326 -1.5333 -0.4778
 1661TIP3   OH2 4988   2.425   0.964   3.932  0.0965  0.1730 -0.1783
 1661TIP3    H1 4989   2.423   0.872   3.957  1.3987 -0.4583 -2.1694
 1661TIP3    H2 4990   2.363   1.007   3.992  1.7743 -1.3988  2.9326
 1662TIP3   OH2 4991   5.086   1.600   3.200 -0.5313  0.0303  0.2495
 1662TIP3    H1 4992   5.062   1.676   3.146 -0.1814 -1.0989 -1.5708
 1662TIP3    H2 4993   5.018   1.536   3.183 -0.1139 -0.5530  0.7364
 1663TIP3   OH2 4994   5.850   1.393   0.684  0.6459  0.6143  0.0147
 1663TIP3    H1 4995   5.937   1.422   0.711  0.6150  1.3899 -0.6911
 1663TIP3    H2 4996   5.851   1.397   0.588  0.3683 -0.9637 -0.0889
 1664TIP3   OH2 4997   5.749   3.843   3.934  0.5692 -0.2495 -0.0341
 1664TIP3    H1 4998   5.811   3.771   3.923  1.2431  0.2703  0.3102
 1664TIP3    H2 4999   5.705   3.825   4.017  3.6338  1.7948  2.2887
 1665TIP3   OH2 5000   5.061   4.820   5.117  0.4263 -0.3597  0.3152
 1665TIP3    H1 5001   5.049   4.891   5.054 -0.5189 -0.6446  0.1633
 1665TIP3    H2 5002   5.133   4.849   5.172 -0.3150  0.9898  0.6179
 1666TIP3   OH2 5003   4.992   2.953   5.185 -0.3087  0.2112 -0.3221
 1666TIP3    H1 5004   5.026   2.864   5.176 -0.3904  0.1722 -0.2409
 1666TIP3    H2 5005   5.000   2.990   5.097 -1.7708 -0.4028 -0.7323
 1667TIP3   OH2 5006   6.220   1.604   3.499  0.0156  0.0166 -1.0604
 1667TIP3    H1 5007   6.136   1.591   3.454 -0.7726 -0.3160  0.4511
 1667TIP3    H2 5008   6.272   1.529   3.474 -0.9675 -0.9697 -0.2350
 1668TIP3   OH2 5009   3.785   4.985   3.748 -0.2281  0.1140  0.4579
 1668TIP3    H1 5010   3.709   4.978   3.805  0.1661  0.4809  1.0360
 1668TIP3    H2 5011   3.860   4.981   3.807  0.1796  0.8562  0.0073
 1669TIP3   OH2 5012   4.108   2.426   2.772 -0.0395  0.3514 -0.4522
 1669TIP3    H1 5013   4.110   2.511   2.817 -0.6771 -0.8464  2.0385
 1669TIP3    H2 5014   4.056   2.442   2.693 -0.3090  2.2394  0.0522
 1670TIP3   OH2 5015   1.813   0.038   4.667 -0.2547  0.0760  0.4477
 1670TIP3    H1 5016   1.736   0.062   4.718 -0.3259  0.6891  0.0540
 1670TIP3    H2 5017   1.826  -0.055   4.685 -1.4376 -0.1738  0.0659
 1671TIP3   OH2 5018   2.778   1.877   2.064  0.3588  0.5306  0.5233
 1671TIP3    H1 5019   2.733   1.862   1.981  1.3358  2.1071 -0.3343
 1671TIP3    H2 5020   2.793   1.789   2.099 -0.3438 -0.1501 -0.8080
 1672TIP3   OH2 5021   3.816   2.698   3.800  0.4889  0.2170 -0.3198
 1672TIP3    H1 5022   3.791   2.722   3.711 -1.0981  1.2554  0.3656
 1672TIP3    H2 5023   3.885   2.760   3.824  0.7821  0.0582 -0.7539
 1673TIP3   OH2 5024   4.909   1.055   0.610  0.2519  0.8878  0.5715
 1673TIP3    H1 5025   4.899   1.086   0.700  2.2074  2.0933  0.4196
 1673TIP3    H2 5026   5.000   1.027   0.603 -0.0434  0.1458 -0.8535
 1674TIP3   OH2 5027   5.794   0.739   2.137 -0.5242  0.1621  0.4744
 1674TIP3    H1 5028   5.789   0.643   2.129  1.0436  0.0191  0.8833
 1674TIP3    H2 5029   5.720   0.762   2.192 -1.4206 -0.7217 -0.3158
 1675TIP3   OH2 5030   1.970   5.342   5.104 -0.1041  0.1284  0.3004
 1675TIP3    H1 5031   1.951   5.263   5.054 -3.8460  1.1976 -0.2981
 1675TIP3    H2 5032   1.908   5.339   5.177  1.6248  1.1963  1.8937
 1676TIP3   OH2 5033   2.201   1.577   0.768 -0.4144  0.1721 -0.2267
 1676TIP3    H1 5034   2.146   1.637   0.718  0.5229  0.0322 -1.4629
 1676TIP3    H2 5035   2.164   1.490   0.749 -0.5971  0.1895  0.0398
 1677TIP3   OH2 5036   3.897   1.490   1.851 -0.1731  0.1768  0.1990
 1677TIP3    H1 5037   3.867   1.477   1.941  1.3854  1.6435  0.9938
 1677TIP3    H2 5038   3.902   1.402   1.814 -0.7261 -0.4676  1.5903
 1678TIP3   OH2 5039   5.288   0.205   5.084 -0.2403 -0.2008  0.0449
 1678TIP3    H1 5040   5.368   0.256   5.067 -0.6265  0.5612  0.4486
 1678TIP3    H2 5041   5.304   0.121   5.042 -0.7412  1.2110 -3.3595
 1679TIP3   OH2 5042   5.197   2.946   1.581  1.0734  0.2015  0.4125
 1679TIP3    H1 5043   5.293   2.939   1.583  1.5469  2.4023 -3.4516
 1679TIP3    H2 5044   5.179   3.029   1.625  0.9768 -0.1044  0.9458
 1680TIP3   OH2 5045   3.808   1.424   4.038 -0.4880 -0.1104  0.0060
 1680TIP3    H1 5046   3.750   1.496   4.062 -0.3451 -0.2730  0.8803
 1680TIP3    H2 5047   3.782   1.401   3.949 -0.0800  1.4427 -0.5298
 1681TIP3   OH2 5048   2.242   5.660   2.225  0.1792 -0.4282 -0.1702
 1681TIP3    H1 5049   2.234   5.566   2.211 -0.4336 -0.1952 -1.6925
 1681TIP3    H2 5050   2.281   5.693   2.144  0.1363  0.6565  0.2274
 1682TIP3   OH2 5051   2.011   1.419   1.394 -0.5069 -0.3647 -0.3208
 1682TIP3    H1 5052   2.003   1.371   1.476  1.4834  0.2215  0.2663
 1682TIP3    H2 5053   2.070   1.366   1.340  0.8437  0.8110 -0.0697
 1683TIP3   OH2 5054   3.919   0.660   1.310  0.0562 -0.0499 -0.5099
 1683TIP3    H1 5055   3.936   0.615   1.228 -0.1998 -1.1912  0.0475
 1683TIP3    H2 5056   3.826   0.643   1.328  0.0349  0.4461 -0.1393
 1684TIP3   OH2 5057   4.743   4.074   4.500  0.5837 -0.8031 -0.4925
 1684TIP3    H1 5058   4.782   4.161   4.516  0.4076 -0.8792  0.4330
 1684TIP3    H2 5059   4.674   4.090   4.437 -0.1901 -0.0636  0.5120
 1685TIP3   OH2 5060   5.473   4.650   3.850  0.0848  0.4545 -0.5586
 1685TIP3    H1 5061   5.407   4.582   3.858 -0.9690  1.4716 -0.3076
 1685TIP3    H2 5062   5.542   4.625   3.911 -0.9607  0.3646  0.6149
 1686TIP3   OH2 5063   1.381   1.607   3.415  0.1725  0.2037  0.0667
 1686TIP3    H1 5064   1.388   1.536   3.350  0.9322  1.5931 -1.4366
 1686TIP3    H2 5065   1.472   1.633   3.431 -0.1046  0.8792  0.5708
 1687TIP3   OH2 5066   1.613   5.737   1.981  0.0578 -0.0401  0.0778
 1687TIP3    H1 5067   1.620   5.747   2.076 -1.3554 -0.3579  0.2299
 1687TIP3    H2 5068   1.641   5.821   1.945  0.4396  0.1334  0.7787
 1688TIP3   OH2 5069   5.598   5.414   3.078 -0.5344 -0.2046 -0.7685
 1688TIP3    H1 5070   5.650   5.342   3.112 -0.6299  0.1407  0.1263
 1688TIP3    H2 5071   5.661   5.470   3.032 -0.4946 -0.9537 -1.6640
 1689TIP3   OH2 5072   2.229   0.651   1.257 -0.2827  0.2218  0.2093
 1689TIP3    H1 5073   2.249   0.743   1.236  0.8515 -0.1870 -0.6039
 1689TIP3    H2 5074   2.177   0.656   1.337  1.9268  1.4862  1.6786
 1690TIP3   OH2 5075   2.525   0.679   1.418 -0.7551 -0.4679  0.0217
 1690TIP3    H1 5076   2.433   0.692   1.396  0.0360  2.6714 -1.9968
 1690TIP3    H2 5077   2.545   0.748   1.482  0.3526 -0.7001 -0.0451
 1691TIP3   OH2 5078   4.315   2.408   4.630 -0.3062  0.0478 -0.6143
 1691TIP3    H1 5079   4.367   2.337   4.592 -0.0942 -0.0651 -0.1241
 1691TIP3    H2 5080   4.334   2.484   4.576  0.1413 -0.0665 -0.6171
 1692TIP3   OH2 5081   2.112   1.642   1.987  0.4880 -0.2719  1.0270
 1692TIP3    H1 5082   2.076   1.570   2.039 -0.0881 -0.2281  0.6906
 1692TIP3    H2 5083   2.121   1.606   1.899 -1.8142  0.6796  0.3422
 1693TIP3   OH2 5084   4.396   5.486   4.724  0.4556 -0.0235 -0.0229
 1693TIP3    H1 5085   4.414   5.574   4.689  0.1528 -0.4670 -1.3636
 1693TIP3    H2 5086   4.322   5.455   4.671  0.5621 -1.0894  0.4443
 1694TIP3   OH2 5087   0.671   4.305   3.509  0.0093  0.2337 -0.2822
 1694TIP3    H1 5088   0.705   4.394   3.519  0.3970  0.0166  0.4208
 1694TIP3    H2 5089   0.594   4.315   3.453 -0.1350  1.0590  0.0410
 1695TIP3   OH2 5090   6.081   3.795   4.376 -0.1850  0.6008 -0.0631
 1695TIP3    H1 5091   6.052   3.799   4.285 -1.2657  0.0784  0.2367
 1695TIP3    H2 5092   6.177   3.798   4.371 -0.2148  0.1775 -1.2377
 1696TIP3   OH2 5093   1.407   1.430   4.388  0.2214 -0.4839 -0.1821
 1696TIP3    H1 5094   1.469   1.370   4.346 -0.1545  0.0156 -1.5021
 1696TIP3    H2 5095   1.412   1.510   4.337  0.1080  0.3444  1.0618
 1697TIP3   OH2 5096   0.926   2.016   2.244 -0.6851 -0.1390  0.0897
 1697TIP3    H1 5097   0.915   2.110   2.229 -0.1710 -0.1312 -0.2564
 1697TIP3    H2 5098   0.843   1.989   2.284 -1.3293  0.2154 -0.9595
 1698TIP3   OH2 5099   4.975   5.708   0.727 -0.3943  0.1678 -0.5986
 1698TIP3    H1 5100   4.889   5.700   0.768 -0.9590  0.5305 -1.6838
 1698TIP3    H2 5101   4.990   5.803   0.721 -0.5106  0.1328 -1.5890
 1699TIP3   OH2 5102   4.962   1.845   1.669  0.1701  0.1817  0.4624
 1699TIP3    H1 5103   4.969   1.938   1.691  1.3798 -0.0176  0.9681
 1699TIP3    H2 5104   5.051   1.818   1.648 -0.1872 -0.8403  0.2132
 1700TIP3   OH2 5105   0.447   3.098   1.015 -0.1709  0.1618 -0.1701
 1700TIP3    H1 5106   0.422   3.070   1.103 -1.2761  1.7109  0.0431
 1700TIP3    H2 5107   0.504   3.174   1.029 -0.1666  0.2786 -0.7762
 1701TIP3   OH2 5108   1.661   2.726   1.933 -0.4996  0.9055  0.3963
 1701TIP3    H1 5109   1.690   2.643   1.969  0.1646 -0.1523 -2.2956
 1701TIP3    H2 5110   1.582   2.705   1.883 -0.2023  1.8123 -0.5062
 1702TIP3   OH2 5111   2.603   5.150   4.393  0.5296 -0.2584  0.3653
 1702TIP3    H1 5112   2.576   5.135   4.302  0.0278  1.0261  0.2750
 1702TIP3    H2 5113   2.690   5.111   4.399  1.1533  0.8282 -1.0589
 1703TIP3   OH2 5114   4.454   3.931   0.490 -0.1018  0.2922 -0.0584
 1703TIP3    H1 5115   4.495   3.865   0.436  0.6900  0.8459 -0.1402
 1703TIP3    H2 5116   4.431   4.002   0.430  0.3759  0.7179  0.2530
 1704TIP3   OH2 5117   3.940   1.176   4.948 -0.1780  0.3681 -0.4024
 1704TIP3    H1 5118   4.017   1.125   4.923  0.6903  1.0362  0.8156
 1704TIP3    H2 5119   3.920   1.229   4.870 -0.3451 -0.8866 -1.2437
 1705TIP3   OH2 5120   4.608   0.254   0.597  0.6042  0.0125  0.4359
 1705TIP3    H1 5121   4.658   0.286   0.672  0.7517  1.1709 -0.1470
 1705TIP3    H2 5122   4.631   0.161   0.592  1.0556  0.0557  1.4572
 1706TIP3   OH2 5123   1.650   5.220   4.869 -0.2636  0.2425  0.1753
 1706TIP3    H1 5124   1.629   5.162   4.942 -2.3820  1.1719  0.3832
 1706TIP3    H2 5125   1.568   5.268   4.852  0.7208  1.4263 -1.5507
 1707TIP3   OH2 5126   4.733   4.929   0.056 -0.1491 -0.1035 -0.1942
 1707TIP3    H1 5127   4.640   4.912   0.071 -0.7661  1.0852 -2.2121
 1707TIP3    H2 5128   4.760   4.985   0.128 -0.4906 -1.9059  1.4000
 1708TIP3   OH2 5129   5.172   4.265   4.453  0.0244  0.7067 -0.2808
 1708TIP3    H1 5130   5.119   4.236   4.379  1.0673 -1.5161 -0.2202
 1708TIP3    H2 5131   5.260   4.279   4.416  0.1141  1.3979  0.1815
 1709TIP3   OH2 5132   3.252   5.503   4.621 -0.5725 -1.0470 -0.0817
 1709TIP3    H1 5133   3.246   5.506   4.526  0.4151 -1.1565 -0.1579
 1709TIP3    H2 5134   3.300   5.423   4.640  1.0737 -0.0020  0.3925
 1710TIP3   OH2 5135   1.670   3.458   0.564 -0.2307  0.2852  0.5002
 1710TIP3    H1 5136   1.658   3.426   0.475  2.9775 -1.2132  0.4719
 1710TIP3    H2 5137   1.708   3.545   0.553  1.2230 -0.3484  0.3328
 1711TIP3   OH2 5138   0.216   3.762   4.207 -0.0416 -0.6117  0.2558
 1711TIP3    H1 5139   0.223   3.673   4.175  0.9088 -0.6097  0.4278
 1711TIP3    H2 5140   0.290   3.808   4.167 -2.8149  1.2325 -3.2836
 1712TIP3   OH2 5141   0.464   0.013   1.312  0.5652  0.7038  0.2916
 1712TIP3    H1 5142   0.462   0.108   1.327  0.0816  0.9336 -1.0049
 1712TIP3    H2 5143   0.464  -0.026   1.399  0.5210  1.8975  0.8441
 1713TIP3   OH2 5144   2.755   3.872   2.790  0.7462 -0.0432  0.4127
 1713TIP3    H1 5145   2.786   3.959   2.813 -0.0221  0.4414 -0.3229
 1713TIP3    H2 5146   2.827   3.813   2.814  0.4298  0.5080  3.0369
 1714TIP3   OH2 5147   3.675   1.845   3.879  0.7675  0.1591  0.0066
 1714TIP3    H1 5148   3.644   1.777   3.819  0.9032 -0.4619  0.6224
 1714TIP3    H2 5149   3.759   1.811   3.912  1.3255  1.0726 -0.4121
 1715TIP3   OH2 5150   3.157   4.747   0.590 -0.1223  0.1675 -0.2261
 1715TIP3    H1 5151   3.173   4.841   0.587 -1.3522  0.3990 -2.8343
 1715TIP3    H2 5152   3.063   4.740   0.607 -0.4733 -0.4425 -2.1406
 1716TIP3   OH2 5153   5.911   4.176   4.603  0.6817 -0.9025  0.4382
 1716TIP3    H1 5154   5.996   4.164   4.645  1.2075  0.2942 -0.2174
 1716TIP3    H2 5155   5.849   4.130   4.659  1.4143  0.2303  2.2865
 1717TIP3   OH2 5156   3.087   2.035   1.160  0.0559  0.7556  0.1949
 1717TIP3    H1 5157   3.052   2.049   1.072  0.8729  0.0214 -0.2601
 1717TIP3    H2 5158   3.082   1.940   1.173  2.1444  0.5695 -0.0316
 1718TIP3   OH2 5159   4.515   5.261   1.086  0.0722 -0.6372  0.1630
 1718TIP3    H1 5160   4.428   5.267   1.124  0.1674 -0.6604  0.3917
 1718TIP3    H2 5161   4.568   5.222   1.156  0.6014  0.7768  0.5838
 1719TIP3   OH2 5162   1.262   2.904   3.876  0.1478  0.0919 -0.2707
 1719TIP3    H1 5163   1.232   2.949   3.955 -1.3724  2.8660 -2.2563
 1719TIP3    H2 5164   1.217   2.819   3.879  2.1531 -1.0228  3.0064
 1720TIP3   OH2 5165   3.323   0.346   3.768  0.5512 -0.1518  0.1286
 1720TIP3    H1 5166   3.331   0.422   3.710  0.2823 -0.5230 -0.4045
 1720TIP3    H2 5167   3.229   0.344   3.790  0.4071 -0.8078 -0.5226
 1721TIP3   OH2 5168   0.228   0.228   5.125  0.2555 -0.1029 -0.2061
 1721TIP3    H1 5169   0.302   0.234   5.185 -0.3970 -0.7167  0.6949
 1721TIP3    H2 5170   0.224   0.314   5.083  0.0215  0.7638  1.5064
 1722TIP3   OH2 5171   1.860   5.283   4.231 -0.1276  0.1232 -0.1805
 1722TIP3    H1 5172   1.813   5.272   4.314  1.1042 -1.6649  0.3300
 1722TIP3    H2 5173   1.916   5.359   4.246 -1.7388  1.3950 -0.3073
 1723TIP3   OH2 5174   1.780   2.228   4.643  0.5018  0.0924  0.1290
 1723TIP3    H1 5175   1.728   2.176   4.705  1.3262  0.2347  0.9699
 1723TIP3    H2 5176   1.721   2.299   4.616  0.0135 -0.1719  0.4822
 1724TIP3   OH2 5177   5.225   0.407   3.291 -0.6426 -0.2721 -0.1695
 1724TIP3    H1 5178   5.248   0.499   3.305 -0.0556 -0.4607  0.1228
 1724TIP3    H2 5179   5.133   0.402   3.317 -0.5688  0.1453  0.1964
 1725TIP3   OH2 5180   3.271   5.142   4.134 -0.0851 -0.5523  0.3133
 1725TIP3    H1 5181   3.210   5.168   4.065 -0.4219  2.0819  1.5184
 1725TIP3    H2 5182   3.347   5.108   4.086 -1.3179 -1.2214 -1.2676
 1726TIP3   OH2 5183   0.328   1.949   2.786 -0.1552 -0.0199  0.1234
 1726TIP3    H1 5184   0.289   1.978   2.869  0.9991 -0.8166  0.9911
 1726TIP3    H2 5185   0.295   1.860   2.773 -0.3700  0.1198 -0.2986
 1727TIP3   OH2 5186   5.700   0.979   1.167  0.3375  0.4711 -0.9941
 1727TIP3    H1 5187   5.680   0.920   1.239  1.1083  0.4339 -0.7971
 1727TIP3    H2 5188   5.634   0.960   1.101  0.4042 -0.4120 -0.8206
 1728TIP3   OH2 5189   3.891   3.227   1.509 -0.2161 -0.1957 -0.0995
 1728TIP3    H1 5190   3.925   3.268   1.588 -1.4025 -0.7864  0.7341
 1728TIP3    H2 5191   3.856   3.300   1.457  2.1998  0.4410 -0.9909
 1729TIP3   OH2 5192   3.322   1.043   0.185 -0.0461 -0.3362  0.5250
 1729TIP3    H1 5193   3.297   0.953   0.166  0.8058 -0.5639  0.4536
 1729TIP3    H2 5194   3.260   1.072   0.252 -1.7163 -0.2469 -0.9750
 1730TIP3   OH2 5195   4.399   5.898   2.542 -0.5691 -0.5142  0.1885
 1730TIP3    H1 5196   4.379   5.844   2.466  1.8744  0.5337 -1.3102
 1730TIP3    H2 5197   4.482   5.864   2.575 -1.1016 -0.3266  1.8379
 1731TIP3   OH2 5198   5.616   2.438   1.941 -0.0482  0.3667 -0.1706
 1731TIP3    H1 5199   5.524   2.433   1.916 -0.0347 -0.6380 -0.0469
 1731TIP3    H2 5200   5.635   2.532   1.942 -1.2821  0.6295  0.5739
 1732TIP3   OH2 5201   5.270   4.197   0.480  0.3246  0.2917 -0.7734
 1732TIP3    H1 5202   5.354   4.200   0.434  0.8839 -0.7341  0.1449
 1732TIP3    H2 5203   5.293   4.179   0.571 -0.7304  2.6198  0.0543
 1733TIP3   OH2 5204   4.284   4.151   2.998 -0.6295  0.0018 -0.5684
 1733TIP3    H1 5205   4.332   4.225   2.962 -0.7479 -0.5980 -2.0047
 1733TIP3    H2 5206   4.343   4.076   2.987 -0.0509  0.0177  1.8784
 1734TIP3   OH2 5207   2.546   5.413   4.146  0.0851  0.0934  0.4081
 1734TIP3    H1 5208   2.606   5.440   4.215  0.1937  1.4140 -0.1710
 1734TIP3    H2 5209   2.548   5.317   4.148  0.4207  0.1081  1.9257
 1735TIP3   OH2 5210   4.252   3.724   0.487  0.2002 -0.5307  0.2732
 1735TIP3    H1 5211   4.305   3.804   0.496 -1.1382  0.6722 -1.6590
 1735TIP3    H2 5212   4.299   3.672   0.422 -0.5827  0.2191 -0.9214
 1736TIP3   OH2 5213   3.934   3.446   2.708  0.2632 -0.0271  0.1772
 1736TIP3    H1 5214   4.018   3.448   2.663  0.5422  2.9902  0.6604
 1736TIP3    H2 5215   3.952   3.400   2.790  1.1492 -0.3291 -0.1704
 1737TIP3   OH2 5216   2.628   2.495   1.360  0.2953 -0.6220 -0.6905
 1737TIP3    H1 5217   2.583   2.565   1.313 -1.4455 -0.9473  0.3718
 1737TIP3    H2 5218   2.588   2.415   1.327 -0.1488 -0.9087  0.4904
 1738TIP3   OH2 5219   4.817   5.137   0.951 -0.0346 -0.0044 -0.1192
 1738TIP3    H1 5220   4.753   5.099   0.891 -0.2006 -0.0645  0.0967
 1738TIP3    H2 5221   4.895   5.150   0.897 -0.8510  1.9901 -0.9358
 1739TIP3   OH2 5222   2.196   2.005   4.344  0.3123  0.1809  0.4224
 1739TIP3    H1 5223   2.238   1.929   4.383 -0.2928  0.1673  1.0607
 1739TIP3    H2 5224   2.263   2.073   4.345  0.4601  0.0312  1.0300
 1740TIP3   OH2 5225   4.760   0.352   3.454  0.1397  0.2806 -0.1798
 1740TIP3    H1 5226   4.843   0.387   3.421 -0.4159  2.2823  0.3814
 1740TIP3    H2 5227   4.709   0.430   3.475 -0.9047 -0.9092  1.9452
 1741TIP3   OH2 5228   1.903   2.575   2.547  1.1265 -0.1763 -0.2943
 1741TIP3    H1 5229   1.918   2.572   2.453  0.1086  1.8532 -0.5996
 1741TIP3    H2 5230   1.819   2.530   2.559 -0.9259  3.0602 -1.0658
 1742TIP3   OH2 5231   3.059   4.657   5.110  0.6188  0.3326  0.6501
 1742TIP3    H1 5232   3.090   4.689   5.025 -1.4537  1.3880  0.2178
 1742TIP3    H2 5233   2.975   4.701   5.123 -1.6627 -3.5567  0.8715
 1743TIP3   OH2 5234   5.638   0.467   2.556 -0.6477 -0.4820  0.0490
 1743TIP3    H1 5235   5.722   0.482   2.600 -0.3767 -1.8947  0.0752
 1743TIP3    H2 5236   5.660   0.465   2.463 -0.7678 -0.2072  0.0135
 1744TIP3   OH2 5237   3.508   3.657   2.226 -0.2257  0.0152 -0.1605
 1744TIP3    H1 5238   3.476   3.693   2.143  0.4892  1.7519  0.2673
 1744TIP3    H2 5239   3.439   3.676   2.289  0.2252  0.8564  0.1013
 1745TIP3   OH2 5240   5.649   3.964   5.084 -0.6652  0.1955  0.0496
 1745TIP3    H1 5241   5.733   3.951   5.128 -0.4797 -0.8293 -0.5909
 1745TIP3    H2 5242   5.584   3.955   5.153 -0.2809  0.6857  0.4905
 1746TIP3   OH2 5243   0.083   3.800   1.682 -0.0635 -0.1696 -0.3318
 1746TIP3    H1 5244   0.079   3.886   1.725  1.4767  0.2007 -0.8589
 1746TIP3    H2 5245   0.009   3.800   1.621 -0.4178  0.5426  0.0804
 1747TIP3   OH2 5246   1.381   4.572   3.353 -0.1210 -0.0766  0.0794
 1747TIP3    H1 5247   1.340   4.527   3.279 -2.8675  1.1078  0.7360
 1747TIP3    H2 5248   1.429   4.645   3.313 -3.1440  1.7383 -0.6362
 1748TIP3   OH2 5249   5.325   1.341   4.937 -0.1835  0.0115  0.0321
 1748TIP3    H1 5250   5.360   1.416   4.985  0.2701 -0.1797  0.0067
 1748TIP3    H2 5251   5.237   1.369   4.911  0.7472  1.4212 -1.9009
 1749TIP3   OH2 5252   2.815   5.369   3.959 -0.8825 -0.1517  0.0398
 1749TIP3    H1 5253   2.833   5.376   3.866 -1.8644  1.6237 -0.0604
 1749TIP3    H2 5254   2.848   5.451   3.996 -1.1604 -0.5170  1.1256
 1750TIP3   OH2 5255   4.566   2.151   3.212 -0.2346 -0.1114  0.5339
 1750TIP3    H1 5256   4.490   2.175   3.266 -0.0260  0.6885  0.4814
 1750TIP3    H2 5257   4.582   2.059   3.233 -0.0321  0.2334  1.9920
 1751TIP3   OH2 5258   3.325   1.490   2.854 -0.5630  0.8502  0.3301
 1751TIP3    H1 5259   3.255   1.470   2.793  1.4545 -0.6465 -1.6822
 1751TIP3    H2 5260   3.336   1.585   2.847 -1.4645  0.9197 -0.3685
 1752TIP3   OH2 5261   0.647   5.306   3.487  0.0563  0.5969  0.2160
 1752TIP3    H1 5262   0.679   5.263   3.567 -0.9612 -0.4860  0.0623
 1752TIP3    H2 5263   0.677   5.250   3.416 -1.0714  0.2562 -0.0047
 1753TIP3   OH2 5264   3.034   2.840   3.640  0.4794 -0.2745  0.0098
 1753TIP3    H1 5265   2.961   2.886   3.682  2.0236  2.0252  0.3442
 1753TIP3    H2 5266   3.093   2.817   3.712  0.5829 -1.1854 -0.3544
 1754TIP3   OH2 5267   1.136   0.154   1.679 -0.0335  0.0161 -0.2833
 1754TIP3    H1 5268   1.185   0.236   1.669 -2.1930  1.3704 -0.4865
 1754TIP3    H2 5269   1.194   0.098   1.731  1.2254  1.9394  0.5217
 1755TIP3   OH2 5270   1.097   1.018   1.131  0.8605 -0.7149 -0.2155
 1755TIP3    H1 5271   1.010   1.051   1.153  0.8837 -0.7606 -0.0568
 1755TIP3    H2 5272   1.096   0.927   1.160  0.3158 -1.2826 -1.8876
 1756TIP3   OH2 5273   3.910   1.736   3.985 -0.2725  0.6282 -0.2798
 1756TIP3    H1 5274   3.944   1.650   4.009 -0.8634  0.9305  1.8257
 1756TIP3    H2 5275   3.978   1.773   3.929 -0.3189 -1.4350 -1.8022
 1757TIP3   OH2 5276   6.141   0.207   4.136  0.2844 -0.6952  0.1105
 1757TIP3    H1 5277   6.077   0.161   4.190  2.1706 -0.8322  2.3898
 1757TIP3    H2 5278   6.217   0.219   4.193  1.1926  2.2047 -1.4826
 1758TIP3   OH2 5279   1.423   0.981   1.043  0.5388 -1.0316 -0.1147
 1758TIP3    H1 5280   1.429   0.888   1.065 -0.2365 -0.7918  1.2936
 1758TIP3    H2 5281   1.332   0.994   1.018  0.7971 -0.7683 -0.9348
 1759TIP3   OH2 5282   4.703   0.616   0.158 -0.9700  0.4221 -0.7879
 1759TIP3    H1 5283   4.701   0.605   0.063 -1.2919 -0.4147 -0.6917
 1759TIP3    H2 5284   4.676   0.531   0.193  2.6339 -0.5266  0.1383
 1760TIP3   OH2 5285   2.122   1.255   1.902  0.2639 -0.0525 -0.2644
 1760TIP3    H1 5286   2.198   1.268   1.958 -0.4524 -0.4586  0.8345
 1760TIP3    H2 5287   2.130   1.322   1.834  1.5759 -0.0736 -0.1567
 1761TIP3   OH2 5288   0.243   0.634   4.040  0.8191 -0.1418  0.3306
 1761TIP3    H1 5289   0.252   0.548   4.000 -0.6474 -0.1240 -0.0983
 1761TIP3    H2 5290   0.148   0.647   4.049  1.0240  1.2262  0.8285
 1762TIP3   OH2 5291   3.198   4.317   2.423  0.6887  0.0668 -0.1206
 1762TIP3    H1 5292   3.262   4.254   2.454  1.1085 -1.0205 -2.8898
 1762TIP3    H2 5293   3.138   4.328   2.497  0.1998 -4.1138  0.3615
 1763TIP3   OH2 5294   3.814   4.224   3.953  0.3991  0.6495 -0.0682
 1763TIP3    H1 5295   3.880   4.161   3.924  1.3631  1.1710  0.9353
 1763TIP3    H2 5296   3.848   4.258   4.035 -1.7791 -0.0996  1.2415
 1764TIP3   OH2 5297   3.861   5.761  -0.009  0.5547  0.2515  0.4725
 1764TIP3    H1 5298   3.896   5.755   0.080 -3.0032  0.0097  2.0408
 1764TIP3    H2 5299   3.820   5.675  -0.024 -0.2199  0.8115 -0.7817
 1765TIP3   OH2 5300   2.087   5.646   0.791 -0.3257  0.6847  0.0607
 1765TIP3    H1 5301   2.038   5.704   0.850 -1.6029  0.7073 -0.9758
 1765TIP3    H2 5302   2.177   5.679   0.794 -0.1499  0.1864  2.5976
 1766TIP3   OH2 5303   3.185   5.293   2.807 -0.3842 -0.1057 -0.0031
 1766TIP3    H1 5304   3.231   5.257   2.883 -2.0988  0.9820  1.6602
 1766TIP3    H2 5305   3.215   5.384   2.801  0.4631 -0.4391 -1.2853
 1767TIP3   OH2 5306   5.782   2.383   0.520  0.0323 -0.1473  0.3784
 1767TIP3    H1 5307   5.781   2.302   0.470 -2.1924  2.1801 -4.0223
 1767TIP3    H2 5308   5.694   2.390   0.558 -0.0749  0.5051  0.0396
 1768TIP3   OH2 5309   1.077   2.810   0.424 -0.0506 -0.1177 -0.2110
 1768TIP3    H1 5310   1.030   2.745   0.476 -0.1708  0.5687  0.5583
 1768TIP3    H2 5311   1.041   2.802   0.336  1.0305 -2.1615 -0.5191
 1769TIP3   OH2 5312   5.374   1.724   1.202  0.1584 -0.4082 -0.0929
 1769TIP3    H1 5313   5.462   1.720   1.165  0.2676  0.0718  0.1059
 1769TIP3    H2 5314   5.340   1.635   1.194 -0.8296  0.1368 -3.7288
 1770TIP3   OH2 5315   2.195   0.494   1.054 -0.3384 -0.3995  0.4172
 1770TIP3    H1 5316   2.223   0.545   1.130 -1.6826  0.2299  0.5309
 1770TIP3    H2 5317   2.148   0.419   1.092 -0.0259 -0.6918  0.2245
 1771TIP3   OH2 5318   1.674   4.434   3.817 -0.1926  0.0292  0.2684
 1771TIP3    H1 5319   1.647   4.436   3.725 -0.5230  0.3710  0.3682
 1771TIP3    H2 5320   1.653   4.346   3.847  1.4256 -0.6206 -0.4204
 1772TIP3   OH2 5321   1.554   4.773   0.859  0.0551 -0.4154  0.1212
 1772TIP3    H1 5322   1.465   4.806   0.875  0.4894 -0.1488  2.2627
 1772TIP3    H2 5323   1.600   4.847   0.819 -0.1187  0.2059  1.0287
 1773TIP3   OH2 5324   4.095   5.047   0.683  0.9075  0.6273 -0.1105
 1773TIP3    H1 5325   4.036   4.972   0.678  1.9293 -0.1953 -0.0927
 1773TIP3    H2 5326   4.102   5.066   0.776  1.4312  0.0823 -0.0265
 1774TIP3   OH2 5327   4.101   3.276   0.204  0.0042  0.2056  0.1718
 1774TIP3    H1 5328   4.025   3.218   0.200 -0.4004  0.7180  0.2259
 1774TIP3    H2 5329   4.100   3.311   0.293  0.1546  0.4105  0.0952
 1775TIP3   OH2 5330   2.478   0.174   1.769 -0.2200  0.2678 -0.3616
 1775TIP3    H1 5331   2.384   0.157   1.769 -0.1622 -0.0542  0.3205
 1775TIP3    H2 5332   2.513   0.120   1.840  0.3216  1.2774  0.1650
 1776TIP3   OH2 5333   0.991   4.914   1.839  0.5031 -0.3585  0.0373
 1776TIP3    H1 5334   0.951   4.999   1.855  0.5452 -0.5790  1.4300
 1776TIP3    H2 5335   1.013   4.881   1.926 -0.8708 -2.4481 -0.3308
 1777TIP3   OH2 5336   2.901   0.977   1.360  0.1220  0.2169 -0.3770
 1777TIP3    H1 5337   2.889   0.892   1.403 -0.1323  0.3389 -0.2066
 1777TIP3    H2 5338   2.985   0.968   1.314  0.0641 -0.1497 -0.4176
 1778TIP3   OH2 5339   4.464   5.967   2.166 -0.7718  0.0303 -0.0390
 1778TIP3    H1 5340   4.477   5.894   2.106 -1.5384 -1.3042  1.3394
 1778TIP3    H2 5341   4.552   6.002   2.180 -0.5047 -0.0354 -1.4088
 1779TIP3   OH2 5342   2.831   5.923   3.291  0.0533  0.7228  0.5790
 1779TIP3    H1 5343   2.901   5.876   3.337 -0.7008 -0.4658  0.5678
 1779TIP3    H2 5344   2.780   5.964   3.360 -1.1807 -1.2023  0.8952
 1780TIP3   OH2 5345   5.014   3.158   2.167  0.1525 -0.8141 -0.1396
 1780TIP3    H1 5346   5.026   3.072   2.208  1.1631 -0.7398 -0.2547
 1780TIP3    H2 5347   4.972   3.211   2.235 -2.2225 -1.8767 -0.6654
 1781TIP3   OH2 5348   1.241   2.301   1.520 -0.4703  0.3581 -0.5563
 1781TIP3    H1 5349   1.200   2.381   1.553 -0.9908 -0.0062 -0.3014
 1781TIP3    H2 5350   1.179   2.231   1.542  0.8945 -0.4201  1.0657
 1782TIP3   OH2 5351   3.824   5.891   3.169  0.4662 -0.1122  0.0709
 1782TIP3    H1 5352   3.886   5.844   3.113 -0.5366  0.5368 -1.6655
 1782TIP3    H2 5353   3.870   5.903   3.252  2.1275 -0.8600 -0.7083
 1783TIP3   OH2 5354   4.355   4.413   4.027 -0.2720  0.0483  0.1980
 1783TIP3    H1 5355   4.444   4.376   4.030  0.5877  1.8957 -0.9296
 1783TIP3    H2 5356   4.327   4.399   3.937 -1.0834 -0.3940  0.5152
 1784TIP3   OH2 5357   5.119   0.830   3.970 -0.2653 -0.4630 -0.6570
 1784TIP3    H1 5358   5.174   0.765   3.927 -0.8613 -0.9614 -0.6914
 1784TIP3    H2 5359   5.040   0.835   3.915  0.6908  2.0007 -1.9707
 1785TIP3   OH2 5360   3.464   3.057   2.716  0.2486 -0.2934 -0.2878
 1785TIP3    H1 5361   3.378   3.077   2.753  0.4674  0.0296  0.0445
 1785TIP3    H2 5362   3.448   2.983   2.657 -0.1982 -0.4429  0.0200
 1786TIP3   OH2 5363   4.689   5.285   2.618  0.2355  0.1886 -0.2841
 1786TIP3    H1 5364   4.688   5.342   2.695 -1.3047  0.3149 -0.3504
 1786TIP3    H2 5365   4.656   5.341   2.547 -2.4397 -1.0181 -0.1066
 1787TIP3   OH2 5366   5.169  -0.003   4.760 -0.3941 -0.1670 -0.6037
 1787TIP3    H1 5367   5.113   0.006   4.837  2.7381  0.3659  1.8151
 1787TIP3    H2 5368   5.192   0.087   4.735  1.3817 -0.3698  0.1313
 1788TIP3   OH2 5369   6.140   4.297   2.628 -0.4722 -0.1681 -0.1482
 1788TIP3    H1 5370   6.058   4.346   2.622 -0.3375  0.0415 -0.3074
 1788TIP3    H2 5371   6.193   4.330   2.556 -0.2424 -0.2913 -0.0372
 1789TIP3   OH2 5372   3.165   3.519   4.452 -0.2615  0.6789  0.3029
 1789TIP3    H1 5373   3.134   3.441   4.496  1.0913  0.1722  0.3975
 1789TIP3    H2 5374   3.101   3.535   4.382 -0.5734 -0.4683  0.3188
 1790TIP3   OH2 5375   2.195   1.274   4.855  0.4097  0.1915  0.3169
 1790TIP3    H1 5376   2.180   1.262   4.948  1.1727 -0.7925  0.3191
 1790TIP3    H2 5377   2.272   1.222   4.835  0.3625  0.5231 -0.8351
 1791TIP3   OH2 5378   1.950   4.617   1.301 -0.0143 -0.6797  0.0557
 1791TIP3    H1 5379   1.979   4.591   1.388 -1.6862 -1.1675  0.4963
 1791TIP3    H2 5380   1.872   4.565   1.285 -0.8052  0.7539 -0.9688
 1792TIP3   OH2 5381   4.479   4.329   2.906  0.4410 -0.0479 -0.4310
 1792TIP3    H1 5382   4.487   4.270   2.831  0.3327 -0.6175 -0.0048
 1792TIP3    H2 5383   4.558   4.314   2.958 -0.9658 -2.1531  1.2952
 1793TIP3   OH2 5384   6.068   3.581   1.566 -0.5665  0.0088  0.0631
 1793TIP3    H1 5385   6.148   3.533   1.546 -1.8226 -2.7522  1.1322
 1793TIP3    H2 5386   6.090   3.633   1.643  1.1962  2.3938 -1.8661
 1794TIP3   OH2 5387   3.447   5.324   3.520 -0.1690  0.5003 -0.6925
 1794TIP3    H1 5388   3.501   5.262   3.569  0.3911  0.6673 -1.0821
 1794TIP3    H2 5389   3.405   5.378   3.587  0.7301  0.8459 -0.3931
 1795TIP3   OH2 5390   2.676   0.281   2.386 -0.1219 -0.1964 -0.0455
 1795TIP3    H1 5391   2.768   0.300   2.369 -0.4717  2.0021  0.1881
 1795TIP3    H2 5392   2.676   0.231   2.467  0.8582  0.2031  0.2142
 1796TIP3   OH2 5393   5.887   2.199   0.807  0.2404 -0.4436  0.3549
 1796TIP3    H1 5394   5.852   2.160   0.727  0.1490 -1.1753  0.7452
 1796TIP3    H2 5395   5.922   2.284   0.779 -0.5299 -0.3290 -0.3097
 1797TIP3   OH2 5396   5.658   2.192   2.896 -0.1988  0.3674 -0.4128
 1797TIP3    H1 5397   5.586   2.253   2.910 -0.2841  0.3274 -0.6689
 1797TIP3    H2 5398   5.619   2.120   2.846 -0.5400 -0.7736  1.3936
 1798TIP3   OH2 5399   5.711   2.317   1.545  0.2444 -0.1323  0.0162
 1798TIP3    H1 5400   5.759   2.318   1.462  2.0312  0.5398  1.0026
 1798TIP3    H2 5401   5.619   2.310   1.520  0.7909 -0.6699 -1.9891
 1799TIP3   OH2 5402   1.706   5.547   5.005  0.1291 -0.2107  1.0420
 1799TIP3    H1 5403   1.655   5.610   5.055 -0.9537 -1.1313  1.1462
 1799TIP3    H2 5404   1.655   5.466   5.009  1.2884 -0.9973  0.5973
 1800TIP3   OH2 5405   6.072   3.127   4.381  0.6834  0.3801 -0.3097
 1800TIP3    H1 5406   6.024   3.082   4.451  0.8697 -2.2157 -1.7281
 1800TIP3    H2 5407   6.161   3.135   4.415  0.2059  1.6755  0.7728
 1801TIP3   OH2 5408   1.059   4.736   2.861 -0.2324  0.0546  0.1736
 1801TIP3    H1 5409   0.994   4.803   2.882 -1.8168 -1.1246 -0.7483
 1801TIP3    H2 5410   1.033   4.704   2.774  0.2787 -1.9524  0.7093
 1802TIP3   OH2 5411   2.034   3.898   0.657 -0.4672  0.3968  0.0130
 1802TIP3    H1 5412   1.985   3.966   0.702  1.4620  0.4637  2.2382
 1802TIP3    H2 5413   2.003   3.816   0.695  0.5074  0.3903  0.8372
 1803TIP3   OH2 5414   3.743   2.585   2.000  0.3478  0.2384  0.3547
 1803TIP3    H1 5415   3.795   2.606   2.078  1.5051 -0.8987 -0.0778
 1803TIP3    H2 5416   3.729   2.669   1.957  3.2577  0.4331 -0.3835
 1804TIP3   OH2 5417   4.208   1.357   2.561  0.3715 -0.2681 -0.3811
 1804TIP3    H1 5418   4.154   1.290   2.602  1.1739 -0.5231  0.2802
 1804TIP3    H2 5419   4.280   1.372   2.622  1.7315 -0.8312 -1.7620
 1805TIP3   OH2 5420   3.069   1.670   1.527  0.4282  0.0101  0.3781
 1805TIP3    H1 5421   3.011   1.722   1.470 -0.3907 -1.3979 -0.1350
 1805TIP3    H2 5422   3.143   1.647   1.471 -0.1192 -0.9205  0.0011
 1806TIP3   OH2 5423   6.047   2.784   4.507  0.2462 -0.3030 -0.0908
 1806TIP3    H1 5424   6.043   2.724   4.432  1.3353 -0.6430  0.1118
 1806TIP3    H2 5425   6.140   2.786   4.531  0.1205  0.9220  0.3450
 1807TIP3   OH2 5426   1.144   0.788   3.658 -0.0497 -1.1360 -0.3800
 1807TIP3    H1 5427   1.127   0.718   3.595 -0.2261 -1.6135  0.1858
 1807TIP3    H2 5428   1.168   0.743   3.739 -0.1368 -0.5439 -0.0126
 1808TIP3   OH2 5429   2.918   2.458   4.528  0.0878 -0.1103 -0.1724
 1808TIP3    H1 5430   2.943   2.541   4.487  1.2164 -0.8022 -0.9220
 1808TIP3    H2 5431   2.823   2.455   4.520  0.0470  1.0391 -0.2695
 1809TIP3   OH2 5432   1.812   2.596   4.292 -0.2974 -0.3605  0.1025
 1809TIP3    H1 5433   1.814   2.570   4.200  2.8633 -0.9170  0.2186
 1809TIP3    H2 5434   1.823   2.514   4.341  1.1614  0.2447  0.8286
 1810TIP3   OH2 5435   3.350   1.352   4.810 -0.1474 -0.1926  0.7324
 1810TIP3    H1 5436   3.291   1.367   4.736  0.6303 -0.3275  0.0625
 1810TIP3    H2 5437   3.422   1.413   4.796  0.3710 -0.7413  0.9677
 1811TIP3   OH2 5438   0.690   4.438   1.058 -0.0930 -0.1810  0.5829
 1811TIP3    H1 5439   0.676   4.347   1.033 -0.9202 -0.1147  0.7665
 1811TIP3    H2 5440   0.673   4.488   0.978  0.6981 -0.2081  0.3946
 1812TIP3   OH2 5441   4.902   1.985   1.163  0.1217  0.4218  0.0146
 1812TIP3    H1 5442   4.950   1.963   1.083  0.7030 -0.3718  0.5675
 1812TIP3    H2 5443   4.895   1.902   1.210 -0.6378  0.7922  0.5621
 1813TIP3   OH2 5444   0.421   2.250   4.942 -0.0484  0.2233  0.7205
 1813TIP3    H1 5445   0.334   2.279   4.971 -0.5151 -1.5076  1.1837
 1813TIP3    H2 5446   0.480   2.276   5.013 -0.4546  0.0321  1.1339
 1814TIP3   OH2 5447   3.035   1.323   0.315  0.4911 -0.0079 -0.1152
 1814TIP3    H1 5448   3.032   1.315   0.220  0.1757 -2.0625  0.0206
 1814TIP3    H2 5449   3.127   1.343   0.334  1.0349 -1.6742 -0.7736
 1815TIP3   OH2 5450   1.626   4.116   1.559  0.0306  0.0777 -0.8563
 1815TIP3    H1 5451   1.657   4.029   1.532 -2.0023 -0.7217 -0.8505
 1815TIP3    H2 5452   1.576   4.100   1.639  1.0807  1.5583  0.1444
 1816TIP3   OH2 5453   3.903   0.335   2.947  1.0916 -0.2733 -0.3724
 1816TIP3    H1 5454   3.961   0.409   2.929  1.3486 -0.7037 -1.3999
 1816TIP3    H2 5455   3.836   0.371   3.005  1.2118  0.7798 -0.8533
 1817TIP3   OH2 5456   1.529   5.967   0.425 -0.0115  0.2587  0.4417
 1817TIP3    H1 5457   1.531   5.903   0.353 -3.0572 -0.9982  1.2992
 1817TIP3    H2 5458   1.536   6.052   0.382 -2.2735 -0.4237 -1.5008
 1818TIP3   OH2 5459   5.672   0.848   1.415 -0.5636  0.4632  0.3353
 1818TIP3    H1 5460   5.644   0.938   1.432  0.2526  0.9123 -0.5861
 1818TIP3    H2 5461   5.750   0.837   1.469  0.7201  1.1372 -1.2971
 1819TIP3   OH2 5462   1.762   1.218   3.958  0.9880  0.4278  0.3956
 1819TIP3    H1 5463   1.771   1.300   3.908  0.2355  1.0469  1.2423
 1819TIP3    H2 5464   1.669   1.199   3.954  1.0750 -0.0568  0.7363
 1820TIP3   OH2 5465   0.442   4.161   1.147  0.9261  0.2401 -0.1145
 1820TIP3    H1 5466   0.459   4.097   1.216 -0.4023  0.7861  0.7477
 1820TIP3    H2 5467   0.529   4.195   1.124  1.8046 -2.5510 -1.3383
 1821TIP3   OH2 5468   3.770   2.425   3.008 -0.0716  0.1170 -0.1674
 1821TIP3    H1 5469   3.780   2.518   2.990 -0.8716  0.1834 -0.3376
 1821TIP3    H2 5470   3.684   2.402   2.971 -0.7515 -0.2446  1.5036
 1822TIP3   OH2 5471   0.949   4.581   2.639  0.1951 -0.4228 -0.2700
 1822TIP3    H1 5472   1.030   4.541   2.606 -0.7871 -0.6772 -2.6278
 1822TIP3    H2 5473   0.910   4.623   2.562 -2.1591 -0.7460  0.6516
 1823TIP3   OH2 5474   1.532   4.708   4.531 -0.4837  0.2495 -0.2796
 1823TIP3    H1 5475   1.494   4.626   4.563 -0.2607  0.0708 -0.4650
 1823TIP3    H2 5476   1.457   4.765   4.516 -0.7496 -0.3360 -1.3106
 1824TIP3   OH2 5477   0.960   1.621   1.300 -0.0329 -0.1822 -0.1175
 1824TIP3    H1 5478   0.875   1.625   1.256  0.1344  0.1448 -0.4167
 1824TIP3    H2 5479   1.006   1.550   1.256 -0.2304 -0.5019  0.1896
 1825TIP3   OH2 5480   1.519   1.084   1.756 -0.4566  0.2714 -0.5062
 1825TIP3    H1 5481   1.533   1.099   1.849 -0.5143  1.3801 -0.6583
 1825TIP3    H2 5482   1.513   0.989   1.747 -0.7311  0.1680  0.6573
 1826TIP3   OH2 5483   1.067   2.485   2.416 -0.2262  1.0585  0.1855
 1826TIP3    H1 5484   1.094   2.563   2.366  1.4348  1.4166  1.5337
 1826TIP3    H2 5485   1.050   2.518   2.504  0.1921 -0.0493  0.6980
 1827TIP3   OH2 5486   0.824   1.154   3.808  0.4464  1.0058 -0.3499
 1827TIP3    H1 5487   0.816   1.121   3.897  0.3733  1.3985 -0.2116
 1827TIP3    H2 5488   0.837   1.075   3.755 -0.4852  0.6709 -0.1146
 1828TIP3   OH2 5489   5.727   2.048   1.632 -0.4494  0.1060 -0.1735
 1828TIP3    H1 5490   5.757   2.130   1.592  0.0083 -0.3629 -0.8203
 1828TIP3    H2 5491   5.684   2.001   1.560 -1.5432  0.1687  0.4132
 1829TIP3   OH2 5492   1.355   2.217   0.967  0.1226 -0.3014 -0.0815
 1829TIP3    H1 5493   1.378   2.284   1.031  0.3174 -0.6903  0.2582
 1829TIP3    H2 5494   1.353   2.263   0.883 -0.6197  0.3084  0.2693
 1830TIP3   OH2 5495   1.637   1.495   0.008 -0.6641 -0.0601 -0.0163
 1830TIP3    H1 5496   1.612   1.540   0.089 -2.3755 -1.7287  0.4479
 1830TIP3    H2 5497   1.659   1.566  -0.052  0.6246  1.2438  1.8472
 1831TIP3   OH2 5498   4.219   3.503   0.691  0.2372  0.0658  0.4557
 1831TIP3    H1 5499   4.272   3.581   0.675  0.9823 -0.1476  1.7493
 1831TIP3    H2 5500   4.274   3.447   0.746 -0.0316 -1.6643 -0.9281
 1832TIP3   OH2 5501   3.419   4.757   1.404  0.3895 -0.3199  0.8054
 1832TIP3    H1 5502   3.500   4.711   1.427  1.0974  1.4399  2.1081
 1832TIP3    H2 5503   3.366   4.754   1.484 -0.2471 -0.2772  0.3950
 1833TIP3   OH2 5504   4.356   4.105   0.312  0.2270  0.5920 -0.2278
 1833TIP3    H1 5505   4.433   4.135   0.264 -0.7207  2.1724 -0.8204
 1833TIP3    H2 5506   4.285   4.109   0.248 -0.1705 -2.0497 -0.0705
 1834TIP3   OH2 5507   2.845   5.424   1.391 -0.3262  0.4728  0.4797
 1834TIP3    H1 5508   2.929   5.412   1.434 -0.4240  0.5483  0.6896
 1834TIP3    H2 5509   2.805   5.337   1.393 -0.5710  0.6016  1.0373
 1835TIP3   OH2 5510   5.275   2.974   3.411 -0.1433 -0.1150 -0.3438
 1835TIP3    H1 5511   5.303   3.063   3.432 -0.4642 -0.1488  0.2678
 1835TIP3    H2 5512   5.297   2.963   3.319  0.5820  0.3364 -0.2396
 1836TIP3   OH2 5513   3.913   2.761   2.668  0.3060 -0.0755 -0.2419
 1836TIP3    H1 5514   3.990   2.739   2.615  0.8148  0.8707  0.0939
 1836TIP3    H2 5515   3.935   2.844   2.710 -1.1601  0.5376 -0.6402
 1837TIP3   OH2 5516   0.744   0.646   0.964 -0.2852  0.1137 -0.2915
 1837TIP3    H1 5517   0.797   0.698   1.025  0.7343 -1.5145  0.2487
 1837TIP3    H2 5518   0.656   0.648   1.003 -0.1761  1.0481 -0.0520
 1838TIP3   OH2 5519   3.404   4.857   2.791 -0.4868  0.5960  0.6664
 1838TIP3    H1 5520   3.474   4.921   2.808  1.2828 -0.5373 -1.7739
 1838TIP3    H2 5521   3.403   4.847   2.696 -0.2688 -3.3275  0.8879
 1839TIP3   OH2 5522   0.535   2.620   1.250 -0.2059  0.4840  0.7764
 1839TIP3    H1 5523   0.596   2.654   1.317  0.7229  1.1779 -0.3810
 1839TIP3    H2 5524   0.580   2.636   1.167 -0.8089 -1.4620  0.0337
 1840TIP3   OH2 5525   3.096   5.636   4.804  0.1198 -0.2549  0.0690
 1840TIP3    H1 5526   3.181   5.625   4.762 -0.4669  1.6484 -1.8075
 1840TIP3    H2 5527   3.032   5.611   4.738 -0.8104  0.0830  0.8049
 1841TIP3   OH2 5528   3.530   0.666   3.294 -0.1807 -0.2565  0.3815
 1841TIP3    H1 5529   3.437   0.677   3.311 -0.2751  0.7544 -0.6633
 1841TIP3    H2 5530   3.535   0.646   3.201  0.7139  1.0954  0.1081
 1842TIP3   OH2 5531   2.227   3.219   3.481  0.3648 -0.1289 -0.4589
 1842TIP3    H1 5532   2.257   3.192   3.393  2.3455 -0.2189  0.1845
 1842TIP3    H2 5533   2.245   3.313   3.484  2.7554 -0.5306  0.6604
 1843TIP3   OH2 5534   0.771   5.521   3.183 -0.2639  0.2827 -0.0382
 1843TIP3    H1 5535   0.777   5.607   3.142 -0.0580  0.3133  0.0542
 1843TIP3    H2 5536   0.832   5.526   3.257  0.5376 -0.2784 -0.6345
 1844TIP3   OH2 5537   1.233   3.817   4.657 -0.3014 -0.7039 -0.3940
 1844TIP3    H1 5538   1.165   3.798   4.593 -0.8075  0.2632 -0.1574
 1844TIP3    H2 5539   1.204   3.774   4.738 -1.8357  1.5913  0.3619
 1845TIP3   OH2 5540   4.677   5.449   2.817  0.4204 -0.0216 -0.5360
 1845TIP3    H1 5541   4.632   5.529   2.846 -0.0337 -0.5040  0.1233
 1845TIP3    H2 5542   4.766   5.458   2.851  0.1998 -0.0751  0.0563
 1846TIP3   OH2 5543   5.427   2.823   1.334  0.5949  0.1463  0.0084
 1846TIP3    H1 5544   5.442   2.916   1.345  1.5399  0.0549 -0.4551
 1846TIP3    H2 5545   5.400   2.792   1.421  3.4935  0.2595  1.0582
 1847TIP3   OH2 5546   3.581   0.480   1.897  0.4888 -0.4155  0.5793
 1847TIP3    H1 5547   3.541   0.538   1.961  2.1918  0.9519  0.4905
 1847TIP3    H2 5548   3.532   0.497   1.816 -1.0587 -1.4659  1.2498
 1848TIP3   OH2 5549   3.577   0.727   4.232  0.4701  0.3932 -0.3724
 1848TIP3    H1 5550   3.497   0.713   4.182  1.1088 -1.7404 -0.9022
 1848TIP3    H2 5551   3.565   0.813   4.273 -0.2789  2.0787 -3.7674
 1849TIP3   OH2 5552   0.469   2.260   3.376 -0.7759  0.3980  0.9989
 1849TIP3    H1 5553   0.482   2.229   3.466  0.1484  0.4217  0.8805
 1849TIP3    H2 5554   0.398   2.205   3.342  0.2321 -1.0073  1.0882
 1850TIP3   OH2 5555   1.096   0.953   4.098  0.0188  0.1269  0.0714
 1850TIP3    H1 5556   1.179   0.914   4.125 -0.1745  0.6447  1.5122
 1850TIP3    H2 5557   1.114   0.991   4.012  0.7659 -1.2855 -0.4372
 1851TIP3   OH2 5558   1.990   4.248   2.341  0.0792  0.0070 -0.1250
 1851TIP3    H1 5559   2.066   4.306   2.330  1.1277 -0.8268  2.0881
 1851TIP3    H2 5560   2.011   4.172   2.287 -0.0382  0.5160 -0.9072
 1852TIP3   OH2 5561   4.235   4.247   4.391 -0.4508 -0.2810 -0.1004
 1852TIP3    H1 5562   4.208   4.177   4.332  0.7808 -1.0212  0.1716
 1852TIP3    H2 5563   4.159   4.305   4.395 -1.6482 -1.7623 -0.0711
 1853TIP3   OH2 5564   3.069   3.497   4.086  0.2573  0.3196  0.2617
 1853TIP3    H1 5565   3.032   3.543   4.011 -0.4319 -0.0943  0.3353
 1853TIP3    H2 5566   3.030   3.539   4.162  0.7662  0.5780  0.3817
 1854TIP3   OH2 5567   6.245   4.334   2.358 -0.0433  0.7827  0.6400
 1854TIP3    H1 5568   6.178   4.311   2.294  1.0326 -1.4654  0.1945
 1854TIP3    H2 5569   6.320   4.361   2.305 -0.1390  1.9739  1.0875
 1855TIP3   OH2 5570   0.125   0.024   1.414  0.0342  0.2369 -0.3046
 1855TIP3    H1 5571   0.140   0.075   1.334 -0.2218 -0.2887 -0.6961
 1855TIP3    H2 5572   0.158  -0.064   1.392 -1.8942 -0.4651 -0.5487
 1856TIP3   OH2 5573   2.459   5.505   4.841  0.2024 -0.2233  0.1675
 1856TIP3    H1 5574   2.491   5.515   4.931  0.8226  2.0935 -0.2562
 1856TIP3    H2 5575   2.375   5.552   4.841  0.1142 -0.3799 -0.4278
 1857TIP3   OH2 5576   4.147   1.170   3.869 -0.1705  0.0467  0.4813
 1857TIP3    H1 5577   4.201   1.219   3.807 -1.7721  0.6878 -0.4681
 1857TIP3    H2 5578   4.121   1.234   3.935 -2.3000  0.5728 -0.7830
 1858TIP3   OH2 5579   0.497   1.011   4.217  0.2075  0.4968  0.1157
 1858TIP3    H1 5580   0.447   1.082   4.258  0.1995  1.5274 -1.5855
 1858TIP3    H2 5581   0.560   0.985   4.284  0.9917  2.9224  0.4034
 1859TIP3   OH2 5582   0.704   1.966   4.067  0.3272  0.4894 -0.5139
 1859TIP3    H1 5583   0.636   1.922   4.116  0.4180  0.2455 -0.6044
 1859TIP3    H2 5584   0.784   1.917   4.088  0.4214  0.5883 -0.6421
 1860TIP3   OH2 5585   1.842   5.635   1.590  0.0220  0.3275  0.2731
 1860TIP3    H1 5586   1.761   5.611   1.636 -0.3460  0.6370 -0.1968
 1860TIP3    H2 5587   1.912   5.609   1.649 -0.3422 -1.8675 -0.1959
 1861TIP3   OH2 5588   0.949   2.309   2.225 -0.3877 -0.6622  0.1142
 1861TIP3    H1 5589   1.018   2.295   2.160  0.7202 -0.0081  1.1047
 1861TIP3    H2 5590   0.991   2.363   2.293 -2.1353  0.5270  0.3056
 1862TIP3   OH2 5591   5.733   2.810   3.581 -0.0962 -0.4216 -0.1824
 1862TIP3    H1 5592   5.639   2.830   3.574 -0.2641 -0.5696  1.3134
 1862TIP3    H2 5593   5.758   2.785   3.493 -1.7178 -1.4231 -0.4022
 1863TIP3   OH2 5594   0.296   2.468   1.298  0.0533  0.1129  0.5613
 1863TIP3    H1 5595   0.381   2.509   1.280 -0.5867  1.1376 -0.2040
 1863TIP3    H2 5596   0.257   2.522   1.367 -1.4177  1.7793 -1.4450
 1864TIP3   OH2 5597   6.328   4.266   1.353 -0.1705 -0.0259 -0.2341
 1864TIP3    H1 5598   6.404   4.325   1.360  0.6030 -0.9912 -0.2420
 1864TIP3    H2 5599   6.275   4.288   1.430  0.2077  0.5320 -0.1186
 1865TIP3   OH2 5600   6.207   3.481   0.757 -0.8327 -0.3444 -0.0666
 1865TIP3    H1 5601   6.296   3.503   0.783 -1.5368  1.2326  1.1689
 1865TIP3    H2 5602   6.190   3.396   0.797 -0.3516 -0.0082  0.8618
 1866TIP3   OH2 5603   0.166   0.915   0.678  0.0944 -0.6738  0.2424
 1866TIP3    H1 5604   0.154   0.823   0.701  1.0779 -0.6095  1.0717
 1866TIP3    H2 5605   0.078   0.945   0.657 -0.8406 -0.9960  3.1459
 1867TIP3   OH2 5606   3.192   2.335   1.630 -0.3204 -0.4531 -0.4940
 1867TIP3    H1 5607   3.107   2.364   1.598  0.2461  1.1401 -0.6425
 1867TIP3    H2 5608   3.254   2.365   1.563  0.2440 -3.0839 -1.2803
 1868TIP3   OH2 5609   0.879   5.047   1.198  0.0643 -0.0434  0.1712
 1868TIP3    H1 5610   0.804   5.065   1.254  0.9406  0.8865  1.0849
 1868TIP3    H2 5611   0.864   5.101   1.120 -0.4169 -0.1816  0.1671
 1869TIP3   OH2 5612   2.058   3.653   2.638 -0.5898  0.1137  0.8460
 1869TIP3    H1 5613   2.043   3.713   2.711  0.4626  1.4267  0.0140
 1869TIP3    H2 5614   2.002   3.684   2.568  0.1043  0.2410  0.3445
 1870TIP3   OH2 5615   4.838   0.093   2.936 -0.0925  0.0009 -0.5202
 1870TIP3    H1 5616   4.911   0.088   2.997 -1.0483 -1.7823  0.5403
 1870TIP3    H2 5617   4.790   0.172   2.963  1.2980  1.1215 -1.1564
 1871TIP3   OH2 5618   2.085   0.472   2.288  0.1984 -0.1842 -0.4662
 1871TIP3    H1 5619   2.019   0.423   2.338  1.0040  1.2565  2.1903
 1871TIP3    H2 5620   2.063   0.564   2.303  2.2134  0.3151 -0.2890
 1872TIP3   OH2 5621   0.847   2.797   0.838  0.0019 -0.1690  0.3954
 1872TIP3    H1 5622   0.878   2.802   0.929  2.0559  0.4902 -0.2617
 1872TIP3    H2 5623   0.788   2.872   0.829  0.4313  0.2549  0.9759
 1873TIP3   OH2 5624   0.981   4.872   0.916 -0.3429 -0.1644  0.3805
 1873TIP3    H1 5625   0.896   4.915   0.908 -0.6027 -0.6976  0.2522
 1873TIP3    H2 5626   0.973   4.819   0.996 -0.5191 -1.0769 -0.2306
 1874TIP3   OH2 5627   1.645   3.327   3.507  0.0126  0.1163 -0.5181
 1874TIP3    H1 5628   1.611   3.270   3.577  0.0250  1.7926  0.9257
 1874TIP3    H2 5629   1.726   3.363   3.543 -1.3566  3.1508 -0.1789
 1875TIP3   OH2 5630   0.802   4.878   3.417 -0.0806  0.2709  0.3301
 1875TIP3    H1 5631   0.733   4.897   3.480  0.5206 -0.9318  1.3906
 1875TIP3    H2 5632   0.883   4.905   3.460  0.1327  2.1652 -1.1050
 1876TIP3   OH2 5633   0.758   4.278   2.198  0.5440  0.0858 -0.1186
 1876TIP3    H1 5634   0.748   4.196   2.149  1.0663  1.1885 -2.1824
 1876TIP3    H2 5635   0.678   4.327   2.180 -0.0272 -0.1774  1.5828
 1877TIP3   OH2 5636   5.962   4.587   0.057  0.0592  0.2699  0.1786
 1877TIP3    H1 5637   5.919   4.669   0.031 -0.7731 -0.5473 -1.1417
 1877TIP3    H2 5638   5.909   4.518   0.016  1.2544 -0.8879  0.5194
 1878TIP3   OH2 5639   3.806   4.652   1.131 -0.4292  0.6399  0.0697
 1878TIP3    H1 5640   3.839   4.650   1.221 -0.2622  0.6714  0.0087
 1878TIP3    H2 5641   3.711   4.638   1.140 -0.8808  3.3699  0.4963
 1879TIP3   OH2 5642   2.919   3.017   3.313  0.0467  0.0733 -0.2744
 1879TIP3    H1 5643   2.841   2.973   3.348  0.4109 -0.2200  0.1748
 1879TIP3    H2 5644   2.971   2.947   3.274  1.3410 -0.1748  1.7378
 1880TIP3   OH2 5645   0.040   3.349   2.157  0.4304 -0.1423  0.0350
 1880TIP3    H1 5646   0.096   3.360   2.081  1.3336  2.6597  0.9922
 1880TIP3    H2 5647  -0.005   3.433   2.167  0.5761 -0.2790  2.7405
 1881TIP3   OH2 5648   1.534   3.206   4.031 -0.1429  0.0047  0.1649
 1881TIP3    H1 5649   1.597   3.135   4.018  0.4068  0.2187  1.4927
 1881TIP3    H2 5650   1.526   3.247   3.945  2.3368  0.6005  0.1280
 1882TIP3   OH2 5651   3.313   2.618   3.343 -0.0505  0.2698  0.1006
 1882TIP3    H1 5652   3.227   2.596   3.377 -0.3402  0.1031 -0.7323
 1882TIP3    H2 5653   3.347   2.536   3.306 -0.1258  0.6427 -0.8277
 1883TIP3   OH2 5654   1.202   2.567   4.822  0.4222 -0.4118  0.1239
 1883TIP3    H1 5655   1.187   2.584   4.915 -0.1420 -1.5747  0.2642
 1883TIP3    H2 5656   1.140   2.496   4.801  0.2513  0.1259 -1.2353
 1884TIP3   OH2 5657   5.184   3.982   2.142  0.0893 -0.5145  0.2449
 1884TIP3    H1 5658   5.258   3.927   2.117 -0.8315 -2.3833  1.3947
 1884TIP3    H2 5659   5.158   4.027   2.062  2.2114 -0.0640 -0.2576
 1885TIP3   OH2 5660   1.487   5.756   4.310 -0.1639  0.4489 -0.6722
 1885TIP3    H1 5661   1.400   5.771   4.273  0.0104  0.1962 -1.1953
 1885TIP3    H2 5662   1.538   5.718   4.238  1.0757  2.7719 -1.1127
 1886TIP3   OH2 5663   2.022   1.063   0.157 -0.6506 -0.2410  0.0943
 1886TIP3    H1 5664   2.029   0.971   0.181 -2.6656 -1.2271 -2.5691
 1886TIP3    H2 5665   1.944   1.094   0.204 -0.0224  0.0943  0.9237
 1887TIP3   OH2 5666   0.280   3.863   0.044  0.1705  0.5003 -0.4453
 1887TIP3    H1 5667   0.335   3.788   0.068  1.2453  1.1743 -0.6952
 1887TIP3    H2 5668   0.227   3.880   0.122 -0.3898 -0.7646 -0.5339
 1888TIP3   OH2 5669   4.367   1.990   4.169 -0.5518 -0.2164  0.2343
 1888TIP3    H1 5670   4.285   1.942   4.160 -0.2421 -0.6363 -0.4701
 1888TIP3    H2 5671   4.383   2.028   4.083 -0.4192  0.5489  0.5900
 1889TIP3   OH2 5672   2.474   2.029   1.648 -0.0559 -0.0952 -0.0852
 1889TIP3    H1 5673   2.513   1.976   1.717  0.7965 -0.6026 -0.9201
 1889TIP3    H2 5674   2.483   1.975   1.569  0.3027  1.0484 -0.8475
 1890TIP3   OH2 5675   2.037   4.273   4.398  0.2832  0.4611  0.3379
 1890TIP3    H1 5676   1.951   4.254   4.433  0.5366 -1.8608 -0.1304
 1890TIP3    H2 5677   2.042   4.221   4.318  2.2595  0.1677  0.6007
 1891TIP3   OH2 5678   4.901   3.028   3.852  0.2751  0.4173  0.1802
 1891TIP3    H1 5679   4.962   3.096   3.880  0.9413  0.3076 -0.9047
 1891TIP3    H2 5680   4.940   2.947   3.884  1.6913  0.1637 -1.9679
 1892TIP3   OH2 5681   2.310   2.398   4.352 -0.2192  0.3464  0.0592
 1892TIP3    H1 5682   2.350   2.318   4.317  1.0219  0.5413  0.9797
 1892TIP3    H2 5683   2.329   2.396   4.446  0.4299  2.0557 -0.0054
 1893TIP3   OH2 5684   1.886   2.806   4.451 -0.1557 -0.3529  0.4505
 1893TIP3    H1 5685   1.851   2.737   4.395  0.3876  0.5171 -1.0477
 1893TIP3    H2 5686   1.817   2.874   4.450  0.6566  0.5140 -0.8761
 1894TIP3   OH2 5687   1.698   4.930   4.573 -0.2915 -0.0938  0.7733
 1894TIP3    H1 5688   1.662   4.850   4.536  0.7169  0.2925 -1.1922
 1894TIP3    H2 5689   1.665   4.932   4.662 -0.1887 -2.7957  0.9585
 1895TIP3   OH2 5690   3.929   3.775   1.399 -0.1916 -0.5173  0.4545
 1895TIP3    H1 5691   3.990   3.841   1.433 -0.4435 -0.3980  0.6812
 1895TIP3    H2 5692   3.948   3.771   1.305 -0.4031  0.1232  0.3778
 1896TIP3   OH2 5693   1.110   2.058   1.897 -0.2934  0.1853  0.0084
 1896TIP3    H1 5694   1.064   1.982   1.930  0.7440  0.1170  1.3872
 1896TIP3    H2 5695   1.153   2.096   1.974  0.7271  1.0838 -0.9576
 1897TIP3   OH2 5696   4.784   3.027   0.249 -0.0389  0.2995  0.1657
 1897TIP3    H1 5697   4.752   3.009   0.160  2.0148  1.6349 -0.9215
 1897TIP3    H2 5698   4.746   3.112   0.271 -1.1405 -0.3568  0.9278
 1898TIP3   OH2 5699   5.365   3.705   0.221  0.7260  0.2116 -0.0933
 1898TIP3    H1 5700   5.444   3.758   0.213  1.9395 -1.4836 -0.0322
 1898TIP3    H2 5701   5.339   3.713   0.312  0.7423  0.8904 -0.1453
 1899TIP3   OH2 5702   0.798   4.013   2.613 -0.4759  0.2206 -0.8156
 1899TIP3    H1 5703   0.730   4.076   2.590 -0.3059  0.1388 -1.5569
 1899TIP3    H2 5704   0.757   3.928   2.600  0.5477  0.0832 -3.9747
 1900TIP3   OH2 5705   3.504   3.262   1.760  0.0650  0.0424  0.2618
 1900TIP3    H1 5706   3.538   3.238   1.674 -0.1974 -1.0377  0.4451
 1900TIP3    H2 5707   3.495   3.179   1.807  1.3655  0.6861  1.7718
 1901TIP3   OH2 5708   3.948   2.056   5.132 -0.1618 -0.2539 -0.1743
 1901TIP3    H1 5709   4.020   2.103   5.174 -0.0046 -0.1922 -0.5070
 1901TIP3    H2 5710   3.951   2.085   5.040  0.0089 -0.9959 -0.4115
 1902TIP3   OH2 5711   4.259   2.382   3.105 -0.5130 -0.2883 -0.2660
 1902TIP3    H1 5712   4.328   2.355   3.045 -0.5062  0.4853 -0.6179
 1902TIP3    H2 5713   4.257   2.314   3.172 -0.6870 -1.2994 -1.2691
 1903TIP3   OH2 5714   2.547   3.316   2.002  0.3910  0.0201 -0.1548
 1903TIP3    H1 5715   2.602   3.291   2.076  0.0258 -2.2433 -0.5707
 1903TIP3    H2 5716   2.459   3.289   2.027  0.4639 -2.1544 -1.8905
 1904TIP3   OH2 5717   4.114   5.729   4.455 -0.2184  0.0968  0.2015
 1904TIP3    H1 5718   4.087   5.637   4.452  2.9489 -0.9382 -1.1183
 1904TIP3    H2 5719   4.122   5.749   4.548 -0.2488 -1.1802  0.4986
 1905TIP3   OH2 5720   0.489   3.590   4.352 -0.6149  0.1008 -0.2070
 1905TIP3    H1 5721   0.556   3.612   4.417 -0.8681  0.0998  0.0588
 1905TIP3    H2 5722   0.426   3.662   4.357 -1.2824 -0.5121  0.4376
 1906TIP3   OH2 5723   0.460   4.369   1.475 -0.4800  0.1354 -0.0823
 1906TIP3    H1 5724   0.398   4.433   1.508 -0.1354  1.0050 -1.0725
 1906TIP3    H2 5725   0.493   4.407   1.394  0.9523 -0.5588  0.1502
 1907TIP3   OH2 5726   0.621   5.461   4.660 -0.0212 -0.0973  0.0625
 1907TIP3    H1 5727   0.625   5.365   4.654 -0.0234 -0.0477 -1.0090
 1907TIP3    H2 5728   0.540   5.484   4.614  1.3180  0.5655 -2.1412
 1908TIP3   OH2 5729   5.912   3.827   4.912  0.4104  0.0364  0.0508
 1908TIP3    H1 5730   5.903   3.840   4.818 -0.7459 -3.4524 -0.4939
 1908TIP3    H2 5731   5.998   3.787   4.923  0.2254 -0.2828  0.3598
 1909TIP3   OH2 5732   0.978   5.784   3.952 -0.4116 -0.1929 -0.2259
 1909TIP3    H1 5733   0.975   5.764   3.859 -1.0582  1.3525 -0.5633
 1909TIP3    H2 5734   0.911   5.727   3.991 -0.8401 -0.1316 -0.8529
 1910TIP3   OH2 5735   5.708   1.158   0.683  0.3925 -0.0847 -0.1965
 1910TIP3    H1 5736   5.786   1.133   0.633  0.5012  0.2013 -0.1735
 1910TIP3    H2 5737   5.730   1.245   0.719 -0.0714  0.1567 -0.4887
 1911TIP3   OH2 5738   2.681   1.205   0.309  0.3473 -0.3892 -0.1780
 1911TIP3    H1 5739   2.643   1.286   0.274 -0.4964 -0.2176  1.0795
 1911TIP3    H2 5740   2.657   1.138   0.244 -1.1683 -0.0806  0.0189
 1912TIP3   OH2 5741   4.455   1.630   3.821 -0.1363  0.1768  0.0334
 1912TIP3    H1 5742   4.390   1.700   3.813 -2.3760 -1.9082 -1.5417
 1912TIP3    H2 5743   4.481   1.611   3.731 -0.0496 -1.3731  0.3470
 1913TIP3   OH2 5744   1.425   0.514   4.552 -0.5687  0.2725  0.4668
 1913TIP3    H1 5745   1.452   0.606   4.562  0.0520 -0.0365  1.9496
 1913TIP3    H2 5746   1.504   0.464   4.569 -1.0259 -0.5591  0.1995
 1914TIP3   OH2 5747   0.335   5.906   4.800 -0.1294 -0.0395  0.5591
 1914TIP3    H1 5748   0.313   5.937   4.888  0.7005  0.0693  0.7425
 1914TIP3    H2 5749   0.289   5.966   4.741  0.4404  0.7792  0.9195
 1915TIP3   OH2 5750   4.393   2.488   2.673 -0.4889 -0.1934 -0.0905
 1915TIP3    H1 5751   4.333   2.441   2.731 -0.3508  0.9818  1.0388
 1915TIP3    H2 5752   4.384   2.580   2.698 -0.1781  0.3100 -1.7256
 1916TIP3   OH2 5753   5.070   5.544   1.239 -0.1131 -0.1464  0.3964
 1916TIP3    H1 5754   5.030   5.545   1.326  1.1590  0.4284  0.9983
 1916TIP3    H2 5755   4.998   5.522   1.180 -1.0150 -0.4802  1.5793
 1917TIP3   OH2 5756   4.023   1.793   0.663  0.2017 -0.2339  0.1322
 1917TIP3    H1 5757   3.946   1.802   0.607 -0.4664 -1.3395  0.8502
 1917TIP3    H2 5758   4.037   1.699   0.673  1.9097 -0.0750 -0.3104
 1918TIP3   OH2 5759   5.879   5.423   0.888 -0.6727 -0.0917 -0.3457
 1918TIP3    H1 5760   5.827   5.501   0.906  0.3195  0.7947 -1.1444
 1918TIP3    H2 5761   5.966   5.444   0.923 -1.2327 -2.3433  2.8729
 1919TIP3   OH2 5762   4.042   2.018   2.837 -0.0032  0.2071  0.2901
 1919TIP3    H1 5763   4.020   1.947   2.897 -1.3244 -1.0011 -1.5313
 1919TIP3    H2 5764   4.008   2.096   2.879 -1.0082 -0.6156  1.0614
 1920TIP3   OH2 5765   0.545   2.352   5.152 -0.0636 -0.6121  0.5618
 1920TIP3    H1 5766   0.579   2.431   5.111 -2.3379 -0.7377 -1.8368
 1920TIP3    H2 5767   0.538   2.374   5.245  0.4405  1.5902  0.1259
 1921TIP3   OH2 5768   4.119   5.062   2.888  0.0795  0.6611 -0.2086
 1921TIP3    H1 5769   4.103   5.111   2.968 -0.3295  0.7410 -0.3379
 1921TIP3    H2 5770   4.105   5.125   2.818 -0.8260  0.2760 -0.3921
 1922TIP3   OH2 5771   2.068   2.089   0.697  0.0554  1.1167 -0.1255
 1922TIP3    H1 5772   2.120   2.134   0.764 -0.1915 -3.3795  3.6244
 1922TIP3    H2 5773   1.978   2.113   0.715  0.0318  0.2826  0.9595
 1923TIP3   OH2 5774   4.234   4.882   1.854 -0.1785 -0.1339 -0.0656
 1923TIP3    H1 5775   4.161   4.871   1.915  1.1738  0.3782  1.7409
 1923TIP3    H2 5776   4.299   4.932   1.904  0.2695  1.9993 -2.5703
 1924TIP3   OH2 5777   1.369   2.952   3.614 -0.2900 -0.1532 -0.0198
 1924TIP3    H1 5778   1.284   2.950   3.571 -1.1923  0.2921  1.6729
 1924TIP3    H2 5779   1.352   2.921   3.703  1.0447  1.3115  0.7959
 1925TIP3   OH2 5780   4.640   4.502   0.970 -0.3581 -0.2530  0.1960
 1925TIP3    H1 5781   4.655   4.461   0.885 -0.3447  1.4012 -0.6454
 1925TIP3    H2 5782   4.707   4.466   1.027  0.4131 -0.4709 -0.8261
 1926TIP3   OH2 5783   4.888   3.473   5.002 -0.3309  0.0657  0.4892
 1926TIP3    H1 5784   4.874   3.437   5.090  2.0470  0.9727  1.3339
 1926TIP3    H2 5785   4.849   3.560   5.005  2.1707  1.2609  1.7132
 1927TIP3   OH2 5786   0.359   0.579   0.184  0.0016  0.1381 -0.0707
 1927TIP3    H1 5787   0.330   0.609   0.270 -0.2572  0.0567 -0.1267
 1927TIP3    H2 5788   0.454   0.587   0.187 -0.0140  0.2738  0.1709
 1928TIP3   OH2 5789   2.521   5.876   2.139  0.4656  0.5809 -0.7476
 1928TIP3    H1 5790   2.567   5.869   2.222 -0.7714 -1.2400 -0.1509
 1928TIP3    H2 5791   2.432   5.902   2.163  0.6194  2.1680 -1.7205
 1929TIP3   OH2 5792   4.527   5.725   1.305 -0.4585  0.2891  0.1274
 1929TIP3    H1 5793   4.436   5.700   1.294  0.4337 -2.4636 -2.5385
 1929TIP3    H2 5794   4.550   5.771   1.224  0.6888  0.3158  0.4442
 1930TIP3   OH2 5795   5.489   1.129   3.960  0.3879 -0.4953  1.2179
 1930TIP3    H1 5796   5.497   1.167   3.873  2.1160 -3.8285 -0.3081
 1930TIP3    H2 5797   5.427   1.185   4.006  0.2857  2.0828 -1.7286
 1931TIP3   OH2 5798   2.324   4.112   1.198  0.2301  0.0157  0.0833
 1931TIP3    H1 5799   2.370   4.046   1.147 -3.2187 -1.0699 -1.9421
 1931TIP3    H2 5800   2.332   4.083   1.288  0.0906 -2.3812 -0.6179
 1932TIP3   OH2 5801   3.849   3.517   1.484  0.7316  0.4944  0.1755
 1932TIP3    H1 5802   3.867   3.608   1.463  0.2394  0.8876  1.4164
 1932TIP3    H2 5803   3.759   3.517   1.515 -0.0901 -0.7847 -1.9553
 1933TIP3   OH2 5804   4.942   3.744   1.369 -0.1192 -0.2321 -0.0849
 1933TIP3    H1 5805   4.947   3.839   1.380 -1.4438 -0.1761  0.3081
 1933TIP3    H2 5806   4.958   3.709   1.457  0.2546 -0.3655 -0.2065
 1934TIP3   OH2 5807   0.396   2.752   2.003 -0.4465  0.2014 -0.0431
 1934TIP3    H1 5808   0.354   2.669   1.978  0.6940 -0.2578 -0.5128
 1934TIP3    H2 5809   0.326   2.803   2.042 -1.9095  0.1721 -2.3973
 1935TIP3   OH2 5810   4.347   4.614   3.333 -0.4234  0.3510  0.2388
 1935TIP3    H1 5811   4.398   4.552   3.282 -0.8725 -1.1841  1.5933
 1935TIP3    H2 5812   4.268   4.629   3.280 -1.9540 -2.9524  1.3386
 1936TIP3   OH2 5813   1.271   4.511   4.924  0.9285  0.6056  0.1652
 1936TIP3    H1 5814   1.224   4.450   4.981 -0.5423  0.1581 -1.4436
 1936TIP3    H2 5815   1.360   4.512   4.959  0.5491 -1.0885  1.3121
 1937TIP3   OH2 5816   5.218   0.213   0.279 -0.1018  0.2717  0.0118
 1937TIP3    H1 5817   5.139   0.235   0.328  0.1087 -2.8542  2.0660
 1937TIP3    H2 5818   5.289   0.229   0.341  0.9968  2.8982 -1.7522
 1938TIP3   OH2 5819   6.186   0.835   2.762 -0.1850  0.4646 -0.2694
 1938TIP3    H1 5820   6.193   0.807   2.853  0.8020  0.3838 -0.3659
 1938TIP3    H2 5821   6.272   0.871   2.741 -0.7097  1.3947 -0.8747
 1939TIP3   OH2 5822   0.238   4.689   4.562 -0.1274 -0.0392 -0.0365
 1939TIP3    H1 5823   0.326   4.720   4.540  0.5708 -2.4998 -1.0648
 1939TIP3    H2 5824   0.245   4.593   4.561 -2.5186 -0.3157  1.1935
 1940TIP3   OH2 5825   4.993   4.680   2.864 -0.3992  0.3795  0.3643
 1940TIP3    H1 5826   4.957   4.768   2.870 -0.4074  0.3697  0.4844
 1940TIP3    H2 5827   4.925   4.624   2.903 -0.7087  0.2332 -0.3808
 1941TIP3   OH2 5828   4.210   5.687   1.716 -0.0480  0.2704  0.2471
 1941TIP3    H1 5829   4.167   5.770   1.692 -0.3786 -0.0839 -0.4079
 1941TIP3    H2 5830   4.273   5.672   1.646 -1.1934 -0.9021 -0.5768
 1942TIP3   OH2 5831   0.413   1.469   3.608  0.0691  0.0251  0.1286
 1942TIP3    H1 5832   0.396   1.416   3.530 -0.7013  0.9431 -0.3488
 1942TIP3    H2 5833   0.507   1.482   3.608  0.2247 -1.0038  0.0414
 1943TIP3   OH2 5834   5.652   0.422   1.101 -0.3231  0.1548  0.1059
 1943TIP3    H1 5835   5.746   0.438   1.097 -0.3776  0.4037 -0.2609
 1943TIP3    H2 5836   5.619   0.481   1.169 -0.0978 -0.5429  0.8437
 1944TIP3   OH2 5837   3.530   1.792   1.263 -0.2086 -0.4514  0.4085
 1944TIP3    H1 5838   3.520   1.707   1.221 -1.4611 -0.2978  0.3677
 1944TIP3    H2 5839   3.611   1.785   1.313  2.1905 -0.1715 -3.0985
 1945TIP3   OH2 5840   6.161   3.034   2.728 -0.0885  0.9036  0.4617
 1945TIP3    H1 5841   6.211   2.974   2.673  0.5262  2.5545 -0.8903
 1945TIP3    H2 5842   6.072   3.000   2.727  0.5066 -0.7635  0.9448
 1946TIP3   OH2 5843   3.804   4.994   2.998 -0.0021 -0.0795 -0.1312
 1946TIP3    H1 5844   3.804   5.056   2.925 -0.2671 -0.7843 -0.7492
 1946TIP3    H2 5845   3.835   5.045   3.073  0.2685  0.6615 -0.7304
 1947TIP3   OH2 5846   4.059   5.818   3.011  0.2013 -0.1744 -0.5382
 1947TIP3    H1 5847   4.115   5.858   3.077 -0.1257  0.7347 -0.8027
 1947TIP3    H2 5848   4.074   5.869   2.932 -1.3512  0.3972 -0.4956
 1948TIP3   OH2 5849   0.104   4.717   2.351  0.5481  0.5712 -0.0889
 1948TIP3    H1 5850   0.092   4.628   2.318  1.8576 -0.7306  2.6208
 1948TIP3    H2 5851   0.155   4.761   2.283 -0.6843 -0.4771 -1.7844
 1949TIP3   OH2 5852   0.776   4.066   4.657 -0.0770  0.5237  0.1563
 1949TIP3    H1 5853   0.748   4.007   4.587  0.2053  0.3675  0.1738
 1949TIP3    H2 5854   0.870   4.076   4.644  0.1166 -0.1158  0.9747
 1950TIP3   OH2 5855   0.166   1.818   0.881  0.1133  0.2966  0.2711
 1950TIP3    H1 5856   0.109   1.851   0.811 -0.7371  0.3553  0.9861
 1950TIP3    H2 5857   0.172   1.891   0.943 -0.0887 -0.1581  0.8306
 1951TIP3   OH2 5858   2.174   4.651   3.997  0.1950 -0.3434  0.4448
 1951TIP3    H1 5859   2.244   4.628   4.058  2.0208  1.1755 -0.9577
 1951TIP3    H2 5860   2.095   4.653   4.051  1.4904 -0.4373  2.4489
 1952TIP3   OH2 5861   5.762   2.616   3.796 -0.2167 -0.0290  0.2108
 1952TIP3    H1 5862   5.757   2.700   3.749  2.5647 -1.1535 -2.4882
 1952TIP3    H2 5863   5.671   2.595   3.817 -1.0741  3.3630  0.5675
 1953TIP3   OH2 5864   2.132   1.966   0.148  0.0858  0.0138  0.4536
 1953TIP3    H1 5865   2.193   2.028   0.109 -0.6847  0.1848 -0.5114
 1953TIP3    H2 5866   2.178   1.934   0.226  0.6181  1.5448  0.8085
 1954TIP3   OH2 5867   0.700   4.365   4.641  0.3536  0.0311  0.1386
 1954TIP3    H1 5868   0.680   4.271   4.641  1.1685 -0.1756 -1.3051
 1954TIP3    H2 5869   0.711   4.387   4.734 -0.3476 -1.1752  0.5409
 1955TIP3   OH2 5870   5.309   0.329   2.190 -0.0954  0.2905  0.0123
 1955TIP3    H1 5871   5.263   0.250   2.162 -0.2731  0.5361 -0.4010
 1955TIP3    H2 5872   5.309   0.325   2.286 -0.0205 -0.2542 -0.0122
 1956TIP3   OH2 5873   0.305   2.019   1.309  0.1537 -0.1116  0.1959
 1956TIP3    H1 5874   0.252   2.092   1.340  0.4653  0.8666 -1.4980
 1956TIP3    H2 5875   0.392   2.034   1.347  1.1174  2.2266 -2.5640
 1957TIP3   OH2 5876   1.908   1.370   0.965 -0.3738  0.4174 -0.5393
 1957TIP3    H1 5877   1.828   1.402   1.007 -1.5122 -0.5083 -1.8983
 1957TIP3    H2 5878   1.896   1.390   0.872 -0.3361 -2.1819 -1.1895
 1958TIP3   OH2 5879   0.628   0.847   4.047 -0.4578  0.4341  0.3787
 1958TIP3    H1 5880   0.601   0.756   4.053 -1.0514  0.5802 -0.0706
 1958TIP3    H2 5881   0.569   0.894   4.106 -2.1443  0.9478 -1.5889
 1959TIP3   OH2 5882   5.121   4.040   0.275  0.1284 -0.1029  0.1283
 1959TIP3    H1 5883   5.166   4.085   0.346  1.6309 -2.0288  0.4825
 1959TIP3    H2 5884   5.074   3.969   0.318 -0.6077 -0.0879 -0.6207
 1960TIP3   OH2 5885   3.813   5.096   2.728  0.0675 -0.8526 -0.4266
 1960TIP3    H1 5886   3.724   5.099   2.692 -0.0690  0.7566 -0.0078
 1960TIP3    H2 5887   3.869   5.114   2.652 -0.1254  0.7254 -0.2242
 1961TIP3   OH2 5888   1.951   3.036   0.022  0.7162 -0.1276 -0.3364
 1961TIP3    H1 5889   2.045   3.022   0.008  1.4107  1.3831  2.1659
 1961TIP3    H2 5890   1.947   3.116   0.074 -2.1515  1.2041 -2.3623
 1962TIP3   OH2 5891   2.876   0.720   1.444  0.0494 -0.2602  0.3628
 1962TIP3    H1 5892   2.901   0.643   1.493  0.0217  0.2024  1.1165
 1962TIP3    H2 5893   2.841   0.686   1.361  0.9427 -1.0041  0.2804
 1963TIP3   OH2 5894   3.368   3.435   0.619  1.6781  0.0182  0.3901
 1963TIP3    H1 5895   3.390   3.513   0.567 -0.3873  0.0315 -0.5672
 1963TIP3    H2 5896   3.428   3.438   0.693  1.5760  2.6431  0.4732
 1964TIP3   OH2 5897   5.912   5.249   4.326  0.0263  0.2036  0.6851
 1964TIP3    H1 5898   5.826   5.241   4.284  0.4570  2.0361 -0.6644
 1964TIP3    H2 5899   5.902   5.322   4.387  0.0749 -0.9477  2.1374
 1965TIP3   OH2 5900   1.550   3.393   3.039  0.1383  0.0291 -0.6025
 1965TIP3    H1 5901   1.580   3.415   3.127  0.6857 -2.0282 -0.2126
 1965TIP3    H2 5902   1.508   3.472   3.007  1.4430  1.3786  0.8480
 1966TIP3   OH2 5903   0.716   5.191   2.810 -0.2152  0.3586  0.6931
 1966TIP3    H1 5904   0.771   5.178   2.732  0.1342 -0.4366  1.0664
 1966TIP3    H2 5905   0.718   5.285   2.825 -1.9001  0.8402 -1.4306
 1967TIP3   OH2 5906   3.296   5.237   4.381  0.0682  0.8611  0.7348
 1967TIP3    H1 5907   3.296   5.209   4.290 -1.0599  2.0013  0.3546
 1967TIP3    H2 5908   3.377   5.288   4.390  0.6502 -0.0402  0.6362
 1968TIP3   OH2 5909   4.997   1.851   0.920  0.0712 -0.4821  0.5076
 1968TIP3    H1 5910   4.961   1.766   0.945 -1.2022  0.0076  0.3939
 1968TIP3    H2 5911   4.966   1.865   0.831  0.9483 -0.2528  0.2304
 1969TIP3   OH2 5912   0.528   2.439   3.942 -0.2541  0.3070  0.4370
 1969TIP3    H1 5913   0.497   2.360   3.899 -1.5076  0.1144  1.6287
 1969TIP3    H2 5914   0.587   2.407   4.010  0.4184  0.5116 -0.0356
 1970TIP3   OH2 5915   3.465   4.817   0.569 -0.2708  0.3274 -0.1953
 1970TIP3    H1 5916   3.477   4.794   0.477  1.8137  1.1634 -0.1953
 1970TIP3    H2 5917   3.537   4.774   0.614  0.1970  1.9294  0.6518
 1971TIP3   OH2 5918   4.987   1.521   3.995 -0.2808  0.2810 -0.4980
 1971TIP3    H1 5919   5.065   1.539   3.943 -1.0453 -0.9663 -2.1947
 1971TIP3    H2 5920   4.914   1.550   3.940 -1.0781  0.0372  0.3994
 1972TIP3   OH2 5921   0.202   4.250   1.067  0.1728  0.2206  0.0758
 1972TIP3    H1 5922   0.188   4.341   1.094 -0.2341 -0.3382  1.9432
 1972TIP3    H2 5923   0.288   4.228   1.103  0.6472  0.1024 -1.1009
 1973TIP3   OH2 5924   3.437   5.883   0.560  0.5820  0.0483  0.0389
 1973TIP3    H1 5925   3.343   5.872   0.546  0.2786  1.0811  1.0634
 1973TIP3    H2 5926   3.466   5.798   0.593  0.1116 -0.4282 -0.7381
 1974TIP3   OH2 5927   0.846   4.394   1.692 -0.0030 -0.2542  0.2668
 1974TIP3    H1 5928   0.885   4.315   1.655 -0.0491 -0.8512  1.4607
 1974TIP3    H2 5929   0.904   4.418   1.764 -1.5576 -0.9054  1.8031
 1975TIP3   OH2 5930   2.956   4.181   4.032  0.1014  0.1475  0.5535
 1975TIP3    H1 5931   2.990   4.092   4.037 -0.9073 -0.3837 -1.1549
 1975TIP3    H2 5932   3.031   4.235   4.010  0.5702 -0.3960  0.7925
 1976TIP3   OH2 5933   3.070   1.575   3.679  0.1426 -0.3044 -0.5506
 1976TIP3    H1 5934   2.982   1.590   3.645  0.3864 -0.4159 -1.2512
 1976TIP3    H2 5935   3.116   1.657   3.664  0.1720 -0.2618 -0.2294
 1977TIP3   OH2 5936   1.393   5.258   4.790 -0.0259  0.4842 -0.5601
 1977TIP3    H1 5937   1.393   5.283   4.697 -2.0419 -1.7417 -1.2896
 1977TIP3    H2 5938   1.319   5.306   4.827  0.5721  1.1097 -0.1544
 1978TIP3   OH2 5939   4.207   2.018   2.277  0.3924 -0.3331  0.2702
 1978TIP3    H1 5940   4.200   2.081   2.205 -1.3064 -0.8858 -0.0857
 1978TIP3    H2 5941   4.174   1.936   2.241 -0.2961 -0.6755  1.6169
 1979TIP3   OH2 5942   4.473   1.652   0.798  0.2823 -0.3028 -0.1594
 1979TIP3    H1 5943   4.555   1.664   0.845  1.3057 -1.4012 -1.5729
 1979TIP3    H2 5944   4.425   1.587   0.849 -0.1970  1.0979  1.2330
 1980TIP3   OH2 5945   4.516   0.360   2.707 -0.1459 -0.1446  0.1957
 1980TIP3    H1 5946   4.596   0.412   2.718 -0.1762 -0.0937  0.1743
 1980TIP3    H2 5947   4.494   0.369   2.614  0.8925 -1.7010 -0.2380
 1981TIP3   OH2 5948   1.569   3.362   0.318 -0.0890  0.1723  0.4184
 1981TIP3    H1 5949   1.561   3.431   0.252  0.5312 -0.1903 -0.0486
 1981TIP3    H2 5950   1.530   3.285   0.276 -0.2834  0.0985  0.7303
 1982TIP3   OH2 5951   2.426   5.904   1.644  0.1983  0.2284  0.0839
 1982TIP3    H1 5952   2.337   5.880   1.668  0.5234  0.5280  1.6847
 1982TIP3    H2 5953   2.416   5.975   1.580 -0.7154 -1.9802 -2.4110
 1983TIP3   OH2 5954   3.005   2.727   5.187 -0.5420  0.1133 -0.4771
 1983TIP3    H1 5955   3.080   2.674   5.160 -0.1363  1.1284 -1.4578
 1983TIP3    H2 5956   2.953   2.737   5.107 -1.1954  0.2619 -0.0434
 1984TIP3   OH2 5957   2.279   3.126   2.690 -0.2748 -0.0013 -0.2337
 1984TIP3    H1 5958   2.212   3.064   2.719  1.0579 -1.5268 -0.3073
 1984TIP3    H2 5959   2.259   3.141   2.597 -1.7975  1.3164  0.2481
 1985TIP3   OH2 5960   4.176   3.509   1.958  0.5972 -0.1462  0.0926
 1985TIP3    H1 5961   4.174   3.452   2.035  2.4241 -0.4650 -0.0501
 1985TIP3    H2 5962   4.182   3.597   1.993 -3.4588  0.2361  0.3511
 1986TIP3   OH2 5963   3.241   2.384   3.486 -0.1582  0.7407 -0.2011
 1986TIP3    H1 5964   3.335   2.386   3.505 -0.1731 -1.1100  0.2607
 1986TIP3    H2 5965   3.206   2.463   3.527  1.1837  1.4222 -0.3265
 1987TIP3   OH2 5966   3.588   0.903   3.024 -0.2379  0.5621 -0.5408
 1987TIP3    H1 5967   3.527   0.971   3.054 -0.3889  0.3135 -0.2802
 1987TIP3    H2 5968   3.536   0.823   3.023 -0.3479  0.6242 -1.8378
 1988TIP3   OH2 5969   4.740   2.288   2.598  0.2817 -0.3794 -1.1618
 1988TIP3    H1 5970   4.831   2.262   2.583  1.1860  2.7212 -1.7564
 1988TIP3    H2 5971   4.743   2.349   2.672 -1.4743 -0.9076 -0.5933
 1989TIP3   OH2 5972   4.084   3.640   3.531 -0.2875  0.1372 -0.3247
 1989TIP3    H1 5973   4.156   3.689   3.570  0.3097 -1.1968  0.3185
 1989TIP3    H2 5974   4.055   3.693   3.457  1.5010  0.6002 -0.7257
 1990TIP3   OH2 5975   6.098   2.480   0.461 -0.1007 -1.4001  0.0626
 1990TIP3    H1 5976   6.051   2.553   0.501 -0.1444 -0.9963 -0.7123
 1990TIP3    H2 5977   6.191   2.499   0.479 -0.2129 -2.2805  1.7301
 1991TIP3   OH2 5978   4.779   0.753   3.390 -0.1062  0.7524 -0.1604
 1991TIP3    H1 5979   4.749   0.711   3.471 -0.5962  0.5447 -0.4472
 1991TIP3    H2 5980   4.855   0.805   3.417 -0.7071  1.2753  0.5674
 1992TIP3   OH2 5981   3.213   1.079   2.431 -0.2893 -0.0195 -0.0784
 1992TIP3    H1 5982   3.209   1.175   2.431 -0.3193  0.1317 -3.6037
 1992TIP3    H2 5983   3.294   1.058   2.477 -1.6675  1.4156  3.3179
 1993TIP3   OH2 5984   5.333   4.478   2.250  0.3207 -0.3253  0.4186
 1993TIP3    H1 5985   5.382   4.408   2.207  1.5140  0.9305 -0.3565
 1993TIP3    H2 5986   5.291   4.436   2.325  0.5160 -1.9738 -0.3524
 1994TIP3   OH2 5987   2.164   2.937   4.230 -0.7143  0.0179 -0.0292
 1994TIP3    H1 5988   2.183   2.852   4.192 -1.0803  0.2015 -0.6466
 1994TIP3    H2 5989   2.177   2.926   4.324 -0.6759 -0.6908 -0.1174
 1995TIP3   OH2 5990   0.147   0.396   0.724 -0.5492  0.2286 -0.2985
 1995TIP3    H1 5991   0.174   0.312   0.760 -0.5315 -0.3577 -1.6110
 1995TIP3    H2 5992   0.104   0.374   0.641 -3.1827  1.2896  0.6707
 1996TIP3   OH2 5993   4.287   1.335   5.077 -0.4184 -0.1263 -0.0909
 1996TIP3    H1 5994   4.366   1.354   5.028  0.8971 -1.0904  1.5508
 1996TIP3    H2 5995   4.222   1.397   5.044  0.9289  0.5104 -1.6592
 1997TIP3   OH2 5996   5.812   4.989   1.820  0.6380 -1.2459 -0.1391
 1997TIP3    H1 5997   5.757   4.962   1.747 -1.1769 -0.4705  0.8845
 1997TIP3    H2 5998   5.761   4.968   1.898  1.3577  0.3639  0.8262
 1998TIP3   OH2 5999   6.210   0.504   3.899 -0.4512  0.3461  0.3126
 1998TIP3    H1 6000   6.121   0.529   3.923 -0.4038  1.5814 -0.7323
 1998TIP3    H2 6001   6.262   0.523   3.978 -0.9794  0.3349  0.6673
 1999TIP3   OH2 6002   1.575   2.741   3.558  0.0690  0.1198  0.1152
 1999TIP3    H1 6003   1.509   2.810   3.564  1.5654  2.0586 -3.0969
 1999TIP3    H2 6004   1.656   2.782   3.588  0.5540 -0.9930  0.3828
 2000TIP3   OH2 6005   6.271   0.702   4.358 -0.4247 -0.5880  0.1206
 2000TIP3    H1 6006   6.300   0.651   4.434 -0.0440 -0.1996  0.2406
 2000TIP3    H2 6007   6.229   0.638   4.301  0.2182 -1.0767  0.1788
 2001TIP3   OH2 6008   1.713   3.271   2.852 -0.3494 -0.4067 -0.5374
 2001TIP3    H1 6009   1.677   3.312   2.930  1.5886  1.9760 -0.7618
 2001TIP3    H2 6010   1.806   3.294   2.853  0.4032 -3.0029 -1.9219
 2002TIP3   OH2 6011   2.574   2.414   0.267 -0.3844  0.6958 -0.4538
 2002TIP3    H1 6012   2.503   2.353   0.244  0.2767 -0.4771  0.4836
 2002TIP3    H2 6013   2.651   2.358   0.278  0.2921  1.7276  0.2743
 2003TIP3   OH2 6014   1.422   5.429   4.286 -0.3601  0.2527  0.1922
 2003TIP3    H1 6015   1.516   5.446   4.295  0.0344 -0.5119 -1.9262
 2003TIP3    H2 6016   1.391   5.498   4.227 -0.7979 -0.3903 -0.3454
 2004TIP3   OH2 6017   0.635   1.921   4.583  0.5857 -0.2532 -0.1467
 2004TIP3    H1 6018   0.661   1.833   4.607 -2.9366 -1.8509 -1.5048
 2004TIP3    H2 6019   0.643   1.924   4.487  3.3587  2.0120  0.0070
 2005TIP3   OH2 6020   0.328   4.880   2.947  0.3232 -0.4110  0.0407
 2005TIP3    H1 6021   0.298   4.878   3.038 -1.2665  0.3036 -0.4383
 2005TIP3    H2 6022   0.414   4.923   2.952 -0.5272  1.3209  1.0477
 2006TIP3   OH2 6023   2.910   0.595   1.175  0.3576 -0.3118  0.5595
 2006TIP3    H1 6024   2.897   0.500   1.181 -0.4585 -0.4558 -2.0833
 2006TIP3    H2 6025   3.005   0.606   1.171  0.4481 -1.2602 -1.1015
 2007TIP3   OH2 6026   0.725   2.305   1.571  1.0949 -0.0177 -0.1217
 2007TIP3    H1 6027   0.756   2.311   1.662 -2.2011 -1.3421  1.2596
 2007TIP3    H2 6028   0.658   2.372   1.564  2.1250  0.8745 -2.0350
 2008TIP3   OH2 6029   0.316   5.697   0.264 -0.1412  0.0523 -0.5073
 2008TIP3    H1 6030   0.371   5.724   0.338  0.3478 -1.9702 -0.0672
 2008TIP3    H2 6031   0.229   5.730   0.286  0.0876 -0.1561  0.7798
 2009TIP3   OH2 6032   4.901   5.037   3.389  0.5007  0.3717 -0.4613
 2009TIP3    H1 6033   4.830   4.992   3.435 -0.9648  2.6042 -0.3832
 2009TIP3    H2 6034   4.907   4.992   3.305 -1.0074  0.0822 -0.4474
 2010TIP3   OH2 6035   2.546   0.675   3.080  0.1574  0.1993  0.4516
 2010TIP3    H1 6036   2.471   0.696   3.137  0.1749  1.3373  0.0687
 2010TIP3    H2 6037   2.543   0.741   3.011  0.8851 -0.4113 -0.1815
 2011TIP3   OH2 6038   5.697   0.065   0.367  0.8685 -0.2042 -0.4216
 2011TIP3    H1 6039   5.623   0.026   0.414  0.6010 -1.1496 -1.5838
 2011TIP3    H2 6040   5.774   0.040   0.419  0.6165 -1.5643 -0.6716
 2012TIP3   OH2 6041   0.304   2.022   3.311 -0.0727 -0.1027 -0.1867
 2012TIP3    H1 6042   0.277   1.974   3.232  0.4324  1.4276 -1.3444
 2012TIP3    H2 6043   0.240   1.997   3.377  0.0695 -2.1931 -0.7901
 2013TIP3   OH2 6044   0.219   0.330   3.095  0.3372 -0.1968  0.0033
 2013TIP3    H1 6045   0.130   0.310   3.124  0.0741 -0.5337 -0.9829
 2013TIP3    H2 6046   0.222   0.426   3.092  0.4245 -0.1496  1.2485
 2014TIP3   OH2 6047   2.513   3.763   1.564 -0.5772 -0.1228  0.3368
 2014TIP3    H1 6048   2.579   3.731   1.625 -0.4313 -0.4514  0.0099
 2014TIP3    H2 6049   2.430   3.749   1.608 -0.4009  0.9495  1.0536
 2015TIP3   OH2 6050   0.234   3.020   3.258  0.1989  0.4608  0.6280
 2015TIP3    H1 6051   0.278   2.964   3.194  1.2493  2.0856 -0.1216
 2015TIP3    H2 6052   0.187   2.959   3.315 -0.7902 -1.0580 -1.6672
 2016TIP3   OH2 6053   6.113   2.643   4.251 -0.0357 -0.0220 -0.4903
 2016TIP3    H1 6054   6.103   2.719   4.195 -2.4743 -0.3646 -0.6191
 2016TIP3    H2 6055   6.208   2.635   4.264  0.4656  1.2784 -2.8205
 2017TIP3   OH2 6056   2.262   3.212   3.192  0.2789  0.3742 -0.1547
 2017TIP3    H1 6057   2.357   3.206   3.195  0.3804  2.0450  2.3959
 2017TIP3    H2 6058   2.244   3.261   3.111  1.5185 -0.3563 -0.9056
 2018TIP3   OH2 6059   2.168   0.964   3.481 -0.6212 -0.1211 -0.0237
 2018TIP3    H1 6060   2.158   0.949   3.575 -0.1570 -0.8317 -0.0832
 2018TIP3    H2 6061   2.258   0.941   3.462 -0.3000  1.3665 -0.4077
 2019TIP3   OH2 6062   0.249   1.323   0.899 -0.3026 -0.0799  0.0304
 2019TIP3    H1 6063   0.237   1.399   0.956 -1.8700 -0.8085  0.7165
 2019TIP3    H2 6064   0.320   1.348   0.840  0.6824  1.0798  1.6490
 2020TIP3   OH2 6065   4.996   0.778   4.593  0.2997 -0.2619  0.3466
 2020TIP3    H1 6066   4.984   0.684   4.605 -1.6302 -0.4199 -1.9733
 2020TIP3    H2 6067   5.085   0.787   4.559 -0.0410 -1.4426 -0.9299
 2021TIP3   OH2 6068   4.049   4.198   0.910  0.6648 -0.7922  0.0459
 2021TIP3    H1 6069   3.979   4.256   0.941 -0.2399 -2.8459  2.1274
 2021TIP3    H2 6070   4.111   4.256   0.865 -1.3154  1.3929 -0.0117
 2022TIP3   OH2 6071   1.943   2.473   0.941  0.5374 -0.3412 -0.1454
 2022TIP3    H1 6072   2.030   2.483   0.979  0.7387 -1.7255 -0.1946
 2022TIP3    H2 6073   1.957   2.478   0.846  0.6524 -1.0548 -0.1738
 2023TIP3   OH2 6074   0.107   0.220   2.726  0.3788 -0.0170  0.2621
 2023TIP3    H1 6075   0.154   0.276   2.789  1.7549  0.2131 -0.9136
 2023TIP3    H2 6076   0.021   0.206   2.766  0.2133  2.3950  0.9172
 2024TIP3   OH2 6077   0.987   4.708   3.768  0.3414  0.1633 -0.2529
 2024TIP3    H1 6078   1.064   4.705   3.825 -0.3704 -0.2408  0.7128
 2024TIP3    H2 6079   0.969   4.617   3.746  1.1547  0.3674 -1.9185
 2025TIP3   OH2 6080   0.582   5.342   3.154  0.4243  0.0984 -0.3416
 2025TIP3    H1 6081   0.620   5.268   3.201 -0.0699 -0.0533 -0.1744
 2025TIP3    H2 6082   0.654   5.405   3.146  0.8198 -0.3579 -0.3980
 2026TIP3   OH2 6083   1.950   0.469   4.114 -0.2271  0.8638 -0.2901
 2026TIP3    H1 6084   2.000   0.401   4.068  1.1732  1.8972 -0.3761
 2026TIP3    H2 6085   1.867   0.427   4.136  0.7692 -1.0308  0.0889
 2027TIP3   OH2 6086   3.542   0.231   1.690 -0.0616 -0.2846 -0.4285
 2027TIP3    H1 6087   3.522   0.324   1.676  0.0124 -0.0681  0.7807
 2027TIP3    H2 6088   3.620   0.232   1.746  0.4802 -1.0904 -1.1608
 2028TIP3   OH2 6089   1.170   5.869   3.177  0.0426  0.6069  0.2892
 2028TIP3    H1 6090   1.232   5.802   3.205 -0.3817 -0.6090 -1.4829
 2028TIP3    H2 6091   1.216   5.952   3.190  1.3993 -0.1547  0.5391
 2029TIP3   OH2 6092   3.908   5.545   1.238 -0.7985 -0.0547  0.4141
 2029TIP3    H1 6093   3.948   5.535   1.325  0.7215 -1.4102 -0.3940
 2029TIP3    H2 6094   3.978   5.578   1.182 -2.2456  2.6494  0.0188
 2030TIP3   OH2 6095   4.355   5.470   3.081  0.3734 -0.8669  0.2276
 2030TIP3    H1 6096   4.425   5.529   3.053 -0.6717  0.1290 -0.3825
 2030TIP3    H2 6097   4.278   5.497   3.030 -0.1003 -2.9387 -0.2657
 2031TIP3   OH2 6098   2.381   3.780   0.194 -0.5273  0.7157 -0.3019
 2031TIP3    H1 6099   2.335   3.697   0.198  2.7195 -1.1880  0.8981
 2031TIP3    H2 6100   2.355   3.826   0.274  1.7775 -1.7048  2.0625
 2032TIP3   OH2 6101   5.047   1.018   1.268  0.3020  0.5891  0.3469
 2032TIP3    H1 6102   4.959   1.038   1.301 -0.3974 -1.8045  0.1257
 2032TIP3    H2 6103   5.032   0.982   1.181  1.2297 -1.7617  1.0713
 2033TIP3   OH2 6104   4.658   5.127   3.903  0.1686 -0.3617 -0.1999
 2033TIP3    H1 6105   4.573   5.094   3.932  0.5157 -0.8074  0.3280
 2033TIP3    H2 6106   4.692   5.059   3.846  0.1705 -0.1784 -0.4204
 2034TIP3   OH2 6107   1.453   2.960   0.400  0.1087  0.4084 -0.2381
 2034TIP3    H1 6108   1.471   2.875   0.359  2.5731  0.1269  1.2327
 2034TIP3    H2 6109   1.500   3.023   0.346  1.2352  0.3517  0.6417
 2035TIP3   OH2 6110   5.101   1.469   1.536  0.2811  0.7447  0.0500
 2035TIP3    H1 6111   5.139   1.550   1.572 -0.2551  0.4299  1.4131
 2035TIP3    H2 6112   5.008   1.475   1.558 -0.4904  1.3900 -3.0211
 2036TIP3   OH2 6113   4.001   3.932   2.922  0.5434  0.3666  0.1661
 2036TIP3    H1 6114   4.003   4.020   2.884 -1.0443 -0.2769 -1.5666
 2036TIP3    H2 6115   3.929   3.936   2.985  1.1216  0.5553  0.8296
 2037TIP3   OH2 6116   5.211   1.905   3.071 -0.1123  0.5042 -0.8103
 2037TIP3    H1 6117   5.214   1.997   3.045  0.2908  0.7338  0.0096
 2037TIP3    H2 6118   5.136   1.869   3.024  0.0316  1.1244 -1.5325
 2038TIP3   OH2 6119   3.709   4.902   2.011 -0.1938 -0.1275  0.0885
 2038TIP3    H1 6120   3.733   4.906   1.918 -0.6676  0.5184 -0.0158
 2038TIP3    H2 6121   3.724   4.991   2.043  1.7270 -0.7529  1.0948
 2039TIP3   OH2 6122   2.777   5.038   0.091  0.3514  0.1291  0.0830
 2039TIP3    H1 6123   2.796   5.015   0.000 -0.9303 -0.0629 -0.1620
 2039TIP3    H2 6124   2.684   5.019   0.101  0.7660 -1.1555  1.8510
 2040TIP3   OH2 6125   1.681   2.645   1.392  0.7401  0.5797 -0.1025
 2040TIP3    H1 6126   1.701   2.661   1.300 -1.3154  0.8477 -0.5482
 2040TIP3    H2 6127   1.587   2.631   1.394  0.9495 -0.8857  1.7871
 2041TIP3   OH2 6128   0.245   0.349   4.147  0.0083  0.3088  0.5995
 2041TIP3    H1 6129   0.280   0.268   4.184  0.0295  0.4610  0.9122
 2041TIP3    H2 6130   0.289   0.358   4.063  2.1113  1.4416  1.7433
 2042TIP3   OH2 6131   0.063   2.235   4.345  0.5285  0.3869 -0.5399
 2042TIP3    H1 6132   0.066   2.233   4.441  1.2090 -2.4212 -0.5202
 2042TIP3    H2 6133   0.119   2.308   4.321 -1.2813  2.4823  1.1630
 2043TIP3   OH2 6134   5.342   0.513   1.661  0.5790  0.1948  0.1932
 2043TIP3    H1 6135   5.434   0.537   1.649  1.0020 -1.7041 -0.7139
 2043TIP3    H2 6136   5.335   0.492   1.754  1.0764  0.2846  0.2547
 2044TIP3   OH2 6137   1.412   4.098   2.170 -0.0462 -0.0933 -0.0075
 2044TIP3    H1 6138   1.491   4.057   2.133  0.2645  0.1447  0.3798
 2044TIP3    H2 6139   1.426   4.192   2.159  0.3537  0.0195  1.2662
 2045TIP3   OH2 6140   2.043   4.123   4.162  0.5721 -0.0479  0.1143
 2045TIP3    H1 6141   2.026   4.159   4.075  1.3866  3.1139  1.1328
 2045TIP3    H2 6142   2.132   4.088   4.156  0.4664 -0.2421 -0.4039
 2046TIP3   OH2 6143   4.874   2.723   3.349 -0.0068 -0.3930 -0.0297
 2046TIP3    H1 6144   4.881   2.816   3.373 -0.2080 -0.4283  0.1735
 2046TIP3    H2 6145   4.964   2.696   3.333  0.1481 -0.3717  0.7299
 2047TIP3   OH2 6146   6.230   1.517   5.196 -0.1343  0.5369  0.2043
 2047TIP3    H1 6147   6.172   1.452   5.157  1.7860 -1.6162  0.7654
 2047TIP3    H2 6148   6.314   1.505   5.150  0.6458  1.7009  1.2585
 2048TIP3   OH2 6149   5.166   2.676   1.497 -0.0130 -0.6415  0.3600
 2048TIP3    H1 6150   5.070   2.681   1.496 -0.0194 -0.7703  0.0196
 2048TIP3    H2 6151   5.194   2.767   1.483 -0.0761 -0.4507  1.4445
 2049TIP3   OH2 6152   1.832   2.124   2.676 -0.0387 -0.0168 -0.3629
 2049TIP3    H1 6153   1.851   2.176   2.598  1.0567 -0.3494 -0.3334
 2049TIP3    H2 6154   1.811   2.189   2.744  2.5206  0.5201  0.0121
 2050TIP3   OH2 6155   6.081   5.311   0.721 -0.0459  0.0268 -0.3027
 2050TIP3    H1 6156   6.104   5.219   0.735 -1.0879 -0.2991 -0.6181
 2050TIP3    H2 6157   6.011   5.328   0.784  0.4767  0.7628  0.0997
 2051TIP3   OH2 6158   3.104   1.724   0.414 -0.3779  0.2143  0.3678
 2051TIP3    H1 6159   3.097   1.807   0.367  0.3629  0.3118  0.4190
 2051TIP3    H2 6160   3.034   1.670   0.379  1.1449 -0.3239 -2.0921
 2052TIP3   OH2 6161   2.428   2.359   0.741  0.1675  0.6324  0.0595
 2052TIP3    H1 6162   2.426   2.448   0.707  0.5898  0.3650 -0.6910
 2052TIP3    H2 6163   2.462   2.306   0.669 -0.0435 -0.1322  0.5054
 2053TIP3   OH2 6164   1.511   0.511   2.892  0.2468  0.1051  0.3241
 2053TIP3    H1 6165   1.581   0.516   2.827 -0.7513  0.2015 -0.7920
 2053TIP3    H2 6166   1.463   0.593   2.882 -1.9387 -1.2454 -1.2500
 2054TIP3   OH2 6167   0.741   1.944   0.143 -0.1108  0.1770  0.1244
 2054TIP3    H1 6168   0.821   1.950   0.194 -1.5993  2.2481  2.3998
 2054TIP3    H2 6169   0.754   2.005   0.070  0.8210 -0.4500 -0.2537
 2055TIP3   OH2 6170   0.200   3.435   1.956  0.1569 -0.4473 -0.5567
 2055TIP3    H1 6171   0.168   3.413   1.869  2.1665 -0.0759 -1.4483
 2055TIP3    H2 6172   0.295   3.440   1.946  0.3425  1.0145  1.3378
 2056TIP3   OH2 6173   2.451   3.347   4.451 -0.0722  0.1256  0.6772
 2056TIP3    H1 6174   2.498   3.331   4.532  0.7839  0.8001  0.3243
 2056TIP3    H2 6175   2.478   3.276   4.393  0.9372  0.8048  0.3005
 2057TIP3   OH2 6176   0.009   5.024   1.767  0.2271  0.1533  0.3978
 2057TIP3    H1 6177  -0.003   5.077   1.688  3.0164 -0.4550 -0.5807
 2057TIP3    H2 6178   0.083   5.066   1.812  0.2949 -0.9611  1.3725
 2058TIP3   OH2 6179   2.195   1.830   1.676 -0.2603 -0.2862 -0.1104
 2058TIP3    H1 6180   2.131   1.783   1.623  0.5296 -0.8471 -0.5791
 2058TIP3    H2 6181   2.224   1.902   1.621 -0.4741 -0.0388  0.0975
 2059TIP3   OH2 6182   2.507   0.484   1.798  0.6918 -0.8685  0.1669
 2059TIP3    H1 6183   2.490   0.392   1.775 -0.1443 -0.2562 -1.9402
 2059TIP3    H2 6184   2.594   0.502   1.762  0.9695 -0.9143  0.8191
 2060TIP3   OH2 6185   1.743   0.229   4.450 -0.1839 -0.0494  0.5215
 2060TIP3    H1 6186   1.791   0.252   4.370  1.1666  0.4152  1.4397
 2060TIP3    H2 6187   1.798   0.163   4.493 -2.2286 -2.4151 -0.2528
 2061TIP3   OH2 6188   4.699   0.080   2.531 -0.3154 -0.1219 -0.3046
 2061TIP3    H1 6189   4.675   0.016   2.599  1.7400  0.8124  1.4238
 2061TIP3    H2 6190   4.786   0.110   2.557  1.4797 -1.0641 -4.3892
 2062TIP3   OH2 6191   5.757   4.766   0.494  0.0719  0.4085  0.7693
 2062TIP3    H1 6192   5.714   4.836   0.445 -0.9485 -0.3701  0.5155
 2062TIP3    H2 6193   5.797   4.711   0.427  0.7966  0.6922  0.9636
 2063TIP3   OH2 6194   0.924   5.663   0.804  0.1524 -0.2946 -0.3410
 2063TIP3    H1 6195   0.901   5.597   0.870  1.0248 -0.7462 -0.4867
 2063TIP3    H2 6196   0.948   5.612   0.727  1.0634  0.1804 -0.3794
 2064TIP3   OH2 6197   4.753   1.538   4.845  0.0432  0.3207 -0.4459
 2064TIP3    H1 6198   4.709   1.533   4.760  0.2324  1.7766 -0.6498
 2064TIP3    H2 6199   4.802   1.620   4.843 -0.9306  1.0325  1.5292
 2065TIP3   OH2 6200   5.168   4.715   3.539 -0.9597  0.1142 -0.0185
 2065TIP3    H1 6201   5.162   4.718   3.635 -1.2893 -3.4060  0.1750
 2065TIP3    H2 6202   5.092   4.767   3.510 -2.1500 -0.5696  1.6819
 2066TIP3   OH2 6203   2.483   2.266   2.716  0.1263 -0.2210 -0.3303
 2066TIP3    H1 6204   2.489   2.175   2.687 -0.4556 -0.2126 -0.5062
 2066TIP3    H2 6205   2.464   2.315   2.636 -1.3948 -0.1854  0.0140
 2067TIP3   OH2 6206   5.886   1.916   1.425  0.0798  0.1465  0.3000
 2067TIP3    H1 6207   5.970   1.901   1.382 -0.3427 -1.5531 -0.0021
 2067TIP3    H2 6208   5.895   1.871   1.510 -0.1047  1.0179  0.7938
 2068TIP3   OH2 6209   4.981   2.473   2.252  0.1861  0.3449 -0.5943
 2068TIP3    H1 6210   4.928   2.394   2.243 -2.2064  1.5860  1.2064
 2068TIP3    H2 6211   5.017   2.488   2.165 -1.2532 -1.4207 -1.5648
 2069TIP3   OH2 6212   1.347   3.931   2.810  0.4334  0.1309 -0.4718
 2069TIP3    H1 6213   1.266   3.918   2.859  0.4183 -2.6062 -1.0292
 2069TIP3    H2 6214   1.339   3.872   2.735  1.8867  1.6988 -1.9491
 2070TIP3   OH2 6215   5.172   4.826   4.521  0.3596  0.0465 -0.0634
 2070TIP3    H1 6216   5.165   4.747   4.575 -0.2545 -0.1920 -0.4785
 2070TIP3    H2 6217   5.208   4.795   4.438  1.2999  0.4109  0.1881
 2071TIP3   OH2 6218   0.078   0.883   1.742 -0.4147  0.0034  0.0170
 2071TIP3    H1 6219   0.126   0.938   1.681  0.2004 -2.8718 -2.3105
 2071TIP3    H2 6220   0.145   0.851   1.803 -0.1770 -0.5658 -0.5345
 2072TIP3   OH2 6221   1.649   1.554   3.587 -0.0108 -0.0824 -0.2230
 2072TIP3    H1 6222   1.654   1.459   3.579  0.3482 -0.1133  0.3305
 2072TIP3    H2 6223   1.713   1.587   3.523 -0.3813 -0.1974 -0.6603
 2073TIP3   OH2 6224   3.607   0.587   2.773 -0.4140 -0.1538 -0.2979
 2073TIP3    H1 6225   3.517   0.561   2.750 -0.6907  0.2540  0.2934
 2073TIP3    H2 6226   3.661   0.551   2.703 -0.9476 -1.1013 -0.2385
 2074TIP3   OH2 6227   5.689   3.895   4.220 -0.0746  0.0175  0.0691
 2074TIP3    H1 6228   5.679   3.952   4.296  2.8140  0.2696  0.3719
 2074TIP3    H2 6229   5.607   3.844   4.218 -0.2747 -0.0601  3.3914
 2075TIP3   OH2 6230   0.604   2.566   2.819  0.5507 -0.0088  0.2539
 2075TIP3    H1 6231   0.612   2.474   2.842 -0.8901 -0.3278 -0.4469
 2075TIP3    H2 6232   0.538   2.601   2.879  0.7440  0.4637  0.2021
 2076TIP3   OH2 6233   0.497   0.777   0.383 -0.2669  0.6015  0.0634
 2076TIP3    H1 6234   0.475   0.846   0.445  1.1217  0.5085  0.6950
 2076TIP3    H2 6235   0.458   0.698   0.421 -1.1675  0.8863 -0.2491
 2077TIP3   OH2 6236   5.944   4.572   3.510 -0.0993 -0.0279  0.1674
 2077TIP3    H1 6237   5.863   4.571   3.560 -0.1101 -0.6545  0.1509
 2077TIP3    H2 6238   6.012   4.592   3.574 -0.2564  0.4392  0.1918
 2078TIP3   OH2 6239   4.508   1.445   2.239  0.2360  0.5620 -0.1854
 2078TIP3    H1 6240   4.577   1.505   2.208 -0.9714  1.5655 -1.0174
 2078TIP3    H2 6241   4.451   1.500   2.293  0.0995 -0.2733  0.5396
 2079TIP3   OH2 6242   0.253   3.028   3.859 -0.2180  0.3741  1.0085
 2079TIP3    H1 6243   0.288   3.085   3.928  2.2242 -0.8069  0.8429
 2079TIP3    H2 6244   0.206   2.959   3.906  1.7124 -0.6110  1.5652
 2080TIP3   OH2 6245   5.205   2.878   0.475 -0.2087 -0.1512 -0.3544
 2080TIP3    H1 6246   5.110   2.881   0.465 -0.9368 -0.9532  4.2102
 2080TIP3    H2 6247   5.225   2.952   0.533  1.4887 -1.6420  1.0490
 2081TIP3   OH2 6248   3.557   4.608   4.376  0.4065 -0.1933  0.0875
 2081TIP3    H1 6249   3.630   4.645   4.325 -0.1132  0.6614 -0.0657
 2081TIP3    H2 6250   3.485   4.670   4.363 -0.6264 -1.4641 -0.4678
 2082TIP3   OH2 6251   3.123   4.872   2.593 -0.0558 -0.2569 -0.2339
 2082TIP3    H1 6252   3.199   4.830   2.551 -1.6827 -3.0622 -0.6045
 2082TIP3    H2 6253   3.118   4.831   2.679 -1.2383 -0.2493 -0.2839
 2083TIP3   OH2 6254   4.018   2.631   0.150 -0.5279  0.0192  0.0418
 2083TIP3    H1 6255   3.949   2.684   0.189  0.3772  3.1914 -2.2129
 2083TIP3    H2 6256   3.977   2.590   0.074 -0.4823  0.1242 -0.0407
 2084TIP3   OH2 6257   4.420   2.169   4.548  0.1066 -0.7680 -0.0319
 2084TIP3    H1 6258   4.415   2.089   4.599 -0.3585 -0.8442 -0.1967
 2084TIP3    H2 6259   4.467   2.145   4.468 -1.5480 -1.3071 -0.8880
 2085TIP3   OH2 6260   0.010   5.318   2.522 -0.2303 -0.0157  0.0674
 2085TIP3    H1 6261  -0.031   5.403   2.507 -1.4521 -0.9051 -2.2509
 2085TIP3    H2 6262   0.054   5.298   2.439  1.0184 -1.1437  0.9586
 2086TIP3   OH2 6263   3.123   2.648   2.357 -0.0782 -0.0847 -0.1335
 2086TIP3    H1 6264   3.165   2.606   2.281 -1.0914 -0.4934 -0.4874
 2086TIP3    H2 6265   3.136   2.742   2.343 -0.2406 -0.1587 -0.8131
 2087TIP3   OH2 6266   4.008   1.965   4.465  0.2644 -0.2531 -0.4249
 2087TIP3    H1 6267   3.999   2.006   4.379  1.1228  0.3609 -0.2403
 2087TIP3    H2 6268   4.034   2.037   4.523  1.0839 -0.9165  0.0567
 2088TIP3   OH2 6269   3.759   2.532   2.698 -0.0622 -0.5815 -0.4746
 2088TIP3    H1 6270   3.672   2.570   2.708 -0.0642 -0.7403  0.1997
 2088TIP3    H2 6271   3.819   2.604   2.715 -0.0653 -0.6452 -0.1878
 2089TIP3   OH2 6272   5.579   1.218   2.627 -0.1427  0.2311 -0.0133
 2089TIP3    H1 6273   5.547   1.307   2.613 -0.3370 -0.1113 -2.1046
 2089TIP3    H2 6274   5.662   1.214   2.579  1.7314  0.2546  2.9394
 2090TIP3   OH2 6275   5.075   1.833   0.337  0.3244  0.2271 -0.6173
 2090TIP3    H1 6276   5.150   1.888   0.358 -0.0550  0.5643 -0.1510
 2090TIP3    H2 6277   5.030   1.880   0.266  0.5300  0.0376 -0.8789
 2091TIP3   OH2 6278   6.155   4.363   1.825  0.3796  0.0204 -0.3291
 2091TIP3    H1 6279   6.082   4.419   1.800 -0.3042 -1.0893 -0.8565
 2091TIP3    H2 6280   6.233   4.412   1.798 -0.2265  0.3785 -1.4761
 2092TIP3   OH2 6281   1.557   5.088   0.897  0.2192  0.8967 -0.2723
 2092TIP3    H1 6282   1.573   5.061   0.987 -0.5986  0.3302 -0.2840
 2092TIP3    H2 6283   1.644   5.103   0.860  0.7146 -1.2421 -0.1076
 2093TIP3   OH2 6284   3.453   0.028   2.288 -0.6218 -0.4607 -0.0082
 2093TIP3    H1 6285   3.479  -0.032   2.218 -0.5008  0.7320 -1.0369
 2093TIP3    H2 6286   3.358   0.034   2.280 -0.6474 -0.6051  0.1781
 2094TIP3   OH2 6287   4.477   0.221   0.332  0.5330 -0.1001 -0.3603
 2094TIP3    H1 6288   4.541   0.157   0.301  0.8883 -0.0020  0.1574
 2094TIP3    H2 6289   4.501   0.237   0.423 -0.1584  0.0250 -0.1897
 2095TIP3   OH2 6290   3.990   3.969   4.466 -0.3228 -0.0865 -0.0442
 2095TIP3    H1 6291   4.084   3.949   4.472 -0.2821  0.1235  0.0670
 2095TIP3    H2 6292   3.981   4.016   4.383 -0.2322  0.3795  0.2014
 2096TIP3   OH2 6293   4.938   2.730   0.053 -0.3815 -0.2600 -0.0145
 2096TIP3    H1 6294   4.860   2.785   0.060 -0.0080  0.3692 -0.6129
 2096TIP3    H2 6295   4.946   2.687   0.139 -1.2329 -0.1323  0.1298
 2097TIP3   OH2 6296   3.038   5.818   2.255  0.0805  0.3760  0.1400
 2097TIP3    H1 6297   2.971   5.750   2.242 -0.1592  0.1383  2.2350
 2097TIP3    H2 6298   3.030   5.842   2.348  1.9276  1.3872  0.0854
 2098TIP3   OH2 6299   2.423   0.923   2.225 -0.0856  0.3880 -0.6834
 2098TIP3    H1 6300   2.450   0.831   2.218  0.3420  0.5083 -0.6019
 2098TIP3    H2 6301   2.355   0.933   2.158  0.4129  0.2109 -1.2153
 2099TIP3   OH2 6302   5.882   3.402   1.523 -0.0734  0.0697  0.0683
 2099TIP3    H1 6303   5.928   3.485   1.536 -0.5386  0.5631 -1.2273
 2099TIP3    H2 6304   5.803   3.409   1.577  0.9025 -0.4071  1.5858
 2100TIP3   OH2 6305   0.622   5.743   1.903 -0.0983  0.2488 -0.5394
 2100TIP3    H1 6306   0.599   5.650   1.902 -1.5162  0.5699 -0.1655
 2100TIP3    H2 6307   0.715   5.745   1.883 -0.0826 -1.2428 -0.7174
 2101TIP3   OH2 6308   1.132   0.849   5.096  0.2610 -0.1206  0.7044
 2101TIP3    H1 6309   1.211   0.900   5.115  1.6920 -1.2066 -1.9041
 2101TIP3    H2 6310   1.164   0.762   5.073 -1.5739 -0.2719 -1.5984
 2102TIP3   OH2 6311   6.000   3.013   3.010 -0.0785 -0.3654 -0.1370
 2102TIP3    H1 6312   6.078   2.969   3.044 -0.1570 -1.4642 -1.2980
 2102TIP3    H2 6313   6.027   3.103   2.995  0.5663 -0.3973  0.7288
 2103TIP3   OH2 6314   1.278   4.179   3.051 -0.5721 -0.3267 -0.1421
 2103TIP3    H1 6315   1.292   4.273   3.063 -2.2332 -0.2447  1.6032
 2103TIP3    H2 6316   1.222   4.173   2.974 -0.2511  0.0734 -0.4146
 2104TIP3   OH2 6317   0.824   2.249   1.827 -0.3926  0.0990 -0.1418
 2104TIP3    H1 6318   0.771   2.173   1.850  0.3111 -0.0120  1.2252
 2104TIP3    H2 6319   0.910   2.231   1.866 -0.1230  1.4323 -0.0719
 2105TIP3   OH2 6320   2.240   3.096   3.859  0.0336 -0.1881  0.0365
 2105TIP3    H1 6321   2.228   3.011   3.817  1.0893 -0.2251 -0.2289
 2105TIP3    H2 6322   2.334   3.114   3.851 -0.4402  1.9238 -1.7132
 2106TIP3   OH2 6323   1.463   5.358   5.119 -0.5703  0.2802  0.2963
 2106TIP3    H1 6324   1.449   5.265   5.136 -1.0183  0.1935 -0.5001
 2106TIP3    H2 6325   1.543   5.380   5.167  0.0386 -0.7314 -0.2276
 2107TIP3   OH2 6326   3.665   3.501   0.145 -0.2979 -0.2635  0.2139
 2107TIP3    H1 6327   3.715   3.515   0.225  1.3996  0.6004 -0.9424
 2107TIP3    H2 6328   3.704   3.423   0.106 -0.4178 -0.0878 -0.2662
 2108TIP3   OH2 6329   0.840   0.611   3.288 -0.9250  0.3236  0.2650
 2108TIP3    H1 6330   0.935   0.601   3.288 -1.1347 -2.2189  1.3660
 2108TIP3    H2 6331   0.818   0.639   3.377 -1.4173 -2.4304  1.0861
 2109TIP3   OH2 6332   3.002   1.391   3.205  0.3296 -0.3358  0.2795
 2109TIP3    H1 6333   3.083   1.442   3.207  0.6460 -0.6679 -1.6381
 2109TIP3    H2 6334   2.952   1.422   3.280  2.2607 -0.1906  1.5700
 2110TIP3   OH2 6335   2.951   0.245   4.533  0.4191  0.2750 -0.3674
 2110TIP3    H1 6336   2.884   0.189   4.496  0.8460  0.1419 -0.9457
 2110TIP3    H2 6337   2.904   0.302   4.594 -0.2880  0.4867 -1.1018
 2111TIP3   OH2 6338   2.234   2.547   0.997 -0.0701 -0.5305 -0.3731
 2111TIP3    H1 6339   2.236   2.482   1.068 -0.5692 -1.1647 -0.9276
 2111TIP3    H2 6340   2.248   2.630   1.042  0.4784 -1.0019  0.3645
 2112TIP3   OH2 6341   1.295   0.367   3.674  0.0784  0.1181 -0.8068
 2112TIP3    H1 6342   1.312   0.306   3.746  0.8856  1.4037  0.1439
 2112TIP3    H2 6343   1.375   0.365   3.621  0.3475  0.7360 -0.4475
 2113TIP3   OH2 6344   0.506   5.838   0.419  0.3720  0.1516 -0.1304
 2113TIP3    H1 6345   0.539   5.890   0.346  0.4594 -0.5815 -0.6316
 2113TIP3    H2 6346   0.491   5.901   0.489  2.8077  0.5409  0.1235
 2114TIP3   OH2 6347   1.989   2.580   0.659  0.2492  0.4669 -0.7184
 2114TIP3    H1 6348   1.960   2.663   0.620 -0.0383 -0.0021 -1.5175
 2114TIP3    H2 6349   1.995   2.520   0.585  2.1249  0.2244 -0.4005
 2115TIP3   OH2 6350   6.012   4.421   0.712 -0.1353  0.4106 -0.6081
 2115TIP3    H1 6351   5.967   4.389   0.791  0.8924  3.2365  1.2829
 2115TIP3    H2 6352   5.949   4.407   0.642 -0.9576 -2.5922  0.5343
 2116TIP3   OH2 6353   3.768   5.429   4.240 -0.4189  0.8487  0.3169
 2116TIP3    H1 6354   3.717   5.415   4.320  1.7952  0.6395  1.8042
 2116TIP3    H2 6355   3.780   5.342   4.203 -0.6997  0.8387  0.2489
 2117TIP3   OH2 6356   5.787   3.242   0.452  0.4360 -0.0407 -0.8773
 2117TIP3    H1 6357   5.797   3.164   0.397  2.9564 -1.6932  1.6290
 2117TIP3    H2 6358   5.868   3.291   0.439 -0.2602  1.1446 -0.8927
 2118TIP3   OH2 6359   5.033   3.625   4.669 -0.4372  0.0209 -0.0958
 2118TIP3    H1 6360   5.064   3.701   4.717  0.6806 -1.2980  1.3740
 2118TIP3    H2 6361   5.015   3.559   4.736 -1.2681 -1.0703 -1.3195
 2119TIP3   OH2 6362   1.315   1.056   3.336 -0.1217 -0.3590 -0.1635
 2119TIP3    H1 6363   1.358   0.980   3.296 -1.3879 -0.4703 -1.4137
 2119TIP3    H2 6364   1.222   1.034   3.334 -0.3774  0.5280  1.0199
 2120TIP3   OH2 6365   2.793   0.027   0.653 -0.3596  0.6713 -0.6308
 2120TIP3    H1 6366   2.816  -0.007   0.740  2.0408 -0.5092 -1.6229
 2120TIP3    H2 6367   2.803   0.122   0.661  1.4583  0.4717  0.0281
 2121TIP3   OH2 6368   1.639   2.271   1.596 -0.2381 -0.9476  0.3657
 2121TIP3    H1 6369   1.562   2.325   1.615  0.4566  0.0417  0.4434
 2121TIP3    H2 6370   1.604   2.195   1.549 -1.1537  0.0233 -0.5842
 2122TIP3   OH2 6371   0.356   3.462   3.156 -0.1113  0.2178 -0.4792
 2122TIP3    H1 6372   0.346   3.427   3.068  0.1084 -0.2589 -0.3193
 2122TIP3    H2 6373   0.439   3.509   3.154  0.8425 -1.3509 -0.0449
 2123TIP3   OH2 6374   5.513   2.965   1.640 -0.7900 -0.0828  0.0166
 2123TIP3    H1 6375   5.517   2.869   1.643 -1.4940 -0.1228 -0.1903
 2123TIP3    H2 6376   5.482   2.991   1.726 -1.5025 -0.1027 -0.2232
 2124TIP3   OH2 6377   0.914   1.099   0.127  0.1940 -0.5196 -0.1181
 2124TIP3    H1 6378   0.908   1.132   0.216 -1.3175  0.4338 -0.5548
 2124TIP3    H2 6379   1.005   1.116   0.101 -0.2912  2.7758 -0.0878
 2125TIP3   OH2 6380   0.841   5.118   2.147 -0.1978 -0.3837  0.2712
 2125TIP3    H1 6381   0.896   5.112   2.225  0.4197 -0.6389 -0.1757
 2125TIP3    H2 6382   0.836   5.211   2.128 -0.6948 -0.2834  0.8483
 2126TIP3   OH2 6383   5.352   0.257   2.468  0.0726  0.0479  0.1477
 2126TIP3    H1 6384   5.384   0.343   2.494  0.2691 -0.2404  0.9100
 2126TIP3    H2 6385   5.429   0.200   2.476 -0.4139 -0.4924  1.1748
 2127TIP3   OH2 6386   5.794   2.296   1.802 -0.0433  0.0322  0.1114
 2127TIP3    H1 6387   5.737   2.352   1.854 -1.0847 -1.0132  0.1506
 2127TIP3    H2 6388   5.753   2.294   1.715  1.1540  1.0003 -0.4999
 2128TIP3   OH2 6389   2.101   0.428   4.485  0.2506  0.3390  0.2688
 2128TIP3    H1 6390   2.092   0.509   4.534 -2.3409  0.6529 -0.5680
 2128TIP3    H2 6391   2.042   0.367   4.530  0.7759 -0.5272 -0.1984
 2129TIP3   OH2 6392   3.447   1.103   4.609  0.0871 -0.1494 -0.0470
 2129TIP3    H1 6393   3.461   1.188   4.567  0.0112  0.1519  0.5350
 2129TIP3    H2 6394   3.500   1.106   4.688 -0.8462 -0.1879  0.5893
 2130TIP3   OH2 6395   6.078   2.269   4.731  0.1409  0.8331 -0.1737
 2130TIP3    H1 6396   6.037   2.354   4.722  0.4847  1.2080  1.4986
 2130TIP3    H2 6397   6.074   2.250   4.825  1.7238 -0.1384 -0.2673
 2131TIP3   OH2 6398   0.523   3.356   1.958  0.3780 -0.3353  0.1033
 2131TIP3    H1 6399   0.534   3.313   2.043  1.1618 -0.0996  0.1273
 2131TIP3    H2 6400   0.568   3.440   1.968  2.2072 -1.1085 -1.1654
 2132TIP3   OH2 6401  -0.003   5.685   4.178  0.3095  0.2245  0.4596
 2132TIP3    H1 6402  -0.041   5.638   4.252  0.4285  0.0501  0.4096
 2132TIP3    H2 6403   0.092   5.684   4.196  0.4152 -0.5593 -0.1323
 2133TIP3   OH2 6404   5.147   3.745   0.731  0.6305  0.9075 -0.4757
 2133TIP3    H1 6405   5.187   3.671   0.777 -0.8464  0.5211  0.2478
 2133TIP3    H2 6406   5.141   3.814   0.797  0.8139  1.2200 -0.7866
 2134TIP3   OH2 6407   0.677   5.099   1.778 -0.2804  0.3664 -0.3283
 2134TIP3    H1 6408   0.589   5.085   1.743 -0.2088  0.5989 -0.6097
 2134TIP3    H2 6409   0.690   5.028   1.841 -1.1895  1.0892  0.7122
 2135TIP3   OH2 6410   5.121   3.399   2.055  0.0501  1.0967  0.6761
 2135TIP3    H1 6411   5.100   3.439   2.139 -1.6392  1.8687 -0.0497
 2135TIP3    H2 6412   5.108   3.305   2.069 -0.2329  1.2217  1.2863
 2136TIP3   OH2 6413   0.214   2.462   4.274  0.0905 -0.3672  0.0924
 2136TIP3    H1 6414   0.228   2.511   4.193 -0.2146  2.0537  1.4185
 2136TIP3    H2 6415   0.295   2.475   4.323 -0.3016 -0.5425  0.7943
 2137TIP3   OH2 6416   2.400   0.818   3.486  0.0966 -0.1852  0.2301
 2137TIP3    H1 6417   2.335   0.748   3.488 -0.5460  0.3697 -0.6242
 2137TIP3    H2 6418   2.454   0.803   3.563 -0.9126 -0.7766  0.8363
 2138TIP3   OH2 6419   2.394   3.078   0.564 -0.3128  0.5218 -0.2450
 2138TIP3    H1 6420   2.364   3.031   0.486 -0.8918  1.9850 -0.9600
 2138TIP3    H2 6421   2.417   3.165   0.531 -0.0755  1.0134  1.1477
 2139TIP3   OH2 6422   4.137   3.386   3.601 -0.9848 -0.5155  0.2542
 2139TIP3    H1 6423   4.116   3.479   3.586  1.6532  0.0569 -0.3031
 2139TIP3    H2 6424   4.218   3.372   3.553 -0.9014 -2.9379  1.0084
 2140TIP3   OH2 6425   1.238   1.509   1.848  0.6423 -0.4800  0.0171
 2140TIP3    H1 6426   1.277   1.453   1.781  3.4503  0.4380  0.7491
 2140TIP3    H2 6427   1.272   1.475   1.931  1.1518  1.3095  0.5941
 2141TIP3   OH2 6428   4.420   3.318   2.533  0.1477 -0.0373 -0.1005
 2141TIP3    H1 6429   4.461   3.241   2.495  0.3968 -0.7985  1.5926
 2141TIP3    H2 6430   4.475   3.340   2.608 -1.6158 -0.1223  1.3035
 2142TIP3   OH2 6431   5.923   3.077   4.847  0.1595  0.1977 -0.0949
 2142TIP3    H1 6432   5.884   3.158   4.879 -0.7156  0.1063 -0.8700
 2142TIP3    H2 6433   5.911   3.081   4.752  0.6902 -0.5416 -0.2012
 2143TIP3   OH2 6434   2.894   2.083   1.640  0.1454  0.3709 -0.6797
 2143TIP3    H1 6435   2.891   1.988   1.650 -0.6483  0.2183 -2.1385
 2143TIP3    H2 6436   2.882   2.098   1.546 -2.2548  2.0228 -0.1884
 2144TIP3   OH2 6437   1.374   4.414   0.359 -0.3773  0.1714  0.1952
 2144TIP3    H1 6438   1.450   4.420   0.418 -0.3269  0.5061  0.1010
 2144TIP3    H2 6439   1.372   4.323   0.331  0.2524  0.2592 -0.1493
 2145TIP3   OH2 6440   0.574   3.158   3.831 -0.4606 -0.5375  0.3375
 2145TIP3    H1 6441   0.596   3.169   3.739 -1.2926 -1.9188 -0.0529
 2145TIP3    H2 6442   0.577   3.246   3.867 -0.4456  0.0722 -1.0848
 2146TIP3   OH2 6443   1.180   3.021   4.121  0.0561  0.0160 -0.5185
 2146TIP3    H1 6444   1.122   3.056   4.189 -0.4715 -0.8658 -0.5011
 2146TIP3    H2 6445   1.264   3.009   4.164  0.0564  0.5918 -0.3459
 2147TIP3   OH2 6446   0.681   4.089   2.955  0.2403 -0.2751 -0.2582
 2147TIP3    H1 6447   0.722   4.159   3.007 -0.2106  1.8134 -2.4882
 2147TIP3    H2 6448   0.587   4.106   2.961 -0.0463 -2.0342  0.8487
 2148TIP3   OH2 6449   6.181   2.910   2.058  0.5516 -0.1130 -0.0193
 2148TIP3    H1 6450   6.088   2.915   2.036  0.6162 -0.2950 -0.3382
 2148TIP3    H2 6451   6.214   2.836   2.007  0.8195 -0.2024  0.2797
 2149TIP3   OH2 6452   0.513   2.479   1.548 -0.2592 -0.0816  0.4654
 2149TIP3    H1 6453   0.482   2.539   1.617  2.6794  1.5146  0.5822
 2149TIP3    H2 6454   0.547   2.537   1.480 -1.4482 -1.6590 -1.6054
 2150TIP3   OH2 6455   2.907   2.397   3.397 -0.0965  0.6032  0.3544
 2150TIP3    H1 6456   2.841   2.335   3.367  0.7621 -1.0117  1.6667
 2150TIP3    H2 6457   2.965   2.409   3.322  0.3003 -1.0004  0.3802
 2151TIP3   OH2 6458   5.797   5.461   4.461  0.1192  0.1145  0.0629
 2151TIP3    H1 6459   5.764   5.528   4.520  2.1683  0.7267  0.5764
 2151TIP3    H2 6460   5.820   5.508   4.381  2.9655  0.3955  0.9360
 2152TIP3   OH2 6461   1.370   2.344   0.701 -0.0910 -0.0233  0.3203
 2152TIP3    H1 6462   1.304   2.282   0.670  0.3460 -0.3009 -0.0701
 2152TIP3    H2 6463   1.335   2.430   0.677  0.2979 -0.2368 -1.0905
 2153TIP3   OH2 6464   5.946   3.941   0.406 -0.0683 -0.0166 -0.0673
 2153TIP3    H1 6465   5.960   4.019   0.353  1.9290  0.9070  1.6847
 2153TIP3    H2 6466   5.853   3.944   0.428 -0.8885 -0.2510 -3.1097
 2154TIP3   OH2 6467   5.646   4.513  -0.028 -0.6326  0.0668  0.2704
 2154TIP3    H1 6468   5.597   4.539   0.050 -1.9740 -1.9401  0.1895
 2154TIP3    H2 6469   5.696   4.436  -0.000  0.7944  0.7799 -0.2400
 2155TIP3   OH2 6470   2.398   3.949   2.041  0.0772 -0.7835 -0.1107
 2155TIP3    H1 6471   2.348   4.030   2.043  1.3702  0.0344  0.7064
 2155TIP3    H2 6472   2.457   3.959   1.966  0.5003 -0.7847  0.2153
 2156TIP3   OH2 6473   5.425   1.829   3.302 -0.1830  0.8180  0.0140
 2156TIP3    H1 6474   5.443   1.893   3.372  0.1726  1.0228 -0.2613
 2156TIP3    H2 6475   5.336   1.850   3.274  0.3749  2.0460 -0.9433
 2157TIP3   OH2 6476   4.518   4.961   2.687 -0.0279  0.2523 -0.5937
 2157TIP3    H1 6477   4.562   4.908   2.621  1.4037  0.5108  0.1221
 2157TIP3    H2 6478   4.550   5.050   2.672  0.4376  0.2848  0.5381
 2158TIP3   OH2 6479   4.237   5.598   3.826 -0.4496  0.3351 -0.7083
 2158TIP3    H1 6480   4.309   5.600   3.763 -1.6129  0.5726 -2.1021
 2158TIP3    H2 6481   4.261   5.530   3.888 -0.3707 -1.7723 -2.8770
 2159TIP3   OH2 6482   2.815   4.506   0.264 -0.7893  0.5890 -0.1421
 2159TIP3    H1 6483   2.817   4.592   0.222 -1.3603  1.1279  0.9182
 2159TIP3    H2 6484   2.898   4.465   0.238  0.4829  2.2856  1.0519
 2160TIP3   OH2 6485   4.806   1.088   1.926 -0.4336 -0.0065  0.3353
 2160TIP3    H1 6486   4.784   1.030   1.999 -0.7779 -0.4420 -0.1011
 2160TIP3    H2 6487   4.856   1.159   1.965  0.8790 -1.1170  0.7360
 2161TIP3   OH2 6488   5.642   4.285   4.707 -0.4565  0.5246  0.4269
 2161TIP3    H1 6489   5.672   4.293   4.617 -3.0380  0.8653 -0.4689
 2161TIP3    H2 6490   5.685   4.205   4.740  0.5017  0.3858 -1.0739
 2162TIP3   OH2 6491   3.808   2.684   1.351 -0.4700  0.1040 -0.2812
 2162TIP3    H1 6492   3.744   2.745   1.316 -0.7079  0.5939  0.9828
 2162TIP3    H2 6493   3.892   2.715   1.317 -0.7872 -0.0463 -1.2476
 2163TIP3   OH2 6494   3.780   1.811   1.344 -0.2608  0.4761  0.4852
 2163TIP3    H1 6495   3.830   1.729   1.346 -1.3832 -0.2135  0.7636
 2163TIP3    H2 6496   3.826   1.864   1.278  0.8310 -0.1308  0.7269
 2164TIP3   OH2 6497   1.702   3.124   2.631 -0.1919  0.0160  0.3124
 2164TIP3    H1 6498   1.705   3.030   2.649  0.1624  0.0881  0.6652
 2164TIP3    H2 6499   1.696   3.164   2.718 -2.5039  0.2629  0.1030
 2165TIP3   OH2 6500   5.930   2.607   0.255  0.1258 -0.8487 -0.5734
 2165TIP3    H1 6501   5.963   2.564   0.334  0.5179  1.8688  0.8680
 2165TIP3    H2 6502   5.878   2.680   0.287  1.1070  0.9509 -2.7900
 2166TIP3   OH2 6503   2.264   4.428   0.917  0.0632  0.1216  0.1637
 2166TIP3    H1 6504   2.199   4.389   0.976  0.7984  1.1566  1.7189
 2166TIP3    H2 6505   2.302   4.501   0.966  1.7308  0.1563 -1.0516
 2167TIP3   OH2 6506   4.239   3.528   2.871  0.0041 -0.0971  0.0793
 2167TIP3    H1 6507   4.209   3.585   2.942 -0.1793  0.9757 -0.8290
 2167TIP3    H2 6508   4.186   3.449   2.879  0.3702 -0.2192  1.4581
 2168TIP3   OH2 6509   0.291   5.815   3.419  0.1817  0.3136  0.0932
 2168TIP3    H1 6510   0.270   5.729   3.456  1.3710  0.5463  1.4311
 2168TIP3    H2 6511   0.379   5.805   3.384  0.6239  1.1473  0.9167
 2169TIP3   OH2 6512   2.482   5.550   3.530  0.1217  0.1646 -0.2142
 2169TIP3    H1 6513   2.424   5.487   3.485  0.0812  0.7811 -1.0365
 2169TIP3    H2 6514   2.546   5.575   3.464  0.2367  0.8720  0.1627
 2170TIP3   OH2 6515   4.267   1.274   3.052 -0.3918 -0.0091  0.5084
 2170TIP3    H1 6516   4.249   1.249   3.143  2.1656 -2.5238  0.4681
 2170TIP3    H2 6517   4.362   1.282   3.047 -0.4543  0.1639 -1.9301
 2171TIP3   OH2 6518   2.110   5.485   2.610  0.3487  0.1670  0.0421
 2171TIP3    H1 6519   2.111   5.579   2.623  2.0559  0.6420 -2.7686
 2171TIP3    H2 6520   2.174   5.452   2.674  2.1440  1.3400 -1.0555
 2172TIP3   OH2 6521   1.118   5.142   4.796 -0.7756 -0.0357 -0.4272
 2172TIP3    H1 6522   1.150   5.162   4.709 -0.2674  0.2595 -0.1773
 2172TIP3    H2 6523   1.173   5.194   4.855  0.0455 -1.5335  0.1974
 2173TIP3   OH2 6524   1.850   3.411   3.661 -0.0560 -0.1034 -0.5964
 2173TIP3    H1 6525   1.791   3.450   3.725 -0.9202 -2.3123  0.0447
 2173TIP3    H2 6526   1.921   3.374   3.713 -0.6076 -1.6516 -0.8907
 2174TIP3   OH2 6527   2.896   1.724   3.453 -0.1947 -0.6498 -0.0084
 2174TIP3    H1 6528   2.896   1.808   3.500  0.1513 -0.5231 -0.2342
 2174TIP3    H2 6529   2.932   1.744   3.367  0.0855 -1.0689  0.0067
 2175TIP3   OH2 6530   0.946   1.810   4.666 -0.0463  0.0448 -0.2021
 2175TIP3    H1 6531   0.991   1.726   4.656  2.1423  1.3647 -2.1520
 2175TIP3    H2 6532   0.872   1.805   4.605 -0.0956 -0.5476 -0.1019
 2176TIP3   OH2 6533   1.025   3.059   0.847 -0.0015 -0.7716  0.2511
 2176TIP3    H1 6534   1.080   3.116   0.793 -0.4646 -1.1424 -0.6317
 2176TIP3    H2 6535   0.936   3.079   0.818 -0.4087  0.1798  1.9945
 2177TIP3   OH2 6536   4.905   3.137   4.182 -0.3603 -0.5566 -0.4629
 2177TIP3    H1 6537   4.967   3.197   4.141 -0.4839  0.2063  0.4336
 2177TIP3    H2 6538   4.957   3.086   4.244 -0.7762  1.0300  1.3177
 2178TIP3   OH2 6539   2.077   3.352   3.810  0.1419  0.0720 -0.0368
 2178TIP3    H1 6540   2.049   3.345   3.901 -1.5136  0.6786 -0.4687
 2178TIP3    H2 6541   2.135   3.277   3.797  1.9451  0.9913  2.0160
 2179TIP3   OH2 6542   1.362   4.046   1.081 -0.6404 -0.6824  0.4055
 2179TIP3    H1 6543   1.369   3.981   1.011  0.8897 -1.4541  1.2213
 2179TIP3    H2 6544   1.380   4.129   1.039 -0.3976 -1.0617 -0.2479
 2180TIP3   OH2 6545   6.255   0.143   1.015  0.2749  0.0329  0.0556
 2180TIP3    H1 6546   6.184   0.122   1.076  0.3539 -1.0381 -0.2049
 2180TIP3    H2 6547   6.232   0.230   0.981 -1.0197 -0.3815 -0.1876
 2181TIP3   OH2 6548   1.489   5.393   1.870 -0.0639  0.3305  0.0840
 2181TIP3    H1 6549   1.509   5.301   1.854  0.4662  0.3245  0.7587
 2181TIP3    H2 6550   1.394   5.394   1.886 -0.0591 -0.1063  0.1505
 2182TIP3   OH2 6551   5.671   1.691   2.188 -0.4871  0.3800  0.3863
 2182TIP3    H1 6552   5.713   1.662   2.107  1.9208  1.0364  1.2977
 2182TIP3    H2 6553   5.649   1.783   2.172  0.2792  0.6021  0.5424
 2183TIP3   OH2 6554   1.359   0.770   0.880 -0.0957 -0.0139  0.0670
 2183TIP3    H1 6555   1.391   0.726   0.959  0.8732  0.1484 -0.2312
 2183TIP3    H2 6556   1.433   0.823   0.850  0.0651 -1.2374 -1.8146
 2184TIP3   OH2 6557   4.768   4.395   4.835 -0.6471 -0.6148 -0.3079
 2184TIP3    H1 6558   4.770   4.373   4.742 -2.0183  0.5340 -0.6334
 2184TIP3    H2 6559   4.853   4.435   4.852 -0.9783  0.6489 -1.4683
 2185TIP3   OH2 6560   4.458   5.169   2.084 -0.5700 -0.3732  0.5616
 2185TIP3    H1 6561   4.363   5.179   2.084 -1.0581 -3.4935 -2.2109
 2185TIP3    H2 6562   4.475   5.102   2.151 -0.2006  0.6425  1.5095
 2186TIP3   OH2 6563   5.932   0.966   2.497  0.0125 -0.5689  0.4019
 2186TIP3    H1 6564   5.866   1.029   2.466  1.5051  2.5220  2.9332
 2186TIP3    H2 6565   5.889   0.921   2.570 -0.6093 -1.5686 -0.5588
 2187TIP3   OH2 6566   0.181   2.222   2.659  0.3451  0.4998  0.1375
 2187TIP3    H1 6567   0.258   2.173   2.630 -0.5767 -1.6832  1.1637
 2187TIP3    H2 6568   0.215   2.308   2.684  2.3781 -0.2619  0.1626
 2188TIP3   OH2 6569   4.799   1.722   1.462  0.2065 -0.2602  0.5603
 2188TIP3    H1 6570   4.720   1.688   1.503  0.1428 -2.3456 -1.0749
 2188TIP3    H2 6571   4.852   1.755   1.534  0.2536 -3.9473  2.4618
 2189TIP3   OH2 6572   4.978   4.305   2.288  0.3650  0.1147  0.6433
 2189TIP3    H1 6573   5.026   4.311   2.370 -0.1123 -1.1005  1.0318
 2189TIP3    H2 6574   5.046   4.292   2.221  0.6858  0.1111  0.9707
 2190TIP3   OH2 6575   4.376   4.200   4.829 -0.1904  0.1244  0.4830
 2190TIP3    H1 6576   4.415   4.124   4.872  0.7801  0.7593  0.7620
 2190TIP3    H2 6577   4.299   4.165   4.784  1.4770 -1.5125 -1.3281
 2191TIP3   OH2 6578   5.938   2.485   4.720  0.6159 -0.2633 -0.0813
 2191TIP3    H1 6579   5.917   2.510   4.630 -1.0086 -0.9122  0.0839
 2191TIP3    H2 6580   5.953   2.568   4.765 -1.0235  0.2273 -0.3928
 2192TIP3   OH2 6581   3.415   0.367   3.404  0.7116  0.0553 -0.4534
 2192TIP3    H1 6582   3.485   0.342   3.465  0.0084 -0.0418  0.3269
 2192TIP3    H2 6583   3.444   0.450   3.368  1.0248  0.2434  0.2089
 2193TIP3   OH2 6584   1.570   0.370   1.423  1.0355 -0.1581  0.5820
 2193TIP3    H1 6585   1.659   0.338   1.402  1.5451  0.2514  2.0051
 2193TIP3    H2 6586   1.582   0.423   1.501 -0.7812 -1.8777  2.1337
 2194TIP3   OH2 6587   2.268   4.803   0.481  0.3353 -0.0880 -0.3498
 2194TIP3    H1 6588   2.288   4.713   0.504  1.9662  0.4760  0.5948
 2194TIP3    H2 6589   2.236   4.842   0.562  0.8051  0.4890 -0.4340
 2195TIP3   OH2 6590   0.950   5.632   4.268 -0.0189 -0.4871 -0.6318
 2195TIP3    H1 6591   0.868   5.602   4.306 -0.1112 -1.7460 -1.7737
 2195TIP3    H2 6592   0.958   5.584   4.185  0.8808  1.1007 -1.5194
 2196TIP3   OH2 6593   4.726   2.756   0.617  0.2809  0.2279  0.4634
 2196TIP3    H1 6594   4.732   2.666   0.649  2.5409 -0.1903 -0.9093
 2196TIP3    H2 6595   4.703   2.746   0.525  0.2418  1.0653  0.3791
 2197TIP3   OH2 6596   5.704   2.902   2.105  0.1080  0.5413  0.0361
 2197TIP3    H1 6597   5.689   2.841   2.177 -1.5780  1.4665  0.5467
 2197TIP3    H2 6598   5.768   2.965   2.140 -0.3773  0.7388  0.5871
 2198TIP3   OH2 6599   1.580   2.669   3.262 -0.5491  0.1370 -0.2754
 2198TIP3    H1 6600   1.630   2.725   3.322  1.8733 -0.1962 -1.8086
 2198TIP3    H2 6601   1.516   2.624   3.318 -1.0246  2.6625  1.3609
 2199TIP3   OH2 6602   0.584   0.852   3.068  0.5598 -0.6448  0.4406
 2199TIP3    H1 6603   0.533   0.812   3.138  2.0260 -0.8799  1.4256
 2199TIP3    H2 6604   0.645   0.783   3.041  2.5837  0.5985  1.6089
 2200TIP3   OH2 6605   2.907   0.493   4.874  0.8236 -0.2760 -0.1415
 2200TIP3    H1 6606   2.867   0.407   4.888  0.5315 -0.3657 -1.4656
 2200TIP3    H2 6607   3.001   0.476   4.870  1.0194 -0.1612  2.2285
 2201TIP3   OH2 6608   0.501   5.305   1.522  0.1134 -0.7724 -0.4006
 2201TIP3    H1 6609   0.417   5.267   1.496 -0.4484 -0.5950  1.1213
 2201TIP3    H2 6610   0.479   5.390   1.560  0.7910 -1.3841  1.4520
 2202TIP3   OH2 6611   4.847   0.593   4.992 -0.5444 -0.0917 -0.2521
 2202TIP3    H1 6612   4.763   0.547   4.991 -0.9154  0.5135  0.8682
 2202TIP3    H2 6613   4.912   0.524   4.984 -1.1369 -0.5527 -1.3914
 2203TIP3   OH2 6614   4.952   5.838   1.929 -0.0475 -0.7090 -0.3420
 2203TIP3    H1 6615   4.901   5.813   1.852  1.1647  0.1720 -1.4645
 2203TIP3    H2 6616   5.042   5.811   1.908  0.3109 -0.4135  0.7466
 2204TIP3   OH2 6617   6.126   5.539   4.306  0.0194 -0.4975 -0.0627
 2204TIP3    H1 6618   6.106   5.581   4.389  0.5222 -0.0741 -0.1502
 2204TIP3    H2 6619   6.042   5.532   4.262 -0.0814  0.3808 -0.0219
 2205TIP3   OH2 6620   1.190   3.784   5.033 -0.5893  0.5778  0.9991
 2205TIP3    H1 6621   1.197   3.862   4.978 -0.9661  0.1785  0.3658
 2205TIP3    H2 6622   1.280   3.765   5.061 -0.5854  1.6480  1.7560
 2206TIP3   OH2 6623   3.181   4.740   0.079 -0.1183 -0.5570  0.3735
 2206TIP3    H1 6624   3.203   4.720   0.170 -0.0577  1.7627  0.9244
 2206TIP3    H2 6625   3.216   4.828   0.064  0.9523 -1.3441 -2.3046
 2207TIP3   OH2 6626   2.320   0.117   0.469  0.1237 -0.2089 -0.3317
 2207TIP3    H1 6627   2.379   0.167   0.414  1.6822 -1.5331  0.0499
 2207TIP3    H2 6628   2.377   0.057   0.517 -1.4667 -1.0517  0.5999
 2208TIP3   OH2 6629   4.993   1.851   2.357 -0.1281  0.0611  0.2542
 2208TIP3    H1 6630   4.975   1.837   2.264  1.1296  0.6719 -0.1055
 2208TIP3    H2 6631   5.076   1.806   2.372 -0.4729 -0.2920  1.1657
 2209TIP3   OH2 6632   0.876   0.394   0.128 -0.3640 -0.0407 -0.1016
 2209TIP3    H1 6633   0.858   0.342   0.207 -1.3017  1.9987  1.1018
 2209TIP3    H2 6634   0.960   0.436   0.146 -0.6143  0.4844 -0.1512
 2210TIP3   OH2 6635   2.907   4.074   2.516  0.4092  0.0232  0.5357
 2210TIP3    H1 6636   2.929   4.073   2.610 -2.0912 -0.9609  1.1714
 2210TIP3    H2 6637   2.875   4.163   2.500 -1.2646 -0.4182  1.2067
 2211TIP3   OH2 6638   5.766   4.173   4.122  0.5630 -0.7233  0.1876
 2211TIP3    H1 6639   5.724   4.094   4.155  0.1224 -0.5569  0.0305
 2211TIP3    H2 6640   5.734   4.182   4.033 -0.5610  0.4325  0.6649
 2212TIP3   OH2 6641   0.466   4.443   5.151  0.1247 -0.3308 -0.1364
 2212TIP3    H1 6642   0.461   4.494   5.070  2.8886  0.3062  0.0134
 2212TIP3    H2 6643   0.474   4.509   5.220  0.6386 -0.9008  0.3649
 2213TIP3   OH2 6644   4.582   2.562   3.871 -0.2593 -0.6991 -0.0993
 2213TIP3    H1 6645   4.595   2.541   3.779 -0.3481  1.2461 -0.5909
 2213TIP3    H2 6646   4.512   2.627   3.872  0.6542  0.3420  1.1983
 2214TIP3   OH2 6647   3.119   2.895   4.898  0.4273  0.7035 -0.2031
 2214TIP3    H1 6648   3.047   2.842   4.865 -0.5343  2.2393 -0.6837
 2214TIP3    H2 6649   3.198   2.845   4.877 -0.4876 -2.6393  3.2254
 2215TIP3   OH2 6650   4.689   1.811   1.720 -0.0885  0.2158 -0.4022
 2215TIP3    H1 6651   4.646   1.847   1.642  2.0672  0.2880 -1.6149
 2215TIP3    H2 6652   4.780   1.839   1.713  0.3454 -0.4628  1.7513
 2216TIP3   OH2 6653   5.413   0.736   3.011  0.1542  0.2727 -0.0871
 2216TIP3    H1 6654   5.459   0.739   3.094  1.8600  0.8827 -1.0006
 2216TIP3    H2 6655   5.457   0.667   2.961 -0.6229  0.1429 -0.6280
 2217TIP3   OH2 6656   5.228   1.390   2.993  0.3437 -0.3497  0.4125
 2217TIP3    H1 6657   5.252   1.379   3.085  0.3998 -0.1391  0.4240
 2217TIP3    H2 6658   5.182   1.309   2.970  1.7467 -1.1058  0.1635
 2218TIP3   OH2 6659   2.765   3.847   4.241 -0.0582 -0.7362 -0.3331
 2218TIP3    H1 6660   2.747   3.941   4.232 -1.5144 -0.8915  0.6540
 2218TIP3    H2 6661   2.775   3.833   4.335 -0.5654 -1.6827 -0.4064
 2219TIP3   OH2 6662   1.300   5.548   1.109 -0.2795 -0.1674 -0.3059
 2219TIP3    H1 6663   1.215   5.535   1.151  0.3734 -1.9012  0.5866
 2219TIP3    H2 6664   1.285   5.523   1.018 -0.7631 -0.2624 -0.2062
 2220TIP3   OH2 6665   2.698   1.775   4.407  0.0497 -0.2290 -0.6912
 2220TIP3    H1 6666   2.768   1.711   4.420  0.9145  0.6260 -1.0430
 2220TIP3    H2 6667   2.644   1.737   4.337 -0.6129 -1.5070  0.4715
 2221TIP3   OH2 6668   2.930   5.627   4.060 -0.2138 -0.2516  0.6874
 2221TIP3    H1 6669   3.012   5.583   4.080 -0.6364 -0.5075  1.9012
 2221TIP3    H2 6670   2.956   5.715   4.032  0.4763 -0.3697  0.9435
 2222TIP3   OH2 6671   4.168   5.005   0.250  0.6252 -0.4358 -0.8922
 2222TIP3    H1 6672   4.199   4.915   0.245  0.6761 -0.6176  1.6327
 2222TIP3    H2 6673   4.245   5.055   0.279  0.0545  0.0545 -0.2093
 2223TIP3   OH2 6674   2.686   0.270   4.739  0.2621 -0.3131 -0.0198
 2223TIP3    H1 6675   2.606   0.227   4.770 -0.8634  1.1254 -0.8647
 2223TIP3    H2 6676   2.705   0.228   4.655 -0.4620  0.3489 -0.5269
 2224TIP3   OH2 6677   1.852   0.849   3.011 -0.0331  0.3963  0.3260
 2224TIP3    H1 6678   1.878   0.830   2.921 -1.0361  0.1121  0.0833
 2224TIP3    H2 6679   1.897   0.782   3.064  0.5221  0.5372  0.0422
 2225TIP3   OH2 6680   3.379   5.664   2.606  0.6756  0.3342  0.1309
 2225TIP3    H1 6681   3.366   5.597   2.673 -0.4350  0.1098 -0.2772
 2225TIP3    H2 6682   3.460   5.637   2.561  1.8444  0.9068  1.8145
 2226TIP3   OH2 6683   5.909   0.154   2.025  0.0497 -0.3571 -0.4622
 2226TIP3    H1 6684   5.980   0.134   1.964  0.3559 -1.7645  0.3087
 2226TIP3    H2 6685   5.850   0.079   2.019 -0.5372  0.0466  0.0848
 2227TIP3   OH2 6686   0.462   5.464   0.972  0.2097  0.0061 -0.3291
 2227TIP3    H1 6687   0.520   5.540   0.959  2.0327 -1.0415  1.2168
 2227TIP3    H2 6688   0.513   5.389   0.944 -1.3123 -0.7718 -1.1661
 2228TIP3   OH2 6689   2.492   0.185   3.609  0.0231  0.8823  0.2841
 2228TIP3    H1 6690   2.580   0.221   3.607  0.5551 -0.3355  0.7131
 2228TIP3    H2 6691   2.504   0.094   3.637 -1.3982  0.8080  0.7471
 2229TIP3   OH2 6692   0.094   2.243   0.990  0.3115  0.0874  0.2069
 2229TIP3    H1 6693   0.022   2.220   0.931 -0.8548  1.3806  1.0735
 2229TIP3    H2 6694   0.108   2.165   1.043 -1.2747  0.1975  0.8261
 2230TIP3   OH2 6695   5.640   4.207   0.120  0.0541  0.0791 -0.0910
 2230TIP3    H1 6696   5.579   4.274   0.152  0.2606  0.4823 -0.5359
 2230TIP3    H2 6697   5.603   4.178   0.037 -1.7080 -2.5745  1.4551
 2231TIP3   OH2 6698   4.138   5.731   0.674 -0.0966 -0.1118 -0.1403
 2231TIP3    H1 6699   4.152   5.821   0.702 -1.2035 -0.2603  0.9566
 2231TIP3    H2 6700   4.164   5.731   0.582 -0.1233  1.3441 -0.1742
 2232TIP3   OH2 6701   2.502   4.153   5.161 -0.4181  0.0540 -0.7707
 2232TIP3    H1 6702   2.477   4.128   5.072  0.7841 -1.2646 -0.7690
 2232TIP3    H2 6703   2.575   4.095   5.183 -0.6317  0.4090  1.0444
 2233TIP3   OH2 6704   0.817   3.319   0.182  0.3116  0.4109  0.1541
 2233TIP3    H1 6705   0.890   3.380   0.173  0.2764  0.5954  1.0456
 2233TIP3    H2 6706   0.814   3.298   0.275 -0.8969  0.5612  0.1628
 2234TIP3   OH2 6707   1.434   5.652   2.389 -0.4805 -0.7170 -0.2980
 2234TIP3    H1 6708   1.524   5.665   2.358  1.2445 -2.8932  3.0597
 2234TIP3    H2 6709   1.387   5.730   2.361  2.6964  0.9579 -1.4929
 2235TIP3   OH2 6710   2.082   0.152   4.955 -0.6838  0.4022  0.3657
 2235TIP3    H1 6711   2.022   0.109   5.016 -1.2353  1.1434  0.3554
 2235TIP3    H2 6712   2.080   0.244   4.980 -0.2213  0.5717 -0.1998
 2236TIP3   OH2 6713   4.605   3.311   1.662  0.3083 -0.2030 -0.1405
 2236TIP3    H1 6714   4.537   3.257   1.622 -0.7010  0.8243  0.1306
 2236TIP3    H2 6715   4.619   3.382   1.599  1.8999 -0.9578 -0.6762
 2237TIP3   OH2 6716   2.471   5.771   0.480  0.0163  0.1745  0.3720
 2237TIP3    H1 6717   2.445   5.687   0.518  0.8430 -0.5499 -0.6148
 2237TIP3    H2 6718   2.452   5.762   0.387 -0.6302  1.3928  0.3547
 2238TIP3   OH2 6719   2.669   4.490   3.567 -0.6119  0.5094 -0.2230
 2238TIP3    H1 6720   2.636   4.580   3.571 -2.2571 -0.0567 -0.3493
 2238TIP3    H2 6721   2.623   4.451   3.493 -0.8244 -0.7750  0.5583
 2239TIP3   OH2 6722   4.261   0.344   3.443  0.0780  0.0523 -0.2456
 2239TIP3    H1 6723   4.249   0.302   3.358 -2.5687  1.6120 -0.7708
 2239TIP3    H2 6724   4.218   0.285   3.505  2.8500 -1.5735  0.2747
 2240TIP3   OH2 6725   1.731   5.319   3.504 -0.2543 -0.0097 -0.1617
 2240TIP3    H1 6726   1.700   5.271   3.581  0.4060  0.1503  0.2034
 2240TIP3    H2 6727   1.729   5.254   3.434  1.6312 -0.8961  0.5427
 2241TIP3   OH2 6728   3.797   5.218   4.045 -0.4836  0.0657  0.1834
 2241TIP3    H1 6729   3.816   5.263   3.962 -1.4641 -0.1420 -0.1709
 2241TIP3    H2 6730   3.873   5.161   4.059  1.0529  2.1813  0.9250
 2242TIP3   OH2 6731   0.213  -0.012   0.566  0.6856  0.3066 -0.1000
 2242TIP3    H1 6732   0.219   0.045   0.489 -0.5790  0.5602 -0.0335
 2242TIP3    H2 6733   0.148   0.031   0.622 -1.0643 -1.6945 -0.4934
 2243TIP3   OH2 6734   3.960   5.614   3.822  0.0894  0.0101 -0.4291
 2243TIP3    H1 6735   4.054   5.610   3.803  0.1946  1.3958 -0.2369
 2243TIP3    H2 6736   3.954   5.597   3.916  0.4259  2.6763  0.1325
 2244TIP3   OH2 6737   2.374   5.891   3.803 -0.4914 -0.0842  0.1789
 2244TIP3    H1 6738   2.423   5.890   3.721 -1.5394 -2.0860 -0.4850
 2244TIP3    H2 6739   2.439   5.872   3.871  0.4477  1.9120 -0.0898
 2245TIP3   OH2 6740   2.077   3.853   3.136 -0.4846  0.4316  0.3038
 2245TIP3    H1 6741   2.149   3.861   3.198 -0.8196 -0.5408  0.8354
 2245TIP3    H2 6742   2.092   3.769   3.092 -0.8759  0.5776 -0.1169
 2246TIP3   OH2 6743   0.935   2.839   2.504  0.5774 -0.0755 -0.6373
 2246TIP3    H1 6744   0.896   2.892   2.575 -1.3405 -2.9260  0.6042
 2246TIP3    H2 6745   1.025   2.870   2.499 -0.3370  3.1238  0.1047
 2247TIP3   OH2 6746   5.967   5.086   0.987 -0.4321  0.1623 -0.0358
 2247TIP3    H1 6747   5.903   5.088   0.916  0.1806 -1.7150 -0.7189
 2247TIP3    H2 6748   5.988   5.177   1.003 -2.0691  0.7333 -0.8948
 2248TIP3   OH2 6749   2.073   4.067   0.416 -0.2167  0.2764  0.1464
 2248TIP3    H1 6750   2.026   4.011   0.478  0.9973  0.9831  1.7819
 2248TIP3    H2 6751   2.154   4.020   0.397  0.5317  1.1435  1.0599
 2249TIP3   OH2 6752   3.060   1.356   0.606  0.3957  0.2910 -0.0092
 2249TIP3    H1 6753   3.109   1.330   0.528  0.0050  0.1366 -0.2048
 2249TIP3    H2 6754   2.971   1.325   0.590 -0.2167  2.1588 -0.4663
 2250TIP3   OH2 6755   1.118   3.771   1.697 -0.1534  0.2627  0.3669
 2250TIP3    H1 6756   1.029   3.737   1.698 -0.5332  1.1479 -0.7405
 2250TIP3    H2 6757   1.156   3.736   1.616 -0.0042  1.0937  0.0707
 2251TIP3   OH2 6758   2.280   5.058   4.944  0.5015  0.1779 -0.2275
 2251TIP3    H1 6759   2.238   5.128   4.995 -0.0452 -0.9182  0.8877
 2251TIP3    H2 6760   2.288   4.986   5.006 -0.5814 -1.3823 -1.8389
 2252TIP3   OH2 6761   5.835   4.439   2.618 -0.1232 -0.8095 -0.1799
 2252TIP3    H1 6762   5.839   4.449   2.523 -1.6074  0.3588 -0.1574
 2252TIP3    H2 6763   5.774   4.367   2.632 -0.7780 -0.2586 -0.1216
 2253TIP3   OH2 6764   3.971   3.462   0.037  0.4278 -0.5131  0.7773
 2253TIP3    H1 6765   4.027   3.400   0.085  3.0320 -0.4870 -1.9342
 2253TIP3    H2 6766   4.007   3.548   0.058  1.4262 -0.4846 -0.8417
 2254TIP3   OH2 6767   2.689   4.128   4.375 -0.6325 -0.1226  0.1596
 2254TIP3    H1 6768   2.763   4.151   4.432  0.7784 -0.2400 -1.5358
 2254TIP3    H2 6769   2.640   4.062   4.425  1.0599 -0.8825  0.8975
 2255TIP3   OH2 6770   1.934   2.759   0.007 -0.5251 -0.2073 -0.7623
 2255TIP3    H1 6771   1.861   2.745   0.067 -1.6577  0.0649 -2.0482
 2255TIP3    H2 6772   1.956   2.852   0.017 -0.7701 -0.1418 -0.8376
 2256TIP3   OH2 6773   3.935   0.855   1.097 -0.6039 -0.0789 -0.9046
 2256TIP3    H1 6774   3.850   0.868   1.055 -0.9717  0.4935 -0.0277
 2256TIP3    H2 6775   3.914   0.814   1.181  0.0725 -0.7994 -1.0782
 2257TIP3   OH2 6776   4.975   1.404   0.536 -0.5437 -0.1586  0.1644
 2257TIP3    H1 6777   4.954   1.409   0.442  3.2777  0.2117 -0.8664
 2257TIP3    H2 6778   5.032   1.327   0.543 -0.5478 -0.0201  2.1485
 2258TIP3   OH2 6779   4.440   3.654   2.529 -0.5451  0.0805 -0.6093
 2258TIP3    H1 6780   4.377   3.587   2.504 -0.4537 -0.8163  1.3915
 2258TIP3    H2 6781   4.525   3.620   2.500 -0.6217 -0.1415 -0.5712
 2259TIP3   OH2 6782   4.024   4.803   2.061 -0.2364  0.3958  0.0694
 2259TIP3    H1 6783   3.981   4.725   2.026 -0.1398  0.3056  0.1496
 2259TIP3    H2 6784   4.095   4.769   2.115 -0.0420  0.5437 -0.0912
 2260TIP3   OH2 6785   1.572   5.743   3.505 -0.5245  0.2011  0.0301
 2260TIP3    H1 6786   1.558   5.832   3.538 -2.8968 -0.6158  1.4299
 2260TIP3    H2 6787   1.647   5.711   3.555  0.3867  1.3860 -0.5177
 2261TIP3   OH2 6788   5.432   1.669   1.808 -0.2129  0.4105 -0.1619
 2261TIP3    H1 6789   5.481   1.651   1.727 -1.2320 -0.8452 -0.5359
 2261TIP3    H2 6790   5.481   1.739   1.850  0.4781  0.9402 -1.7536
 2262TIP3   OH2 6791   4.345   3.231   4.326 -0.2983  0.1717  0.2824
 2262TIP3    H1 6792   4.323   3.240   4.419  0.1100 -0.0030  0.4017
 2262TIP3    H2 6793   4.278   3.281   4.280 -1.5162 -1.1653  0.5574
 2263TIP3   OH2 6794   1.063   3.997   1.182  0.7404 -0.3736 -0.4863
 2263TIP3    H1 6795   1.020   4.009   1.267  0.0259  0.5994 -0.9730
 2263TIP3    H2 6796   1.145   4.046   1.190  1.0107 -0.8658 -0.1310
 2264TIP3   OH2 6797   4.985   1.168   3.003  0.0235 -0.1805  0.2238
 2264TIP3    H1 6798   5.013   1.082   3.036 -1.9210 -1.4363 -1.1612
 2264TIP3    H2 6799   4.936   1.148   2.923  0.8242  2.3753 -1.0259
 2265TIP3   OH2 6800   3.712   1.559   0.787  0.2671 -0.3982 -0.5021
 2265TIP3    H1 6801   3.725   1.608   0.869  1.2777 -0.0771 -0.8389
 2265TIP3    H2 6802   3.710   1.468   0.815 -2.7561 -0.2091  0.2782
 2266TIP3   OH2 6803   2.759   1.687   2.933  0.1101 -0.5082  0.6219
 2266TIP3    H1 6804   2.720   1.700   3.019  1.4156 -0.2217  1.2019
 2266TIP3    H2 6805   2.820   1.761   2.923  1.4982 -1.6425  0.3576
 2267TIP3   OH2 6806   5.744   1.922   3.305 -0.8002  0.6540 -0.2200
 2267TIP3    H1 6807   5.768   1.907   3.214  0.1147  0.0091  0.1166
 2267TIP3    H2 6808   5.723   1.835   3.339  1.1967  0.5333  0.8217
 2268TIP3   OH2 6809   0.130   1.241   5.100 -0.3091 -0.4562 -0.1386
 2268TIP3    H1 6810   0.040   1.209   5.101 -0.9706  1.3271  0.7064
 2268TIP3    H2 6811   0.123   1.331   5.070  1.2673 -0.4420 -0.5271
 2269TIP3   OH2 6812   4.890   4.940   2.891  0.1314 -0.2110 -0.4303
 2269TIP3    H1 6813   4.922   5.025   2.922  2.5575 -1.3908  0.6174
 2269TIP3    H2 6814   4.922   4.934   2.801  0.6220 -0.2893 -0.2578
 2270TIP3   OH2 6815   2.756   4.009   5.170  0.3940  0.3729  0.1804
 2270TIP3    H1 6816   2.790   3.950   5.102  0.3436 -0.0219  0.4985
 2270TIP3    H2 6817   2.778   3.966   5.253 -0.9486  0.0750  0.4000
 2271TIP3   OH2 6818   5.248   1.758   2.315 -0.1298  0.0894  0.8140
 2271TIP3    H1 6819   5.297   1.702   2.254 -0.1078 -0.2186  1.1121
 2271TIP3    H2 6820   5.250   1.845   2.274 -1.1429 -0.3480 -0.2244
 2272TIP3   OH2 6821   0.303   2.084   1.697 -0.3692 -0.1365 -0.3297
 2272TIP3    H1 6822   0.216   2.080   1.736 -0.5304 -0.6025 -0.7264
 2272TIP3    H2 6823   0.303   2.167   1.649  0.1788  0.9335  1.4326
 2273TIP3   OH2 6824   1.889   2.266   0.530 -0.2497  0.4360  0.3214
 2273TIP3    H1 6825   1.884   2.313   0.447 -2.0022 -1.0663 -0.4873
 2273TIP3    H2 6826   1.823   2.307   0.586 -2.1964 -1.3180 -0.5835
 2274TIP3   OH2 6827   0.758   3.159   0.764 -0.0743  0.0233 -0.0837
 2274TIP3    H1 6828   0.689   3.097   0.787 -1.7343  1.6770 -0.3930
 2274TIP3    H2 6829   0.741   3.236   0.818  1.5060  0.5154 -0.2176
 2275TIP3   OH2 6830   6.161   0.143   3.473 -0.4041 -0.3156 -0.3283
 2275TIP3    H1 6831   6.197   0.097   3.549  0.5996  0.0479 -0.5680
 2275TIP3    H2 6832   6.138   0.230   3.507 -3.3695 -1.2742  0.4029
 2276TIP3   OH2 6833   5.278   2.313   3.246 -0.1462 -0.1136 -0.1118
 2276TIP3    H1 6834   5.255   2.390   3.194 -0.2816 -0.4762 -0.5851
 2276TIP3    H2 6835   5.373   2.314   3.249 -0.1559  0.3470  0.2999
 2277TIP3   OH2 6836   1.539   4.785   0.172  0.2302 -0.0494 -0.2652
 2277TIP3    H1 6837   1.542   4.744   0.259  0.2538 -0.1658 -0.3208
 2277TIP3    H2 6838   1.628   4.777   0.138  0.0658 -0.6249 -0.5842
 2278TIP3   OH2 6839   6.095   2.414   3.867 -0.2107  0.1207  0.5659
 2278TIP3    H1 6840   6.163   2.378   3.925 -1.4939 -2.0884  0.8142
 2278TIP3    H2 6841   6.016   2.415   3.921 -0.9746 -0.0117 -0.5305
 2279TIP3   OH2 6842   3.557   0.204   2.092  0.0381  0.2788 -0.1226
 2279TIP3    H1 6843   3.472   0.241   2.071 -0.5339 -0.7103  0.3840
 2279TIP3    H2 6844   3.540   0.145   2.166  1.0429 -0.4306 -0.4399
 2280TIP3   OH2 6845   3.281   1.080   0.567 -0.0204  0.3121 -0.4105
 2280TIP3    H1 6846   3.232   1.023   0.626  1.2969  0.0227  0.4405
 2280TIP3    H2 6847   3.359   1.030   0.544  0.8301  1.4851 -0.1799
 2281TIP3   OH2 6848   4.616   3.535   5.044 -0.1984  0.1726 -1.2415
 2281TIP3    H1 6849   4.563   3.609   5.015 -1.1999 -0.6681 -1.6137
 2281TIP3    H2 6850   4.591   3.522   5.136  0.5843  0.7924 -0.9261
 2282TIP3   OH2 6851   1.894   3.850   2.463  0.2862 -0.2197 -0.4193
 2282TIP3    H1 6852   1.916   3.842   2.370 -0.1481 -0.1435 -0.5330
 2282TIP3    H2 6853   1.798   3.846   2.465  0.3103 -0.7193  0.0701
 2283TIP3   OH2 6854   5.796   2.236   3.796 -0.0979  0.0950 -0.2966
 2283TIP3    H1 6855   5.753   2.177   3.734 -1.4726 -0.0096  0.7298
 2283TIP3    H2 6856   5.879   2.259   3.753 -0.5005 -0.8757 -1.6543
 2284TIP3   OH2 6857   6.316   2.798   4.523  0.2685  0.8880  0.8511
 2284TIP3    H1 6858   6.359   2.767   4.443 -0.1958 -0.4625  1.0943
 2284TIP3    H2 6859   6.345   2.888   4.532  0.8171  0.8795 -0.5119
 2285TIP3   OH2 6860   0.111   2.211   3.735  0.1529 -0.0228 -0.2861
 2285TIP3    H1 6861   0.181   2.160   3.695  2.5266  0.1908  3.1596
 2285TIP3    H2 6862   0.147   2.300   3.742 -1.2304  0.5587 -0.0987
 2286TIP3   OH2 6863   4.529   2.533   0.882  0.5478  0.0969 -0.2158
 2286TIP3    H1 6864   4.571   2.494   0.806  0.7489  1.4618 -0.8468
 2286TIP3    H2 6865   4.445   2.564   0.849  0.3612  0.1171  0.2767
 2287TIP3   OH2 6866   5.341   1.285   1.518  0.5718 -0.1038  0.2067
 2287TIP3    H1 6867   5.314   1.235   1.441 -1.3125 -2.2407  2.1182
 2287TIP3    H2 6868   5.262   1.334   1.543  0.5340 -0.9618  1.8680
 2288TIP3   OH2 6869   0.508   3.071   0.548 -0.0488 -1.2731  0.3917
 2288TIP3    H1 6870   0.466   3.078   0.634 -2.0071 -1.7055 -0.4883
 2288TIP3    H2 6871   0.592   3.117   0.559 -2.0959  2.6673  1.3107
 2289TIP3   OH2 6872   6.080   4.178   5.144 -0.2168 -0.4138  0.6163
 2289TIP3    H1 6873   6.156   4.211   5.191  0.0427 -2.1793  1.5009
 2289TIP3    H2 6874   6.073   4.235   5.067  2.0164 -0.2251  0.4884
 2290TIP3   OH2 6875   1.584   2.679   0.489 -0.6618 -0.1903 -0.2839
 2290TIP3    H1 6876   1.593   2.655   0.397 -0.0945  0.7421 -0.4863
 2290TIP3    H2 6877   1.508   2.630   0.520 -1.1558 -0.1363 -1.3824
 2291TIP3   OH2 6878   4.688   4.768   0.939 -0.4209 -0.4282  0.0399
 2291TIP3    H1 6879   4.677   4.674   0.954 -0.1706 -0.0555  3.4229
 2291TIP3    H2 6880   4.600   4.804   0.946 -0.1863 -0.1066  2.7245
 2292TIP3   OH2 6881   0.907   2.903   4.765  0.1751 -0.1918  0.5805
 2292TIP3    H1 6882   0.873   2.814   4.779 -3.6079  0.9424 -0.1401
 2292TIP3    H2 6883   0.889   2.948   4.848  0.1202  0.4300  0.2348
 2293TIP3   OH2 6884   1.167   2.004   3.679 -0.0656 -0.4296 -0.2399
 2293TIP3    H1 6885   1.074   2.016   3.699 -0.0382 -1.0821  0.3359
 2293TIP3    H2 6886   1.211   2.072   3.730 -0.2858  0.5612 -1.3301
 2294TIP3   OH2 6887   4.323   5.973   5.107 -0.0949 -0.0785  0.0356
 2294TIP3    H1 6888   4.385   5.903   5.128 -0.4374 -0.3018  0.3010
 2294TIP3    H2 6889   4.374   6.054   5.117  0.3719 -0.2951 -0.5177
 2295TIP3   OH2 6890   5.856   3.212   1.026 -0.0233  0.0701 -0.0378
 2295TIP3    H1 6891   5.885   3.275   0.960  1.5377 -0.5528  0.0182
 2295TIP3    H2 6892   5.867   3.257   1.110  0.6466 -0.1021 -0.0294
 2296TIP3   OH2 6893   0.493   2.108   1.494 -0.0518 -0.3223  0.1458
 2296TIP3    H1 6894   0.466   2.081   1.582  0.5485 -3.0265 -0.4228
 2296TIP3    H2 6895   0.570   2.163   1.508  0.4280 -1.2495  1.3008
 2297TIP3   OH2 6896   5.702   1.374   0.206 -0.1215  0.0176 -0.4685
 2297TIP3    H1 6897   5.636   1.399   0.271 -1.5337 -0.8012 -1.5233
 2297TIP3    H2 6898   5.714   1.280   0.219  1.1404  0.2127 -0.0610
 2298TIP3   OH2 6899   5.170   5.907   4.882 -0.1344 -0.2896  0.5205
 2298TIP3    H1 6900   5.108   5.838   4.903 -0.1625  0.2268  2.2611
 2298TIP3    H2 6901   5.116   5.985   4.868 -0.0685 -0.4866 -0.9433
 2299TIP3   OH2 6902   1.353   5.429   2.529  0.1034 -0.7489 -0.1823
 2299TIP3    H1 6903   1.258   5.425   2.519 -0.4290  3.5249  1.1181
 2299TIP3    H2 6904   1.379   5.504   2.475  2.2310  0.1083  1.8831
 2300TIP3   OH2 6905   2.867   5.829   2.792 -0.2632  0.4053  0.2137
 2300TIP3    H1 6906   2.958   5.826   2.822  0.1304 -2.1032 -0.9601
 2300TIP3    H2 6907   2.866   5.896   2.724  0.7024  0.4708  0.2460
 2301TIP3   OH2 6908   1.864   3.969   5.072 -0.0975  0.6236 -0.5094
 2301TIP3    H1 6909   1.878   4.058   5.039  1.4998  0.7013  0.2446
 2301TIP3    H2 6910   1.849   3.917   4.993  0.1614  1.3669 -1.0683
 2302TIP3   OH2 6911   6.225   3.442   0.372  0.1016 -0.0875  0.5714
 2302TIP3    H1 6912   6.294   3.434   0.438  0.4040  1.5358  0.4897
 2302TIP3    H2 6913   6.209   3.536   0.365 -0.0048 -0.2112 -1.5859
 2303TIP3   OH2 6914   4.691   5.904   2.623  0.3796  0.0519  0.4977
 2303TIP3    H1 6915   4.755   5.867   2.685  2.2800 -0.1205 -1.4625
 2303TIP3    H2 6916   4.740   5.970   2.575 -1.3464  0.9176 -0.1473
 2304TIP3   OH2 6917   1.208   1.071   4.857 -0.0550 -0.5942  0.3839
 2304TIP3    H1 6918   1.283   1.027   4.897 -0.6739 -1.0192  1.1058
 2304TIP3    H2 6919   1.196   1.027   4.773 -0.4860 -1.6244  0.9729
 2305TIP3   OH2 6920   1.226   1.993   5.201  0.4810  0.3697 -0.4116
 2305TIP3    H1 6921   1.192   2.055   5.136  1.2322 -0.5603 -1.7580
 2305TIP3    H2 6922   1.320   1.992   5.186  1.0527  1.9563  2.3950
 2306TIP3   OH2 6923   3.667   4.885   2.461 -0.0616  0.0763  0.2321
 2306TIP3    H1 6924   3.669   4.790   2.469 -0.1344  0.1123  0.6714
 2306TIP3    H2 6925   3.741   4.906   2.403  1.5751 -0.0455  2.1578
 2307TIP3   OH2 6926   1.372   5.175   0.705  0.3906  0.1012 -0.2836
 2307TIP3    H1 6927   1.331   5.089   0.698 -0.5740  0.2723  2.2307
 2307TIP3    H2 6928   1.438   5.164   0.774  0.9162  1.1670 -0.5878
 2308TIP3   OH2 6929   3.973   0.027   1.079  0.1795  0.3345  0.7048
 2308TIP3    H1 6930   3.925   0.095   1.033  1.2941  1.7951  1.6063
 2308TIP3    H2 6931   3.955   0.043   1.172 -0.4437 -1.3148  0.8970
 2309TIP3   OH2 6932   6.112   1.856   3.843 -0.4056  0.1047 -0.0429
 2309TIP3    H1 6933   6.062   1.914   3.785  0.6015  0.2214 -0.8248
 2309TIP3    H2 6934   6.199   1.851   3.803  0.0353 -0.5788  0.9544
 2310TIP3   OH2 6935   2.474   1.119   1.387 -0.2321 -0.1396  0.5685
 2310TIP3    H1 6936   2.505   1.135   1.299 -1.3512  1.3564  0.3977
 2310TIP3    H2 6937   2.549   1.137   1.443 -0.3653  2.2240  0.0979
 2311TIP3   OH2 6938   4.665   0.359   0.848  0.3382  0.1408 -0.0004
 2311TIP3    H1 6939   4.599   0.426   0.866  0.8637  0.4307  0.9359
 2311TIP3    H2 6940   4.709   0.346   0.932  1.5280  0.0318 -0.6180
 2312TIP3   OH2 6941   0.937   4.187   4.128  0.2876 -0.2302 -0.1883
 2312TIP3    H1 6942   1.003   4.166   4.194 -0.7775 -0.3928  0.8398
 2312TIP3    H2 6943   0.972   4.264   4.083  2.6076 -2.0152 -1.7110
 2313TIP3   OH2 6944   4.771   1.380   1.921 -0.7396  0.4181  0.4669
 2313TIP3    H1 6945   4.865   1.381   1.904 -0.0333  0.5224  3.6362
 2313TIP3    H2 6946   4.747   1.472   1.924 -0.1939  0.5491  2.6412
 2314TIP3   OH2 6947   0.303   4.536   1.710  0.5508 -0.4971  0.8107
 2314TIP3    H1 6948   0.317   4.631   1.711  1.0099 -0.5446 -0.0709
 2314TIP3    H2 6949   0.390   4.499   1.729  1.3294 -0.7663 -2.6331
 2315TIP3   OH2 6950   6.107   5.322   2.400 -0.1858  0.1188 -0.0186
 2315TIP3    H1 6951   6.015   5.294   2.401 -0.1422 -0.1361 -1.2512
 2315TIP3    H2 6952   6.106   5.409   2.440 -0.6106 -0.8009  2.0608
 2316TIP3   OH2 6953   2.489   2.721   0.598 -0.2244  0.0756 -0.3315
 2316TIP3    H1 6954   2.499   2.684   0.686  0.6228  0.5820 -0.1986
 2316TIP3    H2 6955   2.409   2.682   0.564 -1.3654  0.9390  1.1999
 2317TIP3   OH2 6956   0.084   4.173   1.616  0.2160  0.9454 -0.7075
 2317TIP3    H1 6957   0.124   4.110   1.556 -0.3746  0.6281 -0.7781
 2317TIP3    H2 6958   0.085   4.256   1.568 -2.3196  0.2566 -2.1524
 2318TIP3   OH2 6959   4.071   1.469   4.966  0.0061 -0.1979 -0.2950
 2318TIP3    H1 6960   3.984   1.431   4.960 -0.5166  1.0551 -0.8963
 2318TIP3    H2 6961   4.068   1.547   4.910  1.0785  0.6489  0.7705
 2319TIP3   OH2 6962   5.638   2.345   2.217 -0.0567 -0.1292 -0.0775
 2319TIP3    H1 6963   5.733   2.337   2.216  0.0697  1.1517 -0.5931
 2319TIP3    H2 6964   5.617   2.392   2.136 -1.1894 -0.9317 -0.2862
 2320TIP3   OH2 6965   0.101   4.281   3.199 -0.2252 -0.2797 -0.3985
 2320TIP3    H1 6966   0.174   4.338   3.172 -0.4906  0.1868 -0.1448
 2320TIP3    H2 6967   0.046   4.337   3.253 -1.0658 -0.4740 -1.0300
 2321TIP3   OH2 6968   5.581   2.117   3.384 -0.1609 -0.1206 -0.0736
 2321TIP3    H1 6969   5.546   2.181   3.322 -2.5296 -0.0115  1.2517
 2321TIP3    H2 6970   5.645   2.067   3.334  1.1031  2.6470 -1.4210
 2322TIP3   OH2 6971   0.242   5.865   3.116  0.1631 -0.1688 -0.0369
 2322TIP3    H1 6972   0.246   5.958   3.093 -0.8379  0.1715  1.0524
 2322TIP3    H2 6973   0.168   5.859   3.177  1.4272 -1.3461  1.4634
 2323TIP3   OH2 6974   1.550   1.217   2.941  0.3454 -0.1341 -0.1146
 2323TIP3    H1 6975   1.548   1.135   2.991  1.1060  0.1085  0.3289
 2323TIP3    H2 6976   1.491   1.275   2.989  1.0767  0.1000  0.5299
 2324TIP3   OH2 6977   1.201   0.596   1.825 -0.1068  0.2110  0.4046
 2324TIP3    H1 6978   1.242   0.671   1.781 -1.0507 -0.1027 -1.0918
 2324TIP3    H2 6979   1.214   0.612   1.918  3.2908  0.1791  0.0433
 2325TIP3   OH2 6980   2.906   5.719   1.353 -0.7689  0.5134 -0.1499
 2325TIP3    H1 6981   2.857   5.637   1.362  0.4050 -0.5428 -2.4285
 2325TIP3    H2 6982   2.903   5.738   1.259  0.9517  1.8154  0.0158
 2326TIP3   OH2 6983   1.994   0.850   0.481  0.5349 -0.1507  0.5181
 2326TIP3    H1 6984   2.088   0.834   0.480  0.6966  0.5141  1.9949
 2326TIP3    H2 6985   1.960   0.788   0.545  0.2606  0.9317  1.4478
 2327TIP3   OH2 6986   4.801   5.020   4.428  0.2599  0.3341 -0.6922
 2327TIP3    H1 6987   4.723   4.982   4.467  1.2620 -0.6377  0.4241
 2327TIP3    H2 6988   4.805   4.982   4.340 -0.3461  0.1533 -0.6444
 2328TIP3   OH2 6989   0.623   3.559   3.134  0.1650 -1.0948  0.3861
 2328TIP3    H1 6990   0.663   3.616   3.069 -0.5121 -1.7696 -0.6568
 2328TIP3    H2 6991   0.629   3.608   3.216  0.5457  0.0055 -0.2774
 2329TIP3   OH2 6992   3.162   0.521   4.398  0.0917  0.1506 -0.3175
 2329TIP3    H1 6993   3.156   0.567   4.315 -0.5032  0.0112 -0.3544
 2329TIP3    H2 6994   3.254   0.494   4.404  0.1505  0.2143 -0.8987
 2330TIP3   OH2 6995   1.777   0.986   1.662 -0.4631 -0.5542  0.6577
 2330TIP3    H1 6996   1.685   0.990   1.691 -0.7023  0.2133 -0.1515
 2330TIP3    H2 6997   1.828   0.990   1.743 -1.1424 -0.8787  1.1116
 2331TIP3   OH2 6998   5.523   2.454   3.868  0.7835  0.1039 -0.1638
 2331TIP3    H1 6999   5.464   2.513   3.916  0.8089 -0.8091  1.0453
 2331TIP3    H2 7000   5.533   2.378   3.926 -1.2099 -2.2640 -2.6386
 2332TIP3   OH2 7001   3.782   3.171   4.075  0.2590  0.1137 -0.0916
 2332TIP3    H1 7002   3.746   3.168   4.164  0.0902  0.6078 -0.1412
 2332TIP3    H2 7003   3.871   3.136   4.084  0.2899  0.2888  0.2947
 2333TIP3   OH2 7004   5.351   3.034   0.172  0.5047 -0.2467 -0.2821
 2333TIP3    H1 7005   5.327   2.941   0.172  1.4896 -0.5090 -0.4514
 2333TIP3    H2 7006   5.364   3.055   0.264  1.7723 -0.6889 -0.3387
 2334TIP3   OH2 7007   0.134   4.990   0.448 -0.2059  0.3883  1.0757
 2334TIP3    H1 7008   0.120   5.084   0.435 -0.5718  0.3048  0.8558
 2334TIP3    H2 7009   0.047   4.951   0.438 -0.0347  0.0132  1.0345
 2335TIP3   OH2 7010   5.257   1.587   4.384  0.1708 -0.3873 -0.0207
 2335TIP3    H1 7011   5.300   1.672   4.373  0.2537 -0.4185  0.0654
 2335TIP3    H2 7012   5.269   1.565   4.476 -1.0720  0.1680  0.2907
 2336TIP3   OH2 7013   4.803   5.180   1.998 -0.0985  0.4001  0.4088
 2336TIP3    H1 7014   4.748   5.221   1.932 -0.1915 -0.8226 -0.2961
 2336TIP3    H2 7015   4.892   5.186   1.963 -0.0874  0.1909  0.3984
 2337TIP3   OH2 7016   4.179   4.459   1.678  0.1724  0.1792  0.1730
 2337TIP3    H1 7017   4.091   4.429   1.702  0.0907 -1.0802 -1.4828
 2337TIP3    H2 7018   4.164   4.522   1.607  0.5840  0.4087  0.2885
 2338TIP3   OH2 7019   5.290   0.888   1.112  0.2058  0.1609  0.6996
 2338TIP3    H1 7020   5.328   0.848   1.190 -0.1591 -0.3743  0.6011
 2338TIP3    H2 7021   5.200   0.857   1.110  0.5533 -0.8221 -0.6142
 2339TIP3   OH2 7022   0.221   0.718   4.606 -0.1180 -0.0496  0.4544
 2339TIP3    H1 7023   0.313   0.744   4.608 -0.2662  0.7017 -1.1088
 2339TIP3    H2 7024   0.211   0.668   4.525 -1.0545 -0.2393  0.6682
 2340TIP3   OH2 7025  -0.003   2.889   0.689 -0.3369  0.5841  0.3328
 2340TIP3    H1 7026   0.069   2.852   0.640 -1.2792  0.5081 -1.0425
 2340TIP3    H2 7027  -0.065   2.817   0.700 -0.7486  0.9447  0.4314
 2341TIP3   OH2 7028   0.088   4.756   0.226  0.0280  0.2050 -0.2718
 2341TIP3    H1 7029   0.023   4.769   0.295  0.4007 -0.8991  0.2989
 2341TIP3    H2 7030   0.038   4.722   0.152 -0.5433  2.3217 -0.9424
 2342TIP3   OH2 7031   4.280   5.430   2.663 -0.4795 -0.5668 -0.1434
 2342TIP3    H1 7032   4.212   5.366   2.687  0.3164 -1.1565  0.6511
 2342TIP3    H2 7033   4.360   5.396   2.705  0.8552 -1.1407 -2.8943
 2343TIP3   OH2 7034   4.346   2.907   1.433 -0.7446 -0.4103 -0.3257
 2343TIP3    H1 7035   4.397   2.898   1.513  1.3101 -0.1401 -1.5308
 2343TIP3    H2 7036   4.255   2.911   1.462 -0.0625 -0.4246  1.9616
 2344TIP3   OH2 7037   1.563   5.759   5.092  0.1189  0.2055 -0.0284
 2344TIP3    H1 7038   1.501   5.788   5.160  0.0095  0.8999 -0.4144
 2344TIP3    H2 7039   1.628   5.829   5.089  1.9160 -1.2843  1.5729
 2345TIP3   OH2 7040   4.656   3.238   0.967 -0.0508  0.5282  0.0994
 2345TIP3    H1 7041   4.729   3.257   1.026 -1.6537  0.0878  2.3648
 2345TIP3    H2 7042   4.687   3.166   0.913  0.6760 -0.8068  2.1632
 2346TIP3   OH2 7043   1.206   1.167   0.141 -0.0786 -0.1726  0.2571
 2346TIP3    H1 7044   1.281   1.145   0.085  1.0133 -0.0886  1.6502
 2346TIP3    H2 7045   1.245   1.197   0.223 -1.6564 -0.4189  1.1282
 2347TIP3   OH2 7046   4.206   4.725   4.593  0.1970 -0.1076 -0.1173
 2347TIP3    H1 7047   4.257   4.679   4.526  1.1928  0.8695 -0.0366
 2347TIP3    H2 7048   4.127   4.671   4.603  0.8077 -1.1728 -0.8563
 2348TIP3   OH2 7049   3.130   1.201   4.290 -0.4785  0.2858 -0.1297
 2348TIP3    H1 7050   3.219   1.175   4.267  0.5396  3.1772  0.1483
 2348TIP3    H2 7051   3.074   1.133   4.251  1.6597 -0.0828 -2.8837
 2349TIP3   OH2 7052   5.647   1.694   1.595  0.4523  0.1915 -0.1054
 2349TIP3    H1 7053   5.588   1.765   1.569  2.6662  1.7424 -1.2004
 2349TIP3    H2 7054   5.621   1.620   1.541  0.4918  1.3307 -1.7653
 2350TIP3   OH2 7055   2.292   4.747   3.352 -1.2749 -0.3319  0.1100
 2350TIP3    H1 7056   2.263   4.663   3.388  1.2389 -1.0158  0.7641
 2350TIP3    H2 7057   2.379   4.730   3.317 -1.4389  1.6165 -1.4506
 2351TIP3   OH2 7058   2.706   5.231   3.078 -0.0848 -0.3111 -0.3731
 2351TIP3    H1 7059   2.665   5.267   3.000  0.2389  0.1665 -0.3238
 2351TIP3    H2 7060   2.798   5.221   3.054 -0.0277 -0.3769 -0.1290
 2352TIP3   OH2 7061   3.103   4.429   4.607  0.2886  0.0086  0.2851
 2352TIP3    H1 7062   3.062   4.365   4.665 -4.5404  1.8443 -0.6338
 2352TIP3    H2 7063   3.074   4.405   4.520  0.6337  1.8931 -0.3984
 2353TIP3   OH2 7064   4.867   0.825   2.563 -0.2226 -0.3841 -1.0054
 2353TIP3    H1 7065   4.786   0.810   2.515 -3.0811  5.7198  0.8197
 2353TIP3    H2 7066   4.916   0.887   2.509  1.0551 -0.5786 -0.1066
 2354TIP3   OH2 7067   5.040   1.812   1.350  0.6452 -0.1359  0.0221
 2354TIP3    H1 7068   4.962   1.758   1.360  0.5781 -0.4621 -1.8697
 2354TIP3    H2 7069   5.096   1.787   1.424 -1.0891  0.2755  1.5588
 2355TIP3   OH2 7070   0.507   1.769   3.719  0.2604  0.4878 -0.6500
 2355TIP3    H1 7071   0.484   1.727   3.802  0.4422 -0.4835 -1.0806
 2355TIP3    H2 7072   0.423   1.797   3.682 -0.2795 -2.2688 -1.7992
 2356TIP3   OH2 7073   2.093   5.115   0.073  0.2534  0.2527  0.5574
 2356TIP3    H1 7074   2.092   5.209   0.094 -1.3293  0.3664  0.0678
 2356TIP3    H2 7075   2.079   5.071   0.157  0.0521  0.4936  0.6525
 2357TIP3   OH2 7076   6.179   1.890   1.198 -0.2470 -0.1233 -0.2164
 2357TIP3    H1 7077   6.163   1.810   1.149 -1.2020  0.7490 -1.3624
 2357TIP3    H2 7078   6.107   1.948   1.175 -0.7529  0.3329  2.2412
 2358TIP3   OH2 7079   5.247   5.482   0.909  0.0374  0.1392 -0.1693
 2358TIP3    H1 7080   5.231   5.553   0.971 -0.3541  0.0975 -0.2185
 2358TIP3    H2 7081   5.291   5.524   0.835  2.1978 -0.1206  0.8994
 2359TIP3   OH2 7082   1.347   0.526   4.261 -0.6656  0.0320 -0.2703
 2359TIP3    H1 7083   1.253   0.539   4.257 -0.9298 -1.3224  0.6293
 2359TIP3    H2 7084   1.365   0.512   4.354  0.3002 -0.4570 -0.5179
 2360TIP3   OH2 7085   4.008   1.928   3.791  0.4547  0.1653 -0.1478
 2360TIP3    H1 7086   4.009   2.001   3.730 -0.3456 -0.5914 -1.0980
 2360TIP3    H2 7087   3.990   1.968   3.876 -1.5400  0.9502 -0.8765
 2361TIP3   OH2 7088   3.382   4.795   4.250  0.8910 -0.4288  0.6590
 2361TIP3    H1 7089   3.374   4.786   4.155 -0.9052  2.1856  0.4675
 2361TIP3    H2 7090   3.432   4.876   4.262 -1.8491  1.2092  1.8290
 2362TIP3   OH2 7091   4.180   0.311   4.641 -0.7750 -0.3307  0.0524
 2362TIP3    H1 7092   4.210   0.307   4.550 -0.2587  1.0257  0.1459
 2362TIP3    H2 7093   4.140   0.397   4.650 -1.1933 -0.6077  1.0054
 2363TIP3   OH2 7094   3.095   5.839   1.566 -0.6699  0.0305  0.2313
 2363TIP3    H1 7095   3.025   5.799   1.513 -1.2459 -0.3591  1.2460
 2363TIP3    H2 7096   3.086   5.797   1.652  0.9667 -0.1937  0.3286
 2364TIP3   OH2 7097   3.849   0.563   4.456  0.2509  0.2399 -0.2129
 2364TIP3    H1 7098   3.835   0.657   4.460  2.5940  0.7692 -1.8506
 2364TIP3    H2 7099   3.937   0.550   4.492 -0.1539 -1.3852  0.2956
 2365TIP3   OH2 7100   2.238   1.429   2.727  0.7117 -0.4939 -0.9761
 2365TIP3    H1 7101   2.153   1.469   2.711  0.5545 -0.2719  0.3077
 2365TIP3    H2 7102   2.301   1.499   2.710  0.4738  0.1457  0.6109
 2366TIP3   OH2 7103   4.881   4.748   1.147 -0.5974 -0.3304 -0.1187
 2366TIP3    H1 7104   4.816   4.740   1.077 -0.2597  0.2059 -0.5035
 2366TIP3    H2 7105   4.917   4.836   1.137  0.5207 -0.7731 -0.2228
 2367TIP3   OH2 7106   5.343   1.902   0.424 -0.6053  0.2108 -0.3035
 2367TIP3    H1 7107   5.317   1.828   0.479 -1.3510  0.0413 -0.8595
 2367TIP3    H2 7108   5.406   1.951   0.476 -0.3437 -0.6461  0.1980
 2368TIP3   OH2 7109   1.251   5.548   1.696  0.0160  0.5300 -0.0186
 2368TIP3    H1 7110   1.321   5.599   1.736  1.3037 -0.5182 -0.8747
 2368TIP3    H2 7111   1.236   5.476   1.758 -0.2845  0.7243  0.1390
 2369TIP3   OH2 7112   4.206   0.603   0.539  0.7142  0.0348 -0.0192
 2369TIP3    H1 7113   4.243   0.529   0.587  0.6996  1.2129  1.9523
 2369TIP3    H2 7114   4.169   0.565   0.460 -0.1588 -2.2315  1.3680
 2370TIP3   OH2 7115   3.945   4.622   2.502  0.1341  0.1936  0.3646
 2370TIP3    H1 7116   3.898   4.545   2.537  1.8137 -0.8464  0.4214
 2370TIP3    H2 7117   3.920   4.625   2.410  0.1179 -0.4672  0.3427
 2371TIP3   OH2 7118   4.714   0.638   1.263  0.6165  0.4577  0.6155
 2371TIP3    H1 7119   4.696   0.579   1.337 -0.4016  0.1070  0.0955
 2371TIP3    H2 7120   4.810   0.646   1.263  0.7625 -0.9962  0.8529
 2372TIP3   OH2 7121   5.010   1.259   1.117  0.6240  0.2273 -0.1344
 2372TIP3    H1 7122   4.972   1.240   1.203  1.0189 -1.5605 -0.3098
 2372TIP3    H2 7123   4.934   1.278   1.061  0.1915 -0.6253  0.1476
 2373TIP3   OH2 7124   3.543   5.687   2.201  0.2125  0.0450  0.0844
 2373TIP3    H1 7125   3.564   5.779   2.216  2.6881 -0.5031  0.3356
 2373TIP3    H2 7126   3.455   5.689   2.162  0.3318  2.5123 -0.2340
 2374TIP3   OH2 7127   2.655   3.825   1.335 -0.2396 -0.3602 -0.5697
 2374TIP3    H1 7128   2.617   3.797   1.419  0.4961  0.5867  0.1022
 2374TIP3    H2 7129   2.584   3.813   1.272 -2.2716  2.6006  0.8604
 2375TIP3   OH2 7130   0.552   5.676   2.306  0.3052  0.4114 -0.2062
 2375TIP3    H1 7131   0.637   5.707   2.337 -0.3615  2.0993  0.0412
 2375TIP3    H2 7132   0.502   5.658   2.385  0.2192 -0.0130 -0.3511
 2376TIP3   OH2 7133   3.555   2.309   2.391 -0.1129  0.2404 -0.5199
 2376TIP3    H1 7134   3.595   2.382   2.437  2.8996 -1.7905  0.3657
 2376TIP3    H2 7135   3.479   2.286   2.444  0.9855  0.4956  1.2302
 2377TIP3   OH2 7136   0.985   4.052   1.445 -0.0979 -0.1030  0.5807
 2377TIP3    H1 7137   1.076   4.073   1.464 -0.1235  0.8236 -0.2111
 2377TIP3    H2 7138   0.941   4.055   1.530  0.4280  0.4778  0.8396
 2378TIP3   OH2 7139   2.348   1.211   2.594 -0.1790 -0.1259  0.2170
 2378TIP3    H1 7140   2.287   1.209   2.520  0.5306 -0.0529 -0.3868
 2378TIP3    H2 7141   2.317   1.282   2.649 -0.5323  0.0330 -0.1820
 2379TIP3   OH2 7142   5.136   1.321   0.164 -0.2289 -0.8458 -0.6651
 2379TIP3    H1 7143   5.053   1.277   0.181  0.0152 -0.8327  0.7386
 2379TIP3    H2 7144   5.145   1.321   0.069 -1.6034 -1.2621 -0.8141
 2380TIP3   OH2 7145   1.399   4.577   2.257 -0.1936  0.0328 -0.2554
 2380TIP3    H1 7146   1.470   4.553   2.316  0.6591 -0.2141 -1.3481
 2380TIP3    H2 7147   1.337   4.624   2.312 -0.0822 -1.3441  1.1321
 2381TIP3   OH2 7148   1.220   1.989   3.417 -0.8590  0.0574 -0.4647
 2381TIP3    H1 7149   1.207   2.037   3.499 -1.5955  1.1645 -1.2029
 2381TIP3    H2 7150   1.134   1.955   3.395 -0.9911  1.0042 -1.5061
 2382TIP3   OH2 7151   1.830   4.408   2.607  0.0580  0.4158 -0.3044
 2382TIP3    H1 7152   1.775   4.438   2.534  0.4720 -0.1518 -0.8638
 2382TIP3    H2 7153   1.826   4.313   2.602 -1.6549  0.3269  1.7666
 2383TIP3   OH2 7154   1.208   5.378   1.900 -0.5332  0.1287 -0.2183
 2383TIP3    H1 7155   1.130   5.405   1.948 -1.4534 -0.5438 -1.2831
 2383TIP3    H2 7156   1.209   5.282   1.909  1.2778  0.2337  1.4041
 2384TIP3   OH2 7157   2.768   0.458   4.216 -0.2247  0.3211  0.0750
 2384TIP3    H1 7158   2.807   0.544   4.226  2.0068 -0.2126 -2.6111
 2384TIP3    H2 7159   2.829   0.398   4.259 -0.8987 -0.0793  0.4980
 2385TIP3   OH2 7160   5.360   2.541   1.853  0.1478  0.4321 -0.2702
 2385TIP3    H1 7161   5.343   2.633   1.873 -0.4872  0.2290  0.1313
 2385TIP3    H2 7162   5.306   2.522   1.777  0.6978  0.5359 -0.6916
 2386TIP3   OH2 7163   2.695   1.868   0.890 -0.5513 -0.3150 -0.0805
 2386TIP3    H1 7164   2.779   1.845   0.851  0.4080  1.3828  0.8432
 2386TIP3    H2 7165   2.667   1.789   0.936  0.9165 -0.6885  0.2003
 2387TIP3   OH2 7166   3.202   5.604   0.509  0.3779 -0.0711  0.4862
 2387TIP3    H1 7167   3.118   5.634   0.542  0.2958 -0.1615  0.3612
 2387TIP3    H2 7168   3.258   5.597   0.586  0.1878 -0.2809  0.6051
 2388TIP3   OH2 7169   1.488   1.604   0.686  0.0078  0.2481 -0.4888
 2388TIP3    H1 7170   1.503   1.657   0.764  1.4006 -1.6158  0.6219
 2388TIP3    H2 7171   1.509   1.661   0.613  1.8122  1.1571  0.6553
 2389TIP3   OH2 7172   1.590   4.820   4.808 -0.1907 -0.0365 -0.8348
 2389TIP3    H1 7173   1.574   4.726   4.808 -1.7251  0.2107 -0.6537
 2389TIP3    H2 7174   1.673   4.830   4.856 -0.8931 -1.1557  0.6715
 2390TIP3   OH2 7175   5.569   5.210   1.638 -0.0090 -0.2766 -0.7614
 2390TIP3    H1 7176   5.654   5.248   1.659 -1.2408  1.6923  0.9853
 2390TIP3    H2 7177   5.590   5.128   1.594  2.7805 -0.0939  0.0507
 2391TIP3   OH2 7178   2.140   3.366   4.809  0.0052  0.5280  0.3541
 2391TIP3    H1 7179   2.058   3.324   4.833 -0.8669  1.7469 -0.4078
 2391TIP3    H2 7180   2.153   3.345   4.717  1.7160 -1.4713  0.9585
 2392TIP3   OH2 7181   4.859   4.886   3.153 -0.4896 -0.2522  0.3193
 2392TIP3    H1 7182   4.863   4.895   3.058 -0.5133  0.9205  0.4216
 2392TIP3    H2 7183   4.772   4.918   3.177  0.1095  1.0109  0.8846
 2393TIP3   OH2 7184   4.548   4.911   4.489 -0.1585  0.1289  0.2508
 2393TIP3    H1 7185   4.563   4.819   4.471 -0.0913 -0.2387  2.0177
 2393TIP3    H2 7186   4.518   4.947   4.405  2.3404 -0.8892 -1.2016
 2394TIP3   OH2 7187   3.890   3.535   3.794 -0.0028  0.2041  0.2889
 2394TIP3    H1 7188   3.846   3.620   3.797 -0.0948  0.3106 -2.4013
 2394TIP3    H2 7189   3.983   3.557   3.787 -0.1566  0.3063 -3.4060
 2395TIP3   OH2 7190   2.969   3.124   1.472 -0.0395  0.1035  0.2379
 2395TIP3    H1 7191   3.036   3.060   1.494  0.0140 -0.3798 -1.2287
 2395TIP3    H2 7192   3.015   3.207   1.468  0.0459  0.1294  1.3313
 2396TIP3   OH2 7193   1.844   0.311   0.290  0.0912 -0.0148 -0.6382
 2396TIP3    H1 7194   1.917   0.290   0.348  0.2755 -2.5110 -1.6279
 2396TIP3    H2 7195   1.884   0.352   0.214  0.4326 -0.8630 -0.9297
 2397TIP3   OH2 7196   4.157   1.234   1.733  0.2837  0.9224 -0.3800
 2397TIP3    H1 7197   4.062   1.221   1.728  0.3887  0.6415 -1.8394
 2397TIP3    H2 7198   4.194   1.155   1.696  1.2452 -0.8227  3.7051
 2398TIP3   OH2 7199   4.793   5.500   4.866 -0.5373 -0.7591 -0.1815
 2398TIP3    H1 7200   4.722   5.559   4.890  0.3782  1.2280 -1.9708
 2398TIP3    H2 7201   4.826   5.466   4.949 -2.7426 -0.7900  0.7440
 2399TIP3   OH2 7202   6.161   0.999   3.189  0.2804 -0.6085  0.6656
 2399TIP3    H1 7203   6.084   1.050   3.168  1.2897  0.5120 -0.4846
 2399TIP3    H2 7204   6.221   1.061   3.231  0.6801 -1.3758  1.2538
 2400TIP3   OH2 7205   2.317   3.548   2.652 -0.0862  0.2253 -0.3522
 2400TIP3    H1 7206   2.374   3.585   2.584  0.0566  1.0763  0.2173
 2400TIP3    H2 7207   2.251   3.616   2.668 -0.5305 -0.2489 -0.1236
 2401TIP3   OH2 7208   2.357   0.639   0.679 -0.2361  0.3051 -0.0486
 2401TIP3    H1 7209   2.374   0.715   0.733 -2.5087 -0.5443  2.0471
 2401TIP3    H2 7210   2.406   0.568   0.721  1.0715  0.3182 -1.4230
 2402TIP3   OH2 7211   1.199   5.181   2.177  0.1935  0.2656  0.0272
 2402TIP3    H1 7212   1.160   5.136   2.102  1.5937  0.9900 -1.1836
 2402TIP3    H2 7213   1.290   5.152   2.177  0.3880  0.8454  1.0188
 2403TIP3   OH2 7214   1.677   3.867   3.948 -0.4037 -0.4139 -0.1972
 2403TIP3    H1 7215   1.608   3.866   3.882 -0.6236  0.4809  0.0019
 2403TIP3    H2 7216   1.699   3.960   3.958 -0.6784 -0.4807  1.2920
 2404TIP3   OH2 7217   1.169   4.585   4.638 -0.9162  0.4495 -0.2070
 2404TIP3    H1 7218   1.121   4.603   4.719 -1.5811 -0.6345 -0.3423
 2404TIP3    H2 7219   1.259   4.568   4.666 -1.1746 -0.0756  0.3254
 2405TIP3   OH2 7220   4.207   3.788   0.966 -0.2672  0.4914 -0.5367
 2405TIP3    H1 7221   4.237   3.697   0.965 -0.2812  0.4877 -0.6389
 2405TIP3    H2 7222   4.238   3.824   0.883 -1.6434  0.1401 -1.2188
 2406TIP3   OH2 7223   4.110   3.991   2.602 -0.1938 -0.2524 -0.0388
 2406TIP3    H1 7224   4.083   4.045   2.677 -0.3973 -1.5697  0.8691
 2406TIP3    H2 7225   4.198   3.961   2.626 -0.5831 -1.3533  0.0823
 2407TIP3   OH2 7226   2.255   0.036   1.948 -0.2267  0.2536 -0.2108
 2407TIP3    H1 7227   2.216   0.012   1.864  1.4593 -0.7450 -0.7557
 2407TIP3    H2 7228   2.180   0.039   2.008 -1.3578  0.1127 -1.5458
 2408TIP3   OH2 7229   5.416   4.761   1.470  0.3903  0.1149  0.4681
 2408TIP3    H1 7230   5.461   4.699   1.413 -0.1513  0.0795  0.0787
 2408TIP3    H2 7231   5.438   4.847   1.434 -1.3663  0.0387 -0.8700
 2409TIP3   OH2 7232   1.824   5.173   1.787 -0.7052 -0.0088 -0.3405
 2409TIP3    H1 7233   1.824   5.226   1.708 -2.3601  1.1009  0.3426
 2409TIP3    H2 7234   1.734   5.144   1.797 -0.3847 -0.7071  0.7697
 2410TIP3   OH2 7235   5.353   2.819   0.924  0.0422 -0.0109  0.0398
 2410TIP3    H1 7236   5.309   2.757   0.865  1.8845  0.2792 -1.7259
 2410TIP3    H2 7237   5.284   2.881   0.949 -1.1162 -0.9703 -0.6410
 2411TIP3   OH2 7238   2.053   4.030   2.201  0.4147 -0.4665  0.3873
 2411TIP3    H1 7239   2.096   4.083   2.133 -0.3300  1.1323  1.1248
 2411TIP3    H2 7240   2.006   3.962   2.152  0.0824  0.5164 -0.7053
 2412TIP3   OH2 7241   5.278   1.537   2.767  0.0025 -0.4808 -0.2113
 2412TIP3    H1 7242   5.367   1.534   2.732 -0.7027  1.4681 -2.5053
 2412TIP3    H2 7243   5.284   1.496   2.853  3.8489  2.6032  1.2963
 2413TIP3   OH2 7244   3.851   0.887   3.442  0.1045 -0.2224  0.1642
 2413TIP3    H1 7245   3.938   0.924   3.459 -0.8040  1.8166  0.6511
 2413TIP3    H2 7246   3.835   0.904   3.350  0.2639 -0.7273  0.0399
 2414TIP3   OH2 7247   1.565   0.046   4.806  0.3257 -0.1145 -0.5842
 2414TIP3    H1 7248   1.532   0.048   4.896  0.0711  0.2312 -0.6865
 2414TIP3    H2 7249   1.489   0.025   4.753  0.8356 -2.3205 -0.5540
 2415TIP3   OH2 7250   4.247   0.288   2.562  0.3846 -0.9432  0.2925
 2415TIP3    H1 7251   4.193   0.236   2.621  1.1160 -1.1102  0.8232
 2415TIP3    H2 7252   4.317   0.228   2.535 -0.4476 -1.1923 -1.5112
 2416TIP3   OH2 7253   0.477   5.677   4.069 -0.3459 -0.1158 -0.2244
 2416TIP3    H1 7254   0.549   5.739   4.074 -0.6670  0.1684  1.2293
 2416TIP3    H2 7255   0.459   5.669   3.975  0.9342  0.5307 -0.5486
 2417TIP3   OH2 7256   1.462   5.174   3.089 -0.0140  0.0180 -0.1193
 2417TIP3    H1 7257   1.531   5.190   3.025  0.2005  0.1517  0.1458
 2417TIP3    H2 7258   1.474   5.242   3.155  0.7698 -1.0620  0.9032
 2418TIP3   OH2 7259   3.505   2.616   2.762  0.0234  0.1713  0.2456
 2418TIP3    H1 7260   3.447   2.617   2.685  0.0179  0.3117  0.2521
 2418TIP3    H2 7261   3.452   2.650   2.833 -0.1828 -0.5852  0.4660
 2419TIP3   OH2 7262   3.516   4.590   3.786  0.0725  0.5291 -0.7850
 2419TIP3    H1 7263   3.500   4.650   3.713 -0.0665 -1.1989 -2.2346
 2419TIP3    H2 7264   3.611   4.583   3.792  0.1164  1.5477 -0.0185
 2420TIP3   OH2 7265   2.684   0.163   3.211  0.4686 -0.3916  0.0612
 2420TIP3    H1 7266   2.649   0.237   3.162  0.7013 -0.5010 -0.2740
 2420TIP3    H2 7267   2.670   0.088   3.154 -0.0709 -0.6630  0.5358
 2421TIP3   OH2 7268   2.815   0.761   3.332 -0.2639  0.0391 -0.2160
 2421TIP3    H1 7269   2.753   0.829   3.307  0.4601  0.2029 -1.6536
 2421TIP3    H2 7270   2.847   0.788   3.418  0.0531  1.5706 -0.7797
 2422TIP3   OH2 7271   1.170   2.383   5.162 -0.3551 -0.5097 -0.1909
 2422TIP3    H1 7272   1.082   2.410   5.138 -0.0139 -0.2935 -1.2692
 2422TIP3    H2 7273   1.171   2.288   5.147 -0.4759 -0.5552  0.0783
 2423TIP3   OH2 7274   5.969   1.193   3.224 -0.9624 -0.3055  0.4185
 2423TIP3    H1 7275   5.967   1.225   3.314 -1.8815 -1.2021  0.7389
 2423TIP3    H2 7276   5.900   1.241   3.179 -0.5522  0.0888  0.1976
 2424TIP3   OH2 7277   5.196   1.920   1.149  0.0190 -0.2745 -0.1873
 2424TIP3    H1 7278   5.262   1.850   1.147 -0.6717 -0.9305 -0.4852
 2424TIP3    H2 7279   5.125   1.884   1.202 -0.9351 -0.3508 -1.4673
 2425TIP3   OH2 7280   2.160   0.682   2.077  0.1325  0.1468  0.1046
 2425TIP3    H1 7281   2.225   0.657   2.143  0.7340  0.3394 -0.4064
 2425TIP3    H2 7282   2.198   0.655   1.994  0.2756  1.6927 -0.3514
 2426TIP3   OH2 7283   4.944   4.646   0.160  0.2360  0.0284  0.1388
 2426TIP3    H1 7284   4.892   4.688   0.228 -0.0377 -0.4578  0.2339
 2426TIP3    H2 7285   5.017   4.706   0.145  1.0468 -0.4745  1.8261
 2427TIP3   OH2 7286   2.237   5.946   2.187 -0.0609 -0.3600 -1.0506
 2427TIP3    H1 7287   2.199   5.859   2.196 -0.6956 -0.2124 -2.1286
 2427TIP3    H2 7288   2.189   6.000   2.251 -1.5651 -0.2316 -2.2250
 2428TIP3   OH2 7289   4.315   4.533   4.406  0.0041  0.3725 -0.2380
 2428TIP3    H1 7290   4.377   4.591   4.363  1.1000 -0.6270 -0.0730
 2428TIP3    H2 7291   4.369   4.460   4.438 -1.1239 -0.0768  0.7220
 2429TIP3   OH2 7292   5.544   3.412   1.053 -0.6589  0.2611  0.0837
 2429TIP3    H1 7293   5.523   3.399   1.145  1.6759  1.1511  0.8328
 2429TIP3    H2 7294   5.559   3.506   1.045 -1.5183  0.2912 -1.3857
 2430TIP3   OH2 7295   0.737   1.759   3.864 -0.2375  0.2563  0.5636
 2430TIP3    H1 7296   0.663   1.796   3.914 -1.4267 -1.9046  0.5304
 2430TIP3    H2 7297   0.704   1.753   3.775 -0.2346 -1.1799  0.6390
 2431TIP3   OH2 7298   2.434   2.125   3.494 -0.5938  0.1817  0.5631
 2431TIP3    H1 7299   2.373   2.097   3.426 -0.1813 -0.2158  0.3527
 2431TIP3    H2 7300   2.495   2.052   3.503 -0.4464  0.3688  1.1263
 2432TIP3   OH2 7301   3.632   5.334   3.213  0.2108  0.4356  0.4124
 2432TIP3    H1 7302   3.556   5.292   3.255 -0.6586  0.8150 -0.7238
 2432TIP3    H2 7303   3.670   5.264   3.159 -0.6103  0.7834 -0.6574
 2433TIP3   OH2 7304   2.469   4.140   2.387 -0.6034  0.1685 -0.2286
 2433TIP3    H1 7305   2.507   4.110   2.469 -0.3860  0.3933 -0.2478
 2433TIP3    H2 7306   2.529   4.109   2.319 -0.2382  0.8611 -0.2314
 2434TIP3   OH2 7307   3.511   0.832   4.934  0.2474  0.2257 -0.2519
 2434TIP3    H1 7308   3.425   0.846   4.972  1.2610 -0.8734  2.7001
 2434TIP3    H2 7309   3.559   0.913   4.952  0.3809  0.1535 -0.2767
 2435TIP3   OH2 7310   1.766   4.848   1.862  0.5284  0.5437  0.1132
 2435TIP3    H1 7311   1.697   4.912   1.847 -1.1991 -1.2146  0.1884
 2435TIP3    H2 7312   1.789   4.859   1.955 -0.2763  0.5528  0.3136
 2436TIP3   OH2 7313   3.724   2.692   4.296  0.1538 -0.4643 -0.1963
 2436TIP3    H1 7314   3.673   2.625   4.251  1.5722 -1.3915 -0.4923
 2436TIP3    H2 7315   3.662   2.734   4.355 -0.8925 -1.6926 -0.3724
 2437TIP3   OH2 7316   1.921   0.045   0.141  0.3553 -0.1528 -0.2716
 2437TIP3    H1 7317   1.893   0.119   0.088  0.7584  1.0419  1.1252
 2437TIP3    H2 7318   1.860   0.043   0.214  1.5496  0.0818  0.7657
 2438TIP3   OH2 7319   4.895   3.589   4.119 -0.7640  0.0281 -0.0022
 2438TIP3    H1 7320   4.970   3.532   4.105 -0.9936 -0.1118 -0.7029
 2438TIP3    H2 7321   4.822   3.529   4.132 -1.0884  0.1328 -1.1746
 2439TIP3   OH2 7322   5.549   1.237   4.387 -0.0509 -0.0492  0.3763
 2439TIP3    H1 7323   5.580   1.221   4.476  0.2503  0.3760  0.3509
 2439TIP3    H2 7324   5.454   1.248   4.396  0.2082  2.0295  0.9532
 2440TIP3   OH2 7325   2.120   0.605   1.578 -0.1659  0.3325  0.5453
 2440TIP3    H1 7326   2.175   0.660   1.634 -2.5032  1.4376  1.9054
 2440TIP3    H2 7327   2.056   0.665   1.540 -0.1216 -0.7966 -1.4774
 2441TIP3   OH2 7328   1.664   4.464   1.248  0.0438 -0.1538 -0.6186
 2441TIP3    H1 7329   1.647   4.458   1.154  0.4361 -0.3685 -0.6790
 2441TIP3    H2 7330   1.742   4.409   1.261 -0.3176 -0.5509 -0.0892
 2442TIP3   OH2 7331   3.617   5.847   5.075 -0.1117  0.2034 -0.0752
 2442TIP3    H1 7332   3.679   5.909   5.113 -1.2015  1.1199  0.2564
 2442TIP3    H2 7333   3.534   5.868   5.116 -0.7030 -0.8252 -0.7085
 2443TIP3   OH2 7334   1.573   1.707   2.517 -0.2912 -0.3181  0.2363
 2443TIP3    H1 7335   1.603   1.677   2.430  0.7570  0.1417  0.4202
 2443TIP3    H2 7336   1.479   1.723   2.506 -0.3546 -1.1548 -0.5632
 2444TIP3   OH2 7337   6.138   0.351   2.640  0.3256 -0.1339  0.4528
 2444TIP3    H1 7338   6.212   0.356   2.701  1.1672 -0.6885 -0.4960
 2444TIP3    H2 7339   6.119   0.442   2.619  0.7926  0.0155  0.6488
 2445TIP3   OH2 7340   3.080   3.728   1.481 -0.5765 -0.4496  0.0443
 2445TIP3    H1 7341   3.130   3.699   1.557 -2.3404 -1.3009  0.9393
 2445TIP3    H2 7342   3.145   3.734   1.411  0.8367 -1.0864  1.2415
 2446TIP3   OH2 7343   1.149   3.040   1.756 -0.7513 -0.5890  0.0073
 2446TIP3    H1 7344   1.192   2.980   1.816  1.1498 -0.1936 -0.8761
 2446TIP3    H2 7345   1.122   3.114   1.811  0.4216 -0.5036  0.4970
 2447TIP3   OH2 7346   1.331   3.739   2.593  0.4193 -0.0341  0.7497
 2447TIP3    H1 7347   1.338   3.661   2.648 -1.3129 -1.1984 -0.5675
 2447TIP3    H2 7348   1.246   3.731   2.551  0.4805  2.2633  0.0677
 2448TIP3   OH2 7349   5.079   0.233   1.372  0.0412 -0.3966  0.1871
 2448TIP3    H1 7350   5.091   0.142   1.345 -0.8051 -0.5680  0.3774
 2448TIP3    H2 7351   4.984   0.245   1.377  0.1403  0.5276  0.0642
 2449TIP3   OH2 7352   6.326   4.552   4.507 -0.8566  0.2705  0.4649
 2449TIP3    H1 7353   6.396   4.592   4.557 -0.7845  0.9626 -0.1755
 2449TIP3    H2 7354   6.246   4.582   4.550 -0.8082  1.2777 -0.1281
 2450TIP3   OH2 7355   1.857   4.890   4.346  0.3568 -0.5490 -0.2394
 2450TIP3    H1 7356   1.950   4.904   4.366  0.1917 -0.2999  0.3851
 2450TIP3    H2 7357   1.814   4.894   4.431 -0.6481  2.5840 -0.7572
 2451TIP3   OH2 7358   5.616   3.997   4.468 -0.3588 -0.0565  0.0275
 2451TIP3    H1 7359   5.652   4.068   4.521  0.7729 -0.8659  0.3781
 2451TIP3    H2 7360   5.543   3.963   4.520  0.6259 -0.7214  1.0137
 2452TIP3   OH2 7361   3.748   4.822   4.274  0.0304  0.1713 -0.1691
 2452TIP3    H1 7362   3.730   4.826   4.180 -2.6347 -0.8257  0.2274
 2452TIP3    H2 7363   3.709   4.902   4.310  0.1549  0.0627  0.2186
 2453TIP3   OH2 7364   5.844   4.797   2.219  0.4911  0.8037  0.8557
 2453TIP3    H1 7365   5.884   4.850   2.150 -0.5299 -1.0634 -1.3090
 2453TIP3    H2 7366   5.909   4.729   2.238  0.8213  1.3850  1.8760
 2454TIP3   OH2 7367   1.459   4.016   3.547 -0.0081 -0.4741 -0.2547
 2454TIP3    H1 7368   1.519   3.972   3.488  0.4075 -1.0718  0.5892
 2454TIP3    H2 7369   1.442   3.952   3.616 -0.2666  0.2935  0.4119
 2455TIP3   OH2 7370   5.208   5.986   1.835  0.1379  0.3450 -0.6455
 2455TIP3    H1 7371   5.231   6.038   1.758 -0.2515  0.0471 -0.9652
 2455TIP3    H2 7372   5.204   5.896   1.803 -4.1535  0.5715 -1.3070
 2456TIP3   OH2 7373   3.617   0.640   1.251 -0.2122  0.1656 -0.6794
 2456TIP3    H1 7374   3.543   0.580   1.241  1.1472 -1.6673 -0.3128
 2456TIP3    H2 7375   3.605   0.678   1.338  0.0248 -1.2536  0.0033
 2457TIP3   OH2 7376   4.498   1.641   4.309  0.3655  0.1769 -0.2924
 2457TIP3    H1 7377   4.583   1.684   4.304  0.4490 -0.0875 -1.3414
 2457TIP3    H2 7378   4.445   1.700   4.363  1.0151  0.6778 -0.1877
 2458TIP3   OH2 7379   5.660   4.426   4.193  0.3113  0.4488 -0.0304
 2458TIP3    H1 7380   5.665   4.470   4.109  3.5886 -0.2359 -0.3604
 2458TIP3    H2 7381   5.677   4.334   4.172 -3.8025 -0.7187  0.9213
 2459TIP3   OH2 7382   5.075   3.242   3.929 -0.8814  0.0506  0.0883
 2459TIP3    H1 7383   5.144   3.194   3.974 -1.0410  0.6308  0.9995
 2459TIP3    H2 7384   5.077   3.329   3.969 -0.2825  0.9710 -1.8481
 2460TIP3   OH2 7385   4.364   3.182   0.744  0.9798  0.3132 -0.3280
 2460TIP3    H1 7386   4.412   3.101   0.764  0.1319 -0.6578 -2.0262
 2460TIP3    H2 7387   4.272   3.157   0.752  0.7058  1.0680 -1.0066
 2461TIP3   OH2 7388   1.893   0.638   2.135  0.0490  0.3061 -0.1838
 2461TIP3    H1 7389   1.988   0.626   2.124  0.1758  0.3372  0.7660
 2461TIP3    H2 7390   1.855   0.555   2.108  0.3008  0.4829 -1.1020
 2462TIP3   OH2 7391   3.373   1.004   1.422  0.1987  0.0400  0.0777
 2462TIP3    H1 7392   3.448   1.044   1.377  1.6549 -2.6630 -0.0794
 2462TIP3    H2 7393   3.306   0.996   1.354  0.9760 -0.4939 -0.6499
 2463TIP3   OH2 7394   1.671   5.725   2.240 -0.1945  0.1571  0.8320
 2463TIP3    H1 7395   1.731   5.650   2.248 -0.4668 -0.0328  1.1141
 2463TIP3    H2 7396   1.708   5.791   2.298  0.4464  0.5160  0.0432
 2464TIP3   OH2 7397   5.630   4.595   1.381  0.0266 -0.3961 -0.1891
 2464TIP3    H1 7398   5.682   4.653   1.327  0.7640 -0.2305  0.6836
 2464TIP3    H2 7399   5.675   4.510   1.376  1.3800  0.1336  1.8738
 2465TIP3   OH2 7400   1.292   5.168   1.022  0.2957  0.0755 -0.1833
 2465TIP3    H1 7401   1.283   5.075   1.002  0.8695 -0.3941  1.5792
 2465TIP3    H2 7402   1.383   5.189   1.001  0.6282 -0.1870  0.9124
 2466TIP3   OH2 7403   1.819   1.625   4.809 -0.3040 -0.1038 -0.4864
 2466TIP3    H1 7404   1.861   1.546   4.775  0.1498 -0.2943  0.4807
 2466TIP3    H2 7405   1.842   1.694   4.746 -0.5326 -0.6924 -1.2265
 2467TIP3   OH2 7406   2.905   5.272   1.974 -0.5415  0.5138  0.4288
 2467TIP3    H1 7407   2.830   5.316   1.934  0.2436  2.0373  0.5619
 2467TIP3    H2 7408   2.938   5.214   1.906 -1.1533  0.6807 -0.0197
 2468TIP3   OH2 7409   4.224   4.843   1.280  0.0569  0.0011 -0.3217
 2468TIP3    H1 7410   4.234   4.797   1.364  0.0003 -0.5714 -0.6262
 2468TIP3    H2 7411   4.263   4.784   1.215  0.2719  0.5266 -0.6759
 2469TIP3   OH2 7412   5.185   2.506   3.059  0.4106  0.4454  0.0323
 2469TIP3    H1 7413   5.218   2.580   3.007  1.5787 -0.5141 -0.6392
 2469TIP3    H2 7414   5.090   2.518   3.060  0.5144  1.4755 -0.7927
 2470TIP3   OH2 7415   1.426   3.082   4.240 -0.1924 -0.2369  0.0570
 2470TIP3    H1 7416   1.485   3.007   4.243  0.7728  0.5156  1.8320
 2470TIP3    H2 7417   1.461   3.138   4.170  0.7439 -0.1879  0.5433
 2471TIP3   OH2 7418   5.562   5.770   1.054 -0.1004 -0.0960 -0.7211
 2471TIP3    H1 7419   5.551   5.683   1.016  0.5473 -0.1702 -0.7479
 2471TIP3    H2 7420   5.493   5.776   1.120 -0.7852 -0.2366 -1.4046
 2472TIP3   OH2 7421   0.637   4.551   4.146  0.4397  0.0531 -0.0188
 2472TIP3    H1 7422   0.603   4.481   4.090 -0.7632  0.5005  0.1169
 2472TIP3    H2 7423   0.684   4.505   4.215  1.7055 -0.5230 -1.2169
 2473TIP3   OH2 7424   0.051   3.231   3.470  0.0189 -0.4825  0.1844
 2473TIP3    H1 7425   0.125   3.253   3.414 -0.0766 -0.3773  0.0992
 2473TIP3    H2 7426  -0.016   3.295   3.448  0.5398  0.5838  1.5771
 2474TIP3   OH2 7427   2.503   4.115   0.378 -0.3218 -0.1812  0.3697
 2474TIP3    H1 7428   2.440   4.187   0.381 -1.1599 -0.9122  1.9727
 2474TIP3    H2 7429   2.570   4.139   0.441  1.4119  0.8820 -1.7799
 2475TIP3   OH2 7430   0.150   1.612   3.317 -0.3609 -0.0903 -0.0198
 2475TIP3    H1 7431   0.101   1.623   3.235  0.9092 -2.7340 -1.2942
 2475TIP3    H2 7432   0.111   1.535   3.358  1.1878 -0.8827  0.0630
 2476TIP3   OH2 7433   0.886   5.798   1.886  0.0631  0.5850 -0.1060
 2476TIP3    H1 7434   0.915   5.887   1.906  1.1044  0.4712 -1.0357
 2476TIP3    H2 7435   0.914   5.783   1.796  0.5977 -0.9722  0.2929
 2477TIP3   OH2 7436   3.667   1.545   1.462  0.1430 -0.1302  0.1759
 2477TIP3    H1 7437   3.660   1.562   1.368 -0.9535  2.0710  0.6070
 2477TIP3    H2 7438   3.576   1.544   1.493  0.5402  1.6388  1.5597
 2478TIP3   OH2 7439   5.472   2.401   0.610 -0.2981  0.0664 -0.4944
 2478TIP3    H1 7440   5.457   2.385   0.704  0.4455  0.5044 -0.2860
 2478TIP3    H2 7441   5.423   2.481   0.591  0.6083  0.7208 -0.1507
 2479TIP3   OH2 7442   4.990   5.396   0.842 -0.6783 -0.0099  0.2265
 2479TIP3    H1 7443   4.946   5.406   0.926 -0.3480  2.6722  0.1799
 2479TIP3    H2 7444   5.074   5.441   0.853 -0.9377  1.0889 -1.7193
 2480TIP3   OH2 7445   6.253   3.733   1.003  0.0294 -0.3030 -0.9765
 2480TIP3    H1 7446   6.301   3.676   0.943  2.9914  0.7955  0.1414
 2480TIP3    H2 7447   6.321   3.784   1.046 -2.3232  2.5774 -0.3762
 2481TIP3   OH2 7448   1.211   4.685   1.889  0.1516 -0.1174  0.6063
 2481TIP3    H1 7449   1.248   4.662   1.975 -0.6871  0.0033  1.0106
 2481TIP3    H2 7450   1.258   4.763   1.862  2.4856 -1.7369 -0.4048
 2482TIP3   OH2 7451   4.224   0.377   1.383 -0.4480 -0.5684 -0.4322
 2482TIP3    H1 7452   4.255   0.359   1.295 -0.2732  1.6561 -0.8968
 2482TIP3    H2 7453   4.284   0.328   1.440  0.0797 -1.2017 -1.5046
 2483TIP3   OH2 7454   0.980   5.142   3.127  0.4286 -0.3418  0.5752
 2483TIP3    H1 7455   1.046   5.159   3.195  1.3240 -0.8100 -0.1410
 2483TIP3    H2 7456   0.896   5.147   3.173  0.7309  2.9059  1.0333
 2484TIP3   OH2 7457   0.404   3.873   0.364 -0.0598 -0.0868 -0.4319
 2484TIP3    H1 7458   0.381   3.797   0.310 -0.9742  1.0590 -1.7203
 2484TIP3    H2 7459   0.394   3.842   0.454 -0.3370 -1.5164 -0.9251
 2485TIP3   OH2 7460   5.591   4.031   1.495 -0.3606 -0.1278  0.1124
 2485TIP3    H1 7461   5.554   3.946   1.520 -0.0746 -0.7521 -1.4696
 2485TIP3    H2 7462   5.682   4.027   1.523 -0.3633 -0.3041  0.0940
 2486TIP3   OH2 7463   1.071   2.291   3.240 -0.2107 -0.5657  0.5648
 2486TIP3    H1 7464   1.034   2.345   3.311  0.2790  0.1913  0.2633
 2486TIP3    H2 7465   1.158   2.327   3.226  0.2010 -1.5711  0.4698
 2487TIP3   OH2 7466   2.785   0.652   0.326 -0.7973 -0.2344  0.6159
 2487TIP3    H1 7467   2.730   0.701   0.266 -0.2009  1.2535  1.2426
 2487TIP3    H2 7468   2.863   0.629   0.275  0.5146  2.5279  1.1689
 2488TIP3   OH2 7469   0.736   3.906   3.170 -0.4676  0.0868 -0.3899
 2488TIP3    H1 7470   0.795   3.956   3.227 -0.3468 -1.5216  0.9611
 2488TIP3    H2 7471   0.759   3.934   3.082  1.2203  0.6662  0.1982
 2489TIP3   OH2 7472   0.851   2.888   5.027  0.2413  0.4654 -0.0453
 2489TIP3    H1 7473   0.854   2.956   5.095  2.9051  0.8875 -0.4760
 2489TIP3    H2 7474   0.759   2.866   5.020 -0.2472  0.8074  3.2991
 2490TIP3   OH2 7475   1.093   3.846   4.431 -0.3356  0.3249 -0.2023
 2490TIP3    H1 7476   1.129   3.931   4.410  0.7984 -0.2760 -0.7627
 2490TIP3    H2 7477   0.998   3.858   4.425 -0.1694  1.3240 -1.1531
 2491TIP3   OH2 7478   2.422   2.084   4.702  0.5980  0.1192 -0.4374
 2491TIP3    H1 7479   2.444   2.090   4.795 -0.6215 -1.3723  0.0083
 2491TIP3    H2 7480   2.489   2.027   4.665  2.6160  2.7463 -1.1119
 2492TIP3   OH2 7481   4.304   5.594   0.846  0.0840  0.4261  0.1497
 2492TIP3    H1 7482   4.244   5.618   0.776  0.3963  0.7301 -0.0150
 2492TIP3    H2 7483   4.355   5.522   0.810 -0.5310 -0.1876  0.4764
 2493TIP3   OH2 7484   4.433   4.897   0.936  0.2481 -0.0378  0.4527
 2493TIP3    H1 7485   4.454   4.946   0.856  0.1220  0.1473  0.5323
 2493TIP3    H2 7486   4.342   4.919   0.954  0.7805  1.3835  1.6699
 2494TIP3   OH2 7487   2.997   4.692   1.978  0.7417 -0.4943  0.1495
 2494TIP3    H1 7488   2.987   4.787   1.991  1.3304 -0.3272 -0.5565
 2494TIP3    H2 7489   3.064   4.666   2.042  1.5194 -0.1986 -0.5355
 2495TIP3   OH2 7490   2.714   3.249   0.517  0.1368 -0.1880  0.3263
 2495TIP3    H1 7491   2.693   3.168   0.564  0.2209  0.2355  1.1261
 2495TIP3    H2 7492   2.742   3.309   0.586  0.5974  0.3539 -0.3212
 2496TIP3   OH2 7493   3.016   2.141   4.557  0.0091 -0.2885 -0.2888
 2496TIP3    H1 7494   2.954   2.118   4.626  0.6610 -1.0582  0.0513
 2496TIP3    H2 7495   3.006   2.236   4.547 -0.7093 -0.2961  0.2509
 2497TIP3   OH2 7496   4.831   2.763   1.438  0.0764  0.4035 -0.7405
 2497TIP3    H1 7497   4.758   2.825   1.448  0.3974  0.7756 -0.6909
 2497TIP3    H2 7498   4.885   2.777   1.515 -1.5151 -2.2291  1.0506
 2498TIP3   OH2 7499   1.236   5.331   0.518 -0.4019 -0.2159 -1.1391
 2498TIP3    H1 7500   1.239   5.255   0.460 -1.3266 -1.4046  0.3340
 2498TIP3    H2 7501   1.277   5.302   0.599 -1.2936  0.6586 -0.3430
 2499TIP3   OH2 7502   3.925   3.164   2.352 -0.4008  0.1117 -0.5111
 2499TIP3    H1 7503   3.909   3.178   2.445 -0.1038  0.9360 -0.5767
 2499TIP3    H2 7504   3.963   3.247   2.321 -0.2240 -0.2526 -1.2998
 2500TIP3   OH2 7505   5.177   3.379   4.974 -0.4349  0.5566 -0.1734
 2500TIP3    H1 7506   5.177   3.303   4.916  0.3698  0.1235  0.3764
 2500TIP3    H2 7507   5.084   3.394   4.994 -0.7364  0.7768 -1.6246
 2501TIP3   OH2 7508   2.090   3.384   2.565  0.2874  0.2420  0.0008
 2501TIP3    H1 7509   2.057   3.471   2.541  1.0962  0.5036 -0.1894
 2501TIP3    H2 7510   2.180   3.400   2.594  0.6000 -0.5965 -0.4844
 2502TIP3   OH2 7511   1.189   2.933   4.797  0.2462 -0.2725  0.1928
 2502TIP3    H1 7512   1.225   2.879   4.726 -1.6834 -0.6437 -0.5611
 2502TIP3    H2 7513   1.182   2.873   4.871  0.9070 -0.2525  0.2827
 2503TIP3   OH2 7514   4.134   2.727   1.582  0.1613 -0.1941 -0.0309
 2503TIP3    H1 7515   4.080   2.648   1.590  1.3518 -1.0338 -0.0390
 2503TIP3    H2 7516   4.145   2.758   1.672  1.4932 -1.3123  0.2277
 2504TIP3   OH2 7517   1.059   0.871   2.698  0.1874  0.1418  0.0538
 2504TIP3    H1 7518   1.110   0.946   2.668  0.4948 -0.2932 -0.5516
 2504TIP3    H2 7519   1.012   0.842   2.620 -0.7806  0.3640  0.5375
 2505TIP3   OH2 7520   1.801   0.994   1.094 -0.0322  0.5678  0.3240
 2505TIP3    H1 7521   1.865   0.951   1.150 -0.4279 -1.1183 -0.4484
 2505TIP3    H2 7522   1.823   0.963   1.005 -0.4364  1.8573 -0.2460
 2506TIP3   OH2 7523   0.669   3.507   3.679  0.0108 -0.9131  0.3868
 2506TIP3    H1 7524   0.627   3.536   3.598 -1.2280 -0.2012  1.2484
 2506TIP3    H2 7525   0.758   3.484   3.653 -0.4782 -1.0753 -1.2379
 2507TIP3   OH2 7526   3.364   5.189   3.003  0.0704 -0.6402 -0.0126
 2507TIP3    H1 7527   3.354   5.235   3.086 -0.8081 -0.2148 -0.3372
 2507TIP3    H2 7528   3.307   5.112   3.011 -0.4594 -0.3040 -0.4090
 2508TIP3   OH2 7529   6.093   4.674   0.616 -0.1082 -0.4550 -0.3587
 2508TIP3    H1 7530   6.101   4.581   0.637  0.6289 -0.0138  1.6036
 2508TIP3    H2 7531   6.007   4.698   0.649  0.2620 -0.1732  0.4374
 2509TIP3   OH2 7532   6.365   2.945   1.033 -0.2152 -0.0144 -0.4437
 2509TIP3    H1 7533   6.313   3.020   1.005  0.9595  0.8673 -0.3593
 2509TIP3    H2 7534   6.367   2.887   0.957 -2.1533 -0.5712 -0.1108
 2510TIP3   OH2 7535   2.938   2.795   4.122  0.0465 -0.3143  0.0028
 2510TIP3    H1 7536   2.967   2.876   4.078  1.9388 -1.1235 -0.3487
 2510TIP3    H2 7537   3.010   2.775   4.182 -0.0258 -2.1412 -0.4785
 2511TIP3   OH2 7538   4.972   2.538   2.649  0.6082  0.3985  0.0427
 2511TIP3    H1 7539   5.042   2.520   2.712  1.7588 -0.7962 -1.4768
 2511TIP3    H2 7540   5.018   2.547   2.565 -1.0035  0.4574 -0.8717
 2512TIP3   OH2 7541   0.842   4.117   1.697  0.3630 -0.5945  0.1359
 2512TIP3    H1 7542   0.906   4.137   1.766  0.3194  0.2789 -0.0705
 2512TIP3    H2 7543   0.758   4.139   1.736  0.4271  0.9324 -0.5628
 2513TIP3   OH2 7544   0.199   4.516   1.181 -0.4450 -0.3332 -0.4795
 2513TIP3    H1 7545   0.285   4.512   1.223 -0.1859 -0.1197 -0.9794
 2513TIP3    H2 7546   0.218   4.539   1.090 -0.9366 -1.5859 -0.9183
 2514TIP3   OH2 7547   2.184   0.448   0.777  0.1272  0.1559 -0.1070
 2514TIP3    H1 7548   2.227   0.522   0.734 -0.9424  0.8872  0.0356
 2514TIP3    H2 7549   2.221   0.446   0.865  2.7465 -1.6947 -1.1615
 2515TIP3   OH2 7550   0.022   0.504   4.589 -0.0579  0.0448 -0.0850
 2515TIP3    H1 7551   0.107   0.521   4.631 -1.0906  1.9078  1.4019
 2515TIP3    H2 7552  -0.017   0.434   4.640 -0.4379  0.9099  0.8506
 2516TIP3   OH2 7553   2.135   0.567   3.883  0.9722 -0.1789 -0.3174
 2516TIP3    H1 7554   2.131   0.475   3.858  0.8109 -0.1116 -0.5515
 2516TIP3    H2 7555   2.046   0.599   3.870  1.5494  0.6519 -2.8261
 2517TIP3   OH2 7556   2.712   5.837   3.085  0.9526  0.0097 -0.5524
 2517TIP3    H1 7557   2.746   5.885   3.009  0.3026  0.2793 -0.6808
 2517TIP3    H2 7558   2.763   5.871   3.159  1.8818 -0.5612 -0.9132
 2518TIP3   OH2 7559   4.301   0.833   5.077  0.2169 -0.1758 -0.4911
 2518TIP3    H1 7560   4.394   0.842   5.098  0.5862 -1.3459 -1.5497
 2518TIP3    H2 7561   4.292   0.746   5.040 -0.5633  1.1990 -3.9786
 2519TIP3   OH2 7562   3.940   1.238   0.786  0.6109  0.6637  0.2664
 2519TIP3    H1 7563   3.891   1.168   0.830  0.1354  1.4919  1.0929
 2519TIP3    H2 7564   4.012   1.193   0.741 -0.2875 -0.4572 -0.0839
 2520TIP3   OH2 7565   3.718   1.668   2.955  0.5141 -1.0237 -0.6326
 2520TIP3    H1 7566   3.729   1.587   2.905  1.5171 -2.0028  1.0419
 2520TIP3    H2 7567   3.643   1.712   2.915 -0.5485 -3.1632 -1.1405
 2521TIP3   OH2 7568   3.747   4.241   1.180 -0.1234 -0.0546 -0.0957
 2521TIP3    H1 7569   3.785   4.286   1.105  2.6847 -2.1863 -0.1120
 2521TIP3    H2 7570   3.821   4.201   1.224 -1.9243 -0.6511  2.6594
 2522TIP3   OH2 7571   0.380   3.569   4.636  0.0325  0.2920 -0.1358
 2522TIP3    H1 7572   0.315   3.563   4.566 -1.9827  2.9201  1.3261
 2522TIP3    H2 7573   0.462   3.590   4.591 -0.6424 -0.5817 -1.8578
 2523TIP3   OH2 7574   3.385   3.681   4.498  0.3006 -0.0498 -0.3639
 2523TIP3    H1 7575   3.400   3.725   4.415 -1.0415 -0.5071 -0.8820
 2523TIP3    H2 7576   3.322   3.612   4.477  0.0045 -0.2259  1.0192
 2524TIP3   OH2 7577   5.940   2.451   3.647  0.0955  0.0922  0.5737
 2524TIP3    H1 7578   6.003   2.458   3.719  0.2505  0.1578  0.4329
 2524TIP3    H2 7579   5.875   2.519   3.666  1.1836  1.4615 -0.3749
 2525TIP3   OH2 7580   0.643   1.456   3.438 -0.3055  0.0954  0.2577
 2525TIP3    H1 7581   0.629   1.409   3.355 -1.3546 -0.2662  0.6278
 2525TIP3    H2 7582   0.661   1.387   3.502  1.7322  0.4461  0.1234
 2526TIP3   OH2 7583   2.869   2.217   0.025  0.4443  0.2816 -0.8974
 2526TIP3    H1 7584   2.958   2.183   0.017 -0.6996 -3.1487 -0.6105
 2526TIP3    H2 7585   2.818   2.167  -0.038 -1.5777  1.0276  0.0364
 2527TIP3   OH2 7586   2.285   1.355   1.498 -0.5408 -0.1334  0.0677
 2527TIP3    H1 7587   2.345   1.280   1.494 -0.7976 -0.4127  1.1123
 2527TIP3    H2 7588   2.243   1.357   1.412 -1.6047 -2.1169  0.4759
 2528TIP3   OH2 7589   4.855   5.943   4.105  0.1280 -0.5918  0.2813
 2528TIP3    H1 7590   4.935   5.916   4.060  0.9821  0.8617  0.8695
 2528TIP3    H2 7591   4.849   6.037   4.090 -0.5257 -0.3767  1.7041
 2529TIP3   OH2 7592   0.925   3.417   2.531 -0.0426  0.4911 -0.3640
 2529TIP3    H1 7593   0.887   3.450   2.612  1.4559 -1.0345  1.0440
 2529TIP3    H2 7594   1.001   3.473   2.515  0.2434  0.1658 -0.1495
 2530TIP3   OH2 7595   4.295   5.617   1.430 -0.0654  0.4469  0.2515
 2530TIP3    H1 7596   4.279   5.536   1.478  0.4384 -0.6874 -1.3802
 2530TIP3    H2 7597   4.365   5.660   1.479 -0.5734  0.0776  1.3345
 2531TIP3   OH2 7598   2.736   1.328   0.990 -0.0192 -0.2642 -0.2367
 2531TIP3    H1 7599   2.693   1.256   0.944  0.8091 -1.2360  0.4738
 2531TIP3    H2 7600   2.765   1.387   0.921  0.5023 -1.3056 -0.9378
 2532TIP3   OH2 7601   1.562   0.085   2.686  0.0785 -0.2323 -0.2264
 2532TIP3    H1 7602   1.535   0.085   2.594 -0.3087 -0.2814 -0.1157
 2532TIP3    H2 7603   1.480   0.095   2.734  0.3740  0.7741  0.0892
 2533TIP3   OH2 7604   4.494   1.084   3.078 -0.3370 -0.2018  0.0490
 2533TIP3    H1 7605   4.542   1.083   2.996 -0.1899  0.5462  0.1114
 2533TIP3    H2 7606   4.560   1.064   3.145  0.0373  1.3301  0.1868
 2534TIP3   OH2 7607   6.204   5.773   1.375 -0.6010  0.2576 -0.2251
 2534TIP3    H1 7608   6.172   5.724   1.451  2.4261  0.7273  1.5067
 2534TIP3    H2 7609   6.170   5.724   1.300 -2.6306 -0.9874  1.3747
 2535TIP3   OH2 7610   1.969   0.657   3.172  0.0430  0.2135 -0.3738
 2535TIP3    H1 7611   1.970   0.686   3.263 -0.6107 -1.0918  0.0682
 2535TIP3    H2 7612   2.042   0.595   3.166 -1.2505 -1.3890 -0.1326
 2536TIP3   OH2 7613   1.749   3.651   2.148  0.3556 -0.1870  0.4717
 2536TIP3    H1 7614   1.734   3.635   2.241 -0.8704  0.4743  0.4170
 2536TIP3    H2 7615   1.746   3.565   2.108  0.1612 -0.4088  0.9522
 2537TIP3   OH2 7616   4.092   2.708   1.252  0.0206  0.2472 -0.2114
 2537TIP3    H1 7617   4.157   2.669   1.310 -0.3702 -2.5168 -1.4459
 2537TIP3    H2 7618   4.079   2.796   1.286  0.9139 -0.7021  2.9267
 2538TIP3   OH2 7619   2.718   4.036   0.887 -0.1432  0.3210 -0.4661
 2538TIP3    H1 7620   2.757   4.030   0.800 -0.1036 -0.2393 -0.4164
 2538TIP3    H2 7621   2.791   4.025   0.948 -0.0203  1.6770 -0.3405
 2539TIP3   OH2 7622   5.332   4.926   4.940  0.7237 -0.3534  0.2754
 2539TIP3    H1 7623   5.310   4.879   5.020  1.6872 -0.4622  0.4941
 2539TIP3    H2 7624   5.259   4.986   4.926 -1.8595 -3.6136 -1.4495
 2540TIP3   OH2 7625   3.659   4.121   4.256  0.3334  0.0765  0.0100
 2540TIP3    H1 7626   3.675   4.052   4.320  0.0967  0.0597  0.0515
 2540TIP3    H2 7627   3.742   4.130   4.209  0.6733  0.4654  0.6767
 2541TIP3   OH2 7628   5.553   3.323   0.622  0.0415  0.6202 -0.5433
 2541TIP3    H1 7629   5.559   3.282   0.708 -0.2538 -1.1547 -1.3216
 2541TIP3    H2 7630   5.638   3.305   0.581 -0.9475 -1.5706 -1.8394
 2542TIP3   OH2 7631   4.749   5.986   2.180  0.1172  0.8760 -0.1722
 2542TIP3    H1 7632   4.815   6.017   2.241  0.3536  0.4152 -0.1898
 2542TIP3    H2 7633   4.779   5.899   2.154 -1.5041 -0.2015  1.3461
 2543TIP3   OH2 7634   5.907   4.832   3.384 -0.2468 -0.1781  0.1600
 2543TIP3    H1 7635   5.882   4.895   3.452 -0.5715 -1.6959  1.5299
 2543TIP3    H2 7636   5.914   4.748   3.431 -1.2962 -1.4628 -1.8256
 2544TIP3   OH2 7637   0.863   0.242   3.951  0.5396 -0.1358 -0.0826
 2544TIP3    H1 7638   0.773   0.211   3.959  0.6862 -0.4450  0.3532
 2544TIP3    H2 7639   0.854   0.331   3.915 -0.0156  0.4705  1.4764
 2545TIP3   OH2 7640   5.824   3.033   0.297 -0.0657 -0.1463 -0.2063
 2545TIP3    H1 7641   5.769   3.077   0.233  1.2344 -1.1371 -2.0932
 2545TIP3    H2 7642   5.906   3.016   0.251  1.1196 -0.4913  1.8846
 2546TIP3   OH2 7643   4.722   1.002   3.226 -0.4601  0.0353 -0.0839
 2546TIP3    H1 7644   4.771   0.976   3.304 -0.5938  1.7471  0.6256
 2546TIP3    H2 7645   4.778   0.975   3.153 -0.0920 -1.1211  0.5957
 2547TIP3   OH2 7646   1.974   5.771   3.229  0.3375 -0.1994  0.5964
 2547TIP3    H1 7647   2.039   5.730   3.286  1.7301 -0.3739 -1.0044
 2547TIP3    H2 7648   2.026   5.826   3.170 -0.9219 -0.5681 -0.9308
 2548TIP3   OH2 7649   3.519   0.391   0.019  0.1589  0.6047  0.6257
 2548TIP3    H1 7650   3.433   0.429   0.000 -0.9184 -1.7382  0.5211
 2548TIP3    H2 7651   3.517   0.370   0.112  0.4453  0.1444  0.5319
 2549TIP3   OH2 7652   3.748   0.411   2.186 -0.0614  0.1054  1.0348
 2549TIP3    H1 7653   3.698   0.347   2.136  2.3296 -0.6629 -0.6078
 2549TIP3    H2 7654   3.711   0.408   2.274 -2.0361 -1.2577  0.2244
 2550TIP3   OH2 7655   2.226   2.238   0.864  0.7711  0.1692  0.1271
 2550TIP3    H1 7656   2.279   2.301   0.815  1.0880 -0.2878 -0.1166
 2550TIP3    H2 7657   2.224   2.274   0.953  0.3232  0.9164 -0.1760
 2551TIP3   OH2 7658   6.092   4.149   3.071  0.0370 -0.1827 -0.5952
 2551TIP3    H1 7659   6.111   4.095   3.147  0.9674  0.0432 -0.6482
 2551TIP3    H2 7660   6.089   4.087   2.998 -1.3011 -0.4564 -0.3291
 2552TIP3   OH2 7661   4.287   3.585   3.251 -0.2850 -0.0180 -0.0688
 2552TIP3    H1 7662   4.259   3.620   3.167 -2.1016 -0.7556  0.1869
 2552TIP3    H2 7663   4.370   3.630   3.269 -1.0942  2.0148 -1.0644
 2553TIP3   OH2 7664   4.558   0.942   4.273  0.1583 -0.0039 -0.1539
 2553TIP3    H1 7665   4.530   1.018   4.324  0.5513 -0.9101  1.4711
 2553TIP3    H2 7666   4.479   0.890   4.262  0.3054 -0.4214  0.6588
 2554TIP3   OH2 7667   4.128   4.202   1.512 -0.2500  0.0077 -0.6589
 2554TIP3    H1 7668   4.122   4.269   1.580  0.5596 -0.3603 -0.2087
 2554TIP3    H2 7669   4.220   4.201   1.487  0.1901 -2.2718  0.7551
 2555TIP3   OH2 7670   2.064   2.723   3.466 -0.3803 -0.2002 -0.0097
 2555TIP3    H1 7671   2.074   2.815   3.493 -1.0161 -0.0068 -0.4122
 2555TIP3    H2 7672   2.149   2.701   3.426 -0.0425  0.0466  0.5550
 2556TIP3   OH2 7673   3.566   3.605   4.994 -0.4440  0.2159 -0.1272
 2556TIP3    H1 7674   3.481   3.627   4.957 -0.0916  1.0494 -0.4774
 2556TIP3    H2 7675   3.627   3.667   4.953  0.0340  0.9155  1.5426
 2557TIP3   OH2 7676   3.741   4.344   1.444  0.2709  0.3325 -0.5851
 2557TIP3    H1 7677   3.680   4.308   1.509  2.2990  0.4078  1.5090
 2557TIP3    H2 7678   3.714   4.305   1.361 -2.0179 -0.3205  0.3892
 2558TIP3   OH2 7679   2.583   1.568   3.706 -0.2052 -0.0654  0.1771
 2558TIP3    H1 7680   2.545   1.642   3.659  2.1825  0.5798 -0.8616
 2558TIP3    H2 7681   2.657   1.605   3.754 -0.5015 -1.3502  1.7197
 2559TIP3   OH2 7682   6.224   5.066   2.227  0.1585 -0.1410  0.2758
 2559TIP3    H1 7683   6.184   5.021   2.302 -1.4315  1.6781  0.6060
 2559TIP3    H2 7684   6.239   5.155   2.258 -1.5330  0.9679 -1.8374
 2560TIP3   OH2 7685   0.430   4.055   3.946 -0.3067  0.5182  0.0862
 2560TIP3    H1 7686   0.345   4.048   3.902  0.0188 -0.8753 -0.3427
 2560TIP3    H2 7687   0.483   4.108   3.887 -0.3077 -0.1746 -0.5516
 2561TIP3   OH2 7688   0.234   0.849   5.073  0.0653 -0.4745 -0.3618
 2561TIP3    H1 7689   0.262   0.920   5.015 -0.9552 -0.3766 -0.7529
 2561TIP3    H2 7690   0.185   0.790   5.016 -2.6480  0.5789  0.6987
 2562TIP3   OH2 7691   4.397   0.490   1.915  0.1661  0.2006  0.4676
 2562TIP3    H1 7692   4.375   0.415   1.858  0.0679  0.5069  0.0986
 2562TIP3    H2 7693   4.492   0.500   1.905  0.4541 -0.9227  1.8166
 2563TIP3   OH2 7694   4.335   5.832   0.126 -0.0937 -0.1663 -0.0900
 2563TIP3    H1 7695   4.258   5.794   0.084 -0.7019  1.2128 -0.3137
 2563TIP3    H2 7696   4.409   5.789   0.085 -0.7213 -0.0481 -1.3969
 2564TIP3   OH2 7697   0.382   0.427   1.587  0.3698 -0.5992 -0.2464
 2564TIP3    H1 7698   0.319   0.458   1.653 -0.9270 -0.2301 -1.6024
 2564TIP3    H2 7699   0.459   0.403   1.638  0.6390  2.6503  1.1765
 2565TIP3   OH2 7700   0.413   2.134   2.578  0.1582  0.0082  0.4083
 2565TIP3    H1 7701   0.420   2.049   2.621  0.7516 -0.3652 -0.4008
 2565TIP3    H2 7702   0.446   2.197   2.642  1.2822 -0.5724  0.4195
 2566TIP3   OH2 7703   1.435   0.203   0.442 -0.0633 -0.2316 -0.3162
 2566TIP3    H1 7704   1.429   0.208   0.538  1.6402 -2.3662 -0.0249
 2566TIP3    H2 7705   1.360   0.151   0.416  0.6784 -1.5716  0.1350
 2567TIP3   OH2 7706   6.209   3.703   2.647 -0.4318 -0.8754  0.2210
 2567TIP3    H1 7707   6.173   3.620   2.678 -0.7205 -0.9227 -0.2349
 2567TIP3    H2 7708   6.156   3.725   2.570 -0.0781 -0.4868  0.0861
 2568TIP3   OH2 7709   0.756   2.927   3.727 -0.1258 -0.0530  0.2827
 2568TIP3    H1 7710   0.843   2.921   3.765  1.4065  1.8589 -2.5924
 2568TIP3    H2 7711   0.732   3.019   3.736 -1.5825 -0.4054  0.3608
 2569TIP3   OH2 7712   6.212   0.463   3.320  0.0126  0.0941  0.4644
 2569TIP3    H1 7713   6.182   0.551   3.340 -0.3456  0.2488 -0.6620
 2569TIP3    H2 7714   6.297   0.455   3.364 -0.3372  0.6910  1.2661
 2570TIP3   OH2 7715   2.292   2.901   0.764 -0.1405 -0.0144  0.2406
 2570TIP3    H1 7716   2.321   2.949   0.687 -0.6507  0.9245  0.6217
 2570TIP3    H2 7717   2.216   2.850   0.734  0.5665 -0.8065 -0.2291
 2571TIP3   OH2 7718   2.147   2.057   4.667  0.9791 -0.1493  0.1740
 2571TIP3    H1 7719   2.125   1.964   4.674  0.3390 -0.0626 -0.5439
 2571TIP3    H2 7720   2.242   2.059   4.659  0.9479 -0.7988 -0.4817
 2572TIP3   OH2 7721   4.037   4.483   4.389  0.4148 -0.5905  0.0757
 2572TIP3    H1 7722   4.128   4.509   4.380  0.4137 -1.1981 -2.5945
 2572TIP3    H2 7723   4.017   4.496   4.481  2.1923  2.7439  0.1272
 2573TIP3   OH2 7724   2.340   3.255   0.246  0.4151 -0.6442  0.3809
 2573TIP3    H1 7725   2.433   3.274   0.252  0.6930 -2.1963  1.7135
 2573TIP3    H2 7726   2.334   3.160   0.255 -1.1250 -0.9219 -2.5254
 2574TIP3   OH2 7727   1.546   4.465   2.484 -0.0723  0.7214 -0.1640
 2574TIP3    H1 7728   1.542   4.376   2.520 -3.0366  0.8320  0.0614
 2574TIP3    H2 7729   1.604   4.457   2.408  1.2603 -0.9370  0.9368
 2575TIP3   OH2 7730   3.261   4.790   1.611 -0.2950 -0.0260  0.3208
 2575TIP3    H1 7731   3.183   4.733   1.613  0.4645 -1.1294 -0.4347
 2575TIP3    H2 7732   3.305   4.774   1.694 -1.0108  0.8371  0.8889
 2576TIP3   OH2 7733   1.927   4.509   3.678  0.1956 -0.5892  0.4252
 2576TIP3    H1 7734   1.860   4.514   3.747 -1.3410 -0.6699 -0.9981
 2576TIP3    H2 7735   1.882   4.537   3.599  1.8763 -0.6583 -0.6000
 2577TIP3   OH2 7736   0.457   0.611   0.756  0.1337  0.0288  0.2847
 2577TIP3    H1 7737   0.452   0.692   0.806  2.0630  0.4602 -0.1461
 2577TIP3    H2 7738   0.493   0.547   0.816 -0.9374 -0.4168  0.4795
 2578TIP3   OH2 7739   3.828   1.335   1.446 -0.2361  0.3827  0.1673
 2578TIP3    H1 7740   3.889   1.367   1.379  0.0285  1.6011  0.9592
 2578TIP3    H2 7741   3.774   1.410   1.468 -1.7626 -0.5674 -0.1944
 2579TIP3   OH2 7742   5.083   3.864   5.157 -0.9918 -0.1565 -0.4104
 2579TIP3    H1 7743   5.050   3.930   5.096  0.0525  0.1825 -0.6401
 2579TIP3    H2 7744   5.069   3.903   5.244  0.7566  0.9761 -0.5823
 2580TIP3   OH2 7745   2.227   0.295   1.739  0.2260 -0.1276 -0.1105
 2580TIP3    H1 7746   2.155   0.358   1.749 -2.1285 -2.7895  1.2191
 2580TIP3    H2 7747   2.289   0.318   1.809  0.1234  1.4628 -0.4907
 2581TIP3   OH2 7748   2.798   0.705   3.903 -0.1875 -0.3026  0.0628
 2581TIP3    H1 7749   2.753   0.750   3.975 -0.6429  1.2075 -1.0877
 2581TIP3    H2 7750   2.807   0.615   3.932  0.2711  0.3964  2.2890
 2582TIP3   OH2 7751   1.293   0.387   3.268  0.5116  0.1626 -0.6184
 2582TIP3    H1 7752   1.213   0.428   3.234  0.0702  0.4846  0.7493
 2582TIP3    H2 7753   1.343   0.459   3.305  1.7709  0.0606 -2.0176
 2583TIP3   OH2 7754   0.102   4.570   4.064 -0.2838 -0.0102 -0.6111
 2583TIP3    H1 7755   0.045   4.524   4.125  0.4346 -0.6841 -0.4410
 2583TIP3    H2 7756   0.157   4.625   4.119  1.7380 -2.1017 -0.4429
 2584TIP3   OH2 7757   3.428   0.481   4.346 -0.0055  0.1195 -0.4083
 2584TIP3    H1 7758   3.478   0.451   4.422 -1.7694  2.0503  1.6502
 2584TIP3    H2 7759   3.488   0.539   4.299  0.5454  0.2902  0.4952
 2585TIP3   OH2 7760   2.001   3.087   5.108  0.1495 -0.1900 -0.4323
 2585TIP3    H1 7761   2.088   3.120   5.085 -0.7649  1.4695 -1.7599
 2585TIP3    H2 7762   1.999   3.090   5.203  1.0670  1.0997 -0.4210
 2586TIP3   OH2 7763   2.977   4.585   2.447  0.2259 -0.3452 -0.5204
 2586TIP3    H1 7764   2.984   4.644   2.522  1.0757 -1.9934  0.7657
 2586TIP3    H2 7765   2.983   4.497   2.485  1.4467 -1.2242 -2.5993
 2587TIP3   OH2 7766   6.310   2.961   3.909  0.3379  0.5802 -0.6006
 2587TIP3    H1 7767   6.294   3.054   3.893 -0.9005  0.7503  1.3144
 2587TIP3    H2 7768   6.254   2.917   3.845  0.3429  1.1482 -1.0084
 2588TIP3   OH2 7769   0.698   1.050   0.716  0.1293 -0.2934  0.5498
 2588TIP3    H1 7770   0.751   0.999   0.655  0.4170  0.1622  0.4068
 2588TIP3    H2 7771   0.665   1.123   0.663 -0.3556 -0.3861  0.7239
 2589TIP3   OH2 7772   3.123   1.255   1.169  0.2948  0.1987  0.0021
 2589TIP3    H1 7773   3.092   1.276   1.081 -1.2377  0.2848  0.5211
 2589TIP3    H2 7774   3.197   1.314   1.183  0.5679  0.1809 -1.2212
 2590TIP3   OH2 7775   2.851   2.752   2.511  0.0703  0.0550  0.1991
 2590TIP3    H1 7776   2.817   2.783   2.595 -1.4160  1.5951 -0.8946
 2590TIP3    H2 7777   2.788   2.685   2.484 -0.0317  0.2927 -0.1531
 2591TIP3   OH2 7778   3.972   4.574   4.656  0.1176  0.4518  0.0143
 2591TIP3    H1 7779   3.900   4.510   4.657 -0.2555  0.8491  1.3122
 2591TIP3    H2 7780   4.027   4.548   4.730  1.3701  0.1267 -0.9914
 2592TIP3   OH2 7781   5.139   4.684   0.649 -0.4332  0.0470  0.6658
 2592TIP3    H1 7782   5.110   4.740   0.576 -0.1890 -0.5216  0.1250
 2592TIP3    H2 7783   5.139   4.596   0.613  2.9927  0.0931  0.2547
 2593TIP3   OH2 7784   3.392   4.133   3.505 -0.4295  0.3568  0.5543
 2593TIP3    H1 7785   3.329   4.127   3.433 -0.1159  2.1514  0.0856
 2593TIP3    H2 7786   3.392   4.226   3.530  1.6913  0.3460  0.8267
 2594TIP3   OH2 7787   3.215   5.519   3.460 -0.1449  0.0167  0.0917
 2594TIP3    H1 7788   3.171   5.558   3.384 -1.0349 -0.2519  0.4607
 2594TIP3    H2 7789   3.242   5.594   3.513  0.8872  0.2322 -0.6826
 2595TIP3   OH2 7790   3.432   1.098   2.588  0.1046 -0.4454 -0.0571
 2595TIP3    H1 7791   3.430   1.191   2.569 -2.6702 -0.5649 -0.8742
 2595TIP3    H2 7792   3.425   1.093   2.684  1.7494  0.1440  0.1183
 2596TIP3   OH2 7793   0.889   3.912   2.091  0.0715 -0.1194 -0.0458
 2596TIP3    H1 7794   0.805   3.892   2.049 -0.5609  1.7461  0.2149
 2596TIP3    H2 7795   0.919   3.992   2.047 -0.2317  1.4678  2.4582
 2597TIP3   OH2 7796   0.600   5.634   1.597 -0.6400  0.6549  0.8565
 2597TIP3    H1 7797   0.657   5.562   1.627 -1.7953 -0.8405 -0.3549
 2597TIP3    H2 7798   0.513   5.611   1.630 -1.5766 -0.0519 -1.8462
 2598TIP3   OH2 7799   5.126   4.589   4.654  0.2350  0.2013 -0.1371
 2598TIP3    H1 7800   5.071   4.572   4.731 -2.7412 -1.4404 -2.4107
 2598TIP3    H2 7801   5.161   4.503   4.630  0.4661  0.5365 -1.0416
 2599TIP3   OH2 7802   5.868   1.112   0.963 -0.4836  0.4770 -0.2614
 2599TIP3    H1 7803   5.852   1.202   0.992 -0.6459  0.2673  0.3091
 2599TIP3    H2 7804   5.810   1.058   1.017  0.0895 -0.0317 -0.1359
 2600TIP3   OH2 7805   6.174   3.805   2.302 -0.8171  0.1792 -0.0383
 2600TIP3    H1 7806   6.252   3.812   2.358  1.0401  1.1314 -2.5371
 2600TIP3    H2 7807   6.137   3.894   2.302 -0.5633  0.2895 -0.6151
 2601TIP3   OH2 7808   4.877   0.347   2.042 -0.1381  0.0721  0.1445
 2601TIP3    H1 7809   4.943   0.369   2.107  0.0230 -1.3332  0.4649
 2601TIP3    H2 7810   4.877   0.252   2.037  0.6042  0.1109 -2.6753
 2602TIP3   OH2 7811   4.262   4.368   3.755  0.0423 -0.0331  0.2096
 2602TIP3    H1 7812   4.255   4.273   3.751 -0.5408 -0.0248  0.7786
 2602TIP3    H2 7813   4.236   4.398   3.668  2.6054 -0.4856 -0.8068
 2603TIP3   OH2 7814   0.661   1.189   2.639 -0.1708  0.1254  0.0239
 2603TIP3    H1 7815   0.670   1.122   2.571  1.1386 -0.0063  0.2987
 2603TIP3    H2 7816   0.566   1.203   2.647 -0.3585 -0.0522 -1.6201
 2604TIP3   OH2 7817   2.626   4.266   2.017 -0.0273 -0.4468  0.2169
 2604TIP3    H1 7818   2.683   4.343   2.016 -0.4137 -0.0520 -2.7979
 2604TIP3    H2 7819   2.683   4.195   2.047  0.3393  0.9356  3.0668
 2605TIP3   OH2 7820   4.591   1.186   0.303  0.1439  0.6614  0.4167
 2605TIP3    H1 7821   4.502   1.161   0.326 -0.1760  0.5354 -0.8503
 2605TIP3    H2 7822   4.638   1.103   0.293  0.1463  0.6884  0.1781
 2606TIP3   OH2 7823   1.562   1.800   3.032 -0.4528 -0.4231  0.0681
 2606TIP3    H1 7824   1.496   1.864   3.058 -1.2161 -0.7375 -1.0071
 2606TIP3    H2 7825   1.599   1.835   2.952  0.7290 -0.2367  0.6814
 2607TIP3   OH2 7826   6.057   4.741   4.987  0.2859 -0.2272 -0.1490
 2607TIP3    H1 7827   5.976   4.785   4.963  0.9891  0.3467 -1.6111
 2607TIP3    H2 7828   6.100   4.801   5.048 -0.9403 -1.1182  1.6588
 2608TIP3   OH2 7829   1.222   0.438   2.375 -0.2460 -0.5535 -0.2207
 2608TIP3    H1 7830   1.293   0.449   2.313 -0.1666 -1.4847 -0.3166
 2608TIP3    H2 7831   1.261   0.391   2.448 -0.6530 -0.6678 -0.0724
 2609TIP3   OH2 7832   0.540   3.142   3.185 -0.2043  0.1429  0.1561
 2609TIP3    H1 7833   0.624   3.108   3.153 -0.6281  0.2343 -1.0677
 2609TIP3    H2 7834   0.560   3.230   3.216  0.1687  0.1166 -0.0064
 2610TIP3   OH2 7835   5.062   3.627   2.234  0.2356 -0.0085 -0.9236
 2610TIP3    H1 7836   5.037   3.646   2.325  0.4090 -1.6955 -0.4918
 2610TIP3    H2 7837   5.027   3.701   2.184 -3.5889 -1.0242 -0.0859
 2611TIP3   OH2 7838   2.046   2.996   0.968  0.0575  0.1273  0.0523
 2611TIP3    H1 7839   2.097   2.919   0.993  1.5589  1.1896  0.3540
 2611TIP3    H2 7840   2.020   2.979   0.877 -1.6363 -1.7474  0.8123
 2612TIP3   OH2 7841   5.939   0.940   4.401  0.7211  0.1941  0.4562
 2612TIP3    H1 7842   5.986   0.895   4.471 -0.1047  0.5119  1.2284
 2612TIP3    H2 7843   5.849   0.909   4.409  0.8426 -0.6998 -1.2412
 2613TIP3   OH2 7844   5.496   0.987   0.960  0.0155 -0.2496  0.2903
 2613TIP3    H1 7845   5.420   0.950   1.005 -0.1420  0.0615  0.2810
 2613TIP3    H2 7846   5.467   1.073   0.928 -0.2358 -0.9205 -1.3952
 2614TIP3   OH2 7847   5.097   5.208   1.898  0.3849 -0.2340  0.0460
 2614TIP3    H1 7848   5.038   5.170   1.833 -1.7935  1.0393  1.1574
 2614TIP3    H2 7849   5.185   5.183   1.869 -0.3935  0.7035 -3.6826
 2615TIP3   OH2 7850   0.559   4.360   3.933 -0.2625 -0.2823  0.2245
 2615TIP3    H1 7851   0.568   4.438   3.879 -0.3319 -1.1649 -1.1209
 2615TIP3    H2 7852   0.556   4.288   3.870  3.6800 -1.7787  1.4696
 2616TIP3   OH2 7853   3.373   2.346   0.056  0.0847  0.1271 -0.1283
 2616TIP3    H1 7854   3.463   2.313   0.060  0.1868 -0.3067 -3.3132
 2616TIP3    H2 7855   3.381   2.431   0.012 -1.0843 -0.1565 -0.9434
 2617TIP3   OH2 7856   1.518   5.368   3.248  0.9891  0.0337 -0.1029
 2617TIP3    H1 7857   1.540   5.459   3.228  0.2434  0.1968 -0.2117
 2617TIP3    H2 7858   1.585   5.340   3.310  1.1611  0.6907  0.0114
 2618TIP3   OH2 7859   4.336   1.071   2.504  0.1717 -0.3119 -0.2188
 2618TIP3    H1 7860   4.364   1.162   2.515  1.5837 -0.7490  0.0050
 2618TIP3    H2 7861   4.342   1.034   2.592 -0.4722 -0.6097 -0.2950
 2619TIP3   OH2 7862   1.883   4.245   3.570  0.0006 -0.2123  0.2626
 2619TIP3    H1 7863   1.819   4.204   3.628 -1.7704  0.9519 -0.7832
 2619TIP3    H2 7864   1.924   4.313   3.624  1.1946 -1.6308  1.2501
 2620TIP3   OH2 7865   0.324   3.278   3.374  0.6232  0.1323  0.5023
 2620TIP3    H1 7866   0.347   3.332   3.298  0.4077  0.1871  0.4770
 2620TIP3    H2 7867   0.324   3.188   3.340 -0.3804  0.2356  0.2206
 2621TIP3   OH2 7868   2.157   4.909   0.749 -0.6061  0.0269  0.1228
 2621TIP3    H1 7869   2.197   4.927   0.834 -0.6006 -1.9197  0.5768
 2621TIP3    H2 7870   2.080   4.856   0.769 -1.4854  0.8291 -1.0036
 2622TIP3   OH2 7871   5.356   4.116   3.802 -1.0454 -0.1446 -0.3373
 2622TIP3    H1 7872   5.330   4.062   3.877 -1.5986 -0.0553 -0.4662
 2622TIP3    H2 7873   5.274   4.151   3.767 -0.8818 -0.9358 -1.5604
 2623TIP3   OH2 7874   3.639   3.006   3.375 -0.1192 -0.0201  0.4464
 2623TIP3    H1 7875   3.550   2.970   3.386 -0.0390 -0.3471  0.0521
 2623TIP3    H2 7876   3.683   2.943   3.317 -0.4942  1.5685 -1.6785
 2624TIP3   OH2 7877   1.980   0.443   1.758 -0.1128 -0.3694 -0.7718
 2624TIP3    H1 7878   1.905   0.483   1.801  0.6461 -0.5125  0.7314
 2624TIP3    H2 7879   2.022   0.514   1.710 -1.0115 -0.2254 -1.3656
 2625TIP3   OH2 7880   0.641   1.717   1.573  0.6213 -0.2537  0.1191
 2625TIP3    H1 7881   0.597   1.658   1.512  1.7561 -1.9144  0.8210
 2625TIP3    H2 7882   0.598   1.701   1.657  1.1061 -0.3049  0.3645
 2626TIP3   OH2 7883   4.215   6.026   4.508 -0.8992  0.2222  0.3681
 2626TIP3    H1 7884   4.139   5.968   4.514 -0.8556  0.2154  0.9968
 2626TIP3    H2 7885   4.286   5.970   4.477 -0.6165 -0.3184  1.9001
 2627TIP3   OH2 7886   3.636   3.262   0.739  0.3137 -0.0887 -0.5679
 2627TIP3    H1 7887   3.556   3.249   0.791 -0.2178  3.7256 -0.1357
 2627TIP3    H2 7888   3.706   3.265   0.803  0.1890  0.7777 -0.4629
 2628TIP3   OH2 7889   3.089   5.264   3.919 -0.1370  0.7371 -0.1766
 2628TIP3    H1 7890   3.001   5.239   3.889  0.1273 -0.7253  0.1883
 2628TIP3    H2 7891   3.147   5.202   3.875  0.6641  1.3254  0.0411
 2629TIP3   OH2 7892   4.398   2.819   4.454 -0.3452  0.1504  0.2541
 2629TIP3    H1 7893   4.381   2.882   4.523 -1.7736 -1.2702  1.2738
 2629TIP3    H2 7894   4.424   2.872   4.378  1.4354  1.7437  1.8756
 2630TIP3   OH2 7895   2.629   4.610   4.000  0.1592 -0.2262 -0.3126
 2630TIP3    H1 7896   2.668   4.532   3.961  0.9700 -1.0506  1.9638
 2630TIP3    H2 7897   2.537   4.585   4.016  0.4150 -0.7504  0.4044
 2631TIP3   OH2 7898   4.385   4.701   3.967  0.4750  0.4861 -0.2284
 2631TIP3    H1 7899   4.325   4.718   3.894 -0.6575  1.1331  0.8217
 2631TIP3    H2 7900   4.377   4.607   3.983 -0.3125  0.5810 -0.0561
 2632TIP3   OH2 7901   5.645   1.996   4.426  0.3053  0.4577  0.5157
 2632TIP3    H1 7902   5.600   1.945   4.493 -1.1013  0.8327 -0.0929
 2632TIP3    H2 7903   5.628   2.087   4.449 -1.1128  0.5938 -0.8781
 2633TIP3   OH2 7904   5.607   3.626   4.175 -0.1016 -0.1336  0.8079
 2633TIP3    H1 7905   5.640   3.564   4.240 -0.6701 -0.2385  1.0018
 2633TIP3    H2 7906   5.631   3.587   4.091  0.7225  0.0523  0.9476
 2634TIP3   OH2 7907   4.818   3.518   3.165  0.1959 -0.0111  0.0135
 2634TIP3    H1 7908   4.824   3.575   3.089 -0.4956 -0.8724 -0.7064
 2634TIP3    H2 7909   4.909   3.492   3.183  0.3238 -0.1891 -0.8304
 2635TIP3   OH2 7910   1.050   2.111   1.628  0.6573 -0.1360  0.4055
 2635TIP3    H1 7911   0.956   2.129   1.621  0.9519  1.5477  0.2781
 2635TIP3    H2 7912   1.062   2.083   1.719 -0.2482 -2.4897 -0.1353
 2636TIP3   OH2 7913   1.818   1.853   5.012  0.0215  0.0775 -0.0729
 2636TIP3    H1 7914   1.769   1.804   5.078 -0.5087  0.5480 -0.1014
 2636TIP3    H2 7915   1.820   1.796   4.936  1.1523 -0.7141  0.5269
 2637TIP3   OH2 7916   1.254   2.897   0.062 -0.3149 -0.3366 -0.0229
 2637TIP3    H1 7917   1.190   2.934   0.123  0.4378  0.2131  0.4552
 2637TIP3    H2 7918   1.217   2.911  -0.024 -0.2042  1.2534  0.1725
 2638TIP3   OH2 7919   5.163   0.111   2.163 -0.2706 -0.1220 -0.5990
 2638TIP3    H1 7920   5.069   0.109   2.144 -0.2017  0.4584 -1.0315
 2638TIP3    H2 7921   5.182   0.025   2.200 -1.0325 -0.1309 -0.2150
 2639TIP3   OH2 7922   0.640   3.053   1.345  0.2904  0.9025  0.3963
 2639TIP3    H1 7923   0.561   3.009   1.314  0.8346  1.3203 -1.8193
 2639TIP3    H2 7924   0.629   3.144   1.320  0.7859  1.2993  1.5538
 2640TIP3   OH2 7925   0.961   0.160   2.741 -0.1422 -0.2840 -0.0096
 2640TIP3    H1 7926   1.026   0.131   2.805 -0.2121  1.0081  0.6720
 2640TIP3    H2 7927   1.004   0.147   2.656  0.5894 -0.4440  0.3771
 2641TIP3   OH2 7928   3.631   2.592   0.779 -0.0126  0.1121  0.0839
 2641TIP3    H1 7929   3.721   2.568   0.801 -0.5083 -1.0008  1.0049
 2641TIP3    H2 7930   3.581   2.511   0.791 -1.1987  0.7994 -0.0703
 2642TIP3   OH2 7931   0.384   3.638   0.148  0.1540 -0.2871  0.1986
 2642TIP3    H1 7932   0.452   3.571   0.151  1.0562  0.6295  1.2190
 2642TIP3    H2 7933   0.324   3.615   0.218 -0.5891 -1.0712 -0.6729
 2643TIP3   OH2 7934   1.047   5.959   1.456  0.8131 -0.0994 -0.0934
 2643TIP3    H1 7935   0.988   5.901   1.504  1.5607 -1.1954 -0.4587
 2643TIP3    H2 7936   1.120   5.974   1.516  0.7034  0.3403 -0.0642
 2644TIP3   OH2 7937   4.689   2.682   2.575 -0.4264 -0.0018 -0.1583
 2644TIP3    H1 7938   4.756   2.641   2.629 -1.1379 -1.5219 -0.3615
 2644TIP3    H2 7939   4.710   2.654   2.486 -0.3651  0.9208 -0.4486
 2645TIP3   OH2 7940   1.133   5.844   0.839 -0.3105  0.0275 -0.6336
 2645TIP3    H1 7941   1.048   5.800   0.848 -0.7683  0.7771 -1.1851
 2645TIP3    H2 7942   1.182   5.788   0.779 -0.9366  0.3088 -1.4286
 2646TIP3   OH2 7943   4.425   0.052   5.021  0.0454  0.6621 -0.3795
 2646TIP3    H1 7944   4.509   0.005   5.015 -0.1823  0.2481 -0.3528
 2646TIP3    H2 7945   4.415   0.071   5.114 -0.6211 -0.6465 -0.1646
 2647TIP3   OH2 7946   4.486   1.408   4.896  0.5445 -0.4138 -0.0486
 2647TIP3    H1 7947   4.508   1.416   4.803  2.2962  1.5860  0.4678
 2647TIP3    H2 7948   4.570   1.391   4.939  0.1180  0.8958  1.3747
 2648TIP3   OH2 7949   1.152   0.142   2.984 -0.1283 -0.1739  0.0915
 2648TIP3    H1 7950   1.231   0.127   3.036  0.0020 -1.5952 -0.4757
 2648TIP3    H2 7951   1.080   0.129   3.045  0.0083 -2.4016 -0.1536
 2649TIP3   OH2 7952   4.744   1.685   0.936  0.1204  0.2236  0.4865
 2649TIP3    H1 7953   4.765   1.598   0.901 -3.7233 -0.5590 -0.2404
 2649TIP3    H2 7954   4.774   1.682   1.026  0.9152 -1.5041  0.2081
 2650TIP3   OH2 7955   2.445   0.891   0.983 -0.1478 -0.0447  0.6083
 2650TIP3    H1 7956   2.498   0.928   0.914  0.0494  0.6575  1.1312
 2650TIP3    H2 7957   2.503   0.829   1.028  0.3348  0.9354  1.3624
 2651TIP3   OH2 7958   4.241   1.884   2.699 -0.4352  0.4841 -0.0471
 2651TIP3    H1 7959   4.191   1.948   2.751  0.6666  1.7740 -0.4997
 2651TIP3    H2 7960   4.175   1.825   2.663 -1.2599 -0.2295  2.4774
 2652TIP3   OH2 7961   5.075   1.340   1.814  0.1501  0.5579  0.1714
 2652TIP3    H1 7962   5.150   1.281   1.803 -1.0861 -0.9457 -0.3956
 2652TIP3    H2 7963   5.083   1.371   1.904  1.5683  0.6146  0.0637
 2653TIP3   OH2 7964   1.743   0.297   4.185 -0.3071  0.2196  0.4324
 2653TIP3    H1 7965   1.685   0.261   4.118 -0.8918 -1.9345  1.9840
 2653TIP3    H2 7966   1.699   0.377   4.214 -0.7117  0.4662 -0.7955
 2654TIP3   OH2 7967   4.071   3.108   3.583  0.7310  0.4611 -0.8342
 2654TIP3    H1 7968   4.055   3.203   3.584  1.4348  0.6186  1.5912
 2654TIP3    H2 7969   4.165   3.099   3.601  0.5706 -0.6984 -0.5081
 2655TIP3   OH2 7970   2.024   0.384   3.008 -0.0084  0.2600  0.2447
 2655TIP3    H1 7971   1.951   0.436   2.974  0.3493 -0.5823 -1.9909
 2655TIP3    H2 7972   1.983   0.303   3.039 -0.2114  0.5530  0.7561
 2656TIP3   OH2 7973   4.464   5.079   4.242 -0.1633  0.0211 -0.2415
 2656TIP3    H1 7974   4.410   5.000   4.236 -0.2141 -0.0320  0.7203
 2656TIP3    H2 7975   4.455   5.121   4.156 -0.2987 -0.9077 -0.6909
 2657TIP3   OH2 7976   6.145   4.919   4.059  0.3600  0.6613  0.4475
 2657TIP3    H1 7977   6.102   4.850   4.110  0.1667  0.8221  0.5050
 2657TIP3    H2 7978   6.238   4.911   4.081  0.4409 -0.1016 -0.1720
 2658TIP3   OH2 7979   5.704   5.764   3.287 -0.0675 -0.5320 -0.2589
 2658TIP3    H1 7980   5.766   5.707   3.241 -0.0507  0.9367 -2.2078
 2658TIP3    H2 7981   5.726   5.754   3.380  1.8062 -1.5049 -0.7576
 2659TIP3   OH2 7982   1.776   1.823   3.942  0.9758  0.1980 -0.8411
 2659TIP3    H1 7983   1.702   1.828   3.882  0.1612  0.2997  0.1333
 2659TIP3    H2 7984   1.797   1.915   3.961  1.6972  0.1800 -1.5069
 2660TIP3   OH2 7985   2.659   5.468   3.296 -0.2208  0.2323 -0.2636
 2660TIP3    H1 7986   2.581   5.412   3.288 -0.5143  0.6494 -0.3367
 2660TIP3    H2 7987   2.665   5.513   3.212 -0.5469  1.0322  0.1284
 2661TIP3   OH2 7988   4.100   0.927   3.690 -0.4076 -0.5562 -0.2011
 2661TIP3    H1 7989   4.181   0.877   3.674  0.0261  0.2458 -0.5439
 2661TIP3    H2 7990   4.129   1.006   3.734 -0.6084  1.1404 -2.8792
 2662TIP3   OH2 7991   4.557   5.437   1.997  0.3721 -0.5483  0.4118
 2662TIP3    H1 7992   4.461   5.438   1.988  0.3756  1.3737  0.1500
 2662TIP3    H2 7993   4.577   5.350   2.033 -1.4366 -1.0838  0.2306
 2663TIP3   OH2 7994   1.629   2.681   2.899 -0.5588  0.4676  0.1483
 2663TIP3    H1 7995   1.595   2.602   2.857 -2.3926  1.9673 -1.4113
 2663TIP3    H2 7996   1.584   2.684   2.984 -0.1463 -0.3536  0.4097
 2664TIP3   OH2 7997   1.924   1.380   4.349 -0.0467  0.0770 -0.2537
 2664TIP3    H1 7998   1.837   1.417   4.336 -0.4814 -0.9073 -0.2381
 2664TIP3    H2 7999   1.931   1.310   4.283  0.9237  0.4712 -0.5843
 2665TIP3   OH2 8000   5.866   0.483   2.709  0.9243 -0.3174  0.6800
 2665TIP3    H1 8001   5.856   0.441   2.794 -0.1880  2.5440  2.0969
 2665TIP3    H2 8002   5.957   0.513   2.707  0.9594 -0.4135  0.8375
 2666TIP3   OH2 8003   6.228   4.407   4.759 -0.3501  0.5974  0.0377
 2666TIP3    H1 8004   6.134   4.395   4.749 -0.1732  0.4873 -1.9020
 2666TIP3    H2 8005   6.238   4.501   4.778 -0.8445  0.6242  0.1854
 2667TIP3   OH2 8006   5.209   3.665   0.001 -0.2193  0.5009 -0.3822
 2667TIP3    H1 8007   5.263   3.684   0.078  0.8177  2.3903 -1.5083
 2667TIP3    H2 8008   5.188   3.572   0.009  1.7199  0.1217  1.0158
 2668TIP3   OH2 8009   2.330   3.897   0.455  0.4904  0.1627 -0.1174
 2668TIP3    H1 8010   2.327   3.925   0.546 -1.6252  1.4414 -0.5040
 2668TIP3    H2 8011   2.390   3.958   0.413 -0.0362  0.8246  0.0697
 2669TIP3   OH2 8012   1.835   3.806   3.291  0.0873  0.0086 -0.8313
 2669TIP3    H1 8013   1.863   3.848   3.372 -1.7730  0.4302 -0.3557
 2669TIP3    H2 8014   1.916   3.786   3.245  1.1549  0.4901  0.7612
 2670TIP3   OH2 8015   5.698   1.491   2.373 -0.0562 -0.2945 -0.0089
 2670TIP3    H1 8016   5.665   1.574   2.338 -0.2597 -0.2136  0.3696
 2670TIP3    H2 8017   5.792   1.493   2.354 -0.4544 -1.1628 -2.3566
 2671TIP3   OH2 8018   3.951   3.477   3.369  0.6166  0.3684  0.0642
 2671TIP3    H1 8019   3.960   3.554   3.424 -0.5781  1.2103 -0.8508
 2671TIP3    H2 8020   4.004   3.496   3.291  1.1176 -0.1822  0.2569
 2672TIP3   OH2 8021   2.492   2.434   2.234  0.0341 -0.5975 -0.5561
 2672TIP3    H1 8022   2.416   2.399   2.187 -1.8176  3.3800 -0.9016
 2672TIP3    H2 8023   2.544   2.478   2.166  0.0441  0.8443  0.3586
 2673TIP3   OH2 8024   6.012   1.707   5.217  0.1629 -0.0865  0.4992
 2673TIP3    H1 8025   6.081   1.646   5.189 -1.3522 -2.0457  0.7855
 2673TIP3    H2 8026   5.959   1.721   5.138  0.7065  1.1964  0.3438
 2674TIP3   OH2 8027   1.083   5.686   1.349 -0.0531  0.0730  0.5966
 2674TIP3    H1 8028   1.041   5.742   1.284  0.4977 -1.0932 -0.8320
 2674TIP3    H2 8029   1.163   5.734   1.373  0.9242 -0.4653 -1.3454
 2675TIP3   OH2 8030   3.855   0.017   3.994  0.2298  0.3647  0.0769
 2675TIP3    H1 8031   3.837   0.076   4.067 -0.8344 -2.0063  1.8705
 2675TIP3    H2 8032   3.790   0.040   3.928  0.6754  2.0113  0.1590
 2676TIP3   OH2 8033   5.465   5.572   5.088 -0.0024  0.8663  0.1267
 2676TIP3    H1 8034   5.399   5.553   5.022 -1.1186  1.3562  1.0569
 2676TIP3    H2 8035   5.441   5.658   5.122  0.4038  0.5277  1.3266
 2677TIP3   OH2 8036   3.677   2.839   1.154 -0.1559 -0.3509 -0.4376
 2677TIP3    H1 8037   3.585   2.812   1.154 -0.2312 -0.1032  0.2153
 2677TIP3    H2 8038   3.700   2.845   1.061 -0.5852 -1.1210 -0.6030
 2678TIP3   OH2 8039   3.703   1.647   4.956 -0.2598  0.0365 -0.1959
 2678TIP3    H1 8040   3.639   1.609   5.017 -1.0775  0.7671 -0.5633
 2678TIP3    H2 8041   3.741   1.720   5.004  1.4004 -1.2520  0.5548
 2679TIP3   OH2 8042   4.350   3.739   3.596 -0.2596 -0.1837  0.5382
 2679TIP3    H1 8043   4.364   3.807   3.663 -0.8136  0.0877  0.3874
 2679TIP3    H2 8044   4.398   3.663   3.629  0.8564  0.4436  0.4327
 2680TIP3   OH2 8045   6.103   1.586   2.091  0.0623 -0.1226 -0.0938
 2680TIP3    H1 8046   6.064   1.661   2.137  0.6154  0.2222 -0.1843
 2680TIP3    H2 8047   6.041   1.514   2.107 -0.6943  0.4537 -0.3606
 2681TIP3   OH2 8048   3.456   0.676   2.310 -0.5115 -0.2502  0.0081
 2681TIP3    H1 8049   3.529   0.614   2.309  0.4818  0.8771 -0.2792
 2681TIP3    H2 8050   3.427   0.681   2.219  0.4821  0.8744 -0.2816
 2682TIP3   OH2 8051   0.677   4.608   0.841 -0.3556 -0.1693 -0.4559
 2682TIP3    H1 8052   0.718   4.560   0.770 -0.6646  0.4777 -1.0828
 2682TIP3    H2 8053   0.631   4.681   0.798 -0.3826  0.3441  0.4162
 2683TIP3   OH2 8054   2.381   5.697   4.157 -0.2424 -0.3017  0.1602
 2683TIP3    H1 8055   2.418   5.609   4.161  1.4773  0.4314  1.2924
 2683TIP3    H2 8056   2.450   5.752   4.120 -1.8103  0.3656 -1.9593
 2684TIP3   OH2 8057   1.087   1.321   0.580 -0.0453 -0.0290  0.9677
 2684TIP3    H1 8058   1.055   1.307   0.669  0.5312 -0.8773  1.0551
 2684TIP3    H2 8059   1.119   1.411   0.580  0.9641 -0.3602  1.9520
 2685TIP3   OH2 8060   5.141   3.490   4.049 -0.0050 -0.0320 -0.0896
 2685TIP3    H1 8061   5.231   3.508   4.078 -0.7190  1.7306  1.1935
 2685TIP3    H2 8062   5.130   3.543   3.970  0.1953 -0.5670 -0.4825
 2686TIP3   OH2 8063   4.166   5.533   1.091 -0.4867  0.3110  0.1190
 2686TIP3    H1 8064   4.223   5.541   1.016 -0.8569  0.1322 -0.1858
 2686TIP3    H2 8065   4.212   5.473   1.150 -0.7359 -0.5069 -0.4953
 2687TIP3   OH2 8066   2.849   4.903   1.712 -0.1520  0.0668  0.0841
 2687TIP3    H1 8067   2.857   4.886   1.618  0.1020  0.9333 -0.0602
 2687TIP3    H2 8068   2.938   4.892   1.746  0.0768  1.3144 -0.0606
 2688TIP3   OH2 8069   3.864   1.059   3.920  0.1527 -0.3192 -0.1631
 2688TIP3    H1 8070   3.935   1.123   3.911  0.7555 -0.9814 -0.1871
 2688TIP3    H2 8071   3.886   0.990   3.858 -1.2969  0.1527 -1.2621
 2689TIP3   OH2 8072   0.470   5.791   3.219 -0.2820 -0.8188 -0.2696
 2689TIP3    H1 8073   0.512   5.729   3.160  2.6111  1.3658 -0.7295
 2689TIP3    H2 8074   0.405   5.836   3.165  0.7474 -0.4042 -1.1877
 2690TIP3   OH2 8075   3.858   4.860   4.850 -0.2779 -0.2611  0.3939
 2690TIP3    H1 8076   3.794   4.887   4.784  0.0371 -1.0758 -0.2619
 2690TIP3    H2 8077   3.819   4.887   4.934 -0.5029  1.1379 -0.1289
 2691TIP3   OH2 8078   3.332   4.605   4.599 -0.0348 -0.6510 -0.0892
 2691TIP3    H1 8079   3.391   4.575   4.530  1.7764  0.3805  0.9496
 2691TIP3    H2 8080   3.262   4.539   4.601  1.4203 -2.2846 -0.9017
 2692TIP3   OH2 8081   4.771   4.402   0.748 -0.2005  0.2534  0.9213
 2692TIP3    H1 8082   4.842   4.448   0.792 -0.8801  1.3217  0.9431
 2692TIP3    H2 8083   4.813   4.329   0.703  1.0069  1.2603  0.3679
 2693TIP3   OH2 8084   0.628   1.461   5.086 -0.4633 -0.3822 -0.2860
 2693TIP3    H1 8085   0.634   1.547   5.129 -1.5610 -0.1186 -0.6157
 2693TIP3    H2 8086   0.718   1.431   5.079 -0.1341  0.3128  0.7130
 2694TIP3   OH2 8087   0.141   4.907   3.482 -0.0587 -0.0642  0.4725
 2694TIP3    H1 8088   0.062   4.961   3.474  0.5768  0.7751 -0.3996
 2694TIP3    H2 8089   0.116   4.822   3.444 -0.1021  0.7145 -1.3725
 2695TIP3   OH2 8090   5.532   4.123   0.387 -0.4438  0.0192 -0.4024
 2695TIP3    H1 8091   5.602   4.180   0.419  0.2704 -1.0977  0.0661
 2695TIP3    H2 8092   5.540   4.126   0.292 -1.8507  2.4554 -0.5323
 2696TIP3   OH2 8093   2.851   5.006   0.347  0.2399 -0.1850  0.4111
 2696TIP3    H1 8094   2.946   5.018   0.350  0.1706  0.7736 -0.4077
 2696TIP3    H2 8095   2.829   5.015   0.254 -0.7732  0.7651  0.7100
 2697TIP3   OH2 8096   0.647   3.873   4.845 -0.3397 -0.2413  0.3446
 2697TIP3    H1 8097   0.699   3.931   4.789 -1.4074 -0.3794 -0.8248
 2697TIP3    H2 8098   0.703   3.797   4.858 -0.4073 -0.6186 -1.3315
 2698TIP3   OH2 8099   5.930   5.679   1.291  0.0492 -0.3190 -0.2907
 2698TIP3    H1 8100   5.854   5.735   1.308  0.6432 -0.0495  1.7188
 2698TIP3    H2 8101   5.920   5.606   1.352  0.7173 -0.9925 -0.9645
 2699TIP3   OH2 8102   4.402   4.650   1.142 -0.3704 -0.1635  0.3478
 2699TIP3    H1 8103   4.447   4.573   1.106  1.1471  0.5468  0.6397
 2699TIP3    H2 8104   4.392   4.709   1.068  0.3160  0.1774  0.5112
 2700TIP3   OH2 8105   5.589   2.976   4.132  0.5082  0.2083  0.0462
 2700TIP3    H1 8106   5.594   2.884   4.158 -0.5882 -0.0159 -0.4795
 2700TIP3    H2 8107   5.669   2.991   4.081  1.2072 -0.1501  1.0172
 2701TIP3   OH2 8108   1.059   4.135   4.674  0.0874 -0.4909  0.2787
 2701TIP3    H1 8109   1.150   4.105   4.676 -0.1924 -1.6122 -1.3589
 2701TIP3    H2 8110   1.060   4.211   4.615  0.2520  0.7648  1.8366
 2702TIP3   OH2 8111   0.667   4.691   5.013  0.5024  0.3162  0.8362
 2702TIP3    H1 8112   0.724   4.760   4.979  0.5800 -0.3060 -0.3544
 2702TIP3    H2 8113   0.580   4.731   5.018  0.1191  0.0038 -1.7487
 2703TIP3   OH2 8114   6.284   0.397  -0.015 -0.2109 -0.6703 -0.1965
 2703TIP3    H1 8115   6.282   0.449   0.066 -0.5031  0.3903 -0.8600
 2703TIP3    H2 8116   6.200   0.350  -0.015 -0.5059 -0.1515 -0.2111
 2704TIP3   OH2 8117   2.208   1.975   3.079  0.1386 -0.0462  0.1173
 2704TIP3    H1 8118   2.191   2.063   3.113  0.1430  0.1350 -0.3317
 2704TIP3    H2 8119   2.179   1.979   2.987 -0.4280 -0.6881  0.2571
 2705TIP3   OH2 8120   3.227   1.490   4.601  0.0300 -0.0308 -0.3868
 2705TIP3    H1 8121   3.152   1.550   4.595 -1.7018 -1.9751  0.6077
 2705TIP3    H2 8122   3.303   1.548   4.602 -1.5499  2.2155  1.0189
 2706TIP3   OH2 8123   4.135   0.693   3.946  0.0442  0.1847  0.4242
 2706TIP3    H1 8124   4.203   0.636   3.909  0.3518  0.2868  0.8210
 2706TIP3    H2 8125   4.072   0.706   3.875  0.4520  0.1031  0.0468
 2707TIP3   OH2 8126   5.555   5.538   0.910 -0.2590  0.1600  0.3081
 2707TIP3    H1 8127   5.512   5.458   0.940  1.3632 -1.1003 -0.5689
 2707TIP3    H2 8128   5.530   5.545   0.818 -0.5914  0.8046  0.4463
 2708TIP3   OH2 8129   6.235   0.964   0.654  0.2118  0.6307 -0.2780
 2708TIP3    H1 8130   6.179   0.890   0.677  1.8095 -0.4335  0.3905
 2708TIP3    H2 8131   6.198   1.039   0.701 -0.6201 -0.0524  0.1643
 2709TIP3   OH2 8132   2.017   3.615   3.543  0.2430  0.2425  0.3695
 2709TIP3    H1 8133   2.018   3.627   3.448  0.1429 -0.7111  0.2368
 2709TIP3    H2 8134   1.946   3.552   3.558  0.5432  0.0553  1.0268
 2710TIP3   OH2 8135   4.932   1.792   3.780 -0.1593 -0.5081  0.1051
 2710TIP3    H1 8136   4.861   1.768   3.840 -1.4366  0.3057 -1.0141
 2710TIP3    H2 8137   4.944   1.886   3.794  0.6452 -0.6215  0.2139
 2711TIP3   OH2 8138   5.691   0.760   1.768  0.1104  0.0556 -0.0440
 2711TIP3    H1 8139   5.733   0.756   1.854 -0.2658  0.5577  0.1713
 2711TIP3    H2 8140   5.740   0.827   1.720 -0.3285  0.5253  0.1502
 2712TIP3   OH2 8141   6.246   2.462   2.694 -0.2575 -0.0006 -0.2281
 2712TIP3    H1 8142   6.305   2.393   2.664 -0.6127 -0.7870  0.8357
 2712TIP3    H2 8143   6.233   2.517   2.616  1.1155 -0.3383 -0.7270
 2713TIP3   OH2 8144   3.778   2.787   1.831  0.1993 -0.3522  0.2022
 2713TIP3    H1 8145   3.862   2.766   1.870  0.4362 -1.1587 -0.7025
 2713TIP3    H2 8146   3.799   2.847   1.760 -0.0268 -0.2411  0.2299
 2714TIP3   OH2 8147   3.116   0.404   5.166  0.1080  0.0609 -0.5255
 2714TIP3    H1 8148   3.192   0.365   5.210 -0.3989 -2.2533 -1.5555
 2714TIP3    H2 8149   3.146   0.422   5.077 -0.0244  0.9740 -0.3957
 2715TIP3   OH2 8150   6.018   2.395   1.613 -0.6661 -0.3145 -0.1837
 2715TIP3    H1 8151   5.974   2.341   1.547 -0.5825 -0.0980 -0.4189
 2715TIP3    H2 8152   5.956   2.399   1.686 -0.4086 -1.2566  0.0964
 2716TIP3   OH2 8153   1.231   5.708   4.906  1.0932 -0.1038 -0.1147
 2716TIP3    H1 8154   1.222   5.797   4.938 -1.0520 -0.6062  0.8442
 2716TIP3    H2 8155   1.212   5.653   4.982 -0.7759 -1.3364 -1.3852
 2717TIP3   OH2 8156   5.228   5.445   1.767  0.2442  0.3247  0.4683
 2717TIP3    H1 8157   5.278   5.409   1.693  0.7690 -1.0737  1.4647
 2717TIP3    H2 8158   5.191   5.368   1.809 -0.5231  1.1575  1.3386
 2718TIP3   OH2 8159   3.857   3.031   4.338 -0.3770 -0.0115  0.2330
 2718TIP3    H1 8160   3.926   2.965   4.344 -0.8485 -0.5900 -0.5030
 2718TIP3    H2 8161   3.904   3.115   4.340  0.3898 -0.3970 -0.6328
 2719TIP3   OH2 8162   2.810   1.477   0.764 -0.2259 -0.3268  0.0484
 2719TIP3    H1 8163   2.903   1.501   0.766 -0.3425  0.1152  0.4955
 2719TIP3    H2 8164   2.785   1.485   0.672  0.5102 -1.7974 -0.2987
 2720TIP3   OH2 8165   4.442   2.175   5.198 -0.0185  0.1516 -0.2881
 2720TIP3    H1 8166   4.408   2.167   5.109 -0.6533  0.3167 -0.0676
 2720TIP3    H2 8167   4.428   2.088   5.236 -1.3934  0.5653  0.2068
 2721TIP3   OH2 8168   0.736   0.962   2.499 -0.6720  0.2176 -0.0505
 2721TIP3    H1 8169   0.744   0.868   2.518  1.2128  0.2751 -0.3900
 2721TIP3    H2 8170   0.764   0.969   2.407  2.6374  1.4967  0.9253
 2722TIP3   OH2 8171   1.174   5.462   2.194  0.4491 -0.0111 -0.7124
 2722TIP3    H1 8172   1.210   5.379   2.160  0.3567 -1.2932  2.0775
 2722TIP3    H2 8173   1.207   5.528   2.133  4.5126 -1.5388 -0.5061
 2723TIP3   OH2 8174   4.950   1.651   4.602 -0.2126  0.4740 -0.1962
 2723TIP3    H1 8175   4.890   1.726   4.604  0.1989  0.8008  0.0200
 2723TIP3    H2 8176   5.033   1.686   4.634  0.6174  0.4866 -2.1893
 2724TIP3   OH2 8177   4.034   3.712   2.131  0.3804  0.3340  0.0514
 2724TIP3    H1 8178   4.067   3.666   2.208  2.0567 -1.2732 -1.4983
 2724TIP3    H2 8179   3.949   3.672   2.114 -0.0465  0.7699  1.0998
 2725TIP3   OH2 8180   5.424   0.919   4.387 -0.0527  0.1338  0.0953
 2725TIP3    H1 8181   5.440   1.011   4.410  1.6370  0.5559 -2.3748
 2725TIP3    H2 8182   5.345   0.921   4.333 -0.5216 -0.0116  0.7651
 2726TIP3   OH2 8183   3.501   5.520   4.407  0.4910  0.1252  0.2156
 2726TIP3    H1 8184   3.537   5.435   4.434 -0.2483 -0.1731  0.2751
 2726TIP3    H2 8185   3.578   5.572   4.387  0.9369 -1.1799 -1.7561
 2727TIP3   OH2 8186   1.715   0.247   5.033 -0.3607 -0.1935  0.4953
 2727TIP3    H1 8187   1.779   0.318   5.023 -0.6718  0.2210  1.3650
 2727TIP3    H2 8188   1.768   0.167   5.036  0.1021  0.1207  0.9441
 2728TIP3   OH2 8189   2.001   0.233   4.696  0.0489  0.3268  0.3681
 2728TIP3    H1 8190   2.043   0.186   4.767  1.5179  0.7437 -0.1838
 2728TIP3    H2 8191   1.919   0.186   4.681  1.6908 -2.5251 -0.5931
 2729TIP3   OH2 8192   2.478   3.646   4.388 -0.3753 -0.0841  0.0289
 2729TIP3    H1 8193   2.505   3.661   4.479 -0.6168  0.3542  0.0285
 2729TIP3    H2 8194   2.443   3.556   4.388 -1.6322  0.3814  0.6758
 2730TIP3   OH2 8195   2.567   3.955   1.818 -0.3196 -0.0175  0.3175
 2730TIP3    H1 8196   2.495   3.923   1.763 -2.5044  2.1143  1.7424
 2730TIP3    H2 8197   2.605   4.027   1.767  0.6087 -0.8941 -0.2651
 2731TIP3   OH2 8198   1.465   1.689   3.746 -0.3165  0.1492  0.5400
 2731TIP3    H1 8199   1.537   1.678   3.684  0.7942  0.6309  1.6960
 2731TIP3    H2 8200   1.413   1.609   3.736  1.7968 -1.4405  1.4288
 2732TIP3   OH2 8201   0.167   5.848   0.645 -0.3038 -0.0853 -0.9087
 2732TIP3    H1 8202   0.262   5.846   0.648 -0.3237 -0.3703 -0.4381
 2732TIP3    H2 8203   0.140   5.758   0.661 -0.6892  0.2879  0.6712
 2733TIP3   OH2 8204   5.827   0.822   4.090  0.3329 -0.1294 -0.4519
 2733TIP3    H1 8205   5.796   0.912   4.105 -3.6896 -1.3908  0.0573
 2733TIP3    H2 8206   5.818   0.779   4.175 -0.8406 -1.7296 -1.3325
 2734TIP3   OH2 8207   5.622   4.838   2.986 -0.2674  0.2139 -0.6127
 2734TIP3    H1 8208   5.555   4.906   2.996 -1.9764 -1.5137  0.1841
 2734TIP3    H2 8209   5.604   4.776   3.056  0.7715 -1.4588 -1.7601
 2735TIP3   OH2 8210   6.080   1.141   0.787  0.4649 -0.7717 -0.1395
 2735TIP3    H1 8211   6.003   1.141   0.844 -0.1082  1.0920 -0.8123
 2735TIP3    H2 8212   6.147   1.187   0.837  0.4513 -0.4990 -0.3685
 2736TIP3   OH2 8213   5.851   1.834   4.963 -0.1079  0.2610  0.3100
 2736TIP3    H1 8214   5.860   1.898   5.034 -0.0185  0.7634 -0.1425
 2736TIP3    H2 8215   5.841   1.888   4.884  1.7946 -0.2447 -0.3418
 2737TIP3   OH2 8216   2.758   4.666   2.291 -0.2802 -0.1664  0.4384
 2737TIP3    H1 8217   2.844   4.663   2.333  0.5392  1.9973 -0.9496
 2737TIP3    H2 8218   2.728   4.756   2.303  0.1674  0.7252 -3.7314
 2738TIP3   OH2 8219   3.796   4.140   2.678  0.2056 -0.9852 -0.5001
 2738TIP3    H1 8220   3.821   4.207   2.742 -0.7615  1.0179 -2.0951
 2738TIP3    H2 8221   3.856   4.153   2.604  0.3999 -2.3253 -0.6141
 2739TIP3   OH2 8222   5.906   5.359   3.572  0.1932 -0.4958 -0.1197
 2739TIP3    H1 8223   5.948   5.442   3.595 -0.8199  0.0770 -0.3193
 2739TIP3    H2 8224   5.817   5.382   3.548  0.3461 -1.4443 -1.7510
 2740TIP3   OH2 8225   2.548   3.234   2.445 -0.3603  0.0605  0.0437
 2740TIP3    H1 8226   2.495   3.285   2.384  0.1305  0.9185  0.3122
 2740TIP3    H2 8227   2.503   3.150   2.452 -1.5365  0.6811  0.0800
 2741TIP3   OH2 8228   2.142   0.047   0.807  0.3391 -0.4020 -0.1860
 2741TIP3    H1 8229   2.135   0.007   0.720 -1.7332 -2.2596  0.7386
 2741TIP3    H2 8230   2.171  -0.025   0.864 -0.5499  0.1585  1.0174
 2742TIP3   OH2 8231   5.587   1.495   3.298 -0.4636  0.3139  0.2092
 2742TIP3    H1 8232   5.492   1.489   3.284 -0.8804  1.1557  2.3818
 2742TIP3    H2 8233   5.604   1.589   3.306  1.1889  0.5167 -3.5768
 2743TIP3   OH2 8234   4.697   5.971   1.854  0.1192  0.4877 -0.0648
 2743TIP3    H1 8235   4.640   5.904   1.892  0.3807  0.7670  0.8495
 2743TIP3    H2 8236   4.647   6.052   1.862  0.0487  0.5026 -0.6204
 2744TIP3   OH2 8237   4.761   0.891   5.129 -0.5808 -0.0112  0.7365
 2744TIP3    H1 8238   4.802   0.975   5.151 -1.2083  0.7048 -0.6630
 2744TIP3    H2 8239   4.670   0.900   5.156 -1.0070  0.3443 -0.7301
 2745TIP3   OH2 8240   5.792   0.427   3.919 -0.1863  0.0057  0.0134
 2745TIP3    H1 8241   5.803   0.339   3.883 -0.7025 -0.9307  2.0047
 2745TIP3    H2 8242   5.726   0.468   3.863 -0.7068 -1.2514 -0.3209
 2746TIP3   OH2 8243   0.327   1.995   4.593  0.3410 -0.6068 -0.4599
 2746TIP3    H1 8244   0.241   2.006   4.632  0.3123  1.8809 -1.0143
 2746TIP3    H2 8245   0.370   1.927   4.645 -1.6193 -1.2733  0.3553
 2747TIP3   OH2 8246   6.078   1.071   4.787  0.4933  0.0407  0.1227
 2747TIP3    H1 8247   6.166   1.100   4.762  0.1699  1.0401  0.1065
 2747TIP3    H2 8248   6.019   1.131   4.742 -0.1280  2.2565  3.5540
 2748TIP3   OH2 8249   4.023   3.779   2.472 -0.3050  0.2379  0.5640
 2748TIP3    H1 8250   3.971   3.716   2.522 -1.1831  0.6406  0.1853
 2748TIP3    H2 8251   4.027   3.856   2.528 -0.2585  0.2702  0.5160
 2749TIP3   OH2 8252   1.069   3.646   2.509  0.6689 -0.0580  0.1196
 2749TIP3    H1 8253   1.039   3.666   2.420 -1.2141 -0.6558  0.5818
 2749TIP3    H2 8254   1.019   3.704   2.566  0.4934 -0.9753  0.9274
 2750TIP3   OH2 8255   2.548   2.508   1.633 -0.3079  0.7359 -0.1942
 2750TIP3    H1 8256   2.539   2.525   1.539 -1.4797  0.0279 -0.2230
 2750TIP3    H2 8257   2.612   2.437   1.639  1.0176  1.8739 -0.3389
 2751TIP3   OH2 8258   3.987   5.364   2.148 -0.0099 -0.0465 -0.5934
 2751TIP3    H1 8259   3.993   5.308   2.225 -0.0095 -1.0315 -1.2917
 2751TIP3    H2 8260   3.898   5.401   2.152 -1.0373 -2.2376 -1.5275
 2752TIP3   OH2 8261   4.754   3.367   4.230 -0.2734 -0.4720  0.3174
 2752TIP3    H1 8262   4.779   3.278   4.204  1.4274  0.3522 -1.0776
 2752TIP3    H2 8263   4.808   3.386   4.307  1.5782  0.3494 -1.1177
 2753TIP3   OH2 8264   0.656   3.171   4.125  0.1726  0.3430  0.3472
 2753TIP3    H1 8265   0.635   3.127   4.043  1.0280 -0.1176  0.3585
 2753TIP3    H2 8266   0.746   3.202   4.113 -0.7883  3.2705 -0.1500
 2754TIP3   OH2 8267   0.443   1.774   2.146 -0.2105 -0.0267  1.0114
 2754TIP3    H1 8268   0.405   1.816   2.068 -2.9995 -0.2205  2.1633
 2754TIP3    H2 8269   0.436   1.680   2.128 -0.2129 -0.0650  1.2145
 2755TIP3   OH2 8270   1.342   2.389   2.492  0.3780  0.2290 -0.1040
 2755TIP3    H1 8271   1.251   2.403   2.465  0.3950 -1.1692 -0.9682
 2755TIP3    H2 8272   1.388   2.366   2.412  0.9569 -1.5674  0.7009
 2756TIP3   OH2 8273   2.153   0.725   4.882 -0.0271 -0.3859  0.1343
 2756TIP3    H1 8274   2.210   0.802   4.891 -2.0594  1.2904 -0.4521
 2756TIP3    H2 8275   2.080   0.743   4.941 -1.1476 -1.2611 -0.9373
 2757TIP3   OH2 8276   1.710   1.043   4.808  0.3331 -0.4126  0.0238
 2757TIP3    H1 8277   1.702   0.961   4.856  0.1305  0.1225  0.9199
 2757TIP3    H2 8278   1.623   1.058   4.772 -0.7296  1.2864  3.0068
 2758TIP3   OH2 8279   2.356   2.341   2.455  0.3582  0.1418  0.2908
 2758TIP3    H1 8280   2.406   2.388   2.388  0.5514  0.4526  0.6503
 2758TIP3    H2 8281   2.265   2.352   2.429  0.2685  2.2522  1.3333
 2759TIP3   OH2 8282   3.720   0.194   3.750  0.1995  0.1530  0.1522
 2759TIP3    H1 8283   3.694   0.254   3.819 -0.7555 -0.0247 -0.0400
 2759TIP3    H2 8284   3.718   0.247   3.670  1.3829  0.3808  0.2509
 2760TIP3   OH2 8285   3.594   3.014   4.339 -0.0319  0.2046 -0.7597
 2760TIP3    H1 8286   3.574   3.057   4.422  0.8884  1.2760 -1.0746
 2760TIP3    H2 8287   3.690   3.006   4.338  0.0015  0.5381 -1.8746
 2761TIP3   OH2 8288   4.152   5.292   3.084  0.6605 -0.0102  0.9142
 2761TIP3    H1 8289   4.244   5.317   3.098  0.7943  0.4739 -0.6234
 2761TIP3    H2 8290   4.116   5.362   3.029  0.8882 -2.7128 -3.1269
 2762TIP3   OH2 8291   5.595   0.562   1.347  0.3566 -0.3774  0.3145
 2762TIP3    H1 8292   5.574   0.514   1.427  0.3340 -0.9275 -0.0194
 2762TIP3    H2 8293   5.627   0.647   1.378 -2.2259  0.4843  0.8712
 2763TIP3   OH2 8294   0.181   1.424   1.624  0.6265 -0.5058  0.0630
 2763TIP3    H1 8295   0.199   1.386   1.538 -0.9823 -0.1915 -0.4436
 2763TIP3    H2 8296   0.106   1.375   1.656  1.5039 -0.9485  1.5441
 2764TIP3   OH2 8297   1.333   5.333   0.060 -0.1976 -0.2460  0.0789
 2764TIP3    H1 8298   1.286   5.374   0.133  0.0779  0.2741 -0.0357
 2764TIP3    H2 8299   1.344   5.403  -0.004 -0.3096 -0.6624 -0.4089
 2765TIP3   OH2 8300   4.760   5.435   1.825 -0.3363 -0.1976  0.1456
 2765TIP3    H1 8301   4.763   5.515   1.772 -0.1303 -1.3857 -1.7566
 2765TIP3    H2 8302   4.679   5.443   1.875  0.5632  1.9779  1.3829
 2766TIP3   OH2 8303   0.776   3.055   3.066  0.2004 -0.3310 -0.4631
 2766TIP3    H1 8304   0.851   3.114   3.055 -1.0042  1.0934 -1.2814
 2766TIP3    H2 8305   0.732   3.055   2.981 -0.8122 -1.0209  0.0411
 2767TIP3   OH2 8306   4.067   1.988   1.368  0.3179  0.2709  0.3112
 2767TIP3    H1 8307   4.104   2.065   1.410 -0.1972 -0.8286  3.0147
 2767TIP3    H2 8308   4.016   1.945   1.437 -1.5682 -1.1131 -1.7796
 2768TIP3   OH2 8309   0.215   5.446   1.904 -0.3425  0.3627  0.3976
 2768TIP3    H1 8310   0.127   5.460   1.938 -0.4148  3.3403 -0.7440
 2768TIP3    H2 8311   0.272   5.492   1.966  0.1700  0.4021 -0.0953
 2769TIP3   OH2 8312   0.338   2.624   0.945 -0.2966  0.0476  0.5718
 2769TIP3    H1 8313   0.289   2.646   1.024 -0.8655  0.4822  0.1045
 2769TIP3    H2 8314   0.430   2.629   0.971 -0.4616  1.0508  0.9821
 2770TIP3   OH2 8315   1.405   3.921   3.115 -0.3194  0.1246  0.1572
 2770TIP3    H1 8316   1.411   3.863   3.039 -1.2611 -0.1248  0.2541
 2770TIP3    H2 8317   1.400   4.009   3.078  2.2935  0.2775  0.0458
 2771TIP3   OH2 8318   3.372   1.794   1.844 -0.9184 -0.6323  0.0946
 2771TIP3    H1 8319   3.454   1.747   1.859  0.7689  1.9194 -0.3358
 2771TIP3    H2 8320   3.384   1.835   1.758 -2.7280 -0.2925 -0.0279
 2772TIP3   OH2 8321   0.440   1.794   0.150  0.5251  0.3999 -0.5067
 2772TIP3    H1 8322   0.521   1.839   0.126  0.9769  0.5293  1.1637
 2772TIP3    H2 8323   0.446   1.781   0.244 -1.3587  0.3135 -0.3489
 2773TIP3   OH2 8324   4.919   2.423   1.169 -0.1163  0.3548 -0.3012
 2773TIP3    H1 8325   4.869   2.388   1.096 -0.2279 -0.7536  0.2872
 2773TIP3    H2 8326   4.959   2.347   1.210 -0.2819  0.9144  0.9609
 2774TIP3   OH2 8327   5.590   3.349   1.321 -0.4842 -0.0819 -0.2256
 2774TIP3    H1 8328   5.566   3.302   1.401  1.7124  0.7380  0.9810
 2774TIP3    H2 8329   5.634   3.283   1.267  1.7443  0.2802  1.0582
 2775TIP3   OH2 8330   4.093   0.990   3.417  0.0568 -0.4821  0.4753
 2775TIP3    H1 8331   4.156   1.055   3.385 -0.5651  0.0307  0.2830
 2775TIP3    H2 8332   4.111   0.982   3.510 -0.4237  0.6082  0.6762
 2776TIP3   OH2 8333   1.307   1.237   1.138  0.0559  0.1257  0.1341
 2776TIP3    H1 8334   1.384   1.224   1.084 -0.2526 -0.9758 -0.0644
 2776TIP3    H2 8335   1.257   1.156   1.130 -1.2002  0.8594  0.1438
 2777TIP3   OH2 8336   1.189   1.702   3.586 -0.1489 -0.1726 -0.0060
 2777TIP3    H1 8337   1.244   1.719   3.510 -1.6025  2.1483 -0.6363
 2777TIP3    H2 8338   1.193   1.782   3.637  0.2972 -1.4657  2.0955
 2778TIP3   OH2 8339   3.114   2.902   1.462  0.1134 -0.3012  0.4615
 2778TIP3    H1 8340   3.107   2.807   1.446  0.2261 -0.0692 -1.1843
 2778TIP3    H2 8341   3.207   2.921   1.453  0.3702 -0.2996  2.6884
 2779TIP3   OH2 8342   2.100   4.554   4.364 -0.4450 -0.5600 -0.0220
 2779TIP3    H1 8343   2.072   4.465   4.385 -0.5759 -0.3892  0.5452
 2779TIP3    H2 8344   2.034   4.584   4.301 -0.0745 -1.0606 -0.6592
 2780TIP3   OH2 8345   4.452   5.006   2.955 -0.0260  0.3463  0.6591
 2780TIP3    H1 8346   4.500   4.998   2.872  0.0061  0.2286  0.6888
 2780TIP3    H2 8347   4.413   5.093   2.951  0.0348  0.3699  0.5514
 2781TIP3   OH2 8348   2.780   4.568   1.629 -0.3109 -0.0553  0.0003
 2781TIP3    H1 8349   2.719   4.495   1.615 -0.7165  0.4411 -0.8562
 2781TIP3    H2 8350   2.742   4.616   1.703 -0.8830  0.1629 -0.4274
 2782TIP3   OH2 8351   1.785   4.717   3.189  0.3140  0.8073  0.3613
 2782TIP3    H1 8352   1.723   4.712   3.116  0.8022 -0.6966  0.0046
 2782TIP3    H2 8353   1.864   4.675   3.156  0.2641 -0.6998  2.0057
 2783TIP3   OH2 8354   2.602   2.008   4.264  0.3842 -0.2182  0.4387
 2783TIP3    H1 8355   2.615   1.947   4.192  2.2646 -1.5955  1.8351
 2783TIP3    H2 8356   2.601   1.953   4.342 -0.4055  1.3284  1.5673
 2784TIP3   OH2 8357   6.222   3.965   3.276  0.1750 -0.1565 -0.1308
 2784TIP3    H1 8358   6.195   3.873   3.277 -0.4928  0.0160 -0.9581
 2784TIP3    H2 8359   6.228   3.989   3.368  2.0212 -1.4824  0.1512
 2785TIP3   OH2 8360   4.973   5.294   0.376 -0.1765 -0.2991  0.5311
 2785TIP3    H1 8361   4.995   5.381   0.341 -1.2393 -0.4433 -0.5483
 2785TIP3    H2 8362   4.940   5.311   0.464  0.7491  0.2626  0.7826
 2786TIP3   OH2 8363   2.367   0.143   3.056  0.4994  0.3060  0.5152
 2786TIP3    H1 8364   2.419   0.158   2.977 -1.9904  0.7544 -1.1893
 2786TIP3    H2 8365   2.338   0.230   3.082 -0.5095 -0.0306  0.5572
 2787TIP3   OH2 8366   2.376   4.521   4.142 -0.4581  0.8294 -0.3693
 2787TIP3    H1 8367   2.360   4.428   4.127 -0.4923  0.7753 -0.0219
 2787TIP3    H2 8368   2.423   4.524   4.226 -0.5452  1.1295 -0.3275
 2788TIP3   OH2 8369   2.299   4.608   2.643  0.1013  0.0715 -0.0116
 2788TIP3    H1 8370   2.224   4.558   2.673 -0.7842  0.2199 -1.8100
 2788TIP3    H2 8371   2.303   4.683   2.702  0.3611 -1.1578  1.6068
 2789TIP3   OH2 8372   3.007   5.803   3.504 -0.6260  0.1767  0.0762
 2789TIP3    H1 8373   3.059   5.750   3.564  0.5744  0.1490 -0.9319
 2789TIP3    H2 8374   3.067   5.873   3.476 -0.7033 -0.5141 -2.0142
 2790TIP3   OH2 8375   5.008   5.104   3.933 -0.2437  0.2005 -0.1098
 2790TIP3    H1 8376   4.959   5.156   3.996 -0.4216  0.6745 -0.6328
 2790TIP3    H2 8377   4.972   5.016   3.941 -1.1196  0.5243 -0.4127
 2791TIP3   OH2 8378   5.733   1.537   4.642  0.3814 -0.0838 -0.1749
 2791TIP3    H1 8379   5.800   1.541   4.574  0.5185  3.2970 -0.0045
 2791TIP3    H2 8380   5.652   1.566   4.598 -0.3005 -1.1212  0.3521
 2792TIP3   OH2 8381   0.709   2.490   1.842 -0.2156 -0.0668  0.4190
 2792TIP3    H1 8382   0.750   2.404   1.856  2.7686  1.1335 -0.2648
 2792TIP3    H2 8383   0.622   2.481   1.881  0.8239 -2.6814  2.4524
 2793TIP3   OH2 8384   4.911   4.580   3.957  0.1175 -0.4750  0.1683
 2793TIP3    H1 8385   4.861   4.577   4.038  0.2969 -0.7332  0.2704
 2793TIP3    H2 8386   4.904   4.492   3.920 -0.7612 -0.1086 -0.5854
 2794TIP3   OH2 8387   1.076   2.751   3.201 -0.1285 -0.4583 -0.3979
 2794TIP3    H1 8388   1.048   2.831   3.245  0.1002 -0.9707  0.7128
 2794TIP3    H2 8389   1.039   2.680   3.254  0.0843 -1.0942 -1.0838
 2795TIP3   OH2 8390   2.235   1.310   3.772 -0.1606  0.8750 -0.1419
 2795TIP3    H1 8391   2.328   1.319   3.749 -0.0622  0.7918  0.2171
 2795TIP3    H2 8392   2.190   1.366   3.709  0.1174  0.7744 -0.4348
 2796TIP3   OH2 8393   0.937   0.608   2.829 -0.2491 -1.2302 -0.0913
 2796TIP3    H1 8394   1.023   0.626   2.868  0.3965 -1.0469 -1.5555
 2796TIP3    H2 8395   0.876   0.616   2.903  0.8245 -0.0292  0.7214
 2797TIP3   OH2 8396   1.801   0.937   4.519  0.3395 -0.1827  0.3702
 2797TIP3    H1 8397   1.831   1.020   4.555 -0.0128  0.3561 -0.5449
 2797TIP3    H2 8398   1.857   0.922   4.443 -0.8066  0.1617 -0.5662
 2798TIP3   OH2 8399   2.833   2.986   0.558 -0.0556  0.1272 -0.0754
 2798TIP3    H1 8400   2.911   2.997   0.504  1.7182 -1.0753  2.1006
 2798TIP3    H2 8401   2.818   2.892   0.560 -0.9790  0.2670  0.3707
 2799TIP3   OH2 8402   3.909   3.463   0.629 -0.3096  0.1638 -0.4399
 2799TIP3    H1 8403   3.999   3.486   0.651 -0.9094  1.0782  1.2484
 2799TIP3    H2 8404   3.885   3.397   0.694 -1.6571  1.8257  0.8419
 2800TIP3   OH2 8405   0.320   4.496   0.935  0.0133  0.1559  0.1590
 2800TIP3    H1 8406   0.371   4.443   0.873  0.5953  0.7431  0.1150
 2800TIP3    H2 8407   0.372   4.576   0.945 -0.4668  0.3926  0.8096
 2801TIP3   OH2 8408   2.383   0.392   3.404  0.2058 -0.4460  0.2375
 2801TIP3    H1 8409   2.456   0.455   3.409 -0.4831  0.6075 -1.7350
 2801TIP3    H2 8410   2.426   0.307   3.393  1.1499  0.0055  0.2803
 2802TIP3   OH2 8411   4.443   3.206   4.889 -0.4378 -0.4723  0.3800
 2802TIP3    H1 8412   4.514   3.144   4.902 -0.0968 -0.8272 -2.6256
 2802TIP3    H2 8413   4.481   3.277   4.837 -1.7935  0.3446  0.4466
 2803TIP3   OH2 8414   2.149   0.996   4.082  0.4269  0.0586 -0.1770
 2803TIP3    H1 8415   2.064   0.978   4.041 -0.1276 -0.8289  1.2608
 2803TIP3    H2 8416   2.150   1.090   4.095 -0.3961  0.0677 -0.1041
 2804TIP3   OH2 8417   5.326   5.285   4.717 -0.2103 -0.2185  0.1980
 2804TIP3    H1 8418   5.347   5.281   4.624 -0.2941  1.7337  0.0526
 2804TIP3    H2 8419   5.343   5.197   4.749  1.8347 -0.4208 -1.2346
 2805TIP3   OH2 8420   1.406   2.176   2.240  0.0003 -0.1464  0.0450
 2805TIP3    H1 8421   1.485   2.155   2.189 -0.6336 -0.6630 -0.7537
 2805TIP3    H2 8422   1.366   2.091   2.257 -0.4623  0.1249  0.3166
 2806TIP3   OH2 8423   3.623   2.279   1.387  0.5185  0.0865 -0.2782
 2806TIP3    H1 8424   3.615   2.222   1.310 -2.6694 -2.3832  1.6208
 2806TIP3    H2 8425   3.705   2.253   1.428 -0.7408 -3.3059  0.4269
 2807TIP3   OH2 8426   1.612   3.933   4.846  0.3727  0.1338  0.2418
 2807TIP3    H1 8427   1.527   3.941   4.803  0.9722 -0.4286 -1.1080
 2807TIP3    H2 8428   1.626   4.018   4.888 -0.7761  0.2825  0.3457
 2808TIP3   OH2 8429   6.113   2.448   3.022 -0.6302  0.0787 -0.2324
 2808TIP3    H1 8430   6.101   2.353   3.024  0.0362 -0.0252 -0.8425
 2808TIP3    H2 8431   6.207   2.460   3.012 -0.6124  0.8230  0.7625
 2809TIP3   OH2 8432   2.345   5.768   2.452 -0.5413  0.3646 -0.0142
 2809TIP3    H1 8433   2.306   5.733   2.372 -3.0978  1.6960  0.5353
 2809TIP3    H2 8434   2.299   5.723   2.522  1.0673 -0.1559  0.7553
 2810TIP3   OH2 8435   0.513   1.347   2.901 -0.6691  0.2589  0.1018
 2810TIP3    H1 8436   0.446   1.353   2.833 -0.1696 -0.4788 -0.4635
 2810TIP3    H2 8437   0.528   1.253   2.912  0.1986  0.4105  0.2914
 2811TIP3   OH2 8438   3.112   1.704   1.967  0.1420  0.0087  0.0920
 2811TIP3    H1 8439   3.125   1.610   1.954  0.3744  0.0471  0.0559
 2811TIP3    H2 8440   3.018   1.717   1.950 -0.2304 -0.4714  1.5695
 2812TIP3   OH2 8441   6.017   1.593   3.801 -0.3609  0.2451  1.2105
 2812TIP3    H1 8442   6.095   1.540   3.818  0.6722  1.3539  0.0833
 2812TIP3    H2 8443   6.042   1.682   3.826 -1.2069  0.6508  0.6752
 2813TIP3   OH2 8444   3.649   5.221   3.680  0.5018 -0.4216  0.4092
 2813TIP3    H1 8445   3.699   5.145   3.708  0.8261 -0.4138 -0.1355
 2813TIP3    H2 8446   3.705   5.296   3.701  1.0276 -0.4474 -0.7971
 2814TIP3   OH2 8447   3.689   1.826   0.088 -0.2655 -0.5285  0.0560
 2814TIP3    H1 8448   3.680   1.774   0.008  1.5923  0.3146 -0.7684
 2814TIP3    H2 8449   3.771   1.794   0.128 -0.9027 -0.5875  1.3702
 2815TIP3   OH2 8450   0.678   5.910   3.402  0.2243  0.3291  0.3633
 2815TIP3    H1 8451   0.623   5.872   3.334  0.3251 -1.1094  1.0583
 2815TIP3    H2 8452   0.698   5.998   3.370 -3.1290  1.2657  0.4541
 2816TIP3   OH2 8453   5.471   0.433   5.011 -0.1267 -0.0706  0.0660
 2816TIP3    H1 8454   5.454   0.414   4.919 -1.0762 -1.1388  0.4389
 2816TIP3    H2 8455   5.560   0.404   5.027  1.0192  2.4550 -1.0992
 2817TIP3   OH2 8456   0.466   4.767   4.193 -0.1227 -0.0872  0.1005
 2817TIP3    H1 8457   0.534   4.805   4.249 -0.3661 -0.1691  0.4525
 2817TIP3    H2 8458   0.506   4.687   4.158 -0.1529 -0.3085  0.5663
 2818TIP3   OH2 8459   5.938   0.833   0.113 -0.3158  0.2263 -0.4688
 2818TIP3    H1 8460   5.970   0.881   0.037 -0.9262  0.6709 -0.4534
 2818TIP3    H2 8461   6.005   0.846   0.180  0.5826 -0.7674 -1.1408
 2819TIP3   OH2 8462   0.267   0.539   2.222 -0.0983  0.3218  0.0975
 2819TIP3    H1 8463   0.345   0.540   2.166 -0.1507  0.4448  0.0248
 2819TIP3    H2 8464   0.223   0.458   2.199 -0.4990  0.7185 -0.5754
 2820TIP3   OH2 8465   1.885   2.935   1.194 -0.0747  0.0211 -0.4079
 2820TIP3    H1 8466   1.913   2.959   1.105 -1.9894  0.9679 -0.8096
 2820TIP3    H2 8467   1.866   2.841   1.188 -0.2848  0.0949 -1.0484
 2821TIP3   OH2 8468   1.388   3.252   1.741  0.6338  0.7387  0.3395
 2821TIP3    H1 8469   1.298   3.280   1.759  0.7207  1.2159  0.0261
 2821TIP3    H2 8470   1.415   3.209   1.822 -0.7637 -1.7571 -0.4086
 2822TIP3   OH2 8471   5.469   2.129   2.073  0.2738 -0.1497 -0.1105
 2822TIP3    H1 8472   5.454   2.162   1.984  0.2911 -0.5774 -0.2750
 2822TIP3    H2 8473   5.469   2.207   2.128  2.0595  0.3442 -0.7227
 2823TIP3   OH2 8474   5.856   3.906   3.072  0.0928 -0.0644  0.3529
 2823TIP3    H1 8475   5.937   3.919   3.023 -0.5004  0.5321 -0.5029
 2823TIP3    H2 8476   5.875   3.940   3.160  0.5582  0.7378 -0.0427
 2824TIP3   OH2 8477   0.793   4.953   0.207  0.0740  0.0028 -0.4741
 2824TIP3    H1 8478   0.813   4.994   0.122 -1.1095  1.0047 -0.3027
 2824TIP3    H2 8479   0.846   5.001   0.270  1.8190 -1.4768 -0.7306
 2825TIP3   OH2 8480   5.689   5.256   2.761  0.3074  0.1465 -0.3032
 2825TIP3    H1 8481   5.762   5.271   2.821 -1.2160 -0.1747  1.7386
 2825TIP3    H2 8482   5.693   5.162   2.740 -0.3073 -0.1781  0.9495
 2826TIP3   OH2 8483   4.325   2.330   0.206 -0.1349  0.7587  0.0576
 2826TIP3    H1 8484   4.381   2.252   0.210 -0.2962  0.5560 -1.2129
 2826TIP3    H2 8485   4.386   2.403   0.211  0.1669  0.5421 -0.4240
 2827TIP3   OH2 8486   5.638   5.761   4.383  0.4008  0.0061  0.3454
 2827TIP3    H1 8487   5.602   5.679   4.350  1.7142 -0.2848 -0.4343
 2827TIP3    H2 8488   5.729   5.741   4.403  1.0800  1.5242 -0.9827
 2828TIP3   OH2 8489   2.067   3.644   4.399 -0.5913  0.0390  0.3288
 2828TIP3    H1 8490   2.080   3.703   4.325 -0.5752 -0.1037  0.2161
 2828TIP3    H2 8491   2.086   3.557   4.363 -1.6383 -0.1546  0.2121
 2829TIP3   OH2 8492   0.825   1.125   1.800 -0.4947 -0.1611  0.2881
 2829TIP3    H1 8493   0.888   1.053   1.811  0.2464  0.4789  0.3080
 2829TIP3    H2 8494   0.878   1.204   1.803 -1.2949  0.3924  0.1833
 2830TIP3   OH2 8495   3.016   4.105   0.451 -0.5976 -0.4200  0.4442
 2830TIP3    H1 8496   3.051   4.100   0.362 -1.2462  1.1339  0.0590
 2830TIP3    H2 8497   3.042   4.192   0.482 -0.7916 -0.7581  1.5948
 2831TIP3   OH2 8498   5.953   3.381   3.959 -0.3734 -0.0158  0.2154
 2831TIP3    H1 8499   5.974   3.322   4.031 -0.2835  1.4622  1.4312
 2831TIP3    H2 8500   5.920   3.323   3.890 -0.2155 -1.4886  1.3271
 2832TIP3   OH2 8501   6.058   0.912   1.410 -0.4200 -0.1962  0.0789
 2832TIP3    H1 8502   6.136   0.856   1.409 -0.3701 -0.1289  0.1208
 2832TIP3    H2 8503   6.085   0.989   1.460 -0.6803 -0.4081  0.5496
 2833TIP3   OH2 8504   3.433   4.887   1.149  0.1788 -0.5111  0.4021
 2833TIP3    H1 8505   3.421   4.866   1.242  1.2455  1.2212  0.9733
 2833TIP3    H2 8506   3.418   4.804   1.104 -1.1727 -1.2231  2.0298
 2834TIP3   OH2 8507   3.907   1.641   3.271 -0.3524  0.3116  0.5363
 2834TIP3    H1 8508   3.826   1.591   3.263 -0.2424 -0.0719  1.6138
 2834TIP3    H2 8509   3.968   1.597   3.211 -1.0347  0.8272 -0.5475
 2835TIP3   OH2 8510   1.040   1.605   2.795  0.6401 -0.8017 -0.0827
 2835TIP3    H1 8511   0.962   1.555   2.772  1.4228 -1.4244 -1.5134
 2835TIP3    H2 8512   1.038   1.611   2.891  0.0567 -2.8111  0.0683
 2836TIP3   OH2 8513   0.873   1.576   0.718 -0.2544 -0.0241  0.4319
 2836TIP3    H1 8514   0.812   1.649   0.732 -2.2715 -1.6322  0.5503
 2836TIP3    H2 8515   0.853   1.545   0.629 -1.1173 -1.8586  1.2175
 2837TIP3   OH2 8516   0.067   5.653   2.359  0.1383  0.6555  0.0058
 2837TIP3    H1 8517   0.087   5.746   2.371  1.6431  0.3009  0.5362
 2837TIP3    H2 8518   0.152   5.610   2.365 -0.0479 -0.4866 -3.3500
 2838TIP3   OH2 8519   3.815   0.842   3.734 -0.2277  0.1954 -0.9476
 2838TIP3    H1 8520   3.874   0.858   3.660  2.0005 -0.1056  0.6604
 2838TIP3    H2 8521   3.748   0.783   3.699 -0.3434  1.5362 -3.1776
 2839TIP3   OH2 8522   0.700   5.614   4.922 -0.1902 -0.7039 -0.2032
 2839TIP3    H1 8523   0.661   5.646   4.841  0.1206  0.4009  0.0729
 2839TIP3    H2 8524   0.737   5.529   4.898  2.3080  0.7480 -1.9749
 2840TIP3   OH2 8525   5.656   0.156   1.357  0.0643  0.6981  0.1034
 2840TIP3    H1 8526   5.748   0.150   1.331 -0.7392  0.7428 -3.0716
 2840TIP3    H2 8527   5.648   0.243   1.395  1.2642  0.8174  0.1331
 2841TIP3   OH2 8528   4.366   2.806   0.157 -0.0173  0.0367  0.1687
 2841TIP3    H1 8529   4.302   2.742   0.190  0.7043 -0.4044  0.7279
 2841TIP3    H2 8530   4.397   2.851   0.235 -0.0965  0.6895 -0.1702
 2842TIP3   OH2 8531   4.142   3.169   3.197 -0.3718  0.1066  0.1486
 2842TIP3    H1 8532   4.128   3.150   3.104  0.2971 -0.0596  0.0765
 2842TIP3    H2 8533   4.204   3.242   3.197  0.6999 -0.7799  0.4740
 2843TIP3   OH2 8534   1.497   0.993   3.088  0.0754  0.1810 -0.0980
 2843TIP3    H1 8535   1.441   0.916   3.090 -0.8077  0.8137  1.8996
 2843TIP3    H2 8536   1.577   0.966   3.134 -1.0009  0.9157  2.3933
 2844TIP3   OH2 8537   1.028   3.467   2.984  0.3142 -0.2190  0.0193
 2844TIP3    H1 8538   1.103   3.508   2.940  0.5437 -1.7891 -1.1199
 2844TIP3    H2 8539   1.064   3.436   3.067  0.4445  0.7229  0.3274
 2845TIP3   OH2 8540   2.870   3.051   4.622 -0.0911 -0.0552 -0.6073
 2845TIP3    H1 8541   2.810   2.985   4.656  1.4345 -1.6223 -0.8164
 2845TIP3    H2 8542   2.886   3.109   4.696 -0.6756 -0.5095 -0.1143
 2846TIP3   OH2 8543   6.046   5.263   4.085  0.4216  0.3673 -0.2654
 2846TIP3    H1 8544   6.135   5.234   4.108  1.0805  0.8292 -2.0444
 2846TIP3    H2 8545   6.003   5.276   4.169  0.9806 -2.9487  0.6749
 2847TIP3   OH2 8546   2.911   4.663   0.052 -0.4509 -0.2691 -0.4434
 2847TIP3    H1 8547   2.867   4.748   0.055 -0.5705 -0.3590  1.3369
 2847TIP3    H2 8548   3.003   4.684   0.036 -0.8157  0.0249 -2.3760
 2848TIP3   OH2 8549   3.904   1.724   4.346 -0.9568  0.0181  0.1232
 2848TIP3    H1 8550   3.951   1.791   4.396  0.6592  0.1377 -1.4571
 2848TIP3    H2 8551   3.849   1.773   4.285 -1.4570 -0.1198  0.4567
 2849TIP3   OH2 8552   4.780   2.298   2.307  0.3007 -0.2518  0.1733
 2849TIP3    H1 8553   4.712   2.346   2.353 -0.3947  0.5474 -1.6069
 2849TIP3    H2 8554   4.801   2.225   2.366 -0.4430  0.7554  1.7747
 2850TIP3   OH2 8555   6.281   4.562   3.205  0.1266  0.1388  0.0478
 2850TIP3    H1 8556   6.249   4.651   3.221  0.1040  0.5374 -1.8808
 2850TIP3    H2 8557   6.202   4.512   3.185  0.2315 -0.0994  0.2249
 2851TIP3   OH2 8558   0.994   2.561   1.846 -0.4349  0.0272  0.8364
 2851TIP3    H1 8559   0.993   2.642   1.896 -1.6647  1.4400 -1.3240
 2851TIP3    H2 8560   0.906   2.525   1.856 -0.7921  0.4740 -0.4380
 2852TIP3   OH2 8561   5.022   3.449   0.280  0.3935  0.0101 -0.8095
 2852TIP3    H1 8562   5.066   3.464   0.196 -1.8935 -0.5466 -2.2260
 2852TIP3    H2 8563   4.989   3.359   0.273 -4.1135  1.4556 -1.5911
 2853TIP3   OH2 8564   6.003   1.018   2.874  0.2722 -0.0203  0.3958
 2853TIP3    H1 8565   6.059   1.085   2.913 -0.1886  0.1126  0.8473
 2853TIP3    H2 8566   6.064   0.954   2.837  0.8009 -1.2325  3.1313
 2854TIP3   OH2 8567   1.476   3.657   2.926 -0.0391  0.2691  0.7161
 2854TIP3    H1 8568   1.566   3.667   2.958  0.3539  0.5213 -0.4506
 2854TIP3    H2 8569   1.486   3.624   2.837 -1.0221  2.2751 -0.2033
 2855TIP3   OH2 8570   4.186   5.401   1.593 -0.0525  0.2311 -0.1291
 2855TIP3    H1 8571   4.264   5.347   1.601 -0.6300 -0.5968 -0.0143
 2855TIP3    H2 8572   4.148   5.402   1.681 -0.5968 -0.0305 -0.3537
 2856TIP3   OH2 8573   3.137   4.286   3.817 -0.3635  0.4902 -0.0101
 2856TIP3    H1 8574   3.163   4.373   3.789  0.4304  0.3884  0.3828
 2856TIP3    H2 8575   3.219   4.238   3.828 -0.7214  0.0518  0.9184
 2857TIP3   OH2 8576   3.344   4.091   3.824  0.0610  0.0179 -0.1549
 2857TIP3    H1 8577   3.418   4.129   3.776 -0.0506 -0.6049 -0.8449
 2857TIP3    H2 8578   3.381   4.061   3.907  0.4717  0.2078 -0.2683
 2858TIP3   OH2 8579   0.675   5.629   0.451 -0.5176 -0.3217 -0.1849
 2858TIP3    H1 8580   0.620   5.704   0.471  1.1215  1.0337 -0.5589
 2858TIP3    H2 8581   0.717   5.651   0.368  0.4178 -1.3968 -0.0206
 2859TIP3   OH2 8582   3.427   1.119   3.137  0.2090  0.1625  0.4885
 2859TIP3    H1 8583   3.439   1.186   3.069  0.8772 -1.2850 -0.9056
 2859TIP3    H2 8584   3.366   1.159   3.199 -1.1077  1.2971 -1.3822
 2860TIP3   OH2 8585   2.432   3.732   1.161  0.4288 -0.0145  0.5127
 2860TIP3    H1 8586   2.458   3.778   1.081  0.2871  0.1442  0.5578
 2860TIP3    H2 8587   2.342   3.760   1.177 -0.6755 -2.4053 -0.9627
 2861TIP3   OH2 8588   0.619   4.994   3.576  0.0627 -0.5064  0.3651
 2861TIP3    H1 8589   0.621   4.945   3.657 -0.5189 -0.5460  0.3608
 2861TIP3    H2 8590   0.529   5.029   3.571  0.2197 -0.1460 -0.0400
 2862TIP3   OH2 8591   6.028   5.781   4.816  0.0641 -0.3584 -0.1465
 2862TIP3    H1 8592   6.041   5.698   4.862  1.3250 -1.5810 -2.4968
 2862TIP3    H2 8593   5.968   5.830   4.872  0.7640 -2.0604  2.2681
 2863TIP3   OH2 8594   4.686   2.900   1.867 -0.0677  0.0923 -0.2371
 2863TIP3    H1 8595   4.702   2.953   1.945 -0.6430 -0.2194  0.1036
 2863TIP3    H2 8596   4.674   2.811   1.901  1.0201 -0.2867 -0.8114
 2864TIP3   OH2 8597   2.528   5.122   4.093 -0.2973 -0.4958  0.2268
 2864TIP3    H1 8598   2.458   5.088   4.038  0.0350  0.8895 -1.0977
 2864TIP3    H2 8599   2.609   5.096   4.048  0.1185 -2.0254  1.7025
 2865TIP3   OH2 8600   4.633   2.298   4.091 -0.0120  0.1281 -0.0007
 2865TIP3    H1 8601   4.704   2.358   4.112 -1.6241  1.3290  2.4264
 2865TIP3    H2 8602   4.561   2.354   4.062 -1.3557 -0.6098  1.7247
 2866TIP3   OH2 8603   2.237   3.165   1.396  0.0383 -0.3204  0.5570
 2866TIP3    H1 8604   2.289   3.158   1.316  1.1102 -0.5547  1.2449
 2866TIP3    H2 8605   2.301   3.185   1.464 -1.1616  2.5511  0.9721
 2867TIP3   OH2 8606   2.156   5.373   4.006 -0.0684 -0.4115  0.2146
 2867TIP3    H1 8607   2.104   5.426   3.946  1.4406 -0.1155 -0.8680
 2867TIP3    H2 8608   2.246   5.401   3.992  0.2724  0.7017  3.6175
 2868TIP3   OH2 8609   4.002   0.800   0.502  0.5639  0.3066 -0.5142
 2868TIP3    H1 8610   4.079   0.752   0.535  0.6887 -0.7272 -2.1744
 2868TIP3    H2 8611   3.962   0.740   0.439 -1.5751  0.8713  0.2150
 2869TIP3   OH2 8612   1.515   2.078   3.932  0.0747  0.2307 -0.2723
 2869TIP3    H1 8613   1.485   2.161   3.895 -0.9480  0.0179  0.0272
 2869TIP3    H2 8614   1.538   2.025   3.856  1.2565  0.9575 -0.4456
 2870TIP3   OH2 8615   1.782   1.796   4.244 -0.4198  0.1221 -0.2420
 2870TIP3    H1 8616   1.727   1.810   4.167  0.1467  0.9424 -0.5175
 2870TIP3    H2 8617   1.869   1.828   4.217  0.1056 -0.8166  0.2996
 2871TIP3   OH2 8618   3.509   2.992   3.059 -0.3889 -0.5675 -0.2547
 2871TIP3    H1 8619   3.521   2.992   2.964 -2.0766 -0.1028 -0.5091
 2871TIP3    H2 8620   3.529   2.903   3.087  3.8604  0.1202 -0.4357
 2872TIP3   OH2 8621   2.415   4.826   2.128  0.1323 -0.5887  0.5036
 2872TIP3    H1 8622   2.498   4.863   2.095  0.7899 -2.9833 -0.7388
 2872TIP3    H2 8623   2.436   4.794   2.215  0.0828  0.1723  0.8022
 2873TIP3   OH2 8624   0.148   1.360   2.745 -0.7537  0.5326 -0.1106
 2873TIP3    H1 8625   0.064   1.318   2.728 -0.2741 -0.0829 -1.0292
 2873TIP3    H2 8626   0.142   1.390   2.836 -1.2871 -1.0972  0.4263
 2874TIP3   OH2 8627   1.623   1.428   0.914  0.3247  0.0919  0.3247
 2874TIP3    H1 8628   1.575   1.454   0.993  1.2013 -0.0158  0.9049
 2874TIP3    H2 8629   1.570   1.462   0.842  0.0868  1.1577  0.9868
 2875TIP3   OH2 8630   0.885   4.931   2.966 -0.9721  0.6996  0.1506
 2875TIP3    H1 8631   0.937   4.954   3.042 -0.2697  1.8483 -0.6516
 2875TIP3    H2 8632   0.903   5.000   2.902 -1.6290 -0.1700 -1.0194
 2876TIP3   OH2 8633   4.366   4.785   3.549 -0.5151  0.1670 -0.2755
 2876TIP3    H1 8634   4.284   4.826   3.577  0.2555  2.1574 -0.7371
 2876TIP3    H2 8635   4.343   4.736   3.470 -1.5474 -0.6323  0.5022
 2877TIP3   OH2 8636   5.259   5.162   0.374 -0.4803  0.1120  0.0190
 2877TIP3    H1 8637   5.176   5.208   0.365 -0.6812 -0.4519 -1.4079
 2877TIP3    H2 8638   5.312   5.217   0.431 -1.6127  0.7788  0.4611
 2878TIP3   OH2 8639   6.188   0.416   3.626  0.5488 -0.7223  0.0215
 2878TIP3    H1 8640   6.202   0.403   3.720  0.5311  1.3865  0.3657
 2878TIP3    H2 8641   6.271   0.451   3.595  0.0365  0.1069 -0.4216
 2879TIP3   OH2 8642   3.487   3.020   0.494  0.1614 -0.1380  0.0453
 2879TIP3    H1 8643   3.431   3.067   0.555  1.1172  1.0959  0.0008
 2879TIP3    H2 8644   3.525   2.949   0.546  1.5619  1.3447  1.1660
 2880TIP3   OH2 8645   0.226   4.807   1.526  0.4102 -0.5908 -0.2509
 2880TIP3    H1 8646   0.200   4.884   1.476 -0.4231 -1.0095 -0.4691
 2880TIP3    H2 8647   0.314   4.787   1.494  0.3232 -0.1949 -0.7491
 2881TIP3   OH2 8648   2.080   5.104   1.954  0.1041  0.2072 -0.4492
 2881TIP3    H1 8649   2.135   5.063   2.020  1.4532  0.4879 -1.3633
 2881TIP3    H2 8650   2.084   5.045   1.879 -1.3188 -0.0535 -0.3610
 2882TIP3   OH2 8651   4.729   3.638   4.715  0.3354 -0.4308 -0.8868
 2882TIP3    H1 8652   4.764   3.672   4.797 -1.2145  0.5161 -0.5632
 2882TIP3    H2 8653   4.788   3.567   4.691  0.5861 -1.0209  1.2706
 2883TIP3   OH2 8654   2.830   3.741   2.124  0.4544  0.0782 -0.0919
 2883TIP3    H1 8655   2.753   3.696   2.158  1.4835  0.0815  2.4273
 2883TIP3    H2 8656   2.834   3.823   2.173 -0.2138  2.1422 -3.1313
 2884TIP3   OH2 8657   0.009   5.289   4.068  0.1673 -0.2224 -0.1610
 2884TIP3    H1 8658  -0.028   5.375   4.048 -1.5599 -1.2037 -1.3906
 2884TIP3    H2 8659   0.067   5.270   3.995  1.9029  0.5797  0.9421
 2885TIP3   OH2 8660   0.830   0.972   0.458  1.1388  0.3280  0.4897
 2885TIP3    H1 8661   0.920   0.941   0.463  1.3831  1.0269  0.4714
 2885TIP3    H2 8662   0.778   0.899   0.491  1.8616  0.7565  2.7598
 2886TIP3   OH2 8663   2.485   5.493   2.677 -0.0486  0.1245  0.7439
 2886TIP3    H1 8664   2.406   5.497   2.730 -1.6925 -0.2737 -1.5188
 2886TIP3    H2 8665   2.513   5.584   2.669 -0.7800  0.3666  0.8624
 2887TIP3   OH2 8666   0.544   2.701   1.748 -0.0294  0.0399 -0.5406
 2887TIP3    H1 8667   0.608   2.647   1.794 -0.6152 -1.8660 -1.8436
 2887TIP3    H2 8668   0.485   2.732   1.818  0.5352 -0.7240  0.3010
 2888TIP3   OH2 8669   3.246   4.681   0.363 -0.4073  0.0243  0.8383
 2888TIP3    H1 8670   3.330   4.728   0.359 -0.9792  1.1110  1.1010
 2888TIP3    H2 8671   3.199   4.723   0.434 -2.0435  0.9305 -0.6953
 2889TIP3   OH2 8672   3.130   5.842   2.875 -0.0352 -0.1705 -0.1605
 2889TIP3    H1 8673   3.118   5.896   2.952 -1.7396 -0.2412 -0.3415
 2889TIP3    H2 8674   3.162   5.902   2.808  0.8727  0.0080  0.4169
 2890TIP3   OH2 8675   5.667   4.929   1.592 -0.2472 -0.2132  0.5200
 2890TIP3    H1 8676   5.631   4.856   1.542  0.8785 -0.5678  0.1878
 2890TIP3    H2 8677   5.751   4.948   1.549  0.2254  0.2075  1.5961
 2891TIP3   OH2 8678   3.786   1.433   2.110 -0.1747  0.2091  0.3965
 2891TIP3    H1 8679   3.696   1.463   2.099  0.0182  0.5590 -0.2749
 2891TIP3    H2 8680   3.778   1.353   2.162 -0.9579 -0.2596 -0.4164
 2892TIP3   OH2 8681   0.782   4.295   2.757  0.1997  0.3684  0.5823
 2892TIP3    H1 8682   0.742   4.351   2.690  2.4364  1.1068 -0.2653
 2892TIP3    H2 8683   0.716   4.230   2.778 -1.0462  0.9024 -1.4280
 2893TIP3   OH2 8684   2.746   5.166   1.354 -0.4318 -0.0522  0.2883
 2893TIP3    H1 8685   2.676   5.119   1.399 -0.8354  0.7697  0.5347
 2893TIP3    H2 8686   2.730   5.151   1.261 -1.7208  1.2043  0.2757
 2894TIP3   OH2 8687   1.638   2.064   4.393  0.0796 -0.6281 -0.1943
 2894TIP3    H1 8688   1.733   2.053   4.387  0.0741 -0.2887 -1.2167
 2894TIP3    H2 8689   1.614   2.024   4.476  1.2813  0.4123  0.7044
 2895TIP3   OH2 8690   3.901   5.145   2.480 -0.4477 -0.1424 -0.3035
 2895TIP3    H1 8691   3.914   5.064   2.430 -1.5514 -0.8708  0.5254
 2895TIP3    H2 8692   3.814   5.175   2.452 -1.3106 -0.8276  1.4565
 2896TIP3   OH2 8693   0.295   5.177   3.056 -0.3140 -0.7856  0.6917
 2896TIP3    H1 8694   0.339   5.166   2.972 -0.4950 -0.2334  0.5149
 2896TIP3    H2 8695   0.359   5.149   3.121  0.2908 -0.0424  0.4383
 2897TIP3   OH2 8696   3.273   4.706   0.988  0.0687  0.5428  0.0148
 2897TIP3    H1 8697   3.258   4.785   0.936  1.4106  1.5364  1.0643
 2897TIP3    H2 8698   3.193   4.695   1.038 -1.7946 -1.1483 -3.0029
 2898TIP3   OH2 8699   6.312   0.278   4.701  0.0577 -0.2137  0.8300
 2898TIP3    H1 8700   6.317   0.254   4.608 -1.1118  1.7043  0.2228
 2898TIP3    H2 8701   6.361   0.209   4.745 -1.0198 -2.2884 -0.9923
 2899TIP3   OH2 8702   1.853   2.766   3.291  0.3315  0.1144 -0.1433
 2899TIP3    H1 8703   1.877   2.723   3.373 -0.4286  1.2408  0.6837
 2899TIP3    H2 8704   1.913   2.840   3.285 -0.1564  0.5082 -0.1855
 2900TIP3   OH2 8705   0.101   4.590   3.411 -0.4177 -0.0401 -0.6364
 2900TIP3    H1 8706   0.041   4.611   3.482 -0.0250  0.1883 -0.3672
 2900TIP3    H2 8707   0.048   4.595   3.332 -0.5856  0.9108 -0.4751
 2901TIP3   OH2 8708   2.586   4.983   1.612 -0.2030 -0.6661 -0.0163
 2901TIP3    H1 8709   2.673   4.978   1.650 -0.2776  0.4890  0.3511
 2901TIP3    H2 8710   2.546   5.059   1.654 -0.4308  0.4368 -2.0848
 2902TIP3   OH2 8711   1.596   5.006  -0.017  0.2344  0.1217  0.1739
 2902TIP3    H1 8712   1.646   5.073   0.030  0.5165 -2.0549  3.2692
 2902TIP3    H2 8713   1.541   4.965   0.050  0.1767 -2.7998 -1.4833
 2903TIP3   OH2 8714   1.239   0.594   4.995 -0.0390 -0.1679 -0.1002
 2903TIP3    H1 8715   1.161   0.542   5.014  0.4253 -0.4615  1.0778
 2903TIP3    H2 8716   1.234   0.610   4.901 -0.5511 -1.7678 -0.3868
 2904TIP3   OH2 8717   5.079   5.533   0.313  0.3107 -0.3294  0.1329
 2904TIP3    H1 8718   5.056   5.609   0.366 -1.4215 -0.4543 -0.3627
 2904TIP3    H2 8719   5.163   5.503   0.348  0.9609  1.7008  0.4372
 2905TIP3   OH2 8720   1.774   3.144   1.820 -0.1915  0.2438 -0.1560
 2905TIP3    H1 8721   1.811   3.135   1.908  0.8640 -0.1566 -0.6183
 2905TIP3    H2 8722   1.751   3.054   1.795  0.3621  0.2276 -0.6320
 2906TIP3   OH2 8723   3.592   1.884   4.571 -0.2202 -0.3769 -0.1284
 2906TIP3    H1 8724   3.539   1.810   4.601 -1.8501  1.0149  0.5769
 2906TIP3    H2 8725   3.544   1.962   4.601  1.6683  0.9763 -0.4371
 2907TIP3   OH2 8726   5.688   3.686   1.262 -0.5208 -0.6157 -0.4416
 2907TIP3    H1 8727   5.773   3.688   1.305 -1.3810  2.5879  1.4811
 2907TIP3    H2 8728   5.633   3.630   1.318 -0.5450  0.1743  0.3519
 2908TIP3   OH2 8729   3.827   2.789   5.129 -0.1921 -0.6889  0.3920
 2908TIP3    H1 8730   3.809   2.785   5.035  0.3268  0.0709  0.2470
 2908TIP3    H2 8731   3.797   2.877   5.155 -1.4370 -1.3247  1.1875
 2909TIP3   OH2 8732   2.842   2.483   4.110 -0.4521  0.2396 -0.1053
 2909TIP3    H1 8733   2.806   2.401   4.144  1.5522  0.4134  2.8318
 2909TIP3    H2 8734   2.824   2.547   4.179  1.8024  1.2178 -0.3380
 2910TIP3   OH2 8735   1.715   3.114   0.570  0.1147  0.4192  0.0153
 2910TIP3    H1 8736   1.786   3.145   0.627  0.1732 -2.0055  1.3551
 2910TIP3    H2 8737   1.635   3.146   0.611  0.2562  0.4345  0.2797
 2911TIP3   OH2 8738   5.619   2.851   0.118  0.4958  0.2580  0.2496
 2911TIP3    H1 8739   5.664   2.836   0.201  0.2271  0.5017  0.4380
 2911TIP3    H2 8740   5.587   2.941   0.123  2.6142  1.1643 -1.1166
 2912TIP3   OH2 8741   2.595   0.544   3.336 -0.0674  0.5273  0.0373
 2912TIP3    H1 8742   2.616   0.548   3.242  0.3590 -0.2901  0.0933
 2912TIP3    H2 8743   2.646   0.615   3.374  3.0577 -1.6206  0.2284
 2913TIP3   OH2 8744   0.306   4.437   3.530  0.3575 -1.2473 -0.3568
 2913TIP3    H1 8745   0.278   4.438   3.621  1.1838 -1.7032 -0.0918
 2913TIP3    H2 8746   0.241   4.491   3.484  0.1502 -0.7112  0.5534
 2914TIP3   OH2 8747   4.340   1.079   0.379 -0.4071 -0.0962 -0.0642
 2914TIP3    H1 8748   4.279   1.031   0.322  0.5849  1.6837 -2.8386
 2914TIP3    H2 8749   4.284   1.135   0.432 -1.3131  0.7493 -1.8109
 2915TIP3   OH2 8750   3.757   4.805   3.269  0.3968  0.1567 -0.2839
 2915TIP3    H1 8751   3.839   4.855   3.267  0.7337 -0.4090 -1.7446
 2915TIP3    H2 8752   3.777   4.728   3.322  1.1160 -0.4371 -1.3743
 2916TIP3   OH2 8753   5.587   4.959   5.096 -0.4672  0.1763  0.0025
 2916TIP3    H1 8754   5.541   4.892   5.044  1.3119 -0.2604 -1.0864
 2916TIP3    H2 8755   5.606   4.916   5.179  1.8775 -1.2432 -1.1747
 2917TIP3   OH2 8756   3.070   0.509   1.489  0.6430  0.4561  0.4156
 2917TIP3    H1 8757   3.049   0.519   1.582 -0.6081  1.0360  0.0936
 2917TIP3    H2 8758   3.069   0.415   1.474  0.2973  0.3870  0.8691
 2918TIP3   OH2 8759   2.083   3.594   3.266  0.1950 -0.2690  0.4904
 2918TIP3    H1 8760   2.052   3.520   3.214  0.3324  1.4941 -2.2986
 2918TIP3    H2 8761   2.175   3.574   3.284  0.3269 -0.6723 -0.5415
 2919TIP3   OH2 8762   2.097   3.476   2.126  0.1468 -0.1423 -0.0716
 2919TIP3    H1 8763   2.059   3.430   2.051 -1.0404 -0.6063  0.7761
 2919TIP3    H2 8764   2.144   3.550   2.087 -0.3656 -0.4219 -1.2813
 2920TIP3   OH2 8765   3.876   5.051   1.659 -0.3083 -0.1193 -0.1487
 2920TIP3    H1 8766   3.793   5.009   1.635  0.3587 -0.9241 -1.1061
 2920TIP3    H2 8767   3.877   5.133   1.609  0.1485 -0.8324 -1.3467
 2921TIP3   OH2 8768   5.136   5.446   5.081 -0.6636  0.0885  0.5536
 2921TIP3    H1 8769   5.172   5.444   5.170 -0.2703  1.2675  0.4325
 2921TIP3    H2 8770   5.116   5.354   5.062  0.6420 -0.3734  1.2844
 2922TIP3   OH2 8771   1.150   2.079   2.879 -0.2671  0.1461 -0.0488
 2922TIP3    H1 8772   1.083   2.063   2.946 -0.8033  1.2886 -0.2981
 2922TIP3    H2 8773   1.116   2.036   2.801  0.3037 -1.0870  0.3466
 2923TIP3   OH2 8774   4.625   2.008   1.962  0.8332  0.0314 -0.7434
 2923TIP3    H1 8775   4.530   2.013   1.949  0.9058  1.9591 -0.8432
 2923TIP3    H2 8776   4.660   1.994   1.874  0.6763  0.0316 -0.8064
 2924TIP3   OH2 8777   4.266   2.120   0.563 -0.2280 -0.2096 -0.1985
 2924TIP3    H1 8778   4.334   2.055   0.580 -0.8039 -0.7273  0.1918
 2924TIP3    H2 8779   4.187   2.068   0.544 -1.0963  0.3252  1.6627
 2925TIP3   OH2 8780   0.767   1.934   5.026 -0.2372  0.0593  0.0994
 2925TIP3    H1 8781   0.784   1.980   4.944 -0.5513 -0.5678 -0.3226
 2925TIP3    H2 8782   0.774   1.841   5.004 -0.9495 -0.1346  0.6375
 2926TIP3   OH2 8783   3.106   1.697   3.258  0.0913 -0.1497  0.2555
 2926TIP3    H1 8784   3.158   1.645   3.197  0.9010  1.0759 -0.1430
 2926TIP3    H2 8785   3.171   1.738   3.315 -0.4711  0.8623  0.1930
 2927TIP3   OH2 8786   3.979   4.708   3.618  0.2983  0.2009 -0.3772
 2927TIP3    H1 8787   3.961   4.671   3.531  0.9777 -0.3417 -0.2941
 2927TIP3    H2 8788   4.001   4.800   3.600 -0.3373  0.3004 -0.6923
 2928TIP3   OH2 8789   1.592   3.093   3.657  0.4054  0.2562  0.4316
 2928TIP3    H1 8790   1.648   3.030   3.703 -0.8003  0.1325  1.8140
 2928TIP3    H2 8791   1.506   3.052   3.656  0.2840  0.4701 -1.6200
 2929TIP3   OH2 8792   5.642   4.288   3.253 -0.1731  0.8631 -0.3351
 2929TIP3    H1 8793   5.672   4.309   3.165 -0.5720 -1.3122 -1.0514
 2929TIP3    H2 8794   5.719   4.250   3.296 -0.2915  0.8750 -0.1088
 2930TIP3   OH2 8795   1.865   0.113   1.095  0.0749  0.2974  0.1385
 2930TIP3    H1 8796   1.949   0.078   1.123 -0.4187 -0.6761  0.4507
 2930TIP3    H2 8797   1.883   0.155   1.011  0.5749 -1.2899 -0.5843
 2931TIP3   OH2 8798   4.413   3.364   3.198 -0.4250  0.2186  0.6341
 2931TIP3    H1 8799   4.471   3.419   3.146 -0.3195  2.0105  2.5014
 2931TIP3    H2 8800   4.354   3.426   3.241 -0.9965 -1.2124  2.0121
 2932TIP3   OH2 8801   6.144   5.126   2.907  0.4237  0.2626  0.0504
 2932TIP3    H1 8802   6.148   5.182   2.830  1.9237 -0.1812 -0.2252
 2932TIP3    H2 8803   6.234   5.095   2.919  0.1477  0.0217  1.7542
 2933TIP3   OH2 8804   5.606   4.060   2.366  0.0421  0.3346  0.0704
 2933TIP3    H1 8805   5.659   4.003   2.423 -0.4252  1.3134  1.5562
 2933TIP3    H2 8806   5.518   4.024   2.372  0.2279 -0.3729 -1.1689
 2934TIP3   OH2 8807   3.606   2.350   2.059  1.2126  0.1040 -0.0889
 2934TIP3    H1 8808   3.589   2.318   1.971 -1.0347  2.0928 -0.4781
 2934TIP3    H2 8809   3.626   2.443   2.047 -0.3342  0.7028  1.5251
 2935TIP3   OH2 8810   5.114   3.010   3.063  0.0937 -0.0663 -0.2243
 2935TIP3    H1 8811   5.087   3.070   2.994 -0.8486  1.6446  1.5331
 2935TIP3    H2 8812   5.054   2.936   3.056 -1.0644  0.8497 -0.2416
 2936TIP3   OH2 8813   4.709   3.008   1.540  0.5428  0.3501  0.1674
 2936TIP3    H1 8814   4.619   3.017   1.571  0.9426  0.0120  1.4819
 2936TIP3    H2 8815   4.761   3.061   1.600  1.4555 -1.0216  0.6401
 2937TIP3   OH2 8816   4.036   5.094   1.334 -0.6034  0.2161 -0.1111
 2937TIP3    H1 8817   4.076   5.028   1.278  0.6731  1.3434 -0.5898
 2937TIP3    H2 8818   4.086   5.089   1.416 -2.0963 -1.0399  0.7771
 2938TIP3   OH2 8819   5.351   2.960   3.151 -0.2864 -0.6025 -0.1447
 2938TIP3    H1 8820   5.268   3.001   3.126  0.3896  0.1845 -1.1544
 2938TIP3    H2 8821   5.406   2.968   3.073  0.3691 -2.1412  0.1261
 2939TIP3   OH2 8822   6.072   0.452   4.700 -0.0652 -0.0882  0.0276
 2939TIP3    H1 8823   6.004   0.406   4.651  0.2013  0.2009 -0.6272
 2939TIP3    H2 8824   6.147   0.454   4.640 -0.1057  1.2918 -0.0105
 2940TIP3   OH2 8825   1.813   0.978   1.380 -0.0649  0.5641 -0.4738
 2940TIP3    H1 8826   1.798   0.999   1.473 -0.3474  0.6685 -0.5428
 2940TIP3    H2 8827   1.732   0.935   1.352 -0.0336  0.6584 -0.7098
 2941TIP3   OH2 8828   1.356   1.882   2.757  0.7189 -0.2273 -0.6354
 2941TIP3    H1 8829   1.348   1.958   2.815 -0.1256 -0.8058  0.0293
 2941TIP3    H2 8830   1.274   1.879   2.709  1.4777  0.3479 -2.0420
 2942TIP3   OH2 8831   4.248   3.221   3.915 -0.3497  0.1808 -0.0088
 2942TIP3    H1 8832   4.246   3.181   3.829  1.3975 -2.3863  1.0296
 2942TIP3    H2 8833   4.191   3.166   3.969 -0.2625  0.8792  0.8256
 2943TIP3   OH2 8834   2.641   4.240   3.707  0.3172  0.1964  0.0976
 2943TIP3    H1 8835   2.715   4.192   3.672  0.0232 -0.4594  0.3590
 2943TIP3    H2 8836   2.632   4.316   3.649 -0.3730 -1.0255 -1.4834
 2944TIP3   OH2 8837   3.392   3.316   4.714 -0.0327  0.0897  0.2464
 2944TIP3    H1 8838   3.443   3.292   4.790 -1.4083 -0.1466  1.1341
 2944TIP3    H2 8839   3.318   3.365   4.749 -1.1428 -0.7276 -0.8444
 2945TIP3   OH2 8840   3.052   4.551   1.441 -0.2930 -0.2242  0.8697
 2945TIP3    H1 8841   3.006   4.622   1.486  2.0385  0.8669  1.6353
 2945TIP3    H2 8842   3.041   4.475   1.499 -1.9476 -0.3011  0.5250
 2946TIP3   OH2 8843   1.766   4.461   1.868 -0.2330 -0.0255  0.3305
 2946TIP3    H1 8844   1.723   4.542   1.840 -2.3740 -1.0438  0.5260
 2946TIP3    H2 8845   1.783   4.414   1.786  0.1275  0.1752  0.2861
 2947TIP3   OH2 8846   2.528   0.677   2.010  0.3785 -0.3015  0.3198
 2947TIP3    H1 8847   2.472   0.641   2.079 -0.2043 -2.3014 -1.0860
 2947TIP3    H2 8848   2.544   0.603   1.951  1.9783  0.9866 -0.9670
 2948TIP3   OH2 8849   3.335   0.451   0.560  0.3935 -0.4213  0.3429
 2948TIP3    H1 8850   3.425   0.474   0.537  0.9047 -0.3949  2.1488
 2948TIP3    H2 8851   3.281   0.514   0.512  1.1099 -1.9389 -2.6966
 2949TIP3   OH2 8852   4.946   0.473   0.706  0.0327  0.4910  0.2427
 2949TIP3    H1 8853   4.863   0.489   0.661 -0.0459 -0.3669  0.0718
 2949TIP3    H2 8854   4.948   0.379   0.720  1.0458  0.4866  0.1188
 2950TIP3   OH2 8855   2.806   3.160   4.153  0.3070  0.0474 -0.0399
 2950TIP3    H1 8856   2.819   3.120   4.239  1.4464  1.9906  0.7852
 2950TIP3    H2 8857   2.881   3.130   4.101  0.5052  0.1443  0.1865
 2951TIP3   OH2 8858   0.344   0.254   2.516 -0.0444  0.2752 -0.3056
 2951TIP3    H1 8859   0.252   0.249   2.490 -0.3147  0.6614  0.5441
 2951TIP3    H2 8860   0.342   0.284   2.607  0.9505  1.1521 -0.5495
 2952TIP3   OH2 8861   2.976   1.811   0.836 -0.8475 -0.6230  0.2086
 2952TIP3    H1 8862   3.035   1.749   0.793 -0.5513  0.1933 -0.5955
 2952TIP3    H2 8863   3.018   1.897   0.824 -1.1602 -0.2755  1.4491
 2953TIP3   OH2 8864   6.329   0.465   1.987  0.6041  0.9757 -0.4734
 2953TIP3    H1 8865   6.281   0.467   2.070  0.9504  0.0990 -0.2395
 2953TIP3    H2 8866   6.267   0.431   1.923  0.9696 -0.4386 -0.1115
 2954TIP3   OH2 8867   5.161   2.716   0.780  0.5295 -0.5490  0.1200
 2954TIP3    H1 8868   5.069   2.729   0.802  0.3423 -0.7628 -0.5206
 2954TIP3    H2 8869   5.160   2.672   0.695  1.2421  0.8233 -0.6321
 2955TIP3   OH2 8870   2.012   1.694   1.486 -0.0404  0.4560 -0.1873
 2955TIP3    H1 8871   1.925   1.675   1.521  0.2986 -1.3727 -0.2865
 2955TIP3    H2 8872   2.040   1.613   1.443  1.9256  0.8327  0.2616
 2956TIP3   OH2 8873   4.285   0.822   0.693 -0.0940  0.5428 -0.3414
 2956TIP3    H1 8874   4.272   0.738   0.649 -1.0182  0.4111  0.1543
 2956TIP3    H2 8875   4.363   0.859   0.651 -0.2379 -0.1212 -1.2317
 2957TIP3   OH2 8876   2.275   2.189   1.717 -0.2943 -0.1115 -0.1394
 2957TIP3    H1 8877   2.299   2.258   1.655  1.0972  3.4146  3.8911
 2957TIP3    H2 8878   2.337   2.118   1.699  1.0732  1.4049 -1.7482
 2958TIP3   OH2 8879   3.391   5.289   4.696  0.1462 -0.3339 -0.4898
 2958TIP3    H1 8880   3.368   5.206   4.739  2.2086 -0.3494  0.6955
 2958TIP3    H2 8881   3.475   5.271   4.654  1.7015  1.6800  1.5387
 2959TIP3   OH2 8882   5.359   5.488   1.995 -0.5891 -0.1010 -0.3213
 2959TIP3    H1 8883   5.401   5.573   1.979 -3.1937  1.4006  0.3730
 2959TIP3    H2 8884   5.313   5.468   1.914 -1.1011 -0.1888 -0.0092
 2960TIP3   OH2 8885   5.689   0.880   0.703  0.5215  0.2602  1.0918
 2960TIP3    H1 8886   5.673   0.974   0.695 -1.5173  0.0136  1.8143
 2960TIP3    H2 8887   5.691   0.863   0.797 -1.0459 -0.6717  0.9985
 2961TIP3   OH2 8888   1.341   1.276   3.988  0.1846  0.1819 -0.0510
 2961TIP3    H1 8889   1.256   1.308   3.957  0.0743 -0.8841 -0.8855
 2961TIP3    H2 8890   1.390   1.356   4.009 -1.4832  0.8176  1.7999
 2962TIP3   OH2 8891   4.392   3.468   0.347  0.1676  0.5862  0.5780
 2962TIP3    H1 8892   4.322   3.405   0.364  1.0903 -0.4242  0.7002
 2962TIP3    H2 8893   4.425   3.491   0.433  1.4535 -0.6504  0.4469
 2963TIP3   OH2 8894   4.159   2.069   3.090 -0.2027 -0.4787  0.0936
 2963TIP3    H1 8895   4.136   2.103   3.176 -0.1244 -1.8625  0.6873
 2963TIP3    H2 8896   4.125   2.134   3.028  1.7592  1.7244  1.1958
 2964TIP3   OH2 8897   0.164   1.750   1.473  0.3830 -0.2608 -0.5365
 2964TIP3    H1 8898   0.189   1.801   1.550  1.6426 -1.5527 -0.0426
 2964TIP3    H2 8899   0.107   1.809   1.422 -0.0925  0.7800  1.1277
 2965TIP3   OH2 8900   0.872   5.881   3.559  0.0552 -0.1847  0.6094
 2965TIP3    H1 8901   0.793   5.903   3.511  0.2868  0.7187  0.6336
 2965TIP3    H2 8902   0.939   5.940   3.525  0.8802 -1.3430  0.1506
 2966TIP3   OH2 8903   3.005   1.985   0.295  0.2081 -0.3021  0.0252
 2966TIP3    H1 8904   2.962   2.031   0.367  0.8994 -0.3735  0.4950
 2966TIP3    H2 8905   2.933   1.952   0.241 -0.3377 -0.5850  0.9008
 2967TIP3   OH2 8906   3.679   5.536   0.424  0.5370 -0.5763  0.1778
 2967TIP3    H1 8907   3.632   5.607   0.380  1.2041  0.7466  1.5090
 2967TIP3    H2 8908   3.765   5.573   0.444  1.0268 -1.8845  0.6038
 2968TIP3   OH2 8909   5.863   4.823  -0.006  0.4316 -0.3960 -0.1859
 2968TIP3    H1 8910   5.805   4.894  -0.035  0.6740 -1.0770 -2.5325
 2968TIP3    H2 8911   5.925   4.866   0.052 -0.6198  0.9338  0.0115
 2969TIP3   OH2 8912   0.469   0.559   4.944 -0.5677 -0.0797 -0.1199
 2969TIP3    H1 8913   0.413   0.532   5.017 -2.1422  0.0288 -1.2392
 2969TIP3    H2 8914   0.488   0.478   4.897  0.6084 -0.1773  0.4905
 2970TIP3   OH2 8915   3.183   2.966   1.755  0.6635  0.4483 -0.0128
 2970TIP3    H1 8916   3.094   2.964   1.791  0.7746 -1.6411  0.2884
 2970TIP3    H2 8917   3.170   2.958   1.660  0.5150  1.5473 -0.1003
 2971TIP3   OH2 8918   5.089   3.611   3.789 -0.2533  0.3662 -0.5167
 2971TIP3    H1 8919   5.061   3.626   3.698  0.3399  0.3768 -0.6982
 2971TIP3    H2 8920   5.066   3.519   3.806 -2.1685  0.8876 -0.0187
 2972TIP3   OH2 8921   0.433   5.012   1.662  0.0823  0.2003 -0.3566
 2972TIP3    H1 8922   0.370   5.073   1.624 -1.6127 -1.6348 -0.6418
 2972TIP3    H2 8923   0.406   4.926   1.630  1.2711 -0.9358  1.4878
 2973TIP3   OH2 8924   5.847   0.792   3.379 -0.1873  0.1107  0.2103
 2973TIP3    H1 8925   5.813   0.757   3.461  0.1147  1.5423  0.9800
 2973TIP3    H2 8926   5.808   0.736   3.311 -3.1436  0.9127  1.0940
 2974TIP3   OH2 8927   6.170   0.742   4.910  0.4126 -0.3034  0.6819
 2974TIP3    H1 8928   6.223   0.703   4.980  0.7401 -0.1809  0.5024
 2974TIP3    H2 8929   6.134   0.822   4.949 -0.4704 -0.9176  1.1343
 2975TIP3   OH2 8930   2.562   0.672   1.107  0.3766  0.1862  0.0832
 2975TIP3    H1 8931   2.512   0.592   1.092  1.6270 -0.4322 -0.9236
 2975TIP3    H2 8932   2.558   0.685   1.202  2.1511 -2.4438  0.6133
 2976TIP3   OH2 8933   4.211   0.027   0.800  0.0484  0.1106 -0.0987
 2976TIP3    H1 8934   4.295   0.023   0.845 -1.1419 -0.6701  2.2644
 2976TIP3    H2 8935   4.157  -0.040   0.843 -1.9331  0.9004 -1.1854
 2977TIP3   OH2 8936   0.155   4.170   2.232  0.0940 -0.5179  1.0017
 2977TIP3    H1 8937   0.116   4.083   2.230 -0.6040 -0.2128  0.9992
 2977TIP3    H2 8938   0.169   4.192   2.140 -0.0105 -0.5035  0.9894
 2978TIP3   OH2 8939   2.851   4.142   2.120 -0.1861 -0.2681 -0.1098
 2978TIP3    H1 8940   2.842   4.066   2.177 -1.6668 -1.1559 -1.4396
 2978TIP3    H2 8941   2.923   4.193   2.158  0.1620 -1.8042  1.3900
 2979TIP3   OH2 8942   4.958   0.260   3.287 -0.3401  0.2040 -0.4575
 2979TIP3    H1 8943   5.006   0.199   3.231 -1.9930  1.4489 -3.5270
 2979TIP3    H2 8944   4.868   0.228   3.286 -1.0270  1.9612 -1.2604
 2980TIP3   OH2 8945   2.575   2.839   0.366 -0.4768  0.3189  0.2965
 2980TIP3    H1 8946   2.534   2.798   0.443 -2.5459  0.6581 -0.5803
 2980TIP3    H2 8947   2.632   2.770   0.331 -1.6518 -0.8298  0.5448
 2981TIP3   OH2 8948   2.484   1.351   1.773  0.0652  0.0468  0.1553
 2981TIP3    H1 8949   2.412   1.331   1.713 -0.4967 -0.4900  0.9887
 2981TIP3    H2 8950   2.523   1.266   1.793 -1.1663 -0.0918  2.2787
 2982TIP3   OH2 8951   4.979   3.835   0.033  0.0975 -0.0107  0.0781
 2982TIP3    H1 8952   5.022   3.758  -0.002 -1.0168 -0.8965  0.5941
 2982TIP3    H2 8953   5.051   3.891   0.064  0.9384 -0.5427 -0.8582
 2983TIP3   OH2 8954   3.392   0.632   0.281  0.4704  0.0023  0.8659
 2983TIP3    H1 8955   3.418   0.703   0.223  0.3873 -0.7477 -0.1257
 2983TIP3    H2 8956   3.415   0.662   0.368  0.3693  1.2721  0.4761
 2984TIP3   OH2 8957   3.529   3.787   1.343  0.1044 -0.0066  0.8487
 2984TIP3    H1 8958   3.577   3.868   1.325  1.6588 -1.2243 -0.9586
 2984TIP3    H2 8959   3.503   3.794   1.435 -1.3464  3.2493  0.3438
 2985TIP3   OH2 8960   5.931   3.698   2.273  0.5125  0.2658  0.1267
 2985TIP3    H1 8961   5.904   3.739   2.190  0.1180  1.9753  1.0576
 2985TIP3    H2 8962   6.012   3.743   2.296 -0.5505  1.4559  1.7687
 2986TIP3   OH2 8963   4.323   2.716   4.891 -0.7028  0.0244 -0.6194
 2986TIP3    H1 8964   4.385   2.718   4.817 -0.8388  2.8864 -0.7452
 2986TIP3    H2 8965   4.253   2.776   4.866  0.4968  3.2135  2.7803
 2987TIP3   OH2 8966   5.021   4.513   4.885  0.2269 -0.1457 -0.2764
 2987TIP3    H1 8967   5.098   4.485   4.934  1.1925  0.3618 -1.4415
 2987TIP3    H2 8968   4.980   4.579   4.941  1.6798  0.9083 -0.3814
 2988TIP3   OH2 8969   4.674   3.550   2.437  0.4150 -0.5215  0.3229
 2988TIP3    H1 8970   4.729   3.628   2.428 -1.4583  0.7772 -0.6535
 2988TIP3    H2 8971   4.716   3.499   2.506  3.4311 -0.2026 -1.0976
 2989TIP3   OH2 8972   4.753   5.935   1.579  0.5065 -0.4942 -0.1944
 2989TIP3    H1 8973   4.848   5.942   1.593  0.1874  1.0927  1.7653
 2989TIP3    H2 8974   4.715   5.962   1.663 -1.7269  1.8648 -1.8058
 2990TIP3   OH2 8975   3.574   5.569   3.370  0.2680  0.4999  0.3806
 2990TIP3    H1 8976   3.494   5.527   3.402  0.2992 -0.6292 -0.9696
 2990TIP3    H2 8977   3.624   5.499   3.329  1.4009  1.4241  0.1229
 2991TIP3   OH2 8978   5.086   3.110   0.332 -0.6415  0.4692 -0.7974
 2991TIP3    H1 8979   4.996   3.078   0.337 -0.2139 -0.6722 -0.0886
 2991TIP3    H2 8980   5.107   3.109   0.238 -0.9986 -0.3424 -0.8753
 2992TIP3   OH2 8981   3.369   2.113   2.842  0.1740 -0.1892  0.1333
 2992TIP3    H1 8982   3.405   2.081   2.925 -1.8673 -0.6449  0.8957
 2992TIP3    H2 8983   3.424   2.073   2.775  0.3330 -1.8511  1.1976
 2993TIP3   OH2 8984   5.382   1.085   2.785  0.1733 -0.8652  0.0958
 2993TIP3    H1 8985   5.440   1.130   2.724  0.0202 -1.6355 -0.6272
 2993TIP3    H2 8986   5.403   1.123   2.871 -0.3246  0.9540 -0.5458
 2994TIP3   OH2 8987   0.137   3.584   4.470 -0.0616  0.4543 -0.6344
 2994TIP3    H1 8988   0.141   3.612   4.379 -0.3556 -0.4775 -0.9455
 2994TIP3    H2 8989   0.078   3.647   4.512 -2.5553 -0.9520 -1.8153
 2995TIP3   OH2 8990   5.411   0.094   0.910 -0.5170 -0.3456 -0.4612
 2995TIP3    H1 8991   5.448   0.116   0.995  1.0086  3.8979 -1.9694
 2995TIP3    H2 8992   5.316   0.089   0.926 -0.2895  0.5954  1.4259
 2996TIP3   OH2 8993   2.030   1.849   2.154  0.0871 -0.2608 -0.3541
 2996TIP3    H1 8994   2.064   1.770   2.112  1.2617  0.8432 -1.5753
 2996TIP3    H2 8995   2.026   1.913   2.083 -3.4020  0.0813 -0.0217
 2997TIP3   OH2 8996   2.561   5.512   0.381 -0.1548  0.2448 -0.1005
 2997TIP3    H1 8997   2.652   5.541   0.386  0.0833 -0.1634 -1.4908
 2997TIP3    H2 8998   2.534   5.498   0.472  1.0972  0.5816  0.3338
 2998TIP3   OH2 8999   2.698   1.778   4.027 -0.2495  0.2421  0.1479
 2998TIP3    H1 9000   2.720   1.687   4.005 -0.2197  0.8186 -2.5693
 2998TIP3    H2 9001   2.782   1.818   4.048  0.0229  0.0775 -0.5783
 2999TIP3   OH2 9002   1.340   0.805   4.225  0.1480  0.1262  0.2337
 2999TIP3    H1 9003   1.415   0.863   4.208  0.5804 -0.1492  1.0980
 2999TIP3    H2 9004   1.375   0.740   4.286 -0.9973  0.4602  1.2849
 3000TIP3   OH2 9005   4.759   2.748   3.997 -0.3826 -0.4753 -0.3466
 3000TIP3    H1 9006   4.707   2.714   3.925  2.0857 -1.0037 -2.0033
 3000TIP3    H2 9007   4.835   2.690   4.002  1.5444  1.9031 -0.0571
 3001TIP3   OH2 9008   0.075   2.789   3.315 -0.1061  0.1083  0.0992
 3001TIP3    H1 9009   0.018   2.794   3.391  1.3019 -0.9012  1.2644
 3001TIP3    H2 9010   0.157   2.753   3.348  0.8794  0.5470 -1.7139
 3002TIP3   OH2 9011   4.998   4.158   0.945 -0.3045  0.2496 -0.0526
 3002TIP3    H1 9012   5.045   4.214   0.883 -0.5643  0.9223  0.3538
 3002TIP3    H2 9013   4.914   4.140   0.902 -0.3924  0.5300 -0.0043
 3003TIP3   OH2 9014   4.251   4.792   4.866  0.3986 -0.2536  0.4078
 3003TIP3    H1 9015   4.223   4.789   4.774 -1.3010 -0.0854  0.8860
 3003TIP3    H2 9016   4.218   4.876   4.898  2.6762  0.6216  0.7016
 3004TIP3   OH2 9017   2.557   4.090   2.652  0.3357 -0.4934  0.2364
 3004TIP3    H1 9018   2.650   4.081   2.673 -0.0509 -0.3217  2.2080
 3004TIP3    H2 9019   2.528   4.166   2.701 -1.1759 -1.4477  0.9103
 3005TIP3   OH2 9020   4.937   3.774   1.858 -0.2279 -0.2980  0.3089
 3005TIP3    H1 9021   4.870   3.797   1.923  0.0017  0.4152  0.3018
 3005TIP3    H2 9022   4.898   3.798   1.774  0.9760  2.6383  0.4531
 3006TIP3   OH2 9023   0.923   5.346   2.949  0.0123 -0.4743 -0.7571
 3006TIP3    H1 9024   0.910   5.254   2.971 -0.1364 -1.3263 -3.8407
 3006TIP3    H2 9025   1.006   5.370   2.991 -0.2415 -1.8177  0.5764
 3007TIP3   OH2 9026   0.838   0.376   1.097 -0.3919  0.4854  0.8300
 3007TIP3    H1 9027   0.914   0.368   1.155 -0.2619  1.7105  0.8437
 3007TIP3    H2 9028   0.821   0.470   1.092 -0.8164  0.3566 -0.5736
 3008TIP3   OH2 9029   1.276   1.336   0.357 -0.2008  0.1120 -0.1551
 3008TIP3    H1 9030   1.217   1.343   0.432 -0.7415  0.4313 -0.5985
 3008TIP3    H2 9031   1.349   1.282   0.388 -1.4805 -1.6614 -0.0584
 3009TIP3   OH2 9032   0.978   5.608   4.813  0.2680 -0.1508  0.9923
 3009TIP3    H1 9033   0.915   5.676   4.836  0.7164  0.0635  1.6204
 3009TIP3    H2 9034   1.055   5.655   4.782 -0.4380 -0.4390 -1.3769
 3010TIP3   OH2 9035   2.405   4.273   4.875  0.1355 -0.1235  0.1024
 3010TIP3    H1 9036   2.464   4.318   4.936  0.4253  0.6863 -0.7435
 3010TIP3    H2 9037   2.343   4.341   4.848 -0.1643 -0.5457 -0.2878
 3011TIP3   OH2 9038   0.397   0.423   3.450 -0.5260  0.8369 -0.5140
 3011TIP3    H1 9039   0.469   0.428   3.388  0.8341 -3.6676  0.3070
 3011TIP3    H2 9040   0.435   0.452   3.533 -0.8301  2.0058 -0.7689
 3012TIP3   OH2 9041   3.634   5.969   1.883  0.0036 -0.0932  0.4477
 3012TIP3    H1 9042   3.625   6.002   1.794 -2.1416  0.5375  0.8478
 3012TIP3    H2 9043   3.584   5.887   1.884  0.8328 -0.6052  0.8273
 3013TIP3   OH2 9044   2.515   3.947   3.440 -0.1365 -0.4777  0.2327
 3013TIP3    H1 9045   2.600   3.923   3.475  0.2302 -1.4118 -1.2182
 3013TIP3    H2 9046   2.452   3.909   3.502  0.4544  0.4264  1.4465
 3014TIP3   OH2 9047   1.967   5.876   0.593 -0.0217  0.4360 -0.7801
 3014TIP3    H1 9048   2.025   5.939   0.638 -0.4610 -0.5100  1.2249
 3014TIP3    H2 9049   2.010   5.859   0.509  1.7965  0.9480  0.0015
 3015TIP3   OH2 9050   5.017   1.545   4.261  0.1907  0.3760  0.0766
 3015TIP3    H1 9051   5.019   1.521   4.168 -0.8762 -0.6585  0.2961
 3015TIP3    H2 9052   5.105   1.525   4.293  0.3474  0.0343 -0.5486
 3016TIP3   OH2 9053   3.651   1.526   3.187 -0.0636  0.2490 -0.0877
 3016TIP3    H1 9054   3.674   1.434   3.180  0.9433  0.5253 -0.6524
 3016TIP3    H2 9055   3.692   1.567   3.111 -0.7265  1.1206  0.0051
 3017TIP3   OH2 9056   3.301   0.865   1.000 -0.4114  0.2133 -0.5228
 3017TIP3    H1 9057   3.334   0.789   0.952  1.1660 -0.2036  1.0869
 3017TIP3    H2 9058   3.375   0.926   1.003 -0.8445  0.7130  0.3631
 3018TIP3   OH2 9059   4.173   1.854   3.281  0.0227  0.1471  0.8784
 3018TIP3    H1 9060   4.100   1.793   3.266 -0.9341  1.0334  1.7553
 3018TIP3    H2 9061   4.185   1.897   3.197 -0.1681 -0.3121  0.6090
 3019TIP3   OH2 9062   2.840   5.501   0.220  0.4377 -0.1437 -0.1137
 3019TIP3    H1 9063   2.915   5.556   0.241 -0.4925 -0.3300  5.4771
 3019TIP3    H2 9064   2.873   5.411   0.228 -0.1438 -0.2267  2.3779
 3020TIP3   OH2 9065   1.571   2.857   1.535  0.7308 -0.0808  1.0984
 3020TIP3    H1 9066   1.629   2.802   1.483 -1.2192 -0.9783 -0.2578
 3020TIP3    H2 9067   1.623   2.882   1.611  2.8218 -0.9074  0.0204
 3021TIP3   OH2 9068   5.473   4.309   3.965 -0.3098 -0.4053 -0.5141
 3021TIP3    H1 9069   5.486   4.227   3.916 -0.1725 -0.0421 -1.0893
 3021TIP3    H2 9070   5.407   4.356   3.915  0.0995  0.1304 -0.5614
 3022TIP3   OH2 9071   1.412   1.412   2.033  0.2642 -0.7730  0.0566
 3022TIP3    H1 9072   1.460   1.404   2.116 -0.2453  0.4326  0.4838
 3022TIP3    H2 9073   1.413   1.323   1.997  2.0761 -0.9604  0.4452
 3023TIP3   OH2 9074   4.690   0.096   1.813 -0.2227 -0.0933  0.0091
 3023TIP3    H1 9075   4.631   0.072   1.741 -0.3794 -0.7407  0.3463
 3023TIP3    H2 9076   4.775   0.110   1.772 -0.3093 -0.4742 -0.3047
 3024TIP3   OH2 9077   3.611   3.830   2.513 -0.3108  0.1690 -0.1891
 3024TIP3    H1 9078   3.631   3.737   2.498  1.2271  0.5438 -0.6188
 3024TIP3    H2 9079   3.641   3.847   2.602  1.5355  0.7587 -0.8701
 3025TIP3   OH2 9080   1.509   0.468   1.912  0.3920 -0.3515 -0.2891
 3025TIP3    H1 9081   1.518   0.374   1.896  0.7628 -0.0327 -2.1508
 3025TIP3    H2 9082   1.510   0.507   1.825  0.0729  1.3746  0.4509
 3026TIP3   OH2 9083   5.956   4.953   0.264  0.4634  0.6380 -0.3080
 3026TIP3    H1 9084   5.964   5.040   0.301  0.1273  0.3117  0.5492
 3026TIP3    H2 9085   6.031   4.905   0.299  0.3972  0.4531 -0.4152
 3027TIP3   OH2 9086   4.390   5.114   3.951  0.4226 -0.4459 -0.1626
 3027TIP3    H1 9087   4.351   5.201   3.942 -2.5586 -1.3468  2.6113
 3027TIP3    H2 9088   4.333   5.056   3.901  1.0411 -1.1547 -0.0759
 3028TIP3   OH2 9089   3.245   3.425   1.732  0.3915 -0.3385  0.2421
 3028TIP3    H1 9090   3.188   3.348   1.735 -0.5260  0.3208 -0.0390
 3028TIP3    H2 9091   3.330   3.392   1.763  0.5665 -1.9354 -1.6879
 3029TIP3   OH2 9092   2.875   5.712   2.489 -0.0048  0.5794  0.1993
 3029TIP3    H1 9093   2.965   5.746   2.486  0.6143 -1.0066 -1.8372
 3029TIP3    H2 9094   2.886   5.619   2.510 -1.1664  0.3433 -0.1772
 3030TIP3   OH2 9095   2.197   3.752   1.377  0.3730 -0.1235  0.1062
 3030TIP3    H1 9096   2.185   3.658   1.391  1.4978 -0.4873 -1.2062
 3030TIP3    H2 9097   2.188   3.765   1.283  2.7392  0.6550 -0.0845
 3031TIP3   OH2 9098   4.590   2.182   3.780  0.0838  0.0674 -0.2590
 3031TIP3    H1 9099   4.562   2.235   3.705  1.3675  1.1885  0.0068
 3031TIP3    H2 9100   4.575   2.238   3.856 -0.4005 -0.7309  0.2484
 3032TIP3   OH2 9101   2.287   3.085   5.038 -0.3523 -0.0063  0.3152
 3032TIP3    H1 9102   2.222   3.045   4.979 -0.2634  2.9630 -2.0746
 3032TIP3    H2 9103   2.369   3.043   5.014 -0.2056  1.5272 -2.3471
 3033TIP3   OH2 9104   2.639   2.565   5.088  0.3990 -0.1130 -0.8876
 3033TIP3    H1 9105   2.683   2.482   5.072  0.4332  0.0324 -1.5500
 3033TIP3    H2 9106   2.670   2.593   5.174  1.9052  0.1763 -1.5029
 3034TIP3   OH2 9107   3.654   1.266   4.765  0.3134 -0.3636  0.3272
 3034TIP3    H1 9108   3.600   1.324   4.711 -1.1546 -0.0416  2.0114
 3034TIP3    H2 9109   3.744   1.296   4.751 -0.1299  0.3503 -1.1200
 3035TIP3   OH2 9110   4.576   5.873   1.090  0.0350 -0.1319 -0.1236
 3035TIP3    H1 9111   4.606   5.945   1.146  0.6831 -0.1657 -0.4128
 3035TIP3    H2 9112   4.491   5.901   1.057 -0.4822 -0.2219  1.0753
 3036TIP3   OH2 9113   6.028   1.368   5.116  0.2334 -0.0817 -0.2083
 3036TIP3    H1 9114   5.987   1.330   5.194 -0.5705  1.5401  0.1838
 3036TIP3    H2 9115   5.955   1.394   5.060  0.8007 -1.0042 -1.4437
 3037TIP3   OH2 9116   0.861   0.340   3.013  0.3453 -0.3092  0.3328
 3037TIP3    H1 9117   0.876   0.304   2.925 -0.5585 -1.3607  0.5789
 3037TIP3    H2 9118   0.851   0.262   3.068 -2.4998  0.2789  0.7595
 3038TIP3   OH2 9119   5.764   2.290   1.024  0.0063  0.0949 -0.5851
 3038TIP3    H1 9120   5.814   2.246   0.956 -0.5126 -1.7923  0.1657
 3038TIP3    H2 9121   5.672   2.279   0.998 -0.1174  1.2445 -0.6600
 3039TIP3   OH2 9122   1.337   0.087   4.106  0.1503  0.3422 -0.9973
 3039TIP3    H1 9123   1.285   0.007   4.101 -0.3223  0.7026 -2.3258
 3039TIP3    H2 9124   1.415   0.062   4.156 -0.7529 -0.5051  0.0277
 3040TIP3   OH2 9125   0.422   1.065   4.604  0.1512 -0.2162 -0.6783
 3040TIP3    H1 9126   0.378   1.080   4.521 -0.1447 -0.2756 -0.5356
 3040TIP3    H2 9127   0.359   1.014   4.655 -0.6305  1.7390  0.4222
 3041TIP3   OH2 9128   1.741   1.548   4.034 -0.5519 -0.3430  0.1720
 3041TIP3    H1 9129   1.797   1.516   3.964 -1.3994  0.2056 -0.7812
 3041TIP3    H2 9130   1.753   1.643   4.033  0.7278 -0.4233  1.9266
 3042TIP3   OH2 9131   2.211   1.968   1.168 -0.1077 -0.2435 -0.1955
 3042TIP3    H1 9132   2.127   1.999   1.133 -0.7275 -0.0214  1.4049
 3042TIP3    H2 9133   2.274   1.984   1.098 -1.6622 -1.9401 -2.1135
 3043TIP3   OH2 9134   2.753   0.351   1.587  0.6281  0.1680 -0.0537
 3043TIP3    H1 9135   2.809   0.329   1.512  0.1587 -0.3815 -0.2527
 3043TIP3    H2 9136   2.664   0.348   1.552  0.2657 -1.9085  0.9313
 3044TIP3   OH2 9137   3.887   4.806   4.546 -0.2319  0.0105  0.5334
 3044TIP3    H1 9138   3.915   4.727   4.593 -2.3240 -1.2063 -0.1093
 3044TIP3    H2 9139   3.791   4.805   4.553 -0.5847  0.3101 -2.7853
 3045TIP3   OH2 9140   2.240   5.248   1.048 -0.7528  0.3988 -0.2291
 3045TIP3    H1 9141   2.205   5.247   1.138 -0.5384  0.8508 -0.1350
 3045TIP3    H2 9142   2.184   5.311   1.002 -1.4080 -0.4734 -0.6446
 3046TIP3   OH2 9143   4.625   0.353   2.200  0.8085 -0.1935  0.4548
 3046TIP3    H1 9144   4.641   0.272   2.151  1.5316  0.3457 -0.2175
 3046TIP3    H2 9145   4.697   0.411   2.175 -0.8377  1.4404 -0.7525
 3047TIP3   OH2 9146   0.604   2.903   2.073  0.3469 -0.4395 -0.0913
 3047TIP3    H1 9147   0.583   2.902   2.166 -1.8414  2.9496 -0.3508
 3047TIP3    H2 9148   0.551   2.832   2.035  0.7046 -1.3789  1.1093
 3048TIP3   OH2 9149   5.766   2.551   4.516  0.0841  0.2022  0.2138
 3048TIP3    H1 9150   5.706   2.623   4.498 -1.4689 -0.9820  0.3406
 3048TIP3    H2 9151   5.795   2.522   4.430  0.0102  0.4264  0.1130
 3049TIP3   OH2 9152   0.909   3.663   0.848  0.2392  0.0638 -0.2572
 3049TIP3    H1 9153   0.924   3.639   0.756  0.3319 -0.5881 -0.0781
 3049TIP3    H2 9154   0.953   3.595   0.898  0.4722  0.6026  0.2776
 3050TIP3   OH2 9155   2.324   0.907   1.285 -0.4308 -0.0978 -1.0795
 3050TIP3    H1 9156   2.396   0.963   1.314 -0.5422  0.7928 -2.4321
 3050TIP3    H2 9157   2.254   0.922   1.348  0.1178  0.0143 -0.4915
 3051TIP3   OH2 9158   3.970   4.951   4.003 -0.3222  0.0615 -0.1284
 3051TIP3    H1 9159   3.892   4.895   4.001 -0.2895 -0.0604  1.0369
 3051TIP3    H2 9160   3.993   4.956   4.096 -0.4317  2.1543 -0.1611
 3052TIP3   OH2 9161   4.606   3.206   4.491  0.6052 -0.4684 -0.1197
 3052TIP3    H1 9162   4.631   3.296   4.470 -0.6308  0.0018  0.3371
 3052TIP3    H2 9163   4.554   3.179   4.415 -0.5508 -0.1451  0.5374
 3053TIP3   OH2 9164   0.591   4.095   1.416  0.4046  0.1696  0.1013
 3053TIP3    H1 9165   0.676   4.116   1.378  1.3602 -0.0007  1.9875
 3053TIP3    H2 9166   0.552   4.180   1.437  0.1916  0.2419 -0.5743
 3054TIP3   OH2 9167   4.556   1.030   2.294  0.0173  0.1687  0.4727
 3054TIP3    H1 9168   4.622   1.100   2.293  0.4711 -0.2388  1.1783
 3054TIP3    H2 9169   4.503   1.047   2.371 -1.6346  1.3037 -0.8352
 3055TIP3   OH2 9170   5.535   4.411   2.463  0.2099  0.2045  0.3653
 3055TIP3    H1 9171   5.499   4.355   2.395  3.1252 -0.1360 -1.0295
 3055TIP3    H2 9172   5.605   4.460   2.421  1.8538  0.3380  2.9944
 3056TIP3   OH2 9173   1.366   4.105   4.028  0.3023 -0.0313 -0.5076
 3056TIP3    H1 9174   1.461   4.099   4.033  0.2714  0.4637  1.5441
 3056TIP3    H2 9175   1.337   4.014   4.015  0.9558 -0.8403  2.8119
 3057TIP3   OH2 9176   1.309   3.424   4.453 -0.4165 -0.5847 -0.9526
 3057TIP3    H1 9177   1.379   3.485   4.476 -0.4066 -1.2057  0.9033
 3057TIP3    H2 9178   1.253   3.472   4.393  0.0162  0.9703 -0.1588
 3058TIP3   OH2 9179   0.645   4.440   0.444  0.3240 -0.1475  0.6638
 3058TIP3    H1 9180   0.599   4.524   0.439  0.0065 -0.3807 -3.3373
 3058TIP3    H2 9181   0.637   4.414   0.536 -2.8815  2.3796  1.2837
 3059TIP3   OH2 9182   3.991   0.019   1.744 -0.1164  0.1725  0.2927
 3059TIP3    H1 9183   4.040   0.089   1.702 -0.5159  0.6272  0.5630
 3059TIP3    H2 9184   4.031   0.011   1.831  0.2963 -0.3275  0.0593
 3060TIP3   OH2 9185   5.817   4.587   2.832 -0.5280 -0.4457 -0.2570
 3060TIP3    H1 9186   5.834   4.526   2.760  3.0753  0.6748 -0.5605
 3060TIP3    H2 9187   5.858   4.546   2.908 -2.2321 -0.5083  0.6780
 3061TIP3   OH2 9188   1.065   4.890   4.972  0.1662  0.6613 -0.6575
 3061TIP3    H1 9189   1.079   4.909   5.065  0.2422 -1.1404 -0.2616
 3061TIP3    H2 9190   1.118   4.955   4.926  0.0785  1.6309  0.5389
 3062TIP3   OH2 9191   2.188   0.112   0.089 -0.4080 -0.9395 -0.0091
 3062TIP3    H1 9192   2.097   0.082   0.089 -0.7730  0.0632 -1.7182
 3062TIP3    H2 9193   2.184   0.201   0.054  1.1723 -0.6218  0.5444
 3063TIP3   OH2 9194   4.929   5.598   2.419 -0.3824  0.0581 -0.2168
 3063TIP3    H1 9195   4.848   5.594   2.469 -0.9003 -0.1387 -1.0493
 3063TIP3    H2 9196   4.902   5.629   2.332  0.3944 -0.2678 -0.5854
 3064TIP3   OH2 9197   5.102   1.826   4.176 -0.3447  0.0095  0.1655
 3064TIP3    H1 9198   5.091   1.736   4.206  2.1821 -0.2757  0.4307
 3064TIP3    H2 9199   5.145   1.817   4.091 -2.4079  0.9589 -1.0549
 3065TIP3   OH2 9200   4.707   3.830   2.089  0.1033  0.6912 -0.0940
 3065TIP3    H1 9201   4.648   3.898   2.056  1.0171  1.5632  0.0111
 3065TIP3    H2 9202   4.701   3.838   2.185 -0.2179  0.2299 -0.0717
 3066TIP3   OH2 9203   2.491   1.676   0.055  0.0601  0.2696 -0.8020
 3066TIP3    H1 9204   2.505   1.764   0.090  1.6500  0.2308 -1.2555
 3066TIP3    H2 9205   2.410   1.683   0.004 -0.7641  1.0204  0.5429
 3067TIP3   OH2 9206   4.032   3.679   0.242 -0.0668 -0.2539  0.2433
 3067TIP3    H1 9207   4.025   3.762   0.195 -0.9039 -0.4283  0.0447
 3067TIP3    H2 9208   4.106   3.691   0.302  0.8910  0.0411 -0.9586
 3068TIP3   OH2 9209   3.778   1.962   2.765  0.1069 -0.7523 -0.2924
 3068TIP3    H1 9210   3.767   2.057   2.774  1.5950 -0.7483  2.4861
 3068TIP3    H2 9211   3.872   1.948   2.776  0.1079 -2.5082 -1.9559
 3069TIP3   OH2 9212   6.134   4.534   3.723  0.4928  0.7611 -0.1700
 3069TIP3    H1 9213   6.177   4.451   3.704 -1.4127  0.0230 -1.5505
 3069TIP3    H2 9214   6.186   4.599   3.675  1.9214  0.4138  0.8195
 3070TIP3   OH2 9215   4.634   2.991   5.021 -0.1249 -0.0689 -0.3334
 3070TIP3    H1 9216   4.628   2.959   5.111  0.0907  1.3862  0.2322
 3070TIP3    H2 9217   4.610   2.916   4.967  1.2550 -1.4433  0.8599
 3071TIP3   OH2 9218   5.041   0.033   4.347  0.5071 -0.1702  0.3244
 3071TIP3    H1 9219   5.082  -0.052   4.331 -1.5642 -0.9071 -1.5854
 3071TIP3    H2 9220   5.015   0.064   4.260 -0.5407  1.5057  1.1807
 3072TIP3   OH2 9221   1.492   0.672   5.093 -0.2320 -0.1331 -0.3255
 3072TIP3    H1 9222   1.523   0.624   5.169  1.5053 -0.3418 -1.1134
 3072TIP3    H2 9223   1.406   0.635   5.074 -0.7319 -0.0158  1.5466
 3073TIP3   OH2 9224   5.565   0.303   3.201  0.2907 -0.0617 -0.4423
 3073TIP3    H1 9225   5.537   0.272   3.287  1.3730  0.6982  0.2134
 3073TIP3    H2 9226   5.598   0.225   3.157  0.3459 -0.3418  0.0891
 3074TIP3   OH2 9227   0.460   4.302   3.355  0.3284  0.2917 -0.2562
 3074TIP3    H1 9228   0.427   4.226   3.309 -0.6787  1.4727 -1.5708
 3074TIP3    H2 9229   0.387   4.331   3.410  0.1439  1.2170 -0.9679
 3075TIP3   OH2 9230   4.712   4.537   4.135  0.7920  0.1562  0.1509
 3075TIP3    H1 9231   4.784   4.508   4.190  0.5286  1.5788  1.2820
 3075TIP3    H2 9232   4.665   4.456   4.113  2.3636 -0.7163 -0.1231
 3076TIP3   OH2 9233   5.913   4.601   0.327 -0.0415  0.6476  0.2203
 3076TIP3    H1 9234   5.987   4.561   0.373 -1.4408 -1.6416  0.6228
 3076TIP3    H2 9235   5.933   4.589   0.234 -0.0090 -0.1774  0.3291
 3077TIP3   OH2 9236   4.620   2.908   2.721  0.1418  0.4079 -0.2341
 3077TIP3    H1 9237   4.555   2.886   2.787  1.1845  1.4781  1.2029
 3077TIP3    H2 9238   4.640   2.825   2.679 -1.5545 -0.0652 -0.1829
 3078TIP3   OH2 9239   3.354   3.006   0.076  0.5411 -0.3145 -0.6449
 3078TIP3    H1 9240   3.365   3.072   0.144  3.2486 -1.8159  0.5745
 3078TIP3    H2 9241   3.260   2.993   0.069  0.0450  2.1424  0.5562
 3079TIP3   OH2 9242   5.951   2.445   0.740 -0.5423  0.2912 -0.0673
 3079TIP3    H1 9243   5.870   2.495   0.749 -1.2476 -0.7544 -0.3529
 3079TIP3    H2 9244   5.967   2.442   0.646 -0.6176 -0.1688 -0.0684
 3080TIP3   OH2 9245   3.385   5.713   3.574  0.5138 -0.0474  0.4166
 3080TIP3    H1 9246   3.421   5.789   3.527 -0.3505 -0.6052 -1.1819
 3080TIP3    H2 9247   3.395   5.737   3.667  1.6517  1.3574 -0.0181
 3081TIP3   OH2 9248   2.862   1.995   5.099 -0.5241 -0.3776 -0.0537
 3081TIP3    H1 9249   2.924   1.961   5.164  0.3515  0.9107 -0.1664
 3081TIP3    H2 9250   2.777   1.959   5.125  0.2838 -2.3265  0.0119
 3082TIP3   OH2 9251   4.270   2.078   3.910  0.2206  0.2704  0.1900
 3082TIP3    H1 9252   4.230   1.996   3.881  0.0571  0.9012 -1.4774
 3082TIP3    H2 9253   4.212   2.146   3.874  1.1039  1.1312  0.3683
 3083TIP3   OH2 9254   5.479   1.417   4.644 -0.3267  0.4094 -0.4638
 3083TIP3    H1 9255   5.569   1.384   4.636 -0.8058 -0.7242 -1.4790
 3083TIP3    H2 9256   5.451   1.388   4.731  0.5777  1.5833  0.2485
 3084TIP3   OH2 9257   5.038   4.904   2.637  0.1837  0.3063 -0.4513
 3084TIP3    H1 9258   5.011   4.812   2.631 -1.1142  0.5729  0.8482
 3084TIP3    H2 9259   5.052   4.930   2.546  4.1286 -2.1106 -0.7889
 3085TIP3   OH2 9260   2.717   4.580   2.922 -0.4394  0.2359  0.4917
 3085TIP3    H1 9261   2.624   4.606   2.924 -0.5917 -0.2752  0.1843
 3085TIP3    H2 9262   2.722   4.506   2.983  0.2821  1.8448  2.5215
 3086TIP3   OH2 9263   3.478   5.500   0.125 -0.3954 -0.9811 -0.1859
 3086TIP3    H1 9264   3.434   5.584   0.141 -0.7742 -1.0508 -0.8606
 3086TIP3    H2 9265   3.439   5.467   0.044  0.8029 -1.1089 -0.7244
 3087TIP3   OH2 9266   1.873   1.988   3.005  0.2878 -0.2178 -0.3279
 3087TIP3    H1 9267   1.951   1.983   2.949 -0.5702  1.3402 -1.7608
 3087TIP3    H2 9268   1.801   1.966   2.947 -0.3925 -1.3883  0.9216
 3088TIP3   OH2 9269   3.227   4.051   4.251  0.1087  0.0336  0.6591
 3088TIP3    H1 9270   3.163   3.993   4.210  1.0692 -0.8648  0.3727
 3088TIP3    H2 9271   3.298   4.057   4.187 -0.3081  2.2031  0.3377
 3089TIP3   OH2 9272   4.861   5.813   2.824  0.2931 -0.2204 -0.0108
 3089TIP3    H1 9273   4.817   5.813   2.909  0.3731  1.5538  0.0775
 3089TIP3    H2 9274   4.898   5.725   2.816  1.5841 -0.0069  2.4786
 3090TIP3   OH2 9275   4.526   4.703   3.024 -0.2713 -0.2236  0.1100
 3090TIP3    H1 9276   4.552   4.789   2.993 -0.7626 -0.1974 -0.2372
 3090TIP3    H2 9277   4.512   4.715   3.118  1.2809 -0.3184  0.3897
 3091TIP3   OH2 9278   4.154   3.422   4.824 -0.0564  0.5730 -0.0186
 3091TIP3    H1 9279   4.087   3.490   4.819 -1.2198 -0.1665  3.1837
 3091TIP3    H2 9280   4.108   3.345   4.858  2.4111  0.2849  3.2536
 3092TIP3   OH2 9281   4.718   3.920   1.733 -0.4349 -0.4324  0.1663
 3092TIP3    H1 9282   4.638   3.946   1.687  0.3475 -0.5176 -1.3378
 3092TIP3    H2 9283   4.707   3.827   1.750 -0.9765 -0.2782  0.6774
 3093TIP3   OH2 9284   2.148   1.886   2.570  0.2490  0.6254  0.6223
 3093TIP3    H1 9285   2.177   1.800   2.540  0.8599  1.3567 -0.9756
 3093TIP3    H2 9286   2.160   1.943   2.495 -0.5039  2.0481  1.5388
 3094TIP3   OH2 9287   1.081   5.987   0.059 -0.7174  0.1599 -0.2179
 3094TIP3    H1 9288   1.015   5.935   0.012  0.4786 -3.1523  1.4057
 3094TIP3    H2 9289   1.040   6.007   0.143 -0.6281  0.4668 -0.2482
 3095TIP3   OH2 9290   2.686   3.340   3.631 -0.0849  0.0754 -0.3453
 3095TIP3    H1 9291   2.720   3.368   3.716  0.1222  1.7427 -0.9333
 3095TIP3    H2 9292   2.728   3.256   3.614  1.1797  0.5315  0.4457
 3096TIP3   OH2 9293   4.861   1.429   4.465 -0.5381  0.5131 -0.2908
 3096TIP3    H1 9294   4.906   1.503   4.506  1.1035 -0.2855 -0.5288
 3096TIP3    H2 9295   4.879   1.440   4.371 -0.2892 -0.1482 -0.3282
 3097TIP3   OH2 9296   0.433   0.527   1.180  0.3338  0.3719  0.4151
 3097TIP3    H1 9297   0.350   0.561   1.213 -0.5166 -0.8188 -0.4062
 3097TIP3    H2 9298   0.496   0.597   1.196 -0.6282  0.9374  1.9092
 3098TIP3   OH2 9299   4.660   3.065   1.263  0.4245  0.1733  0.3322
 3098TIP3    H1 9300   4.644   3.081   1.356  1.3247  2.3789  0.1486
 3098TIP3    H2 9301   4.572   3.047   1.227  0.0772 -0.8066  1.5706
 3099TIP3   OH2 9302   0.126   5.150   2.170 -0.3003 -0.4433 -0.1342
 3099TIP3    H1 9303   0.054   5.091   2.193 -0.0399 -0.6905  0.0540
 3099TIP3    H2 9304   0.083   5.226   2.131 -0.7339 -0.1714  0.8283
 3100TIP3   OH2 9305   0.084   4.438   0.786 -0.3445 -0.1362  0.1966
 3100TIP3    H1 9306   0.015   4.463   0.848 -0.0309  0.9899  0.1145
 3100TIP3    H2 9307   0.162   4.429   0.840 -0.5347 -1.4353  0.2923
 3101TIP3   OH2 9308   0.867   1.701   0.367 -0.1386  0.4202  0.2475
 3101TIP3    H1 9309   0.962   1.699   0.372 -0.0411  1.6685 -0.7530
 3101TIP3    H2 9310   0.840   1.759   0.439 -0.1213  0.3694  0.2950
 3102TIP3   OH2 9311   0.929   0.315   0.831  0.0104 -0.4269 -0.2759
 3102TIP3    H1 9312   0.912   0.328   0.924  1.1887  1.3540 -0.2493
 3102TIP3    H2 9313   0.846   0.335   0.788 -0.0586  0.6451  0.3014
 3103TIP3   OH2 9314   4.887   2.173   0.408 -0.3154 -0.0575  0.4035
 3103TIP3    H1 9315   4.982   2.171   0.402 -0.3287 -2.7046 -0.2705
 3103TIP3    H2 9316   4.867   2.156   0.500 -0.1083 -0.9595  0.2911
 3104TIP3   OH2 9317   1.204   2.862   2.517  0.1780 -0.3876  0.5531
 3104TIP3    H1 9318   1.283   2.863   2.571 -0.1816 -2.5614  1.1932
 3104TIP3    H2 9319   1.235   2.877   2.428  1.0653  0.7600  1.0304
 3105TIP3   OH2 9320   4.431   3.912   2.948  0.5238 -0.2432  0.2447
 3105TIP3    H1 9321   4.385   3.892   2.866  0.3110 -1.0175  0.5407
 3105TIP3    H2 9322   4.521   3.884   2.931  0.5161 -0.2504  0.2148
 3106TIP3   OH2 9323   6.022   5.616   4.577  0.4799 -0.2342  0.6528
 3106TIP3    H1 9324   5.990   5.666   4.652 -2.6258 -0.9712 -0.0518
 3106TIP3    H2 9325   5.990   5.527   4.591 -0.1553 -0.4094 -1.4869
 3107TIP3   OH2 9326   1.005   1.759   3.899 -0.3388 -0.1511  0.1735
 3107TIP3    H1 9327   0.926   1.798   3.863  0.4207  0.3667 -0.9761
 3107TIP3    H2 9328   0.974   1.680   3.944 -1.5954  0.4688  0.4602
 3108TIP3   OH2 9329   3.216   0.886   3.044  0.0647  0.6680 -0.5336
 3108TIP3    H1 9330   3.142   0.936   3.079 -1.1478 -0.8388 -0.8563
 3108TIP3    H2 9331   3.245   0.831   3.116  1.9556  2.3194  0.0882
 3109TIP3   OH2 9332   6.244   2.533   1.483 -0.0174  0.6132 -0.3691
 3109TIP3    H1 9333   6.237   2.561   1.391  0.2070  0.2809 -0.4903
 3109TIP3    H2 9334   6.175   2.468   1.494  1.7317 -1.4781 -1.1190
 3110TIP3   OH2 9335   3.438   0.258   2.736  0.7768  0.4006  0.3489
 3110TIP3    H1 9336   3.377   0.331   2.744  2.4473  1.7843  0.9224
 3110TIP3    H2 9337   3.383   0.184   2.710 -1.0085  1.7722  0.0353
 3111TIP3   OH2 9338   0.915   1.778   1.615  0.4488  0.4048  0.1021
 3111TIP3    H1 9339   0.872   1.807   1.696 -1.5831 -0.1968 -0.7024
 3111TIP3    H2 9340   0.843   1.754   1.557  1.7872  1.9027 -2.3494
 3112TIP3   OH2 9341   4.722   1.914   0.741  0.5172 -0.3259 -0.2076
 3112TIP3    H1 9342   4.756   1.845   0.799  1.4943 -0.7924 -1.2791
 3112TIP3    H2 9343   4.787   1.919   0.670 -0.0825  0.9806 -0.6921
 3113TIP3   OH2 9344   1.795   0.259   3.775 -0.9609  0.3060  0.3202
 3113TIP3    H1 9345   1.737   0.185   3.789 -1.8094  0.5532 -1.5533
 3113TIP3    H2 9346   1.833   0.244   3.688 -1.0977  1.9990 -0.0719
 3114TIP3   OH2 9347   4.794   0.273   1.348 -0.1396  0.1282 -0.1904
 3114TIP3    H1 9348   4.719   0.225   1.313  0.2515  0.7908 -2.0542
 3114TIP3    H2 9349   4.761   0.314   1.428 -0.4934 -3.1760  1.5580
 3115TIP3   OH2 9350   0.264   5.327   0.237  0.2518 -0.4861 -0.0838
 3115TIP3    H1 9351   0.285   5.279   0.157 -0.6111 -1.4658  0.2457
 3115TIP3    H2 9352   0.336   5.389   0.248  0.1709 -0.0318 -1.8390
 3116TIP3   OH2 9353   3.713   0.254   2.706 -0.1339 -0.2710  0.5212
 3116TIP3    H1 9354   3.626   0.241   2.744  0.1303  0.4569  1.4091
 3116TIP3    H2 9355   3.700   0.323   2.640  0.0524  1.0715  1.8336
 3117TIP3   OH2 9356   1.770   0.475   3.575  0.3382  0.0828 -0.3442
 3117TIP3    H1 9357   1.800   0.500   3.662  2.7780 -1.0487 -0.7750
 3117TIP3    H2 9358   1.827   0.402   3.550 -0.2224  0.4234 -2.9277
 3118TIP3   OH2 9359   5.485   3.556   4.633 -0.3997 -0.4360  0.0960
 3118TIP3    H1 9360   5.434   3.583   4.709  0.7021  0.7327  0.4578
 3118TIP3    H2 9361   5.553   3.500   4.669  0.1381  0.1397  0.0002
 3119TIP3   OH2 9362   0.660   2.236   4.446  0.8879  0.0980  0.1783
 3119TIP3    H1 9363   0.623   2.164   4.394 -0.4093  0.3561  0.7085
 3119TIP3    H2 9364   0.600   2.245   4.520  1.4824  1.2062  0.5419
 3120TIP3   OH2 9365   1.926   6.008   4.830 -0.4062 -0.1427  0.4115
 3120TIP3    H1 9366   1.958   5.926   4.792  1.7718  1.0125 -0.3855
 3120TIP3    H2 9367   1.971   6.015   4.914  0.6442  0.9776 -0.2280
 3121TIP3   OH2 9368   0.910   1.393   3.756  0.0789  0.4206  0.1934
 3121TIP3    H1 9369   0.872   1.305   3.757  1.1301 -0.0482  0.6866
 3121TIP3    H2 9370   0.918   1.414   3.663 -1.5602  0.6323  0.0743
 3122TIP3   OH2 9371   0.608   4.575   3.771 -0.3406  0.4570 -0.2404
 3122TIP3    H1 9372   0.603   4.670   3.777 -0.3770  0.3939  0.9388
 3122TIP3    H2 9373   0.601   4.557   3.678 -0.3296  1.6081 -0.4829
 3123TIP3   OH2 9374   3.217   2.446   4.817 -0.2992 -0.1870 -0.9990
 3123TIP3    H1 9375   3.232   2.353   4.798  0.3392 -0.3277  0.1484
 3123TIP3    H2 9376   3.229   2.489   4.733  1.2586 -0.9336 -1.1944
 3124TIP3   OH2 9377   5.384   5.210   2.704 -0.0256 -0.1257 -0.3717
 3124TIP3    H1 9378   5.397   5.234   2.613  0.3095  1.0901 -0.0234
 3124TIP3    H2 9379   5.472   5.209   2.742 -0.1857 -0.3531  0.0012
 3125TIP3   OH2 9380   0.564   3.678   1.052  0.5137  0.4437  0.2911
 3125TIP3    H1 9381   0.574   3.684   1.147  0.5785 -0.2859  0.3386
 3125TIP3    H2 9382   0.643   3.721   1.017  1.3145 -0.7382  0.5972
 3126TIP3   OH2 9383   2.256   2.252   2.894  0.1467 -0.0239  0.4741
 3126TIP3    H1 9384   2.181   2.255   2.835 -0.4347  1.2447  1.2531
 3126TIP3    H2 9385   2.331   2.275   2.839 -0.4257  1.3907  0.2545
 3127TIP3   OH2 9386   3.056   0.898   1.746 -0.0669 -0.5161  0.4753
 3127TIP3    H1 9387   2.999   0.837   1.698 -0.4799 -0.4131  0.8348
 3127TIP3    H2 9388   2.998   0.943   1.807  0.3077 -0.0316  0.4783
 3128TIP3   OH2 9389   0.160   4.177   2.526  0.3536 -0.4373  0.0284
 3128TIP3    H1 9390   0.147   4.193   2.432  2.0539  0.0370 -0.1626
 3128TIP3    H2 9391   0.086   4.122   2.551  0.5978 -1.7703 -1.9193
 3129TIP3   OH2 9392   5.932   2.881   1.956 -0.1336  0.1922  0.1270
 3129TIP3    H1 9393   5.846   2.864   1.994  0.0795 -0.0700  0.4943
 3129TIP3    H2 9394   5.922   2.858   1.864 -0.5494  0.4807  0.0951
 3130TIP3   OH2 9395   5.607   4.887   4.546  0.1322 -0.2326  0.2373
 3130TIP3    H1 9396   5.529   4.939   4.563 -0.1212 -0.8563  1.0280
 3130TIP3    H2 9397   5.660   4.942   4.488  0.3196  1.3567  1.8136
 3131TIP3   OH2 9398   3.261   2.615   2.938 -0.0836 -0.2196 -0.4124
 3131TIP3    H1 9399   3.238   2.616   3.031 -2.4530  1.0573 -0.9304
 3131TIP3    H2 9400   3.217   2.692   2.901  1.2135 -0.3954 -2.5172
 3132TIP3   OH2 9401   6.236   2.702   3.790 -0.0843 -0.3772  0.0128
 3132TIP3    H1 9402   6.279   2.742   3.865 -0.0979 -1.8916  0.8653
 3132TIP3    H2 9403   6.196   2.622   3.824 -1.2204 -0.4334 -1.3352
 3133TIP3   OH2 9404   6.371   1.535   2.024  0.0802 -0.1480  0.3294
 3133TIP3    H1 9405   6.383   1.578   1.939 -0.2170  1.0440  0.8678
 3133TIP3    H2 9406   6.278   1.549   2.045  0.6185  1.5186  1.8391
 3134TIP3   OH2 9407   6.163   4.212   4.443 -0.1748  0.3339 -0.0311
 3134TIP3    H1 9408   6.136   4.135   4.494 -1.7961  0.1436 -1.0966
 3134TIP3    H2 9409   6.109   4.208   4.364  0.5643  1.9355 -0.6534
 3135TIP3   OH2 9410   3.458   4.628   2.960  0.0357  0.1347  0.0268
 3135TIP3    H1 9411   3.494   4.717   2.965  0.0390  0.0980  0.9899
 3135TIP3    H2 9412   3.418   4.622   2.874 -2.4285  2.0417  0.9064
 3136TIP3   OH2 9413   5.575   3.702   4.983 -0.3983  0.4962  0.0706
 3136TIP3    H1 9414   5.620   3.770   5.033  1.5692 -1.2651  0.8180
 3136TIP3    H2 9415   5.603   3.715   4.892 -0.3551  0.9213  0.1466
 3137TIP3   OH2 9416   3.111   0.674   2.094 -0.2815  0.1872  0.3672
 3137TIP3    H1 9417   3.100   0.768   2.081  1.0825  0.6385  2.0515
 3137TIP3    H2 9418   3.026   0.645   2.130 -0.1591  1.1450  1.4990
 3138TIP3   OH2 9419   0.051   1.639   1.760 -0.1703 -0.2797  0.6291
 3138TIP3    H1 9420   0.011   1.703   1.701  0.4334 -0.4256  0.0505
 3138TIP3    H2 9421   0.107   1.585   1.704 -0.1860 -0.9232  1.2074
 3139TIP3   OH2 9422   5.815   2.954   3.979  0.3829 -0.2045  0.1166
 3139TIP3    H1 9423   5.851   2.922   3.897  0.3691  1.0543 -0.3839
 3139TIP3    H2 9424   5.891   2.977   4.032  0.4653 -2.4378  1.0914
 3140TIP3   OH2 9425   6.243   2.005   0.054 -0.1493 -0.4022 -0.3865
 3140TIP3    H1 9426   6.209   2.040  -0.028  0.1702  2.5118  0.6209
 3140TIP3    H2 9427   6.337   2.022   0.050 -0.1882  0.1875  0.7417
 3141TIP3   OH2 9428   1.637   3.934   4.261 -0.4671 -0.2114 -0.2994
 3141TIP3    H1 9429   1.649   3.864   4.325  1.3431 -1.1282 -1.5465
 3141TIP3    H2 9430   1.597   3.891   4.186 -0.5579  0.3637 -0.5854
 3142TIP3   OH2 9431   2.399   2.009   0.950  0.5361 -0.2130 -0.4048
 3142TIP3    H1 9432   2.380   1.922   0.914 -1.0057  0.4066 -1.1915
 3142TIP3    H2 9433   2.388   2.068   0.876 -0.6559  0.8712  0.5910
 3143TIP3   OH2 9434   6.216   0.522   1.499  0.3526 -0.1056  0.4477
 3143TIP3    H1 9435   6.306   0.493   1.508  0.7792  1.3542  1.2447
 3143TIP3    H2 9436   6.191   0.551   1.587 -0.3218  1.0708 -0.1007
 3144TIP3   OH2 9437   3.998   0.609   3.671 -0.0248  0.0020  0.4743
 3144TIP3    H1 9438   3.908   0.586   3.694  0.2583 -0.8432  0.7726
 3144TIP3    H2 9439   3.999   0.606   3.575 -0.0638 -1.0386  0.4895
 3145TIP3   OH2 9440   2.200   2.986   2.454 -0.1649  0.4707 -0.2106
 3145TIP3    H1 9441   2.116   2.956   2.490 -0.6488  1.1074 -0.7793
 3145TIP3    H2 9442   2.204   2.946   2.367  0.3399  0.0783 -0.0113
 3146TIP3   OH2 9443   1.370   1.898   1.726  0.5951 -0.3502  0.4912
 3146TIP3    H1 9444   1.354   1.970   1.787 -0.8834 -0.5544  0.3860
 3146TIP3    H2 9445   1.422   1.835   1.776  0.7791  0.2048  1.0124
 3147TIP3   OH2 9446   1.085   3.312   3.663 -0.1774  0.3264 -0.7934
 3147TIP3    H1 9447   1.170   3.352   3.642 -1.3797  2.4853 -1.7950
 3147TIP3    H2 9448   1.062   3.263   3.585  0.4052 -0.8316 -0.2708
 3148TIP3   OH2 9449   0.516   1.900   2.435 -0.5681  0.1043 -0.4232
 3148TIP3    H1 9450   0.515   1.928   2.344 -1.3887 -0.8810 -0.7309
 3148TIP3    H2 9451   0.426   1.873   2.453  0.3549 -3.6530 -0.6088
 3149TIP3   OH2 9452   2.057   0.859   1.444 -0.0102 -0.2228  0.1559
 3149TIP3    H1 9453   2.090   0.908   1.519  1.3510 -0.4802 -0.2490
 3149TIP3    H2 9454   1.990   0.916   1.406 -1.7066 -0.6437  2.3005
 3150TIP3   OH2 9455   0.378   1.256   2.659  0.0570  0.0884 -0.2821
 3150TIP3    H1 9456   0.297   1.305   2.670  0.5556  0.9454 -0.3269
 3150TIP3    H2 9457   0.424   1.300   2.587  1.0902  0.3556  0.5079
 3151TIP3   OH2 9458   1.831   1.141   0.311  0.1918  0.1985 -0.3351
 3151TIP3    H1 9459   1.759   1.110   0.256 -0.1414  0.4927 -0.0680
 3151TIP3    H2 9460   1.792   1.207   0.368 -0.0731 -1.7923  1.9816
 3152TIP3   OH2 9461   0.319   1.655   2.844  0.0329 -0.2114  0.3373
 3152TIP3    H1 9462   0.306   1.611   2.928  1.2140  0.0977  0.7017
 3152TIP3    H2 9463   0.409   1.688   2.848 -0.2306  0.6697 -0.6512
 3153TIP3   OH2 9464   1.889   4.516   0.858  0.1691  0.1569 -0.3524
 3153TIP3    H1 9465   1.942   4.438   0.844 -1.4176 -0.7067 -2.0775
 3153TIP3    H2 9466   1.815   4.486   0.912  0.1208  0.7418 -0.0815
 3154TIP3   OH2 9467   5.266   3.792   1.735 -0.0146  0.0810 -0.0732
 3154TIP3    H1 9468   5.220   3.727   1.789 -1.6471  2.3300  1.4583
 3154TIP3    H2 9469   5.202   3.817   1.669 -0.1338  1.4197  0.5119
 3155TIP3   OH2 9470   3.301   4.348   0.611 -0.2618 -0.1450 -0.2702
 3155TIP3    H1 9471   3.394   4.326   0.615  0.0935  0.8032 -2.3459
 3155TIP3    H2 9472   3.293   4.425   0.667  0.3945  0.3039 -0.7726
 3156TIP3   OH2 9473   6.263   0.753   1.402  0.4530  0.2901 -0.4320
 3156TIP3    H1 9474   6.357   0.758   1.419  0.2594 -0.4704  1.0593
 3156TIP3    H2 9475   6.235   0.673   1.446 -1.0650  1.0443  0.0546
 3157TIP3   OH2 9476   3.383   5.699   1.089  0.1573 -0.4581 -0.4230
 3157TIP3    H1 9477   3.396   5.757   1.164 -1.9573 -0.5718  0.0925
 3157TIP3    H2 9478   3.439   5.736   1.020  0.7101  0.7402  0.6303
 3158TIP3   OH2 9479   5.856   6.023   3.815  0.0244  0.0644  0.2085
 3158TIP3    H1 9480   5.929   5.990   3.867 -0.4887 -1.2747  0.1128
 3158TIP3    H2 9481   5.801   5.946   3.799 -2.4931  1.3373  1.9902
 3159TIP3   OH2 9482   2.358   2.723   3.443 -0.4681  0.2873 -0.0322
 3159TIP3    H1 9483   2.386   2.814   3.449  1.9941 -0.3260 -0.9090
 3159TIP3    H2 9484   2.389   2.682   3.524  0.1738 -0.1452 -0.4795
 3160TIP3   OH2 9485   4.307   2.832   1.854  0.2197 -0.0762  0.3146
 3160TIP3    H1 9486   4.347   2.811   1.939  0.2786  0.1017  0.3320
 3160TIP3    H2 9487   4.271   2.919   1.866  0.8080  0.2227 -0.0442
 3161TIP3   OH2 9488   1.113   5.282   3.985  0.6548  0.2198 -0.1333
 3161TIP3    H1 9489   1.165   5.357   4.016  1.0230 -1.2751  3.2922
 3161TIP3    H2 9490   1.178   5.220   3.951  0.4859  0.7751 -1.5257
 3162TIP3   OH2 9491   4.697   3.284   0.291 -0.0240  0.0082  0.6607
 3162TIP3    H1 9492   4.702   3.361   0.234  0.0005  0.1240  0.8178
 3162TIP3    H2 9493   4.731   3.315   0.375  0.6805 -0.3731  0.5235
 3163TIP3   OH2 9494   3.194   5.491   2.445 -0.5406 -0.3180  0.1633
 3163TIP3    H1 9495   3.207   5.508   2.352 -3.1417  0.1926 -0.1837
 3163TIP3    H2 9496   3.197   5.578   2.486  0.4119 -0.5235  0.5606
 3164TIP3   OH2 9497   0.565   0.272   1.704  0.6244 -0.4764  0.9832
 3164TIP3    H1 9498   0.584   0.261   1.610  1.4289 -0.0514  1.0856
 3164TIP3    H2 9499   0.633   0.222   1.748  0.8016  0.0748  1.3498
 3165TIP3   OH2 9500   0.322   1.327   3.356 -0.1184  0.0635 -0.2254
 3165TIP3    H1 9501   0.358   1.394   3.299 -0.8773  0.5320 -0.1784
 3165TIP3    H2 9502   0.250   1.288   3.305  0.6886 -1.1324 -0.4825
 3166TIP3   OH2 9503   2.975   2.516   3.149 -1.0190 -0.0359  0.1545
 3166TIP3    H1 9504   2.880   2.523   3.140 -0.9606 -0.6103 -1.3035
 3166TIP3    H2 9505   2.999   2.448   3.086  0.0907 -1.7383  2.3068
 3167TIP3   OH2 9506   2.531   2.691   1.898 -0.1054 -0.3761  0.3569
 3167TIP3    H1 9507   2.463   2.719   1.959 -1.5800 -0.7821 -1.0649
 3167TIP3    H2 9508   2.494   2.614   1.854  0.9097 -0.0681 -1.0886
 3168TIP3   OH2 9509   5.110   2.905   1.039 -0.5566  0.1572  0.3129
 3168TIP3    H1 9510   5.060   2.908   0.957  0.2973 -0.0043 -0.2284
 3168TIP3    H2 9511   5.047   2.878   1.105 -1.0015 -0.9141 -0.5136
 3169TIP3   OH2 9512   5.323   1.262   3.628 -0.9518  0.3797 -0.6063
 3169TIP3    H1 9513   5.325   1.350   3.667  0.8398  0.9529 -1.8600
 3169TIP3    H2 9514   5.402   1.219   3.663 -1.4104 -0.4746 -0.6008
 3170TIP3   OH2 9515   1.070   1.883   2.693  0.1759  0.0425  0.2752
 3170TIP3    H1 9516   1.024   1.881   2.609  2.3782 -0.1388 -1.0103
 3170TIP3    H2 9517   1.058   1.795   2.729 -0.1277 -0.1250 -0.2300
 3171TIP3   OH2 9518   3.646   3.022   0.256 -0.3413 -0.1255  0.0859
 3171TIP3    H1 9519   3.646   3.084   0.183  1.6794  1.9492  1.6928
 3171TIP3    H2 9520   3.572   3.049   0.310 -0.6727 -0.4375 -0.2021
 3172TIP3   OH2 9521   1.738   4.089   2.321  0.0261 -0.5062 -0.4781
 3172TIP3    H1 9522   1.827   4.124   2.316 -0.0082 -0.1860  0.7687
 3172TIP3    H2 9523   1.736   4.018   2.257  1.1318 -0.4063 -0.6360
 3173TIP3   OH2 9524   2.040   5.772   2.373 -0.0692 -0.2881 -0.3612
 3173TIP3    H1 9525   2.093   5.721   2.312 -0.0192 -0.9786  0.2426
 3173TIP3    H2 9526   2.090   5.773   2.454 -0.3714  0.1854 -0.1736
 3174TIP3   OH2 9527   4.971   3.196   2.921  0.7563  0.5455 -0.1276
 3174TIP3    H1 9528   4.921   3.278   2.917 -1.5403 -0.8047 -3.4150
 3174TIP3    H2 9529   4.925   3.137   2.862  1.7418 -3.5238  2.7679
 3175TIP3   OH2 9530   0.404   5.276   3.861  0.3089 -0.6492  0.4650
 3175TIP3    H1 9531   0.322   5.231   3.884 -1.8299  2.3725 -0.4782
 3175TIP3    H2 9532   0.420   5.253   3.770 -0.5263  0.0751  0.1193
 3176TIP3   OH2 9533   1.352   3.677   3.285  0.7161  0.0777  0.5390
 3176TIP3    H1 9534   1.380   3.654   3.373  1.5468  0.2774  0.3298
 3176TIP3    H2 9535   1.425   3.726   3.248  1.0970 -1.4474 -0.8643
 3177TIP3   OH2 9536   3.111   2.632   1.420 -0.3572 -0.4018 -0.2840
 3177TIP3    H1 9537   3.041   2.569   1.435  0.1652 -0.6140  1.5234
 3177TIP3    H2 9538   3.188   2.578   1.402 -0.5307 -0.1767 -1.8613
 3178TIP3   OH2 9539   4.686   5.643   2.545 -0.2079  0.0457 -0.3329
 3178TIP3    H1 9540   4.603   5.615   2.505  0.1271  2.4863 -3.0530
 3178TIP3    H2 9541   4.678   5.738   2.554  2.2607  0.3449 -0.6357
 3179TIP3   OH2 9542   2.672   2.806   4.399  0.2003  0.4108 -0.1654
 3179TIP3    H1 9543   2.741   2.749   4.431  0.2545  0.6587  0.1629
 3179TIP3    H2 9544   2.717   2.885   4.368  0.1834  0.0472 -1.1759
 3180TIP3   OH2 9545   5.145   4.587   2.548 -0.2882 -0.5908 -0.4444
 3180TIP3    H1 9546   5.108   4.515   2.599 -1.1195  0.2376  0.1440
 3180TIP3    H2 9547   5.232   4.600   2.585 -1.1287  0.4652  1.2982
 3181TIP3   OH2 9548   3.693   3.988   1.251  0.4665  0.0689  0.1379
 3181TIP3    H1 9549   3.766   3.965   1.308  1.7650  1.2385 -0.9869
 3181TIP3    H2 9550   3.700   4.083   1.240 -0.2708 -0.0096 -1.2526
 3182TIP3   OH2 9551   3.870   5.780   0.758  0.2545 -0.3488  0.1916
 3182TIP3    H1 9552   3.885   5.791   0.852  0.3205 -1.0448  0.2717
 3182TIP3    H2 9553   3.946   5.729   0.728  0.2289 -0.1351 -0.2342
 3183TIP3   OH2 9554   5.640   0.090   2.821  0.4623  0.1085 -0.5755
 3183TIP3    H1 9555   5.727   0.129   2.822  0.2193  0.7892  2.0396
 3183TIP3    H2 9556   5.656  -0.004   2.819  1.2595  0.2368 -0.6019
 3184TIP3   OH2 9557   4.713   1.650   3.342  0.1975 -0.1857 -0.1154
 3184TIP3    H1 9558   4.770   1.627   3.268  1.0310  0.8719  0.1550
 3184TIP3    H2 9559   4.773   1.659   3.416 -0.2465  1.2632  0.1141
 3185TIP3   OH2 9560   0.716   4.949   4.960 -0.3344 -0.2154 -0.2039
 3185TIP3    H1 9561   0.637   5.002   4.951  0.4821  1.1345  0.1726
 3185TIP3    H2 9562   0.761   4.987   5.036 -0.0735 -1.9537  0.5399
 3186TIP3   OH2 9563   0.260   2.486   3.398 -0.5368  0.6981 -0.1994
 3186TIP3    H1 9564   0.282   2.577   3.419 -1.3291  1.2160 -1.5143
 3186TIP3    H2 9565   0.166   2.481   3.409 -0.5807  0.2072 -0.7506
 3187TIP3   OH2 9566   0.738   0.410   0.663 -0.0202  0.7411 -0.7046
 3187TIP3    H1 9567   0.817   0.460   0.642 -1.6071  3.4206 -0.7406
 3187TIP3    H2 9568   0.673   0.442   0.601 -1.3308 -0.9872 -0.2955
 3188TIP3   OH2 9569   5.383   5.865   3.381  0.2655  0.3373  0.3014
 3188TIP3    H1 9570   5.407   5.810   3.306  1.5985  1.5882 -0.2728
 3188TIP3    H2 9571   5.458   5.924   3.391 -0.3164  0.8414  2.0261
 3189TIP3   OH2 9572   4.275   3.448   1.689 -0.3564  0.2983 -0.0264
 3189TIP3    H1 9573   4.358   3.492   1.709 -0.4681  1.7955 -2.3712
 3189TIP3    H2 9574   4.228   3.446   1.772  1.1709  1.3575  0.9237
 3190TIP3   OH2 9575   2.919   4.238   3.659  0.1408 -0.3373 -0.2325
 3190TIP3    H1 9576   2.975   4.243   3.737 -0.9614 -1.7291  0.6947
 3190TIP3    H2 9577   2.968   4.286   3.592  1.3481  0.4917  1.1665
 3191TIP3   OH2 9578   1.231   3.384   4.073 -0.1322  0.5841  0.3267
 3191TIP3    H1 9579   1.221   3.454   4.138 -0.3278  1.2554 -0.4126
 3191TIP3    H2 9580   1.215   3.303   4.123 -2.4703  1.1877  0.7114
 3192TIP3   OH2 9581   5.980   3.494   0.559 -0.0936  0.4273 -0.3230
 3192TIP3    H1 9582   6.050   3.551   0.590  0.6689  0.0145 -1.2405
 3192TIP3    H2 9583   6.014   3.455   0.478 -2.4340  2.3930 -2.4396
 3193TIP3   OH2 9584   6.127   1.859   3.177 -0.5973 -0.4961 -0.2781
 3193TIP3    H1 9585   6.077   1.780   3.200 -1.0812  0.2764  1.4670
 3193TIP3    H2 9586   6.132   1.909   3.258  2.2735 -0.1013 -0.5788
 3194TIP3   OH2 9587   6.246   0.899   1.005  0.5830  0.1441 -0.2049
 3194TIP3    H1 9588   6.229   0.987   0.972 -0.9659  1.3347  3.2149
 3194TIP3    H2 9589   6.159   0.860   1.014  1.0763 -0.8410  0.4420
 3195TIP3   OH2 9590   5.280   0.209   0.579 -0.3420 -0.4720 -0.1840
 3195TIP3    H1 9591   5.242   0.296   0.585 -0.4064 -0.4460 -0.8505
 3195TIP3    H2 9592   5.357   0.220   0.523  0.1797 -0.6778  0.4803
 3196TIP3   OH2 9593   5.443   2.698   3.229 -0.1088  0.0305  0.1149
 3196TIP3    H1 9594   5.533   2.707   3.258  0.1787  0.5467 -0.8964
 3196TIP3    H2 9595   5.410   2.787   3.221  0.0125 -0.0352 -1.6358
 3197TIP3   OH2 9596   3.390   2.071   0.629 -0.0691 -0.2942  0.5934
 3197TIP3    H1 9597   3.379   1.985   0.670  3.1806  0.3626  3.3755
 3197TIP3    H2 9598   3.444   2.054   0.552  0.2973 -0.8101  0.9546
 3198TIP3   OH2 9599   3.190   3.095   4.537  0.0642 -0.3200  0.4414
 3198TIP3    H1 9600   3.195   3.000   4.549 -0.1480 -0.4466 -0.4096
 3198TIP3    H2 9601   3.239   3.112   4.457  1.4161  0.4827  1.3861
 3199TIP3   OH2 9602   6.183   0.433   0.376 -0.5421 -0.3346 -0.5901
 3199TIP3    H1 9603   6.148   0.497   0.314 -0.6529  0.3726  0.1910
 3199TIP3    H2 9604   6.113   0.369   0.386 -0.8387 -0.0112 -0.5729
 3200TIP3   OH2 9605   1.584   3.630   4.081 -0.0643  0.1422 -0.5301
 3200TIP3    H1 9606   1.657   3.596   4.133 -1.6845  0.3268  2.0175
 3200TIP3    H2 9607   1.622   3.704   4.033  1.4302  0.3132  0.7987
 3201TIP3   OH2 9608   4.636   2.778   1.012  0.3388 -0.1710  0.1842
 3201TIP3    H1 9609   4.598   2.721   0.945  1.2214  0.4475 -0.8863
 3201TIP3    H2 9610   4.624   2.731   1.094 -2.6861 -0.0325 -0.0846
 3202TIP3   OH2 9611   1.049   4.457   1.336  0.5695 -0.0783 -0.1125
 3202TIP3    H1 9612   1.090   4.379   1.298 -1.8210 -0.9505 -1.0942
 3202TIP3    H2 9613   1.004   4.498   1.262 -0.8080  0.4704  0.9888
 3203TIP3   OH2 9614   3.622   2.048   5.106  0.0618 -0.6301  0.2424
 3203TIP3    H1 9615   3.666   2.130   5.131 -0.1308 -0.4906  0.1293
 3203TIP3    H2 9616   3.586   2.067   5.019  0.1945 -0.9054  0.1283
 3204TIP3   OH2 9617   2.976   2.429   2.854  0.3214  0.1970  0.1230
 3204TIP3    H1 9618   2.989   2.335   2.856  1.1428  0.2865 -0.4524
 3204TIP3    H2 9619   3.030   2.459   2.781 -0.8246  0.9765 -0.4451
 3205TIP3   OH2 9620   0.303   5.916   0.091 -0.0422  0.0363 -0.3733
 3205TIP3    H1 9621   0.280   5.823   0.083  0.6058 -0.2343  0.6219
 3205TIP3    H2 9622   0.219   5.962   0.093 -0.4141 -0.6589  0.4418
 3206TIP3   OH2 9623   1.380   1.612   5.031 -0.0579  0.8389 -0.5323
 3206TIP3    H1 9624   1.341   1.527   5.012  1.5050 -0.2772  0.8731
 3206TIP3    H2 9625   1.345   1.671   4.964 -0.6459 -1.0572 -1.9706
 3207TIP3   OH2 9626   4.733   1.253   4.942  0.3983 -0.4324  0.1167
 3207TIP3    H1 9627   4.790   1.181   4.970 -0.0255 -0.9264 -0.2841
 3207TIP3    H2 9628   4.752   1.264   4.849 -2.7458 -3.0694 -0.9999
 3208TIP3   OH2 9629   0.629   0.397   3.291 -0.4883  0.7745 -0.0038
 3208TIP3    H1 9630   0.707   0.452   3.280 -1.3316  1.6496 -1.9921
 3208TIP3    H2 9631   0.660   0.322   3.341  1.1629  2.0747  1.0285
 3209TIP3   OH2 9632   2.826   1.604   1.985  0.1596 -0.3893  0.2107
 3209TIP3    H1 9633   2.773   1.575   2.060 -0.0958  0.3095  0.3110
 3209TIP3    H2 9634   2.816   1.534   1.921  0.4250 -1.0246  0.8451
 3210TIP3   OH2 9635   0.788   1.870   2.578 -0.4431  0.2111  0.2001
 3210TIP3    H1 9636   0.776   1.810   2.652 -0.0596  1.2785  1.1521
 3210TIP3    H2 9637   0.704   1.869   2.533 -0.4252 -1.0912  0.1427
 3211TIP3   OH2 9638   1.118   4.405   5.143 -0.2866 -0.0995 -0.1598
 3211TIP3    H1 9639   1.034   4.370   5.115  0.5727 -1.0304 -1.7504
 3211TIP3    H2 9640   1.110   4.415   5.238 -2.2947  0.2198 -0.3207
 3212TIP3   OH2 9641   3.109   0.430   1.973  0.0025  0.3702 -0.0369
 3212TIP3    H1 9642   3.136   0.519   1.996  1.7698 -0.4919  1.5566
 3212TIP3    H2 9643   3.029   0.415   2.024 -0.7224  1.2730 -0.8864
 3213TIP3   OH2 9644   1.461   2.352   1.357 -0.6645 -0.0442 -0.4226
 3213TIP3    H1 9645   1.510   2.272   1.338 -0.2808 -0.4542  2.0010
 3213TIP3    H2 9646   1.389   2.323   1.413 -1.0315  1.1992 -0.2164
 3214TIP3   OH2 9647   6.006   1.700   0.300 -0.4878 -0.8566  0.2560
 3214TIP3    H1 9648   6.084   1.675   0.251 -0.1772 -0.2129  0.4156
 3214TIP3    H2 9649   5.971   1.617   0.332 -1.0357 -1.3627 -1.5273
 3215TIP3   OH2 9650   0.871   2.022   1.122 -0.4111  0.7039 -0.7734
 3215TIP3    H1 9651   0.939   2.083   1.093 -0.2806  0.7708 -0.3352
 3215TIP3    H2 9652   0.817   2.008   1.044  0.7239 -0.1982 -1.4381
 3216TIP3   OH2 9653   5.573   5.526   1.252 -0.2097 -0.2821  0.1200
 3216TIP3    H1 9654   5.527   5.605   1.281 -1.5480 -1.2549  0.7886
 3216TIP3    H2 9655   5.503   5.467   1.224  0.8047 -0.9998 -0.9687
 3217TIP3   OH2 9656   5.741   3.499   3.630 -0.4482  0.0814 -0.2400
 3217TIP3    H1 9657   5.825   3.530   3.595  0.7931 -1.4441  1.2288
 3217TIP3    H2 9658   5.700   3.453   3.557  0.4764 -0.0542 -0.6919
 3218TIP3   OH2 9659   4.509   3.085   2.457  0.0136  0.5828 -0.1797
 3218TIP3    H1 9660   4.456   3.040   2.391 -2.1913  2.5620  0.1135
 3218TIP3    H2 9661   4.594   3.040   2.454 -1.5320 -2.6322 -0.8508
 3219TIP3   OH2 9662   2.809   1.314   2.637  0.0354  0.3849  0.3458
 3219TIP3    H1 9663   2.862   1.276   2.707 -0.8763  0.9679  1.3828
 3219TIP3    H2 9664   2.796   1.405   2.663 -1.3686  0.2919  0.0741
 3220TIP3   OH2 9665   1.834   0.936   2.592  0.5142  0.1345  0.0495
 3220TIP3    H1 9666   1.808   0.976   2.508 -1.4081 -0.6436  0.2136
 3220TIP3    H2 9667   1.889   1.002   2.634 -0.8234  1.7370 -0.5988
 3221TIP3   OH2 9668   5.229   4.879   0.839  0.1934 -0.3313  0.0625
 3221TIP3    H1 9669   5.324   4.870   0.844  0.3057  0.0666 -1.1267
 3221TIP3    H2 9670   5.200   4.809   0.781 -0.1653 -0.0700 -0.0831
 3222TIP3   OH2 9671   4.510   4.641   4.726  0.0527 -0.0045  0.1132
 3222TIP3    H1 9672   4.454   4.575   4.767  0.6717 -0.9112 -0.4830
 3222TIP3    H2 9673   4.448   4.699   4.680 -0.6641  1.1175  2.3726
 3223TIP3   OH2 9674   4.985   3.105   1.388  0.6067  0.2456 -0.1546
 3223TIP3    H1 9675   5.048   3.033   1.399  1.8019  1.3120  0.1789
 3223TIP3    H2 9676   4.924   3.073   1.322  1.9811 -0.4971 -1.1134
 3224TIP3   OH2 9677   0.527   0.388   2.271 -0.5201 -0.0147  0.3543
 3224TIP3    H1 9678   0.467   0.326   2.313  1.8484 -2.3541  0.5183
 3224TIP3    H2 9679   0.545   0.350   2.185  0.7142  0.6275  0.3041
 3225TIP3   OH2 9680   6.085   3.761   1.231 -0.1731 -0.2510 -0.7004
 3225TIP3    H1 9681   6.177   3.748   1.208  0.3864  2.1922 -0.1220
 3225TIP3    H2 9682   6.042   3.783   1.149 -0.3562 -1.7663 -1.0364
 3226TIP3   OH2 9683   3.903   2.080   4.250  0.3311  0.9210 -0.8607
 3226TIP3    H1 9684   3.827   2.026   4.273  0.8411  1.0666  1.3497
 3226TIP3    H2 9685   3.876   2.127   4.170 -1.4151  0.0405 -0.8279
 3227TIP3   OH2 9686   3.991   0.320   1.965 -0.2754 -0.2007 -0.4834
 3227TIP3    H1 9687   4.049   0.388   1.999 -0.1786  0.9202 -2.7164
 3227TIP3    H2 9688   3.992   0.252   2.032  0.4965  1.4910  1.3309
 3228TIP3   OH2 9689   4.535   4.049   1.966 -0.1219 -0.3165 -0.5575
 3228TIP3    H1 9690   4.611   4.091   2.006 -0.0177 -0.6235 -0.4283
 3228TIP3    H2 9691   4.550   4.056   1.872  0.2712 -0.7406 -0.5299
 3229TIP3   OH2 9692   1.968   0.233   0.874 -0.2124  0.1043  0.2280
 3229TIP3    H1 9693   2.012   0.317   0.888 -1.0437  1.0873 -2.4103
 3229TIP3    H2 9694   2.036   0.177   0.836  0.5346 -0.7529  2.6183
 3230TIP3   OH2 9695   3.166   5.013   0.594  0.0924 -0.1445 -0.6756
 3230TIP3    H1 9696   3.146   5.026   0.502  1.2424  1.0380 -0.7895
 3230TIP3    H2 9697   3.200   5.098   0.623 -0.1273 -0.5350  0.8005
 3231TIP3   OH2 9698   0.875   0.789   1.187 -0.2496  0.0001 -0.3211
 3231TIP3    H1 9699   0.849   0.880   1.205 -0.7859 -0.2128 -0.0138
 3231TIP3    H2 9700   0.969   0.787   1.206  0.5760  1.3242 -3.4676
 3232TIP3   OH2 9701   1.706   5.959   0.630  0.0398  0.6058 -0.5252
 3232TIP3    H1 9702   1.660   5.937   0.549 -0.5078  0.2401 -0.1273
 3232TIP3    H2 9703   1.784   5.904   0.629  0.1244  0.7292 -0.8862
 3233TIP3   OH2 9704   4.191   1.490   1.747  0.2745  0.0898 -0.2574
 3233TIP3    H1 9705   4.286   1.492   1.756  0.2441 -0.4538  0.2638
 3233TIP3    H2 9706   4.169   1.397   1.740 -0.3771  0.0508  1.6780
 3234TIP3   OH2 9707   2.627   1.653   1.022  0.0788  0.2794  0.2234
 3234TIP3    H1 9708   2.562   1.632   0.955 -0.4041  0.1259  0.7330
 3234TIP3    H2 9709   2.627   1.576   1.080  1.2457 -0.0369 -0.1861
 3235TIP3   OH2 9710   6.240   1.137   4.028  0.1378 -0.0284  0.1024
 3235TIP3    H1 9711   6.166   1.091   4.066  0.2380  0.0698  0.4170
 3235TIP3    H2 9712   6.277   1.074   3.965 -0.2725 -0.0354 -0.1379
 3236TIP3   OH2 9713   2.719   1.731   0.405  0.0216 -0.6611  0.8195
 3236TIP3    H1 9714   2.742   1.765   0.318  1.4434  1.0469  1.7979
 3236TIP3    H2 9715   2.769   1.649   0.412  1.5600  0.2325  0.7813
 3237TIP3   OH2 9716   2.250   2.578   2.697 -0.1498 -0.3031 -0.3579
 3237TIP3    H1 9717   2.194   2.502   2.685  1.0781 -1.3116  0.1455
 3237TIP3    H2 9718   2.227   2.613   2.783 -0.2958 -0.4616 -0.3337
 3238TIP3   OH2 9719   1.816   2.488   2.010 -0.3733 -0.1939 -0.2310
 3238TIP3    H1 9720   1.773   2.450   1.933  1.4621 -0.3310 -1.2321
 3238TIP3    H2 9721   1.898   2.523   1.977 -0.7718  2.3225  1.1571
 3239TIP3   OH2 9722   1.744   2.294   3.907 -0.2514 -0.3664  0.4928
 3239TIP3    H1 9723   1.827   2.323   3.945 -0.4661 -0.0898  0.7575
 3239TIP3    H2 9724   1.719   2.218   3.960  0.5666 -1.3795 -0.5236
 3240TIP3   OH2 9725   0.082   0.170   2.460  0.3561 -0.2895 -0.2101
 3240TIP3    H1 9726   0.113   0.084   2.489  0.8103  0.3868  1.4272
 3240TIP3    H2 9727   0.041   0.209   2.537  0.6116  1.1680 -0.7635
 3241TIP3   OH2 9728   4.467   5.270   4.897  0.4823 -0.2155 -0.4457
 3241TIP3    H1 9729   4.430   5.352   4.863  1.3754 -0.0735 -1.1044
 3241TIP3    H2 9730   4.482   5.217   4.819  1.4567 -0.3473 -0.1761
 3242TIP3   OH2 9731   3.539   0.301   0.997 -0.0115 -0.6425 -0.3115
 3242TIP3    H1 9732   3.487   0.357   1.055  0.8966 -2.4325  2.3968
 3242TIP3    H2 9733   3.478   0.233   0.968  0.0337 -0.9088  0.2189
 3243TIP3   OH2 9734   0.678   1.257   4.150  0.4554  0.3970 -0.7467
 3243TIP3    H1 9735   0.767   1.226   4.168  0.2777 -0.0679 -0.6529
 3243TIP3    H2 9736   0.634   1.182   4.112  0.4020  0.9422 -1.8037
 3244TIP3   OH2 9737   0.342   2.133   0.708 -0.3586  0.8324 -0.0460
 3244TIP3    H1 9738   0.375   2.046   0.730  2.6797  1.9497  0.2934
 3244TIP3    H2 9739   0.348   2.183   0.789  0.9024  2.1501 -0.8952
 3245TIP3   OH2 9740   5.139   4.673   1.379 -0.1563 -0.0404 -0.2666
 3245TIP3    H1 9741   5.228   4.644   1.400 -0.5963 -0.6454  0.8268
 3245TIP3    H2 9742   5.142   4.768   1.390  0.3118 -0.0762 -0.0586
 3246TIP3   OH2 9743   3.947   5.414   0.688 -0.5657  0.1796  0.0272
 3246TIP3    H1 9744   3.953   5.461   0.771  0.7444  1.2441 -0.6447
 3246TIP3    H2 9745   3.867   5.361   0.697 -0.7965  0.7434  1.7063
 3247TIP3   OH2 9746   0.648   5.898   4.002 -0.5303  0.1353 -0.2485
 3247TIP3    H1 9747   0.610   5.970   4.052  0.6062 -0.4314  1.4993
 3247TIP3    H2 9748   0.696   5.941   3.931 -0.8302  1.0466  0.0874
 3248TIP3   OH2 9749   4.293   2.264   4.273 -0.2651  0.0663  0.2473
 3248TIP3    H1 9750   4.353   2.277   4.346 -2.1052 -0.4301  1.9351
 3248TIP3    H2 9751   4.301   2.171   4.251  0.5649  0.2970 -0.4594
 3249TIP3   OH2 9752   2.452   2.790   3.885  0.0221  0.1647  0.7110
 3249TIP3    H1 9753   2.474   2.806   3.977  1.5660 -1.4431  0.6860
 3249TIP3    H2 9754   2.528   2.820   3.836  0.4322 -1.5684  0.2249
 3250TIP3   OH2 9755   4.412   4.409   1.841  0.2732 -0.3761 -0.4474
 3250TIP3    H1 9756   4.413   4.313   1.850  0.7109 -0.4777 -1.4963
 3250TIP3    H2 9757   4.344   4.426   1.777  1.7275 -0.1678 -2.0063
 3251TIP3   OH2 9758   3.236   5.594   1.881  0.2578  0.2092  0.6346
 3251TIP3    H1 9759   3.213   5.505   1.856  1.1292  0.4125 -1.0310
 3251TIP3    H2 9760   3.161   5.647   1.852  1.1959  0.4233 -1.5758
 3252TIP3   OH2 9761   2.324   5.652   1.949 -0.5925 -0.2032 -0.0132
 3252TIP3    H1 9762   2.306   5.560   1.927 -1.6105 -0.0319  0.0732
 3252TIP3    H2 9763   2.396   5.676   1.890 -1.8584 -0.3849 -1.7347
 3253TIP3   OH2 9764   2.143   4.944   4.404 -0.4754 -0.4194  0.0674
 3253TIP3    H1 9765   2.171   4.964   4.315  2.4287  0.9938  1.1791
 3253TIP3    H2 9766   2.107   5.026   4.437  0.0620 -0.4484  0.7425
 3254TIP3   OH2 9767   1.473   1.533   4.755  0.1161 -0.1995  0.1209
 3254TIP3    H1 9768   1.512   1.592   4.819  0.4352 -0.7020  0.3882
 3254TIP3    H2 9769   1.474   1.583   4.673  0.9329 -0.0514  0.2147
 3255TIP3   OH2 9770   3.951   5.216   3.499 -0.6677  0.3899 -0.3049
 3255TIP3    H1 9771   3.860   5.203   3.526 -0.1791  0.6171  1.6420
 3255TIP3    H2 9772   3.969   5.307   3.520  0.7272 -0.2960  1.9239
 3256TIP3   OH2 9773   1.517   0.736   1.995  0.3516 -0.4899  0.1241
 3256TIP3    H1 9774   1.551   0.648   1.977 -0.1646 -0.4746 -1.0148
 3256TIP3    H2 9775   1.468   0.759   1.916  0.0178  0.6013  0.6357
 3257TIP3   OH2 9776   4.627   4.565   2.198  0.1580 -0.1484  0.0164
 3257TIP3    H1 9777   4.591   4.603   2.278  0.7003 -1.2484  0.8191
 3257TIP3    H2 9778   4.564   4.587   2.129 -0.7781  0.0496  0.9207
 3258TIP3   OH2 9779   5.509   0.816   3.247  0.0588 -0.3981  0.5690
 3258TIP3    H1 9780   5.459   0.846   3.323  0.1665 -1.1712  0.9570
 3258TIP3    H2 9781   5.562   0.891   3.222 -0.1835 -0.0464  1.0906
 3259TIP3   OH2 9782   2.414   4.773   1.539 -0.6738 -0.2375 -0.4161
 3259TIP3    H1 9783   2.344   4.817   1.491 -0.0666 -0.0603 -1.1703
 3259TIP3    H2 9784   2.461   4.844   1.584 -2.2845 -0.5472  1.9476
 3260TIP3   OH2 9785   3.174   4.456   4.104  0.2790 -0.4491  0.3919
 3260TIP3    H1 9786   3.198   4.506   4.183 -1.1217  0.4815  0.2573
 3260TIP3    H2 9787   3.099   4.503   4.068 -0.2551 -1.9250 -0.4886
 3261TIP3   OH2 9788   5.492   1.751   2.650  0.3156 -0.6367 -0.0169
 3261TIP3    H1 9789   5.511   1.825   2.593 -2.3366  0.2692  0.1391
 3261TIP3    H2 9790   5.545   1.766   2.728  0.8760  0.3208 -0.5640
 3262TIP3   OH2 9791   3.218   2.526   5.088  0.2016  0.1991  0.2184
 3262TIP3    H1 9792   3.218   2.534   4.993 -1.7920 -0.5777  0.0973
 3262TIP3    H2 9793   3.187   2.437   5.105 -1.5907  1.0103  1.5651
 3263TIP3   OH2 9794   1.534   5.618   0.560  0.0175  0.5026  0.0561
 3263TIP3    H1 9795   1.555   5.677   0.488  0.4196 -0.6088 -0.7785
 3263TIP3    H2 9796   1.614   5.613   0.611  0.3541 -0.1518 -0.5072
 3264TIP3   OH2 9797   4.562   4.875   1.808 -0.2448  0.0181  0.0738
 3264TIP3    H1 9798   4.626   4.882   1.879 -0.4687 -1.9097  0.5260
 3264TIP3    H2 9799   4.609   4.830   1.738 -1.0648 -1.5099  0.4469
 3265TIP3   OH2 9800   5.692   4.335   1.356 -0.5242 -0.3044  0.3445
 3265TIP3    H1 9801   5.777   4.313   1.395 -0.4682  1.5998  1.4363
 3265TIP3    H2 9802   5.687   4.280   1.278  1.8052 -0.3076  0.1129
 3266TIP3   OH2 9803   1.231   0.702   3.892  0.0525  0.5139  0.6678
 3266TIP3    H1 9804   1.192   0.642   3.956  0.5743 -0.1243  0.4072
 3266TIP3    H2 9805   1.326   0.694   3.907  0.1894  0.2266 -0.2880
 3267TIP3   OH2 9806   0.404   3.434   1.089  0.2022  0.2192  0.2371
 3267TIP3    H1 9807   0.455   3.399   1.162  0.1973  2.0670  1.1973
 3267TIP3    H2 9808   0.447   3.517   1.069 -1.2994  0.9201 -0.1841
 3268TIP3   OH2 9809   3.981   1.101   0.378 -0.4394 -0.3350 -0.1476
 3268TIP3    H1 9810   3.961   1.164   0.308 -1.5022 -1.0931 -0.5482
 3268TIP3    H2 9811   3.991   1.017   0.332  0.5740 -0.5470  0.4270
 3269TIP3   OH2 9812   5.806   5.440   2.148 -0.0271 -0.6115  0.0545
 3269TIP3    H1 9813   5.848   5.382   2.212  0.6878 -0.9532 -0.7045
 3269TIP3    H2 9814   5.779   5.381   2.078  1.4587  0.0318 -1.1272
 3270TIP3   OH2 9815   0.595   5.776   1.338 -0.0025 -0.0069 -0.0891
 3270TIP3    H1 9816   0.608   5.683   1.355 -2.1962  0.0186  2.4646
 3270TIP3    H2 9817   0.619   5.819   1.420  0.1450  1.5847 -0.9363
 3271TIP3   OH2 9818   1.533   4.158   0.375  0.3641  0.5813  0.4199
 3271TIP3    H1 9819   1.509   4.129   0.288  1.5705 -1.3587  0.6928
 3271TIP3    H2 9820   1.626   4.139   0.383  0.9331  3.1945  1.2161
 3272TIP3   OH2 9821   2.715   4.849   1.201 -0.5695 -0.1964 -0.1529
 3272TIP3    H1 9822   2.626   4.881   1.215 -1.1390 -2.0353  0.6727
 3272TIP3    H2 9823   2.727   4.853   1.107 -2.3726 -1.9575 -0.5340
 3273TIP3   OH2 9824   1.723   0.788   4.926  0.8852  0.1611  0.5992
 3273TIP3    H1 9825   1.766   0.753   4.847  3.0826  0.6854  1.4776
 3273TIP3    H2 9826   1.690   0.710   4.971 -1.2194 -0.0875 -1.2152
 3274TIP3   OH2 9827   0.580   5.461   2.595 -0.6003  0.1285  0.3120
 3274TIP3    H1 9828   0.623   5.460   2.681  2.4054 -1.1642 -1.0676
 3274TIP3    H2 9829   0.489   5.437   2.613  0.3061 -1.7096  2.9599
 3275TIP3   OH2 9830   2.240   1.277   0.726  0.4341 -0.2831  0.7987
 3275TIP3    H1 9831   2.188   1.212   0.679  1.5378  0.4172 -1.6063
 3275TIP3    H2 9832   2.326   1.236   0.735  1.4086  1.0393 -1.5414
 3276TIP3   OH2 9833   2.950   2.369   1.999 -0.7260 -0.5005 -0.2855
 3276TIP3    H1 9834   2.930   2.280   1.973  1.5722 -1.3696  0.6613
 3276TIP3    H2 9835   3.031   2.391   1.952 -0.6893  0.6924  0.2787
 3277TIP3   OH2 9836   1.221   3.850   3.998 -0.7010  0.5645  0.9353
 3277TIP3    H1 9837   1.245   3.795   3.923  0.3544  1.9099  0.2373
 3277TIP3    H2 9838   1.131   3.875   3.981  0.2703  2.9851 -1.3569
 3278TIP3   OH2 9839   5.472   5.240   2.057  0.6897 -0.8089  0.1343
 3278TIP3    H1 9840   5.397   5.182   2.044  0.6821 -0.6547 -0.5848
 3278TIP3    H2 9841   5.437   5.328   2.040  1.0530 -0.7459 -0.3212
 3279TIP3   OH2 9842   2.862   5.552   2.825 -0.1400 -0.0363  0.0178
 3279TIP3    H1 9843   2.872   5.524   2.733  2.6601  0.5230  0.0546
 3279TIP3    H2 9844   2.850   5.647   2.820  0.2792  0.0282  0.2466
 3280TIP3   OH2 9845   5.586   3.685   2.307  0.3996 -0.1168 -0.4326
 3280TIP3    H1 9846   5.603   3.715   2.396 -0.5707 -0.3153 -0.1648
 3280TIP3    H2 9847   5.607   3.592   2.309 -1.0979 -0.4625  0.0217
 3281TIP3   OH2 9848   4.033   3.221   4.365 -0.3579 -0.0859  0.4509
 3281TIP3    H1 9849   4.084   3.263   4.434  1.0947 -2.2762  0.7911
 3281TIP3    H2 9850   4.076   3.248   4.284  0.6872 -1.0038  0.6761
 3282TIP3   OH2 9851   5.326   0.350   3.039 -0.3226 -0.6477 -0.5309
 3282TIP3    H1 9852   5.401   0.315   3.087 -1.4821 -2.8646 -0.1914
 3282TIP3    H2 9853   5.268   0.386   3.106 -0.9016 -1.6779 -0.4565
 3283TIP3   OH2 9854   2.905   4.681   2.714 -0.3167  0.1201  0.1105
 3283TIP3    H1 9855   2.850   4.634   2.777 -1.5306  1.7175  0.2973
 3283TIP3    H2 9856   2.991   4.683   2.755 -0.0403 -2.3997 -0.1736
 3284TIP3   OH2 9857   0.804   5.679   0.213  0.0618 -0.2745  0.3850
 3284TIP3    H1 9858   0.852   5.597   0.200  0.2077 -0.0641 -0.4954
 3284TIP3    H2 9859   0.867   5.738   0.255  0.9347  0.3035 -1.5982
 3285TIP3   OH2 9860   1.315   2.620   3.741  0.3352  0.1035 -0.0646
 3285TIP3    H1 9861   1.389   2.584   3.790  1.4046 -0.4189 -1.9643
 3285TIP3    H2 9862   1.239   2.568   3.769  1.1413 -0.9993  0.1233
 3286TIP3   OH2 9863   3.351   2.376   4.565 -0.3003  0.0865  0.3273
 3286TIP3    H1 9864   3.292   2.398   4.494  0.8425  0.2812 -0.5997
 3286TIP3    H2 9865   3.432   2.424   4.545  0.0795  0.0784  1.7102
 3287TIP3   OH2 9866   1.801   1.184   2.073 -0.0377 -0.4195 -0.1435
 3287TIP3    H1 9867   1.872   1.123   2.088  0.6469  0.1924 -0.8221
 3287TIP3    H2 9868   1.827   1.233   1.995  0.0015  1.5219  1.0016
 3288TIP3   OH2 9869   1.053   4.235   3.821  0.5416  0.5385  0.4912
 3288TIP3    H1 9870   1.131   4.289   3.833  0.2983  0.8180  0.8654
 3288TIP3    H2 9871   0.980   4.295   3.838  0.2468  0.2850  0.1391
 3289TIP3   OH2 9872   4.949   0.099   2.664 -0.6288 -0.1474 -0.0936
 3289TIP3    H1 9873   4.989   0.185   2.680 -2.0560  0.3730  0.9121
 3289TIP3    H2 9874   4.892   0.085   2.740 -2.4307 -0.7923 -1.4945
 3290TIP3   OH2 9875   1.696   1.952   1.827 -0.0637  0.2611  0.2441
 3290TIP3    H1 9876   1.642   1.874   1.819  1.6073 -0.8140 -1.1496
 3290TIP3    H2 9877   1.715   1.978   1.736 -0.2025  2.0304  0.6739
 3291TIP3   OH2 9878   2.671   2.828   3.429 -0.1891 -0.0582 -0.6094
 3291TIP3    H1 9879   2.642   2.836   3.338 -2.1866  1.1237  0.0751
 3291TIP3    H2 9880   2.690   2.735   3.440 -0.4832 -0.3112 -2.0762
 3292TIP3   OH2 9881   0.279   2.877   4.430 -0.1932 -0.2166  0.1356
 3292TIP3    H1 9882   0.269   2.890   4.336  1.0037 -2.0948 -0.3058
 3292TIP3    H2 9883   0.277   2.965   4.467  0.8272  0.6784 -1.8046
 3293TIP3   OH2 9884   0.454   5.597   3.016  0.2436 -0.2436  0.6440
 3293TIP3    H1 9885   0.382   5.621   2.959  0.9934  2.2007  0.6134
 3293TIP3    H2 9886   0.433   5.508   3.046 -1.2320 -0.7621 -1.6948
 3294TIP3   OH2 9887   1.820   1.766   4.532  0.2520  0.6417  0.1044
 3294TIP3    H1 9888   1.907   1.727   4.543 -0.1350 -0.5528 -0.8834
 3294TIP3    H2 9889   1.827   1.816   4.450  0.1590  1.0315  0.3286
 3295TIP3   OH2 9890   1.869   5.642   1.314 -0.4385  0.3286  0.1743
 3295TIP3    H1 9891   1.792   5.608   1.359  1.2205 -2.6247  1.0869
 3295TIP3    H2 9892   1.920   5.683   1.383 -0.4967  0.9383 -0.1414
 3296TIP3   OH2 9893   2.120   3.942   4.810  0.6017  0.0107 -0.1339
 3296TIP3    H1 9894   2.154   3.959   4.722  0.0694 -2.4733 -0.8903
 3296TIP3    H2 9895   2.038   3.896   4.796  1.2269 -1.7909  1.6303
 3297TIP3   OH2 9896   2.260   2.073   1.427 -0.2751 -0.0525  0.5799
 3297TIP3    H1 9897   2.345   2.044   1.460  0.4510  0.5735 -0.6782
 3297TIP3    H2 9898   2.242   2.014   1.354 -1.7479 -1.2680  1.8641
 3298TIP3   OH2 9899   1.333   5.856   2.071  0.1775  0.0799 -0.4111
 3298TIP3    H1 9900   1.396   5.863   2.000  0.3542  0.7178 -0.2002
 3298TIP3    H2 9901   1.283   5.776   2.052  0.4847  0.0332 -1.0287
 3299TIP3   OH2 9902   5.200   2.602   2.452 -0.1110  0.2552 -0.0714
 3299TIP3    H1 9903   5.162   2.571   2.370 -0.4392  1.8096 -0.5380
 3299TIP3    H2 9904   5.253   2.529   2.483  0.9781  0.0398 -2.2778
 3300TIP3   OH2 9905   0.054   0.971   3.388 -0.3104  0.7808  0.2787
 3300TIP3    H1 9906   0.098   0.894   3.352 -0.9336  0.4105  0.2937
 3300TIP3    H2 9907   0.051   1.033   3.316 -0.0704  0.6778  0.1786
 3301TIP3   OH2 9908   4.645   2.454   2.848 -0.3741  0.5395 -0.3034
 3301TIP3    H1 9909   4.589   2.420   2.918  0.3394 -1.4790 -0.6442
 3301TIP3    H2 9910   4.595   2.440   2.768 -0.8999  2.1990 -0.2871
 3302TIP3   OH2 9911   3.776   1.854   0.491 -0.8290  0.2149  0.3572
 3302TIP3    H1 9912   3.701   1.865   0.550 -0.2868 -0.5389  1.2140
 3302TIP3    H2 9913   3.744   1.796   0.422 -0.7669 -0.8736  1.2305
 3303TIP3   OH2 9914   0.615   2.804   3.194 -0.9077  0.0556  0.6903
 3303TIP3    H1 9915   0.663   2.721   3.194  0.1466  0.6575  0.5040
 3303TIP3    H2 9916   0.645   2.850   3.273 -0.1973  0.9893 -0.1128
 3304TIP3   OH2 9917   3.809   2.956   1.604 -0.7837  0.2724  0.6411
 3304TIP3    H1 9918   3.895   2.934   1.569 -1.4172 -0.0576 -0.7954
 3304TIP3    H2 9919   3.804   3.052   1.595  0.0585  0.5104  2.3118
 3305TIP3   OH2 9920   5.213   1.956   2.650 -0.2574  0.1574 -0.0619
 3305TIP3    H1 9921   5.169   1.872   2.660 -1.1850  0.3622 -1.9445
 3305TIP3    H2 9922   5.281   1.955   2.717 -0.3217 -2.0244  0.0598
 3306TIP3   OH2 9923   4.819   3.405   2.604  0.0364  0.1657 -0.5686
 3306TIP3    H1 9924   4.893   3.422   2.663  1.4821  2.2668 -2.8149
 3306TIP3    H2 9925   4.778   3.327   2.641  0.9370  1.1872  3.0705
 3307TIP3   OH2 9926   5.304   3.468   2.308  0.5715  0.4839 -0.0412
 3307TIP3    H1 9927   5.302   3.496   2.399 -1.3500  0.1412  0.0597
 3307TIP3    H2 9928   5.260   3.538   2.260 -1.2476 -0.7129 -0.2395
 3308TIP3   OH2 9929   2.921   0.440   3.008  0.1995 -0.0103 -0.1408
 3308TIP3    H1 9930   2.913   0.534   3.025  0.6684 -0.1081  0.6711
 3308TIP3    H2 9931   2.831   0.409   3.000  0.0248  0.3866  0.2528
 3309TIP3   OH2 9932   0.669   3.287   2.478 -0.1825 -0.2286  0.2571
 3309TIP3    H1 9933   0.700   3.323   2.562 -0.4489 -2.3592  1.3429
 3309TIP3    H2 9934   0.749   3.257   2.435  0.6770  4.9504 -2.5859
 3310TIP3   OH2 9935   5.441   5.742   1.904 -0.3168 -0.1330 -0.4982
 3310TIP3    H1 9936   5.475   5.808   1.843  0.9416 -1.1544 -0.9373
 3310TIP3    H2 9937   5.492   5.755   1.984 -1.6040  0.8574  0.1994
 3311TIP3   OH2 9938   2.131   2.701   2.949 -0.4202 -0.3157 -0.0815
 3311TIP3    H1 9939   2.043   2.676   2.977 -0.0250  0.7136  2.2794
 3311TIP3    H2 9940   2.186   2.689   3.026  1.3110  0.1634 -1.1680
 3312TIP3   OH2 9941   0.821   5.956   4.694  0.4123 -0.3293 -0.1065
 3312TIP3    H1 9942   0.863   5.965   4.609 -1.2089  2.2256 -0.7589
 3312TIP3    H2 9943   0.735   5.917   4.675  0.3293 -0.4454  0.4753
 3313TIP3   OH2 9944   2.638   2.407   1.956  0.2164 -0.3244 -0.2755
 3313TIP3    H1 9945   2.734   2.411   1.965  0.1012 -0.5868  1.4905
 3313TIP3    H2 9946   2.623   2.415   1.862  1.9290  0.5380 -0.5316
 3314TIP3   OH2 9947   1.512   1.157   2.629 -0.4684  0.0043 -0.1579
 3314TIP3    H1 9948   1.503   1.184   2.721 -2.2824 -0.5808 -0.1110
 3314TIP3    H2 9949   1.460   1.221   2.581  1.4244  1.0003 -0.9558
 3315TIP3   OH2 9950   2.194   2.823   3.793  0.8141 -0.1839  0.2077
 3315TIP3    H1 9951   2.155   2.738   3.773  2.4277 -0.4968 -1.8470
 3315TIP3    H2 9952   2.284   2.803   3.818  0.5672  0.7714  2.0615
 3316TIP3   OH2 9953   2.743   3.325   3.265  0.0865 -0.4090 -0.0892
 3316TIP3    H1 9954   2.831   3.360   3.264  0.5588 -1.5361 -0.7980
 3316TIP3    H2 9955   2.689   3.395   3.300  1.5361 -0.3770  2.2970
 3317TIP3   OH2 9956   2.904   0.434   3.912  0.1345 -0.1239  0.2398
 3317TIP3    H1 9957   2.813   0.408   3.897 -0.2979  0.6553  1.3586
 3317TIP3    H2 9958   2.948   0.353   3.936 -0.6366 -0.2825  1.2247
 3318TIP3   OH2 9959   0.524   4.448   4.460  0.3197  0.1536 -0.2868
 3318TIP3    H1 9960   0.548   4.401   4.380 -0.0235 -0.9021  0.2220
 3318TIP3    H2 9961   0.589   4.420   4.525  0.7370  1.1780 -0.2298
 3319TIP3   OH2 9962   2.755   4.847   4.254  0.0785  0.1799 -0.2243
 3319TIP3    H1 9963   2.761   4.862   4.160  0.6965 -1.0529 -0.3994
 3319TIP3    H2 9964   2.665   4.820   4.269  0.5261 -1.8340 -0.8401
 3320TIP3   OH2 9965   4.313   1.374   2.799 -0.1987 -0.2430 -0.0035
 3320TIP3    H1 9966   4.392   1.320   2.799  1.3700  1.9449  0.4508
 3320TIP3    H2 9967   4.288   1.379   2.891  0.2317  0.5409  0.0829
 3321TIP3   OH2 9968   3.941   4.952   0.401 -0.7393  0.1907 -0.0283
 3321TIP3    H1 9969   3.943   4.937   0.495 -1.3306 -1.3519 -0.2419
 3321TIP3    H2 9970   4.033   4.966   0.377 -0.5623  0.4045  0.7337
 3322TIP3   OH2 9971   0.486   5.441   5.015  0.3552  0.4093 -0.4206
 3322TIP3    H1 9972   0.540   5.445   5.094  0.3332  0.7567 -0.4251
 3322TIP3    H2 9973   0.535   5.491   4.950 -0.4348  1.5636 -0.1539
 3323TIP3   OH2 9974   1.272   2.850   1.914 -0.2717 -0.1047  0.5835
 3323TIP3    H1 9975   1.331   2.774   1.911 -1.8517 -1.3767  0.3643
 3323TIP3    H2 9976   1.194   2.819   1.960 -1.5678  0.9130 -0.7959
 3324TIP3   OH2 9977   3.832   5.359   3.819  0.2467  0.0290 -0.2963
 3324TIP3    H1 9978   3.822   5.454   3.815  1.4268  0.3664  2.5202
 3324TIP3    H2 9979   3.925   5.344   3.804  0.3767 -0.4997  0.9248
 3325TIP3   OH2 9980   1.422   3.876   1.526  0.1558  0.5547  0.8800
 3325TIP3    H1 9981   1.362   3.812   1.489 -0.2016  1.3216  0.0795
 3325TIP3    H2 9982   1.450   3.839   1.609  0.9225 -1.2021 -0.1155
 3326TIP3   OH2 9983   3.917   2.811   4.122  0.0319 -0.2844  0.3405
 3326TIP3    H1 9984   3.868   2.804   4.204  0.5835 -0.7534  0.6357
 3326TIP3    H2 9985   3.978   2.737   4.124  0.3119 -0.0771 -0.3154
 3327TIP3   OH2 9986   4.070   0.911   2.938 -0.1227 -0.1110  0.2156
 3327TIP3    H1 9987   4.164   0.929   2.926 -0.7683  2.0604 -2.5213
 3327TIP3    H2 9988   4.044   0.870   2.856 -1.5665 -0.9681  1.0676
 3328TIP3   OH2 9989   2.627   1.471   0.208 -0.1622  0.0784  0.4380
 3328TIP3    H1 9990   2.578   1.489   0.128 -1.3748  1.0260  1.3503
 3328TIP3    H2 9991   2.561   1.471   0.277  0.9338 -0.1073  1.5201
 3329TIP3   OH2 9992   5.962   4.439   3.021  0.6408  0.4453 -0.6174
 3329TIP3    H1 9993   5.964   4.496   3.098  2.6304  2.3656 -1.9878
 3329TIP3    H2 9994   6.020   4.366   3.044 -0.2083  0.0393  0.3328
 3330TIP3   OH2 9995   0.582   1.999   0.393 -0.3390  0.4318  0.2863
 3330TIP3    H1 9996   0.521   1.925   0.395  0.6101 -0.3611  0.2914
 3330TIP3    H2 9997   0.650   1.972   0.332  0.4178  0.9778  0.8757
 3331TIP3   OH2 9998   2.602   5.753   1.747  0.0002 -0.0233 -0.0715
 3331TIP3    H1 9999   2.597   5.667   1.705  0.0314 -0.0086 -0.1053
 3331TIP3    H210000   2.532   5.804   1.705 -0.8488 -0.4185  0.8412
 3332TIP3   OH210001   4.025   3.038  -0.018 -0.4782  0.4074 -0.1599
 3332TIP3    H110002   4.059   3.036   0.071 -0.5082  0.2242 -0.1521
 3332TIP3    H210003   3.950   2.979  -0.016  1.5243 -2.4109 -1.1354
 3333TIP3   OH210004   3.112   5.865   3.166 -0.0183  1.0560 -0.5966
 3333TIP3    H110005   3.168   5.897   3.237  2.0356  2.7908 -2.7905
 3333TIP3    H210006   3.105   5.771   3.181  2.2070  1.0193  0.6981
 3334TIP3   OH210007   5.071   1.602   0.723 -0.7212 -0.1227 -0.2267
 3334TIP3    H110008   5.068   1.525   0.667  0.5819 -0.7879  0.5556
 3334TIP3    H210009   5.148   1.588   0.778 -0.0350  2.0626 -0.5236
 3335TIP3   OH210010   1.005   0.525   5.092 -0.3265 -0.3126 -0.1633
 3335TIP3    H110011   0.921   0.555   5.057 -0.4965  1.2533  1.4497
 3335TIP3    H210012   0.988   0.506   5.184  0.5106 -2.6312 -0.4190
 3336TIP3   OH210013   0.382   2.790   0.715 -0.8552 -0.1828  0.0872
 3336TIP3    H110014   0.387   2.710   0.767  0.8687 -0.0154  0.2588
 3336TIP3    H210015   0.363   2.760   0.626 -0.0351 -0.8188  0.1134
 3337TIP3   OH210016   6.259   0.444   0.935  0.2340 -0.1305  0.1315
 3337TIP3    H110017   6.354   0.429   0.934  0.2333 -0.2341  1.0733
 3337TIP3    H210018   6.245   0.509   0.866  0.9672 -0.2445 -0.1401
 3338TIP3   OH210019   1.846   3.795   4.826 -0.2667  0.1601  0.4316
 3338TIP3    H110020   1.846   3.713   4.777 -1.9921 -0.7834  1.8873
 3338TIP3    H210021   1.757   3.829   4.815  0.0334  1.1547  0.9522
 3339TIP3   OH210022   1.187   1.191   2.518  0.0779 -0.3051  0.1204
 3339TIP3    H110023   1.151   1.111   2.481  0.1157 -0.9142  1.3612
 3339TIP3    H210024   1.113   1.252   2.521 -0.3900 -0.8841  0.7811
 3340TIP3   OH210025   4.240   3.945   0.074  0.0459 -0.2482  0.2733
 3340TIP3    H110026   4.165   4.004   0.081 -0.2203 -0.4354 -0.8301
 3340TIP3    H210027   4.307   3.995   0.027  0.4292 -0.2637  0.7897
 3341TIP3   OH210028   1.667  -0.005   2.960  0.1195  0.1400 -0.2759
 3341TIP3    H110029   1.604   0.047   3.011 -0.5227 -0.5923 -0.3160
 3341TIP3    H210030   1.642   0.008   2.869  1.9281  2.3249 -0.5478
 3342TIP3   OH210031   1.747   5.215   0.555 -0.2864  0.5503 -0.1055
 3342TIP3    H110032   1.795   5.290   0.588  0.2809  0.0012  0.3268
 3342TIP3    H210033   1.775   5.141   0.609 -0.5173 -0.0606 -0.7940
 3343TIP3   OH210034   2.921   3.053   4.363  0.0051  0.3515 -0.0301
 3343TIP3    H110035   2.908   3.067   4.457 -0.6191 -1.4108  0.1920
 3343TIP3    H210036   3.012   3.079   4.347  0.1155  0.6870  1.0579
 3344TIP3   OH210037   3.514   5.330   0.512  0.1321 -0.2090 -0.5310
 3344TIP3    H110038   3.565   5.267   0.564 -0.4560 -0.0597  0.2442
 3344TIP3    H210039   3.580   5.388   0.474  0.5884 -0.4314 -0.0898
 3345TIP3   OH210040   3.890   2.686   0.628 -0.1968  0.6992 -0.4220
 3345TIP3    H110041   3.832   2.693   0.552  1.1265 -1.1296 -1.7037
 3345TIP3    H210042   3.927   2.597   0.622  0.9620  0.9687  1.6360
 3346TIP3   OH210043   4.263   2.777   2.138 -0.3373 -0.1991  0.1110
 3346TIP3    H110044   4.257   2.699   2.192 -2.6048 -1.2107 -1.4249
 3346TIP3    H210045   4.353   2.808   2.150 -0.1471 -1.5060  2.7706
 3347TIP3   OH210046   3.663   1.008   4.076 -0.1877 -0.2260 -0.0961
 3347TIP3    H110047   3.740   1.034   4.025  1.2451 -1.2401  1.4687
 3347TIP3    H210048   3.649   0.916   4.052 -0.4139 -0.2735  0.2220
 3348TIP3   OH210049   2.415   3.553   4.134 -0.2709  0.2506 -0.0071
 3348TIP3    H110050   2.499   3.544   4.089 -0.6767 -2.9230 -0.3772
 3348TIP3    H210051   2.432   3.616   4.204  2.6097 -0.6370  0.2364
 3349TIP3   OH210052   5.152   2.724   5.121 -0.3945  0.0048  0.1484
 3349TIP3    H110053   5.134   2.663   5.193  0.5600 -0.8879 -0.3468
 3349TIP3    H210054   5.200   2.671   5.057 -0.0017  1.1513 -0.5182
 3350TIP3   OH210055   5.090   2.231   0.761 -0.6425 -0.1622  0.2444
 3350TIP3    H110056   5.155   2.200   0.699 -0.4628  1.7515 -0.6002
 3350TIP3    H210057   5.122   2.202   0.846  0.2586 -0.9346 -0.3404
 3351TIP3   OH210058   0.741   1.318   0.023  0.4226 -0.0469  0.0377
 3351TIP3    H110059   0.750   1.225   0.003  0.1442 -0.1508  0.3899
 3351TIP3    H210060   0.819   1.340   0.073  0.0588 -0.3092  0.7406
 3352TIP3   OH210061   4.862   5.699   3.567  0.8812 -0.4116  0.0957
 3352TIP3    H110062   4.906   5.626   3.610  1.4829  0.5845  1.2175
 3352TIP3    H210063   4.932   5.746   3.521  0.1855 -1.8076 -2.6579
 3353TIP3   OH210064   2.313   4.386   2.379  0.8478  0.3394 -0.1043
 3353TIP3    H110065   2.375   4.430   2.321  0.8386 -2.0945 -2.1504
 3353TIP3    H210066   2.348   4.297   2.389 -2.5489 -1.4196 -2.0100
 3354TIP3   OH210067   1.362   2.748   1.376 -0.8920 -0.0320  0.6377
 3354TIP3    H110068   1.284   2.768   1.429 -0.8937  0.5843  0.4102
 3354TIP3    H210069   1.434   2.791   1.423 -0.8869  0.4821  0.1663
 3355TIP3   OH210070   4.022   5.976   2.383 -0.3587  0.6787  0.5028
 3355TIP3    H110071   3.963   5.916   2.338  0.8842  0.6191 -1.1464
 3355TIP3    H210072   4.109   5.939   2.368  0.3056  2.0763  0.7761
 3356TIP3   OH210073   4.138   0.809   3.229  0.2812  0.2412  0.5916
 3356TIP3    H110074   4.099   0.883   3.276 -2.2275 -0.3430 -0.3781
 3356TIP3    H210075   4.131   0.736   3.291  1.8554  0.5470  1.1827
 3357TIP3   OH210076   4.631   0.389   4.627 -0.3689  0.3658 -0.9925
 3357TIP3    H110077   4.618   0.482   4.648 -1.3019  0.1792 -0.6944
 3357TIP3    H210078   4.584   0.342   4.696  1.2652 -0.3747 -0.3349
 3358TIP3   OH210079   3.832   2.407   1.808  0.5892  0.2040  0.1515
 3358TIP3    H110080   3.772   2.452   1.868 -0.8531 -0.1037 -1.0206
 3358TIP3    H210081   3.887   2.353   1.865 -0.2898  0.4422  1.2510
 3359TIP3   OH210082   2.332   1.825   3.452  0.5789 -0.8319  0.2586
 3359TIP3    H110083   2.364   1.793   3.369  2.3300 -2.1798  1.3943
 3359TIP3    H210084   2.405   1.814   3.513 -1.1976 -1.6231  2.4020
 3360TIP3   OH210085   5.612   2.000   0.277 -0.0140 -0.4652 -0.1934
 3360TIP3    H110086   5.604   1.910   0.308 -0.4392  0.3298  2.1348
 3360TIP3    H210087   5.536   2.045   0.312  1.9297  1.5959  1.7168
 3361TIP3   OH210088   5.521   3.810   0.924  0.1967 -0.5944  0.6921
 3361TIP3    H110089   5.454   3.878   0.915  0.8877  0.5922  3.6076
 3361TIP3    H210090   5.600   3.849   0.886 -0.4601 -1.8191 -2.3053
 3362TIP3   OH210091   5.555   4.653   4.322  0.4777  0.0978  0.3672
 3362TIP3    H110092   5.582   4.575   4.273  0.0046  0.5381 -0.6107
 3362TIP3    H210093   5.610   4.723   4.289  0.1435  0.4070  0.4632
 3363TIP3   OH210094   0.478   0.758   4.697  0.2755 -0.1576 -0.2756
 3363TIP3    H110095   0.482   0.702   4.774 -0.6037 -0.1212 -0.1907
 3363TIP3    H210096   0.541   0.719   4.636 -0.1207 -1.0906 -0.1122
 3364TIP3   OH210097   3.639   4.323   5.007  0.2712 -0.4093  0.2247
 3364TIP3    H110098   3.674   4.393   5.063  0.7163  0.8875 -1.5557
 3364TIP3    H210099   3.717   4.286   4.964  0.0065 -1.8265  0.9191
 3365TIP3   OH210100   3.883   1.649   1.638 -0.2912 -0.4745 -0.9343
 3365TIP3    H110101   3.871   1.574   1.696 -2.1651  0.5880  0.1320
 3365TIP3    H210102   3.809   1.644   1.577 -1.3354  1.3126  0.1145
 3366TIP3   OH210103   5.837   5.273   1.714 -0.0906  0.0915 -0.0245
 3366TIP3    H110104   5.862   5.361   1.741  2.6486 -1.0304  1.5936
 3366TIP3    H210105   5.814   5.229   1.796  0.9243 -1.3240 -0.4640
 3367TIP3   OH210106   3.455   4.163   0.982 -0.0406 -0.3228  0.2497
 3367TIP3    H110107   3.451   4.251   1.021  0.3583 -0.5711  0.8741
 3367TIP3    H210108   3.392   4.112   1.033  0.7468 -0.7407  0.8260
 3368TIP3   OH210109   4.485   2.490   1.789  0.3696 -0.0857  0.4803
 3368TIP3    H110110   4.464   2.494   1.695 -0.3241 -0.9773  0.5836
 3368TIP3    H210111   4.564   2.436   1.794  0.8510  0.5911  0.3586
 3369TIP3   OH210112   3.648   4.115   2.321  0.2303  0.4091  0.0380
 3369TIP3    H110113   3.713   4.185   2.314  0.4837  0.2449  0.6692
 3369TIP3    H210114   3.700   4.034   2.320 -0.0172  0.2515 -0.1031
 3370TIP3   OH210115   2.515   1.592   2.805 -0.2633 -0.4806  0.8551
 3370TIP3    H110116   2.582   1.585   2.873  0.0754 -1.1755  0.4615
 3370TIP3    H210117   2.545   1.533   2.736  1.0907  2.5273 -1.3495
 3371TIP3   OH210118   2.906   3.428   1.225  0.3932 -0.4630 -0.9186
 3371TIP3    H110119   2.953   3.379   1.158  1.5231  0.3216 -0.7263
 3371TIP3    H210120   2.874   3.506   1.181  1.9649  0.5324 -0.3674
 3372TIP3   OH210121   1.824   2.286   3.317 -0.0115 -0.1307 -0.3724
 3372TIP3    H110122   1.832   2.324   3.229 -0.3873 -0.5353 -0.5823
 3372TIP3    H210123   1.730   2.270   3.328 -0.0711  0.6354  0.4106
 3373TIP3   OH210124   6.042   2.839   0.182  0.0195 -0.1439  0.0233
 3373TIP3    H110125   6.033   2.750   0.217 -0.1052  0.0012  0.3564
 3373TIP3    H210126   6.084   2.888   0.252 -0.7116  0.2728  0.1778
 3374TIP3   OH210127   4.194   3.662   4.130 -0.2962 -0.0730 -0.1856
 3374TIP3    H110128   4.215   3.682   4.039 -2.3767  1.4380 -0.4067
 3374TIP3    H210129   4.266   3.699   4.180  1.2655 -1.5812 -1.1817
 3375TIP3   OH210130   5.575   2.112   5.106 -0.5009  0.7316  0.4570
 3375TIP3    H110131   5.583   2.200   5.143  0.1160  0.5953  0.6548
 3375TIP3    H210132   5.664   2.076   5.108 -1.0407 -0.7123  2.3969
 3376TIP3   OH210133   3.901   4.577   3.375  0.1292 -0.4553  0.0270
 3376TIP3    H110134   3.830   4.528   3.417 -0.1125  0.3013  0.5173
 3376TIP3    H210135   3.965   4.510   3.350 -0.7278 -1.1407 -0.3794
 3377TIP3   OH210136   2.769   2.715   0.596 -0.3256 -0.0983 -0.0066
 3377TIP3    H110137   2.774   2.676   0.509 -1.7724 -1.5500  0.5130
 3377TIP3    H210138   2.675   2.719   0.615 -0.0324  0.2757  1.4471
 3378TIP3   OH210139   5.970   1.817   2.151  0.3451 -0.1421  0.5443
 3378TIP3    H110140   5.887   1.825   2.198 -1.0101  0.5701 -1.7622
 3378TIP3    H210141   5.968   1.888   2.086  1.9467 -1.1918 -0.7462
 3379TIP3   OH210142   5.015   4.364   2.672  0.0445 -0.8332 -0.2409
 3379TIP3    H110143   4.920   4.358   2.657  0.2266 -2.9489 -0.9551
 3379TIP3    H210144   5.024   4.367   2.767 -0.7353 -1.2647 -0.1437
 3380TIP3   OH210145   2.094   4.811   4.802 -0.7289 -0.1823  0.1226
 3380TIP3    H110146   2.116   4.871   4.731 -0.6976 -0.3353  0.0018
 3380TIP3    H210147   2.167   4.820   4.864 -1.3325  0.8316  0.7145
 3381TIP3   OH210148   3.391   2.735   0.156  0.0888  0.1413 -0.0105
 3381TIP3    H110149   3.312   2.717   0.207  1.2638  0.2097  1.8973
 3381TIP3    H210150   3.370   2.815   0.107  0.0469  2.1405  3.0159
 3382TIP3   OH210151   6.163   2.135   3.376 -0.1914  0.4222  0.0204
 3382TIP3    H110152   6.155   2.173   3.464 -0.8179 -0.8247  0.5200
 3382TIP3    H210153   6.247   2.089   3.378 -0.2717  0.2759  0.0155
 3383TIP3   OH210154   2.110   1.994   3.453 -0.0586 -0.1489  0.2111
 3383TIP3    H110155   2.184   1.934   3.442  0.2372  0.2132  0.1858
 3383TIP3    H210156   2.150   2.075   3.483 -0.3162  0.4101 -0.9046
 3384TIP3   OH210157   3.637   0.122   5.018  0.6738 -0.0202  0.0603
 3384TIP3    H110158   3.691   0.201   5.018 -2.8368  2.5628  0.8203
 3384TIP3    H210159   3.628   0.098   5.110 -0.6443  0.5042  0.0893
 3385TIP3   OH210160   3.672   0.575   5.011 -0.4246  0.3221 -0.0670
 3385TIP3    H110161   3.627   0.660   5.017  0.2500  0.6786  0.0585
 3385TIP3    H210162   3.756   0.590   5.055 -0.0739 -0.2633 -0.5358
 3386TIP3   OH210163   5.352   2.157   4.815 -0.1202  0.2391  0.2474
 3386TIP3    H110164   5.375   2.170   4.724  2.4967 -2.0322  0.4413
 3386TIP3    H210165   5.258   2.138   4.814 -0.0518 -0.2207 -2.0269
 3387TIP3   OH210166   2.564   1.398   0.613  0.5546 -0.0237  0.0508
 3387TIP3    H110167   2.597   1.312   0.638 -1.0002 -1.0132 -1.0792
 3387TIP3    H210168   2.506   1.380   0.539 -1.5505  1.7181  1.1747
 3388TIP3   OH210169   2.714   2.888   2.279 -0.2404  0.0871 -0.4669
 3388TIP3    H110170   2.663   2.808   2.294  1.1011 -0.7934 -0.3265
 3388TIP3    H210171   2.789   2.858   2.227 -0.6841  1.6233 -2.1056
 3389TIP3   OH210172   2.782   1.054   3.308 -0.6887 -0.4889 -0.6955
 3389TIP3    H110173   2.747   1.115   3.372  0.5005 -0.4357 -0.0679
 3389TIP3    H210174   2.710   1.040   3.246 -1.1988  1.0235 -0.4868
 3390TIP3   OH210175   2.173   1.184   2.407  0.3381 -0.2739  0.2757
 3390TIP3    H110176   2.183   1.198   2.313  0.4376 -1.7602  0.0438
 3390TIP3    H210177   2.111   1.251   2.435  0.3552  0.2201 -0.8325
 3391TIP3   OH210178   0.975   0.712   4.197 -0.4705 -0.8687 -0.3299
 3391TIP3    H110179   1.043   0.645   4.199  0.2230 -0.1602  0.7622
 3391TIP3    H210180   1.012   0.783   4.146 -0.0947 -0.1990  0.8427
 3392TIP3   OH210181   2.372   3.404   3.705 -0.4124 -0.6444 -0.0835
 3392TIP3    H110182   2.362   3.329   3.764 -1.5734 -0.6115 -0.2063
 3392TIP3    H210183   2.343   3.479   3.757 -0.7416 -0.5126 -0.4479
 3393TIP3   OH210184   2.098   0.738   0.906 -0.0876 -0.7671  0.3835
 3393TIP3    H110185   2.096   0.803   0.976 -0.6728 -2.8670  2.4606
 3393TIP3    H210186   2.159   0.671   0.937  1.0460 -0.9509 -1.9897
 3394TIP3   OH210187   5.736   4.273   4.429 -0.3554  0.0917  0.0602
 3394TIP3    H110188   5.775   4.324   4.358 -0.5179 -0.5826 -0.5223
 3394TIP3    H210189   5.811   4.238   4.477 -0.2150 -1.0211 -0.9277
 3395TIP3   OH210190   6.165   3.443   0.085 -0.3051 -0.2763  0.2511
 3395TIP3    H110191   6.165   3.498   0.163 -0.7844  0.2168 -0.0952
 3395TIP3    H210192   6.239   3.384   0.098  1.2871  1.5527 -0.1547
 3396TIP3   OH210193   0.606   4.178   1.828 -0.1306 -0.3477 -0.5499
 3396TIP3    H110194   0.523   4.189   1.783 -1.7593 -2.5078  1.6680
 3396TIP3    H210195   0.612   4.255   1.886  0.1019  0.4468 -1.5895
 3397TIP3   OH210196   6.146   4.329   1.539  0.2428 -0.3186  0.4609
 3397TIP3    H110197   6.124   4.411   1.583  0.4070 -0.0013 -0.0458
 3397TIP3    H210198   6.147   4.264   1.610 -0.2746  0.0359  0.8042
 3398TIP3   OH210199   1.480   3.134   2.354  0.2285 -0.3758 -1.0704
 3398TIP3    H110200   1.506   3.209   2.300 -0.5028  1.8895  1.5066
 3398TIP3    H210201   1.549   3.126   2.419 -0.6663 -0.6522 -0.1229
 3399TIP3   OH210202   2.509   4.932   0.630  0.5080 -0.0961 -0.2557
 3399TIP3    H110203   2.578   4.891   0.578  0.1247  0.2953 -1.0945
 3399TIP3    H210204   2.444   4.862   0.643 -0.9994  0.5804 -3.1881
 3400TIP3   OH210205   6.015   0.247   4.398  0.7198  0.7715 -0.2415
 3400TIP3    H110206   6.021   0.155   4.423  1.2596  0.7031 -0.6003
 3400TIP3    H210207   5.940   0.280   4.446  0.1616 -0.0009 -0.5665
 3401TIP3   OH210208   3.417   5.336   0.885  0.6456 -0.0669 -0.1856
 3401TIP3    H110209   3.406   5.248   0.922  0.7084 -0.6035 -1.4085
 3401TIP3    H210210   3.494   5.370   0.929  2.4691 -1.8160 -1.8470
 3402TIP3   OH210211   3.817   3.471   5.118 -0.3235 -0.3394  0.2463
 3402TIP3    H110212   3.796   3.475   5.211  1.1330 -0.0571  0.5923
 3402TIP3    H210213   3.909   3.445   5.116 -0.4559 -0.7513 -1.1307
 3403TIP3   OH210214   0.770   3.623   3.953  0.3823  0.1618  0.5119
 3403TIP3    H110215   0.846   3.571   3.925 -1.3477 -1.3040 -1.8081
 3403TIP3    H210216   0.750   3.679   3.879 -0.8072  0.5381  1.0864
 3404TIP3   OH210217   3.444   4.305   1.842 -0.1126 -0.0796  0.4813
 3404TIP3    H110218   3.430   4.365   1.769  1.6968 -1.5586 -1.1883
 3404TIP3    H210219   3.539   4.304   1.854 -0.3324 -0.2676  2.5633
 3405TIP3   OH210220   0.127   3.983   0.255 -0.3097  0.0564  0.4628
 3405TIP3    H110221   0.198   3.966   0.318  1.2793  1.7818 -0.7378
 3405TIP3    H210222   0.085   4.062   0.289 -2.3851 -1.4750  1.6837
 3406TIP3   OH210223   4.032   1.760   2.565  0.0225  0.2392  0.3646
 3406TIP3    H110224   4.045   1.736   2.473  2.3135  0.4527  0.5646
 3406TIP3    H210225   4.024   1.677   2.611  1.4183  0.0068  0.2435
 3407TIP3   OH210226   5.237   0.582   1.424 -0.9082  0.5051  0.0329
 3407TIP3    H110227   5.272   0.555   1.509 -0.4843 -1.3689 -0.6829
 3407TIP3    H210228   5.150   0.542   1.420 -0.6261 -0.0536 -0.7018
 3408TIP3   OH210229   0.200   2.927   2.318  0.4469  0.3551 -0.2445
 3408TIP3    H110230   0.268   2.982   2.357  0.2161 -0.0742  0.8085
 3408TIP3    H210231   0.125   2.985   2.308  0.8446  0.7390 -1.0736
 3409TIP3   OH210232   4.067   1.916   2.039  0.1492  0.3746  0.8353
 3409TIP3    H110233   4.034   1.852   1.976 -2.0939  1.3512  0.8963
 3409TIP3    H210234   4.003   1.914   2.111  1.4224  0.8866  2.0339
 3410TIP3   OH210235   0.225   2.527   1.973 -0.0574 -0.1024 -0.0073
 3410TIP3    H110236   0.191   2.451   1.925 -1.6959 -1.0083  2.4127
 3410TIP3    H210237   0.188   2.519   2.061  1.4615  2.3708  0.9688
 3411TIP3   OH210238   5.359   4.057   0.147  0.1533  0.2262  0.2974
 3411TIP3    H110239   5.270   4.040   0.178  0.7655 -0.6391  1.6817
 3411TIP3    H210240   5.369   4.152   0.154 -0.9802  0.4660 -0.8661
 3412TIP3   OH210241   1.338   4.070   4.676  0.3169  0.1653 -0.1317
 3412TIP3    H110242   1.324   3.976   4.668  0.6336  0.1197 -0.1744
 3412TIP3    H210243   1.383   4.095   4.596 -0.2826  0.4591 -0.3839
 3413TIP3   OH210244   0.532   1.575   0.764  0.1429  0.7226  0.7621
 3413TIP3    H110245   0.494   1.628   0.694  0.4042 -0.5644 -0.4072
 3413TIP3    H210246   0.557   1.493   0.721  1.2186  0.2658  2.1756
 3414TIP3   OH210247   0.152   3.471   1.177 -0.1907  0.2964  0.3593
 3414TIP3    H110248   0.243   3.477   1.150  0.0548  0.6451  1.2391
 3414TIP3    H210249   0.133   3.556   1.218 -0.8632  0.1757  0.3165
 3415TIP3   OH210250   3.935   0.629   5.109 -0.5507 -0.4513  0.2028
 3415TIP3    H110251   3.971   0.553   5.156  0.2164 -0.5942 -0.5901
 3415TIP3    H210252   3.976   0.704   5.151 -0.1239 -0.5599 -0.0172
 3416TIP3   OH210253   1.882   2.204   1.193 -0.7128  0.3648  0.1061
 3416TIP3    H110254   1.930   2.284   1.171  0.0318  0.0540  0.5591
 3416TIP3    H210255   1.879   2.154   1.112 -0.8226  0.6724 -0.0803
 3417TIP3   OH210256   3.993   3.764   3.298  0.0494  0.1687 -0.1231
 3417TIP3    H110257   4.046   3.722   3.230 -0.1379  0.1796 -0.2783
 3417TIP3    H210258   3.929   3.816   3.249  2.0691  2.9961  0.0314
 3418TIP3   OH210259   5.102   3.581   5.197  0.4175  0.2502  0.1736
 3418TIP3    H110260   5.108   3.672   5.169  3.9829 -0.6174 -2.7737
 3418TIP3    H210261   5.052   3.538   5.128  2.2058 -0.5740 -0.6907
 3419TIP3   OH210262   5.234   0.508   0.954  0.4151  0.0811 -0.3716
 3419TIP3    H110263   5.321   0.504   0.913  0.4010 -0.9798 -0.3220
 3419TIP3    H210264   5.237   0.440   1.021 -0.5909 -0.2218 -0.6301
 3420TIP3   OH210265   4.936   0.922   4.334 -0.2782 -0.4295 -0.0408
 3420TIP3    H110266   4.887   0.951   4.257 -0.4268 -0.4523  0.0440
 3420TIP3    H210267   4.911   0.830   4.345  0.6537 -0.7705 -0.6691
 3421TIP3   OH210268   2.137   1.777   4.655 -0.2188 -0.5432  0.4238
 3421TIP3    H110269   2.213   1.763   4.599 -0.0320 -1.2023  0.8250
 3421TIP3    H210270   2.147   1.712   4.725 -0.2662  0.4884  1.4034
 3422TIP3   OH210271   3.109   2.355   1.097 -0.1296 -0.5224 -0.4820
 3422TIP3    H110272   3.109   2.314   1.184 -2.8663 -1.4305 -0.8191
 3422TIP3    H210273   3.183   2.314   1.051  0.0181 -1.6573  0.7012
 3423TIP3   OH210274   3.524   0.739   1.485 -0.2252  0.4368 -0.1329
 3423TIP3    H110275   3.450   0.783   1.528 -0.3594  0.1888 -0.1061
 3423TIP3    H210276   3.597   0.749   1.546 -0.4697 -0.1015  0.2586
 3424TIP3   OH210277   1.136   4.957   4.063  0.0587 -0.1657 -0.2041
 3424TIP3    H110278   1.205   5.009   4.023  0.5979  0.4769  1.4569
 3424TIP3    H210279   1.147   4.869   4.027  1.1304  0.1559 -0.6884
 3425TIP3   OH210280   5.956   3.643   3.513 -0.3657 -0.5040 -0.6696
 3425TIP3    H110281   5.965   3.603   3.427  1.8190  1.0156 -1.2335
 3425TIP3    H210282   6.040   3.627   3.557 -0.7506  0.3470  0.4509
 3426TIP3   OH210283   5.463   0.030   2.179 -0.0585 -0.1509 -0.1645
 3426TIP3    H110284   5.432   0.047   2.268  1.4003 -0.3406  0.4003
 3426TIP3    H210285   5.536  -0.031   2.190 -1.0277 -1.6882 -1.6455
 3427TIP3   OH210286   4.332   3.149   2.111 -0.2681  0.0598  0.1234
 3427TIP3    H110287   4.376   3.063   2.114  1.7995  1.0484  0.0180
 3427TIP3    H210288   4.395   3.209   2.150 -0.8597  1.8491 -1.5314
 3428TIP3   OH210289   0.552   0.631   1.784 -0.1305  0.0869  0.2074
 3428TIP3    H110290   0.638   0.605   1.753  0.2839  1.7628 -0.1287
 3428TIP3    H210291   0.500   0.642   1.704 -0.3840 -0.0182  0.3568
 3429TIP3   OH210292   5.474   1.797   4.275  0.0770  0.0109 -0.3195
 3429TIP3    H110293   5.541   1.805   4.208 -0.5867 -1.3439 -1.1855
 3429TIP3    H210294   5.498   1.863   4.341  0.7633  1.3393 -1.8431
 3430TIP3   OH210295   1.624   5.481   4.590  0.3307 -0.2060 -0.0235
 3430TIP3    H110296   1.535   5.450   4.574 -0.6816  2.1177  0.6293
 3430TIP3    H210297   1.670   5.463   4.508 -1.3644  0.4759 -1.1988
 3431TIP3   OH210298   0.185   4.322   0.148 -0.0188  0.1615  0.4520
 3431TIP3    H110299   0.155   4.309   0.058  0.4326  1.0817  0.1513
 3431TIP3    H210300   0.250   4.253   0.161  0.0234  0.1129  0.0166
 3432TIP3   OH210301   5.674   4.957   0.291  0.9476  0.0451  0.4041
 3432TIP3    H110302   5.641   5.045   0.305 -0.0571 -0.4593  1.4669
 3432TIP3    H210303   5.762   4.969   0.256  0.3363  1.4514 -0.7337
 3433TIP3   OH210304   2.135   5.212   4.273  1.0296  0.3049  0.1420
 3433TIP3    H110305   2.172   5.234   4.187 -0.3300 -2.7311 -1.3741
 3433TIP3    H210306   2.041   5.201   4.256  0.5473  0.7170  2.2950
 3434TIP3   OH210307   5.626   2.708   2.306 -0.3400 -0.1856  0.7703
 3434TIP3    H110308   5.572   2.635   2.334 -0.0145 -0.4256  0.7817
 3434TIP3    H210309   5.716   2.674   2.310 -0.1303  0.4245  1.4367
 3435TIP3   OH210310   6.127   1.893   0.522  0.1958 -0.1855  0.1577
 3435TIP3    H110311   6.213   1.857   0.541 -0.0898 -1.1036 -0.2487
 3435TIP3    H210312   6.112   1.872   0.429 -0.5565 -0.2336  0.2854
 3436TIP3   OH210313   2.344   1.008   5.133  0.1832 -0.0225 -0.5411
 3436TIP3    H110314   2.354   0.966   5.048  0.6697 -0.4326 -0.2802
 3436TIP3    H210315   2.432   1.011   5.170  0.0848  0.7928 -0.3505
 3437TIP3   OH210316   5.483   5.590   2.229 -0.1786  0.5211 -0.0487
 3437TIP3    H110317   5.551   5.606   2.164  0.9756 -1.6473  0.5338
 3437TIP3    H210318   5.465   5.496   2.221 -0.1338  0.2256  2.6134
 3438TIP3   OH210319   5.471   2.574   0.355 -0.3820  0.4221 -0.1060
 3438TIP3    H110320   5.517   2.493   0.332 -2.3239 -0.5574 -0.7832
 3438TIP3    H210321   5.532   2.644   0.331  0.5589 -0.7753 -1.3876
 3439TIP3   OH210322   1.535   5.688   1.201 -0.2698  0.5166  0.3227
 3439TIP3    H110323   1.522   5.780   1.224 -1.8820  0.5900 -0.7526
 3439TIP3    H210324   1.448   5.655   1.180  0.4359 -0.9406 -0.5002
 3440TIP3   OH210325   4.372   2.406   1.299  0.4811  0.1856  0.4666
 3440TIP3    H110326   4.454   2.417   1.251 -0.5613 -0.1891 -1.4959
 3440TIP3    H210327   4.381   2.464   1.375  1.3205  2.6159 -1.3659
 3441TIP3   OH210328   6.245   5.011   3.483 -0.2729 -0.3411  0.4541
 3441TIP3    H110329   6.192   5.056   3.418  2.3117 -0.3244 -1.8468
 3441TIP3    H210330   6.274   5.080   3.542 -1.6814 -0.1529  0.9636
 3442TIP3   OH210331   5.541   5.589   0.645 -0.7816 -0.1249  0.4054
 3442TIP3    H110332   5.537   5.635   0.562 -2.1858 -1.4460 -0.3234
 3442TIP3    H210333   5.609   5.523   0.632 -1.3199 -0.6336  0.1159
 3443TIP3   OH210334   1.670   1.399   1.347 -0.1011 -0.0565  0.2440
 3443TIP3    H110335   1.637   1.316   1.315  2.1487 -1.0652  0.3243
 3443TIP3    H210336   1.762   1.401   1.319  0.0199  2.2257  0.5894
 3444TIP3   OH210337   3.130   0.274   4.013 -0.3984  0.6838  0.1669
 3444TIP3    H110338   3.161   0.183   4.020  2.0628  1.4473  0.1417
 3444TIP3    H210339   3.097   0.294   4.101 -0.6656 -0.1303  0.2607
 3445TIP3   OH210340   0.033   0.942   4.577 -0.5945 -0.0866 -0.0305
 3445TIP3    H110341   0.096   0.874   4.603  0.4227  1.2351  1.1347
 3445TIP3    H210342   0.032   0.937   4.482  0.9783 -0.4489 -0.0701
 3446TIP3   OH210343   0.219   1.943   3.049  0.7116  0.2600 -0.4184
 3446TIP3    H110344   0.147   1.883   3.031  0.4761 -0.4934  2.4801
 3446TIP3    H210345   0.182   2.030   3.032 -0.1232 -0.2289 -1.1748
 3447TIP3   OH210346   5.872   5.521   0.458  0.2669  0.6447  0.1440
 3447TIP3    H110347   5.964   5.545   0.441  0.3811  0.1858  0.1053
 3447TIP3    H210348   5.822   5.570   0.392  0.3952  1.6388  0.7687
 3448TIP3   OH210349   0.905   1.046   0.885  0.3782  0.1362 -0.3165
 3448TIP3    H110350   0.824   1.032   0.836  1.0431 -0.1515 -1.3780
 3448TIP3    H210351   0.949   0.961   0.882  0.4573  0.1219  0.7719
 3449TIP3   OH210352   0.346   4.291   2.740  0.0610 -0.4360 -0.5588
 3449TIP3    H110353   0.292   4.241   2.678 -0.4352  0.4415 -0.8427
 3449TIP3    H210354   0.348   4.380   2.705  0.3939 -0.0957  0.2882
 3450TIP3   OH210355   1.455   0.801   4.657  0.1690  0.1110 -0.3932
 3450TIP3    H110356   1.487   0.848   4.735 -0.0962  1.1146 -0.8762
 3450TIP3    H210357   1.368   0.837   4.641 -0.1941 -0.8247 -0.5608
 3451TIP3   OH210358   5.348   5.132   1.801 -0.2948 -0.5475 -0.3185
 3451TIP3    H110359   5.383   5.045   1.782  0.6306 -0.3645  0.4329
 3451TIP3    H210360   5.397   5.191   1.744 -0.0495 -0.3913  0.0498
 3452TIP3   OH210361   2.513   2.846   1.421 -0.0330 -0.1602  0.1020
 3452TIP3    H110362   2.505   2.847   1.516  0.4403 -0.8424  0.1515
 3452TIP3    H210363   2.589   2.901   1.403  0.6106 -1.0202  0.1938
 3453TIP3   OH210364   0.420   3.112   2.442  0.0984  0.1533 -0.1230
 3453TIP3    H110365   0.392   3.201   2.423 -2.2950 -0.8074 -1.4298
 3453TIP3    H210366   0.501   3.100   2.392 -0.1083  1.2398 -0.7268
 3454TIP3   OH210367   3.486   0.971   1.701 -0.1453 -0.3078 -0.4401
 3454TIP3    H110368   3.561   1.004   1.750 -2.1403  1.7812  1.4547
 3454TIP3    H210369   3.472   1.035   1.631 -0.1250 -0.7574 -0.8665
 3455TIP3   OH210370   4.076   0.713   0.897 -0.0410  0.0711 -0.1681
 3455TIP3    H110371   4.154   0.730   0.844 -2.1765  1.4126 -3.1852
 3455TIP3    H210372   4.073   0.785   0.960  1.2983 -0.2294  0.2784
 3456TIP3   OH210373   4.219   5.597   4.191 -0.3894 -0.1912  0.6044
 3456TIP3    H110374   4.236   5.550   4.273 -0.9645 -0.1617  0.7407
 3456TIP3    H210375   4.214   5.689   4.217 -0.0997 -0.1340  0.4621
 3457TIP3   OH210376   3.857   0.134   0.288 -0.2356 -0.0477  0.0600
 3457TIP3    H110377   3.951   0.114   0.288 -0.3426 -0.6109 -1.3177
 3457TIP3    H210378   3.825   0.101   0.205 -1.2673  2.0897 -0.4543
 3458TIP3   OH210379   2.711   3.693   1.764  0.0650  0.5493 -0.9063
 3458TIP3    H110380   2.726   3.631   1.835  2.0326  1.4713 -0.4743
 3458TIP3    H210381   2.717   3.780   1.805 -2.3964  1.1054 -1.5406
 3459TIP3   OH210382   5.487   0.151   4.801  0.2921  0.4696 -0.1608
 3459TIP3    H110383   5.583   0.148   4.806  0.2064  0.3442  2.2712
 3459TIP3    H210384   5.469   0.214   4.731  2.1579  2.0447  0.6973
 3460TIP3   OH210385   1.862   0.703   1.856 -0.3419  0.7874 -0.1458
 3460TIP3    H110386   1.857   0.675   1.948  1.6144  0.0246 -0.2253
 3460TIP3    H210387   1.895   0.792   1.861 -1.5443  1.2402 -0.0778
 3461TIP3   OH210388   2.684   2.350   4.634  0.4216  0.1618  0.3387
 3461TIP3    H110389   2.706   2.257   4.647  0.8928  0.2382  0.0895
 3461TIP3    H210390   2.690   2.388   4.722  1.1156  0.1426  0.3084
 3462TIP3   OH210391   0.991   1.366   1.766  0.0157 -0.3447  0.1776
 3462TIP3    H110392   1.010   1.394   1.677 -1.2787 -0.8589 -0.2759
 3462TIP3    H210393   1.070   1.390   1.815  1.0757 -0.7444 -1.2409
 3463TIP3   OH210394   5.675   5.191   0.437  0.2449  0.2563 -0.6360
 3463TIP3    H110395   5.758   5.155   0.466  0.2502  0.9723  0.2890
 3463TIP3    H210396   5.652   5.256   0.503  0.1007  1.7582 -2.0937
 3464TIP3   OH210397   2.335   2.634   3.185  0.3205 -0.2771 -0.3075
 3464TIP3    H110398   2.347   2.639   3.280  1.1557  1.3009 -0.4708
 3464TIP3    H210399   2.350   2.723   3.154  1.2961 -0.9959 -2.0523
 3465TIP3   OH210400   4.879   5.312   3.490 -0.2879 -0.4256  0.0626
 3465TIP3    H110401   4.827   5.337   3.414 -0.3095  0.5913  0.4085
 3465TIP3    H210402   4.897   5.219   3.476 -0.3549 -0.2741 -1.1473
 3466TIP3   OH210403   4.479   0.126   3.523  0.1856 -0.2230  0.1820
 3466TIP3    H110404   4.461   0.187   3.451  0.3572  1.6890  1.6728
 3466TIP3    H210405   4.394   0.114   3.565  0.3783 -0.0278  0.6298
 3467TIP3   OH210406   2.621   5.599   2.079 -0.0755  0.2740  0.4684
 3467TIP3    H110407   2.613   5.694   2.071 -0.8973  0.2412  0.8558
 3467TIP3    H210408   2.590   5.580   2.168 -1.2523 -0.5072 -0.0912
 3468TIP3   OH210409   3.892   3.695   4.031  0.6009 -0.2144 -0.0604
 3468TIP3    H110410   3.858   3.606   4.039 -0.3324  0.0365 -1.1422
 3468TIP3    H210411   3.986   3.683   4.017  0.5740 -1.0033  0.3846
 3469TIP3   OH210412   5.262   2.457   1.604 -0.4788  0.2686 -0.1221
 3469TIP3    H110413   5.235   2.542   1.568 -0.1929  0.7700  0.7909
 3469TIP3    H210414   5.189   2.399   1.586 -0.7087  0.7249 -0.7096
 3470TIP3   OH210415   1.344   4.229   5.107 -0.1022 -0.0782 -0.4595
 3470TIP3    H110416   1.369   4.220   5.199  1.4344  1.0927 -0.7234
 3470TIP3    H210417   1.263   4.281   5.109  1.5160  2.5821  0.1630
 3471TIP3   OH210418   2.724   4.780   0.894 -0.1526  0.2900  0.3243
 3471TIP3    H110419   2.708   4.686   0.883  2.4453 -0.3249  1.0935
 3471TIP3    H210420   2.637   4.820   0.886 -1.2720 -2.0985 -0.5358
 3472TIP3   OH210421   4.748   0.827   0.679  0.1533  0.3247  0.0751
 3472TIP3    H110422   4.798   0.775   0.742  1.1388  2.6079  1.2957
 3472TIP3    H210423   4.808   0.897   0.653 -0.9199  0.5864 -1.9212
 3473TIP3   OH210424   0.482   0.632   2.075 -0.4476 -0.3263  0.0529
 3473TIP3    H110425   0.509   0.620   1.984  0.2314 -2.4384  0.4786
 3473TIP3    H210426   0.492   0.726   2.091 -1.0251  0.1577 -2.1650
 3474TIP3   OH210427   4.069   1.199   2.708  0.3950 -0.1497  0.0207
 3474TIP3    H110428   4.024   1.210   2.792 -0.1885 -1.1510 -0.1449
 3474TIP3    H210429   4.005   1.153   2.653  0.6222  0.8147 -1.1051
 3475TIP3   OH210430   5.456   4.180   2.838  0.3319 -0.2739 -0.0036
 3475TIP3    H110431   5.467   4.253   2.899  1.5303  0.5125 -1.1103
 3475TIP3    H210432   5.493   4.104   2.884 -0.9115 -0.2139  1.1469
 3476TIP3   OH210433   1.845   1.891   1.296  0.1942 -0.0165  0.0995
 3476TIP3    H110434   1.907   1.919   1.228  0.8019  0.1988  0.7341
 3476TIP3    H210435   1.895   1.832   1.352 -0.5564 -0.9012 -0.1395
 3477TIP3   OH210436   1.015   2.361   0.854  0.1278  1.2734  0.0328
 3477TIP3    H110437   1.053   2.441   0.890  2.0098  0.5821 -0.3085
 3477TIP3    H210438   1.025   2.296   0.923  0.6784  0.7876 -0.4881
 3478TIP3   OH210439   1.796   5.908   2.410  0.1665  0.4463  0.2467
 3478TIP3    H110440   1.807   6.002   2.393 -0.0350  0.2317 -1.2482
 3478TIP3    H210441   1.881   5.870   2.384  0.2718  0.2164  0.9139
 3479TIP3   OH210442   3.019   3.241   0.539 -0.3189 -0.2424 -0.6546
 3479TIP3    H110443   3.069   3.167   0.504 -1.3418 -0.3415 -1.9868
 3479TIP3    H210444   2.927   3.212   0.537 -0.6369  0.6591 -0.1289
 3480TIP3   OH210445   4.146   2.063   0.232  0.7087 -0.2601  0.1344
 3480TIP3    H110446   4.227   2.014   0.245 -0.8387 -2.5360  2.1514
 3480TIP3    H210447   4.106   2.066   0.319 -0.8676  1.7918 -0.5793
 3481TIP3   OH210448   0.804   1.038   1.190 -0.5652 -0.0835  0.0647
 3481TIP3    H110449   0.792   1.061   1.098 -2.8369  0.9584  0.5558
 3481TIP3    H210450   0.733   1.084   1.235 -0.6013 -2.0240  2.1056
 3482TIP3   OH210451   3.669   5.621   4.950  0.1639  0.9134 -0.1429
 3482TIP3    H110452   3.642   5.700   4.998 -0.4193 -1.6187  4.2441
 3482TIP3    H210453   3.588   5.589   4.909 -0.3926  0.7896  1.0265
 3483TIP3   OH210454   4.742   0.822   1.642  0.2092  0.1927 -0.0600
 3483TIP3    H110455   4.655   0.861   1.652 -0.8355 -1.4566 -2.0274
 3483TIP3    H210456   4.790   0.886   1.589 -0.2420  0.4987 -0.1086
 3484TIP3   OH210457   3.030   5.767   4.358  0.2114  0.4293  0.1534
 3484TIP3    H110458   2.956   5.735   4.409 -0.6255 -0.1882 -1.3962
 3484TIP3    H210459   3.081   5.688   4.338  1.7681  0.9150  1.8288
 3485TIP3   OH210460   2.177   3.825   1.121  0.0074  0.5188 -0.0354
 3485TIP3    H110461   2.087   3.854   1.115 -0.0696  0.1001 -1.1838
 3485TIP3    H210462   2.222   3.870   1.049  0.8248  1.0824  0.8046
 3486TIP3   OH210463   5.403   3.615   4.386  0.0112  0.0284  0.3365
 3486TIP3    H110464   5.439   3.577   4.466 -0.0074 -1.6314 -0.4006
 3486TIP3    H210465   5.478   3.655   4.342  0.7120 -1.9727 -0.3928
 3487TIP3   OH210466   3.485   3.499   4.129  0.0729  0.1266 -0.0254
 3487TIP3    H110467   3.413   3.443   4.099  0.3545 -0.7848  0.9633
 3487TIP3    H210468   3.564   3.456   4.097  0.4420 -1.2966  2.5290
 3488TIP3   OH210469   0.758   1.399   1.131  0.5366  0.0698 -0.2528
 3488TIP3    H110470   0.850   1.419   1.151  0.0989  1.7465  0.2435
 3488TIP3    H210471   0.749   1.416   1.037  0.6854  0.0314 -0.2744
 3489TIP3   OH210472   0.074   5.786   0.367  0.4892 -0.4106  0.6957
 3489TIP3    H110473   0.012   5.855   0.393  1.2334  0.3165  0.5698
 3489TIP3    H210474   0.116   5.760   0.449  1.1622  0.2377  0.5675
 3490TIP3   OH210475   6.253   1.138   2.023 -0.5716 -0.2665 -0.3734
 3490TIP3    H110476   6.214   1.051   2.013 -1.2836  0.0107 -0.0714
 3490TIP3    H210477   6.340   1.120   2.060 -0.6214 -0.8622 -0.5259
 3491TIP3   OH210478   5.558   1.903   4.903  0.3817  0.0735  0.0871
 3491TIP3    H110479   5.537   1.983   4.950  0.1879 -0.1660  0.4082
 3491TIP3    H210480   5.633   1.866   4.950  0.5828  0.1518 -0.1643
 3492TIP3   OH210481   2.463   1.682   0.508  0.3530  0.1680 -0.5937
 3492TIP3    H110482   2.540   1.734   0.484  1.0307  0.0834  1.2474
 3492TIP3    H210483   2.497   1.593   0.519  0.2278  0.2913  1.1055
 3493TIP3   OH210484   3.081   2.179   2.869 -0.0590 -0.0873  0.1678
 3493TIP3    H110485   3.177   2.174   2.865 -0.0781  0.2798 -1.3163
 3493TIP3    H210486   3.051   2.093   2.839 -0.1957  0.1115 -0.2705
 3494TIP3   OH210487   1.250   3.914   1.902 -0.7769  0.5307 -0.5275
 3494TIP3    H110488   1.183   3.886   1.840 -0.6215  1.2605 -1.0370
 3494TIP3    H210489   1.241   4.010   1.905  1.7328  0.9087 -2.3583
 3495TIP3   OH210490   3.153   1.470   4.211  0.8765 -0.1730  0.6396
 3495TIP3    H110491   3.238   1.446   4.173  0.9435  1.1469 -0.0898
 3495TIP3    H210492   3.111   1.386   4.230  1.4238 -0.8778 -1.0705
 3496TIP3   OH210493   2.266   4.186   2.972  0.4193  0.0789 -0.2511
 3496TIP3    H110494   2.187   4.207   2.922  0.9869  0.4710 -0.9926
 3496TIP3    H210495   2.294   4.101   2.938  0.3777 -0.0128 -0.0593
 3497TIP3   OH210496   3.732   2.136   3.106 -0.0395 -0.0982  0.2662
 3497TIP3    H110497   3.823   2.110   3.097 -0.0295 -0.4989  1.4080
 3497TIP3    H210498   3.735   2.226   3.138 -0.0570  0.1139 -0.3153
 3498TIP3   OH210499   3.074   4.438   2.902  0.1224 -0.3677  0.2842
 3498TIP3    H110500   2.997   4.436   2.958  0.8498 -1.1178  1.2972
 3498TIP3    H210501   3.123   4.358   2.925  2.4519  1.2927  1.5051
 3499TIP3   OH210502   0.187   1.849   0.393 -0.0372  0.6579  0.1539
 3499TIP3    H110503   0.270   1.811   0.422 -0.5769 -0.1748  0.6717
 3499TIP3    H210504   0.204   1.943   0.388  1.4268  0.3440 -1.4672
 3500TIP3   OH210505   0.814   2.220   1.332 -0.0143  0.2061  0.4433
 3500TIP3    H110506   0.842   2.296   1.281  1.5348 -0.9093 -0.4516
 3500TIP3    H210507   0.772   2.257   1.410  1.0998  1.9825  0.2448
 3501TIP3   OH210508   5.280   1.656   0.538  0.2721  0.2203 -0.4137
 3501TIP3    H110509   5.201   1.689   0.582  0.5877 -0.2977  0.5782
 3501TIP3    H210510   5.248   1.623   0.454  0.0004  3.3842 -1.6883
 3502TIP3   OH210511   0.570   4.041   4.231 -0.0410  0.3483  0.6086
 3502TIP3    H110512   0.524   4.025   4.148 -0.7029  2.0692  0.6089
 3502TIP3    H210513   0.655   4.077   4.206  0.3164 -0.4330  0.6666
 3503TIP3   OH210514   4.678   3.543   2.035 -0.2451 -0.2793  0.5004
 3503TIP3    H110515   4.742   3.543   1.964 -0.4723 -1.4625  0.2713
 3503TIP3    H210516   4.680   3.632   2.069 -0.2357  0.3515 -1.0767
 3504TIP3   OH210517   5.932   2.985   2.471 -0.0111 -0.1136 -0.5031
 3504TIP3    H110518   5.844   3.011   2.446  0.3589  1.1736 -0.5451
 3504TIP3    H210519   5.931   2.982   2.566  0.2412  1.2679 -0.4361
 3505TIP3   OH210520   5.145   1.130   2.352  0.4253  0.1950 -0.1120
 3505TIP3    H110521   5.213   1.196   2.366  0.4593  0.1534 -0.0836
 3505TIP3    H210522   5.174   1.081   2.275 -1.0336  2.1003 -1.9885
 3506TIP3   OH210523   5.946   2.264   1.393  0.3969  0.4570 -0.2316
 3506TIP3    H110524   5.939   2.171   1.371  2.1937 -0.0522  1.1363
 3506TIP3    H210525   5.970   2.306   1.311  1.4694 -0.5711 -0.4684
 3507TIP3   OH210526   4.563   2.950   3.302  0.0706  0.7200 -0.6489
 3507TIP3    H110527   4.546   2.897   3.380  1.1181  0.0481 -0.8501
 3507TIP3    H210528   4.506   2.912   3.235  0.7748 -0.1513 -0.7777
 3508TIP3   OH210529   5.355   3.593   4.869  0.1878 -0.0557  0.1223
 3508TIP3    H110530   5.420   3.620   4.934 -0.3062  0.1619  0.5259
 3508TIP3    H210531   5.296   3.535   4.916 -1.2006  1.4829  0.3387
 3509TIP3   OH210532   5.354   4.492   1.287  0.2502 -0.2506 -0.7659
 3509TIP3    H110533   5.377   4.557   1.220 -1.7234  2.1363  0.7006
 3509TIP3    H210534   5.429   4.492   1.347  1.2711 -1.1177 -1.9992
 3510TIP3   OH210535   0.016   4.179   0.395  0.4794  0.0892 -0.2019
 3510TIP3    H110536  -0.032   4.212   0.319  2.0707  0.0744 -1.2623
 3510TIP3    H210537   0.017   4.252   0.457 -0.2967  0.3134 -0.4427
 3511TIP3   OH210538   5.150   5.032   3.505  0.0754 -0.0628 -0.4194
 3511TIP3    H110539   5.060   5.036   3.470  0.1759  0.1484 -0.6517
 3511TIP3    H210540   5.149   5.089   3.581 -0.3051 -0.9856  0.2924
 3512TIP3   OH210541   4.792   2.435   0.310 -0.0413 -0.4569  0.0428
 3512TIP3    H110542   4.819   2.366   0.370 -0.7334 -0.6806  0.0976
 3512TIP3    H210543   4.858   2.504   0.323 -1.0844  0.2054  2.3015
 3513TIP3   OH210544   0.330   1.658   4.266 -0.1961 -0.3177 -0.0812
 3513TIP3    H110545   0.256   1.717   4.259 -0.3357 -0.4570  0.2404
 3513TIP3    H210546   0.299   1.575   4.229 -0.3689 -0.5325  0.5496
 3514TIP3   OH210547   6.118   5.071   4.321 -0.0872  0.1123 -0.2879
 3514TIP3    H110548   6.043   5.120   4.355  1.0763  0.4781  2.0230
 3514TIP3    H210549   6.082   4.988   4.291 -1.7277  1.2723 -1.7273
 3515TIP3   OH210550   1.122   2.859   2.954  0.0601 -0.3316  0.1401
 3515TIP3    H110551   1.121   2.858   3.050 -1.8392 -0.0033  0.1783
 3515TIP3    H210552   1.117   2.952   2.932  0.8353 -0.3914 -0.2839
 3516TIP3   OH210553   1.383   0.362   2.576 -0.6996 -0.9912  0.4781
 3516TIP3    H110554   1.460   0.417   2.569 -1.5324  0.1500 -0.0926
 3516TIP3    H210555   1.353   0.374   2.666 -0.7091 -0.7502  0.4418
 3517TIP3   OH210556   4.585   4.334   5.018  0.0857  0.1968  0.7069
 3517TIP3    H110557   4.541   4.313   4.936 -2.5793  2.8457  1.2688
 3517TIP3    H210558   4.654   4.395   4.993 -1.4909  1.9625  0.4345
 3518TIP3   OH210559   5.891   4.971   4.825  0.0241 -0.1356  0.2014
 3518TIP3    H110560   5.983   4.991   4.843 -0.4111  0.7316  1.6412
 3518TIP3    H210561   5.872   5.017   4.743  0.7085  0.1940  0.2244
 3519TIP3   OH210562   5.461   2.003   0.697 -0.0026  0.3469 -0.5125
 3519TIP3    H110563   5.392   1.956   0.743  0.4385 -0.6472 -0.8452
 3519TIP3    H210564   5.505   1.936   0.644  0.0900  1.2936 -1.6643
 3520TIP3   OH210565   4.041   5.686   2.474  0.0644  0.4919  0.5559
 3520TIP3    H110566   4.082   5.750   2.532 -0.2005 -0.2282  1.5800
 3520TIP3    H210567   3.958   5.665   2.517 -1.0920  1.4170 -1.1307
 3521TIP3   OH210568   1.481   3.158   0.154 -0.4477 -0.1588  0.4884
 3521TIP3    H110569   1.539   3.145   0.079 -0.1884 -1.1779  0.8379
 3521TIP3    H210570   1.396   3.126   0.124 -0.5407  0.1970  0.3692
 3522TIP3   OH210571   4.894   3.045   2.648 -0.3302  0.0112 -0.8102
 3522TIP3    H110572   4.880   2.983   2.576  1.0304 -2.8733  1.2300
 3522TIP3    H210573   4.847   3.008   2.722 -1.4210  2.7282 -0.0144
 3523TIP3   OH210574   0.888   3.011   2.758 -0.2006 -0.2350  0.8268
 3523TIP3    H110575   0.836   3.080   2.798 -0.4854  0.8590 -1.2981
 3523TIP3    H210576   0.853   2.930   2.794 -2.4509  0.5498  0.5236
 3524TIP3   OH210577   2.776   3.825   3.449  0.2256 -0.1653  0.9160
 3524TIP3    H110578   2.792   3.758   3.382 -1.9637 -1.4411  1.5796
 3524TIP3    H210579   2.772   3.907   3.400  0.3593 -0.8496 -0.2900
 3525TIP3   OH210580   3.084   3.805   1.951  0.6225  0.2762  0.2615
 3525TIP3    H110581   3.035   3.795   2.033  0.3674  0.8361  0.1846
 3525TIP3    H210582   3.047   3.883   1.911  1.4037  0.5548  0.0677
 3526TIP3   OH210583   4.349   3.488   2.326  0.3171 -0.1391  0.4838
 3526TIP3    H110584   4.409   3.426   2.368 -0.5750 -0.0544  1.9355
 3526TIP3    H210585   4.374   3.486   2.233  1.8397 -0.9048  0.8764
 3527TIP3   OH210586   3.807   2.236   4.049 -0.0372 -0.3610 -0.2684
 3527TIP3    H110587   3.843   2.301   3.989 -0.0043 -0.8826 -0.8146
 3527TIP3    H210588   3.751   2.181   3.995 -0.9868 -0.0889  0.4049
 3528TIP3   OH210589   5.656   4.242   2.658  0.6273  0.2742 -0.5476
 3528TIP3    H110590   5.602   4.309   2.616 -0.4354 -0.1281  0.1340
 3528TIP3    H210591   5.597   4.199   2.720  1.6922 -0.3052  0.0900
 3529TIP3   OH210592   2.528   3.225   4.694  0.0792  0.0796 -0.3171
 3529TIP3    H110593   2.496   3.265   4.774 -0.3690 -1.4909  0.3328
 3529TIP3    H210594   2.539   3.132   4.716  2.6624  0.0771 -1.2623
 3530TIP3   OH210595   1.931   2.072   4.427  0.7373 -0.0526  0.0807
 3530TIP3    H110596   1.921   2.091   4.521 -0.1782 -0.9862  0.1900
 3530TIP3    H210597   2.022   2.046   4.418  0.9401  0.4371  0.6344
 3531TIP3   OH210598   4.295   5.252   3.569  0.0293  0.0451  0.5121
 3531TIP3    H110599   4.228   5.304   3.614 -1.1295  0.1466 -1.2344
 3531TIP3    H210600   4.346   5.317   3.520 -1.1586 -0.3298 -1.3403
 3532TIP3   OH210601   5.140   1.045   4.829  0.2291  0.5387 -0.2333
 3532TIP3    H110602   5.108   1.124   4.872  1.8939  1.2046 -0.1248
 3532TIP3    H210603   5.187   0.997   4.898 -0.1332 -0.1847 -0.4738
 3533TIP3   OH210604   0.334   3.702   3.772 -0.8798 -0.2329 -0.7624
 3533TIP3    H110605   0.297   3.784   3.740 -0.5539 -0.1632 -0.9691
 3533TIP3    H210606   0.408   3.685   3.714 -0.9607 -0.6861 -0.7308
 3534TIP3   OH210607   1.757   5.138   2.382  0.1221 -0.0565  0.0208
 3534TIP3    H110608   1.836   5.087   2.366 -0.8553 -0.6956 -3.8295
 3534TIP3    H210609   1.789   5.222   2.415  2.3921 -0.4662 -0.9383
 3535TIP3   OH210610   5.374   0.796   1.984 -0.2138  0.1403  0.4253
 3535TIP3    H110611   5.443   0.729   1.981 -0.9757 -0.6847  0.6496
 3535TIP3    H210612   5.309   0.764   1.921 -0.1572  1.1808 -0.1750
 3536TIP3   OH210613   1.157   0.771   1.218 -0.0994 -0.2774 -0.0719
 3536TIP3    H110614   1.194   0.715   1.149 -1.3655 -0.8530 -0.3249
 3536TIP3    H210615   1.168   0.720   1.298 -0.0570 -0.3131 -0.1006
 3537TIP3   OH210616   4.381   0.008   4.448 -0.4428 -0.4086  0.1485
 3537TIP3    H110617   4.414   0.091   4.413 -1.1593 -0.6659 -1.2131
 3537TIP3    H210618   4.369   0.024   4.542  1.0602  0.4743  0.2212
 3538TIP3   OH210619   2.675   3.268   0.031 -0.0354  0.0701 -1.0505
 3538TIP3    H110620   2.756   3.298   0.072 -2.1525  4.6385  0.4229
 3538TIP3    H210621   2.633   3.212   0.097  0.6953 -0.1700 -0.7819
 3539TIP3   OH210622   3.508   3.480   1.960 -0.0405 -0.6397 -0.6074
 3539TIP3    H110623   3.459   3.458   2.039  1.3353 -0.7599  0.2316
 3539TIP3    H210624   3.518   3.396   1.914  1.0498 -0.9616  0.1951
 3540TIP3   OH210625   0.997   4.459   1.899 -0.0158 -0.1300 -0.5965
 3540TIP3    H110626   1.085   4.496   1.889  0.0978 -0.0921  0.4818
 3540TIP3    H210627   0.946   4.530   1.937 -0.0709 -0.7108  0.4435
 3541TIP3   OH210628   1.481   2.025   0.336 -0.5817  0.6644 -0.3397
 3541TIP3    H110629   1.467   2.104   0.388 -0.7014  0.7012 -0.4300
 3541TIP3    H210630   1.518   2.056   0.254 -0.7632  0.6369 -0.4308
 3542TIP3   OH210631   5.499   1.059   2.020 -0.0412  0.1262 -0.1913
 3542TIP3    H110632   5.513   1.123   1.951 -1.6073  1.5211  0.6942
 3542TIP3    H210633   5.480   0.977   1.974  0.1000  0.7463 -1.3929
 3543TIP3   OH210634   0.406   1.379   3.878  0.0557  0.3661  0.5780
 3543TIP3    H110635   0.388   1.285   3.879  3.5890 -0.4503  0.5892
 3543TIP3    H210636   0.418   1.401   3.786  0.0028  0.6283  0.6304
 3544TIP3   OH210637   0.760   4.343   4.318  0.2263 -0.3147 -0.3849
 3544TIP3    H110638   0.812   4.381   4.388  0.7053 -0.8982 -0.4110
 3544TIP3    H210639   0.811   4.267   4.289 -0.3548 -0.5487 -0.8155
 3545TIP3   OH210640   1.399   5.761   1.777 -0.1231  0.1525 -0.3302
 3545TIP3    H110641   1.491   5.771   1.803 -0.9481  2.2682  2.2157
 3545TIP3    H210642   1.376   5.846   1.739 -0.6810 -0.8611 -2.3855
 3546TIP3   OH210643   0.064   5.446   4.906 -0.2536  0.2250  0.4965
 3546TIP3    H110644   0.107   5.414   4.827  1.1232 -0.7898  1.6205
 3546TIP3    H210645   0.104   5.531   4.923 -0.9737  0.7209 -0.1897
 3547TIP3   OH210646   4.357   0.400   0.896 -0.4065  0.3064  0.6906
 3547TIP3    H110647   4.267   0.369   0.898  0.5735 -3.1489 -0.5330
 3547TIP3    H210648   4.372   0.437   0.983 -2.8911  0.7849  0.9842
 3548TIP3   OH210649   4.198   0.386   3.110  0.6311  0.8737  0.3771
 3548TIP3    H110650   4.139   0.457   3.085  0.2349  0.8293  1.1548
 3548TIP3    H210651   4.167   0.310   3.060  1.3106  1.3299 -0.7672
 3549TIP3   OH210652   2.665   2.800   3.147  0.2587 -0.6769  0.1855
 3549TIP3    H110653   2.656   2.704   3.146 -0.9995 -0.5804 -0.7601
 3549TIP3    H210654   2.751   2.816   3.110  0.9387 -1.4547  1.3311
 3550TIP3   OH210655   2.072   2.575   0.370  0.2891 -0.0960 -0.0825
 3550TIP3    H110656   2.037   2.661   0.395  0.7222  0.2203 -0.5438
 3550TIP3    H210657   1.996   2.524   0.345  0.1336  0.5787 -1.0561
 3551TIP3   OH210658   1.828   4.981   2.979  0.0935  0.3663 -0.5015
 3551TIP3    H110659   1.863   4.892   2.973 -0.7740 -0.1374  1.1354
 3551TIP3    H210660   1.749   4.981   2.926 -1.4655 -0.7262  1.6949
 3552TIP3   OH210661   2.159   5.452   1.484  0.0567 -0.0994  1.2074
 3552TIP3    H110662   2.134   5.528   1.537  1.8229  0.9504  0.6252
 3552TIP3    H210663   2.225   5.486   1.424  0.2442 -1.9263  0.3288
 3553TIP3   OH210664   0.656   5.484   2.857  0.4951  0.7458  0.7074
 3553TIP3    H110665   0.601   5.518   2.928  1.6864  1.9043  1.1452
 3553TIP3    H210666   0.740   5.467   2.900  0.5737 -0.7223  0.0137
 3554TIP3   OH210667   3.099   3.672   3.159 -0.8193  0.0017 -0.0486
 3554TIP3    H110668   3.148   3.681   3.241 -1.6692 -1.1825  0.6296
 3554TIP3    H210669   3.166   3.659   3.092 -0.1552 -0.3154  0.6611
 3555TIP3   OH210670   1.551   2.734   4.726 -0.2668 -0.2815  0.2667
 3555TIP3    H110671   1.611   2.808   4.732  2.9893 -2.6292 -0.4746
 3555TIP3    H210672   1.483   2.762   4.665  0.3539  2.3358  0.6891
 3556TIP3   OH210673   5.321   3.112   4.033  0.0488 -0.2473 -0.0693
 3556TIP3    H110674   5.391   3.067   3.985 -2.2500 -2.7537 -1.3340
 3556TIP3    H210675   5.359   3.128   4.119  2.5570 -0.3788 -1.0335
 3557TIP3   OH210676   3.324   4.037   1.417  0.3692 -0.1696 -0.2296
 3557TIP3    H110677   3.246   4.072   1.460  0.2585 -0.4144 -0.2331
 3557TIP3    H210678   3.354   3.967   1.475  2.4610  1.9931  1.5194
 3558TIP3   OH210679   5.118   5.499   4.312 -0.0722 -0.3810 -0.1853
 3558TIP3    H110680   5.050   5.454   4.263 -0.8659  1.2632 -0.6703
 3558TIP3    H210681   5.101   5.477   4.404 -2.1432  1.0477 -0.1550
 3559TIP3   OH210682   4.826   1.608   2.800 -0.2166 -0.3890 -0.0138
 3559TIP3    H110683   4.884   1.552   2.750 -0.8962 -1.5549  0.4584
 3559TIP3    H210684   4.879   1.640   2.872  0.4155  0.2913 -0.7617
 3560TIP3   OH210685   2.108   2.940   2.776  0.7775  0.0147 -0.4433
 3560TIP3    H110686   2.118   2.872   2.842  2.0441  0.5714 -0.0348
 3560TIP3    H210687   2.066   2.896   2.702  0.6619 -0.9595  0.1862
 3561TIP3   OH210688   3.309   0.170   0.798  0.1301  0.1964 -0.2513
 3561TIP3    H110689   3.285   0.082   0.828 -1.4857  0.3906 -0.8811
 3561TIP3    H210690   3.318   0.162   0.703  1.4567  0.4132 -0.1664
 3562TIP3   OH210691   5.162   0.973   2.140 -0.0202  0.5758 -0.4551
 3562TIP3    H110692   5.083   0.932   2.105 -0.3921  0.3308  0.6340
 3562TIP3    H210693   5.230   0.906   2.128  0.1929  1.0124 -1.9506
 3563TIP3   OH210694   0.623   1.743   1.112 -0.6440 -0.1925  0.4319
 3563TIP3    H110695   0.556   1.677   1.093 -1.7724  1.1298 -0.3324
 3563TIP3    H210696   0.702   1.710   1.069 -1.8613  0.2414 -2.3365
 3564TIP3   OH210697   0.175   0.150   4.830  0.5092 -0.5271  0.0111
 3564TIP3    H110698   0.266   0.168   4.805  0.3665  1.4085  0.7197
 3564TIP3    H210699   0.157   0.211   4.902 -1.4936 -0.5481 -0.4062
 3565TIP3   OH210700   3.476   4.802   2.183 -0.3040  0.3469  0.4215
 3565TIP3    H110701   3.558   4.833   2.144  0.6897 -1.1958  1.1565
 3565TIP3    H210702   3.438   4.880   2.223  0.2341  1.3207 -0.8713
 3566TIP3   OH210703   0.292   1.964   3.655 -0.2672  0.4701 -0.0795
 3566TIP3    H110704   0.269   1.884   3.609 -0.1617 -0.4351  1.3710
 3566TIP3    H210705   0.261   1.950   3.745 -0.5352  2.1900  0.1269
 3567TIP3   OH210706   0.311   4.537   2.653 -0.2589 -0.3089 -0.3292
 3567TIP3    H110707   0.263   4.608   2.613 -1.0431 -1.1385 -0.8903
 3567TIP3    H210708   0.378   4.580   2.706 -0.7973  0.8347 -0.5578
 3568TIP3   OH210709   5.755   4.657   5.054 -0.3102 -0.4381  0.5957
 3568TIP3    H110710   5.718   4.632   4.970  0.3730 -0.4665  0.2958
 3568TIP3    H210711   5.755   4.576   5.105  0.6701 -0.7749  0.0880
 3569TIP3   OH210712   5.548   2.592   4.759  0.0903  0.2200  0.3302
 3569TIP3    H110713   5.607   2.658   4.794 -0.2981  0.6324  0.2092
 3569TIP3    H210714   5.544   2.610   4.666 -1.9016  1.5707  0.6135
 3570TIP3   OH210715   0.462   0.854   2.667  0.9075  0.1234  0.0474
 3570TIP3    H110716   0.557   0.845   2.666  1.3241  3.3402 -0.7933
 3570TIP3    H210717   0.441   0.893   2.582 -1.0353  0.3468  0.5889
 3571TIP3   OH210718   2.283   1.719   1.324 -0.5549 -0.1306 -0.1653
 3571TIP3    H110719   2.251   1.753   1.240 -0.8048 -1.7484 -0.7733
 3571TIP3    H210720   2.203   1.706   1.376 -0.5141 -0.2743 -0.1378
 3572TIP3   OH210721   3.118   4.968   1.809 -0.3129  0.3459 -0.6164
 3572TIP3    H110722   3.154   4.947   1.895 -0.2604  0.3925 -0.6267
 3572TIP3    H210723   3.187   4.944   1.747 -0.3050  0.4217 -0.6371
 3573TIP3   OH210724   3.933   1.336   0.228 -0.4294 -0.4703  0.6117
 3573TIP3    H110725   3.952   1.409   0.287 -1.2442 -0.6067  1.0562
 3573TIP3    H210726   3.912   1.377   0.144 -1.3309 -0.1620  0.9804
 3574TIP3   OH210727   3.187   2.651   1.051 -0.0453 -0.4400 -0.0890
 3574TIP3    H110728   3.144   2.715   0.995  0.3549  0.1343  0.2486
 3574TIP3    H210729   3.116   2.598   1.087 -0.7009  1.6270  1.8980
 3575TIP3   OH210730   3.306   5.939   3.355 -0.1667  0.4950 -0.1483
 3575TIP3    H110731   3.344   5.915   3.271  0.6827 -0.2370  0.4306
 3575TIP3    H210732   3.381   5.965   3.409 -0.7720  1.6846  0.1640
 3576TIP3   OH210733   2.374   0.702   3.987 -0.3382  0.2731 -0.7088
 3576TIP3    H110734   2.396   0.650   4.064 -0.8976  0.6655 -0.2825
 3576TIP3    H210735   2.287   0.670   3.961 -0.9773  1.4443 -0.0522
 3577TIP3   OH210736   2.920   3.335   2.399  0.5347  0.5871  0.9917
 3577TIP3    H110737   3.006   3.370   2.373  0.2827  0.2530 -0.4116
 3577TIP3    H210738   2.862   3.411   2.401  0.2251  0.4703 -1.0159
 3578TIP3   OH210739   0.982   4.461   4.055  0.3908 -0.0984  0.1854
 3578TIP3    H110740   0.936   4.471   3.971  1.1594  1.2060 -0.1088
 3578TIP3    H210741   0.947   4.531   4.110  0.9754 -0.0100  0.4468
 3579TIP3   OH210742   0.890   1.027   1.469 -0.2742  0.2383  0.4005
 3579TIP3    H110743   0.913   1.116   1.495 -0.5270  0.2059  0.7424
 3579TIP3    H210744   0.879   1.031   1.374 -2.1262  0.9813  0.6091
 3580TIP3   OH210745   0.516   2.111   3.622  0.1064 -0.0072  0.3903
 3580TIP3    H110746   0.549   2.133   3.709  0.8069  3.6179 -0.6335
 3580TIP3    H210747   0.430   2.072   3.638  0.3224  0.3252  2.7131
 3581TIP3   OH210748   0.437   0.127   0.111  0.1409  0.0029  0.5802
 3581TIP3    H110749   0.368   0.171   0.062  1.2442 -0.2900 -1.3463
 3581TIP3    H210750   0.403   0.121   0.200 -2.6448 -0.8422 -0.4190
 3582TIP3   OH210751   0.874   1.240   0.360  0.2266 -0.2031 -0.0564
 3582TIP3    H110752   0.813   1.208   0.426 -0.5937  0.1999 -0.6067
 3582TIP3    H210753   0.960   1.233   0.402 -0.2182 -0.5052  0.8319
 3583TIP3   OH210754   4.197   4.012   4.062 -0.4194 -0.2267  0.0175
 3583TIP3    H110755   4.260   4.047   4.000  1.0811 -2.3621  0.2559
 3583TIP3    H210756   4.127   3.975   4.007 -0.7440  0.7954 -0.2796
 3584TIP3   OH210757   4.538   3.581   2.806 -0.0555  0.0557 -0.0235
 3584TIP3    H110758   4.461   3.539   2.846  0.2971 -0.0367  0.5657
 3584TIP3    H210759   4.511   3.600   2.716 -0.0864 -1.8402 -0.4535
 3585TIP3   OH210760   0.299   3.682   1.545 -0.0044 -0.1490  0.1463
 3585TIP3    H110761   0.228   3.698   1.607  0.5027  0.3133  0.6172
 3585TIP3    H210762   0.353   3.760   1.549  0.6812 -0.6011 -0.0120
 3586TIP3   OH210763   0.981   1.826   3.398 -0.4650 -0.4123 -0.1916
 3586TIP3    H110764   0.918   1.795   3.464 -0.0044  0.7478  0.8518
 3586TIP3    H210765   1.041   1.753   3.386 -1.1013 -0.9754 -0.0324
 3587TIP3   OH210766   2.909   0.713   3.087 -0.2846  0.0870 -0.2835
 3587TIP3    H110767   2.884   0.714   3.180 -0.9112 -0.6946 -0.4325
 3587TIP3    H210768   2.860   0.786   3.049  1.0596  1.3312  0.2381
 3588TIP3   OH210769   0.623   2.153   0.635 -0.2483  0.0773 -0.0178
 3588TIP3    H110770   0.642   2.112   0.551 -0.5850  0.1887 -0.1502
 3588TIP3    H210771   0.540   2.114   0.663  0.1221 -0.3414  0.5134
 3589TIP3   OH210772   3.862   0.056   1.364  0.6916 -0.1315  0.5337
 3589TIP3    H110773   3.777   0.019   1.385 -0.3396  0.9339 -1.5232
 3589TIP3    H210774   3.857   0.147   1.395  0.6866  0.2266 -0.4876
 3590TIP3   OH210775   4.674   4.792   4.876 -0.2810 -0.0194  0.0755
 3590TIP3    H110776   4.622   4.719   4.842 -2.8727  1.3731  0.7695
 3590TIP3    H210777   4.696   4.767   4.965  1.3595 -1.1344 -0.6064
 3591TIP3   OH210778   1.579   4.251   4.703  0.1828  0.6075  0.4104
 3591TIP3    H110779   1.532   4.173   4.733  2.1442 -1.5637 -1.7068
 3591TIP3    H210780   1.667   4.240   4.740  0.2498  2.3079  0.7942
 3592TIP3   OH210781   1.750   0.550   2.725 -0.4894  0.5476  0.3541
 3592TIP3    H110782   1.704   0.553   2.641 -2.2084  0.4675  1.2584
 3592TIP3    H210783   1.770   0.457   2.737 -1.5777  0.3489  0.7136
 3593TIP3   OH210784   2.073   1.821   0.625 -0.0048  0.5481  0.1576
 3593TIP3    H110785   1.986   1.791   0.596 -0.0602  0.2619  0.5969
 3593TIP3    H210786   2.058   1.909   0.659  0.5886  2.1991 -3.4301
 3594TIP3   OH210787   1.447   2.456   4.386  0.1016  0.0931  0.3044
 3594TIP3    H110788   1.498   2.481   4.309  0.6582 -2.0015 -0.0785
 3594TIP3    H210789   1.358   2.483   4.366 -0.2069 -2.2962 -2.1188
 3595TIP3   OH210790   1.799   5.590   3.563  0.8010  0.5305  0.3107
 3595TIP3    H110791   1.777   5.499   3.547 -0.1354  0.9134 -0.7252
 3595TIP3    H210792   1.823   5.593   3.655  0.9169 -0.7699  0.3414
 3596TIP3   OH210793   4.637   2.345   1.604 -0.0425 -0.3101 -0.0843
 3596TIP3    H110794   4.637   2.259   1.563 -2.6307  0.4431 -1.9647
 3596TIP3    H210795   4.689   2.400   1.545  0.7504 -0.3341  0.5727
 3597TIP3   OH210796   4.475   1.714   4.896  0.1868 -0.3543 -0.1140
 3597TIP3    H110797   4.529   1.711   4.817 -0.8420 -0.2780 -0.8527
 3597TIP3    H210798   4.480   1.626   4.932  0.5122 -0.4501 -0.3861
 3598TIP3   OH210799   2.557   4.736   3.289 -0.2431  0.1299 -0.9631
 3598TIP3    H110800   2.580   4.803   3.224 -3.7142  2.4813 -0.0462
 3598TIP3    H210801   2.563   4.782   3.373 -2.9402 -0.5343 -0.3183
 3599TIP3   OH210802   0.092   0.702   3.304 -0.4473 -0.3505 -0.1168
 3599TIP3    H110803  -0.003   0.710   3.316 -0.0633  1.8517  2.1623
 3599TIP3    H210804   0.118   0.631   3.363 -0.3701  0.9885  1.5251
 3600TIP3   OH210805   4.747   0.331   3.036  0.4455  0.5925  0.7868
 3600TIP3    H110806   4.660   0.340   3.075 -0.1940 -0.4666 -0.3285
 3600TIP3    H210807   4.739   0.371   2.950  1.3578  1.3417  1.0280
 3601TIP3   OH210808   2.849   4.494   4.309  0.1706  0.0232 -0.3829
 3601TIP3    H110809   2.918   4.428   4.300 -1.2376 -1.3904 -1.4785
 3601TIP3    H210810   2.834   4.525   4.219 -0.7617  0.1159 -0.2044
 3602TIP3   OH210811   2.245   2.839   2.236  0.0239 -0.6194  0.4592
 3602TIP3    H110812   2.228   2.760   2.185 -0.1124 -0.2777 -0.0296
 3602TIP3    H210813   2.327   2.874   2.201 -0.3809 -0.0581  0.0621
 3603TIP3   OH210814   3.673   4.549   1.746  0.7381 -0.2255  0.1885
 3603TIP3    H110815   3.586   4.529   1.712  0.4951 -0.7639  1.0974
 3603TIP3    H210816   3.718   4.592   1.673 -0.5231  0.7244 -0.0512
 3604TIP3   OH210817   2.549   4.805   0.247  0.7637 -0.3412 -0.1435
 3604TIP3    H110818   2.499   4.727   0.271 -1.6031  1.1440  0.1117
 3604TIP3    H210819   2.504   4.839   0.169  1.9721  0.5944 -0.4784
 3605TIP3   OH210820   4.651   2.758   0.337  0.0709  0.3442  0.6016
 3605TIP3    H110821   4.631   2.722   0.251  0.5007 -0.3315  0.7799
 3605TIP3    H210822   4.604   2.842   0.339 -0.6676 -0.0442  0.0544
 3606TIP3   OH210823   0.292   5.132   1.442 -0.3957  0.5800 -0.2396
 3606TIP3    H110824   0.350   5.112   1.368 -0.8539 -1.0746 -0.1795
 3606TIP3    H210825   0.206   5.144   1.401 -0.3691  1.2212 -0.1241
 3607TIP3   OH210826   4.517   3.478   0.588  0.3616  0.2247 -0.1998
 3607TIP3    H110827   4.601   3.438   0.564  1.1039  0.7273  1.4112
 3607TIP3    H210828   4.511   3.466   0.683 -0.1829  2.4047  0.0958
 3608TIP3   OH210829   1.878   4.275   1.190  0.2354 -0.6395 -0.1665
 3608TIP3    H110830   1.873   4.228   1.273 -1.4538 -2.6075 -1.2923
 3608TIP3    H210831   1.970   4.269   1.164  0.2647 -2.5219  0.2372
 3609TIP3   OH210832   2.752   5.419   0.671 -0.5063  0.0609  0.1842
 3609TIP3    H110833   2.831   5.383   0.711  0.4345  2.1991  0.3637
 3609TIP3    H210834   2.738   5.364   0.594  0.6880 -0.8374  0.5640
 3610TIP3   OH210835   0.123   1.431   0.254  0.0725  0.2388 -1.0376
 3610TIP3    H110836   0.140   1.358   0.196  2.0150  0.9226 -1.4125
 3610TIP3    H210837   0.155   1.402   0.340  2.6298  1.2237 -1.5664
 3611TIP3   OH210838   2.228   3.351   2.894 -0.1561 -0.1346  0.0390
 3611TIP3    H110839   2.273   3.274   2.860  1.7070 -0.3887  2.7330
 3611TIP3    H210840   2.256   3.423   2.836  0.0972 -1.0453 -1.0007
 3612TIP3   OH210841   0.084   5.482   1.612  0.2042 -0.0047 -0.6061
 3612TIP3    H110842   0.081   5.416   1.680 -0.1392  0.2164 -0.4045
 3612TIP3    H210843   0.077   5.565   1.659 -1.9985  0.1083 -1.0247
 3613TIP3   OH210844   2.643   5.215   3.672  0.0866  0.5224  0.1402
 3613TIP3    H110845   2.627   5.169   3.590  0.2123  0.9509 -0.1314
 3613TIP3    H210846   2.607   5.303   3.658  1.1041  0.9606  0.1370
 3614TIP3   OH210847   4.700   0.439   1.875 -0.3194  0.1428 -0.2179
 3614TIP3    H110848   4.728   0.404   1.791  0.4497  2.5692 -1.0838
 3614TIP3    H210849   4.768   0.412   1.937  0.0931 -0.1160 -0.7810
 3615TIP3   OH210850   1.370   0.045   3.480 -0.2047 -0.5554 -0.1460
 3615TIP3    H110851   1.453  -0.001   3.486 -0.2606 -0.8862 -1.5100
 3615TIP3    H210852   1.392   0.138   3.490  0.4421 -0.5789 -1.2103
 3616TIP3   OH210853   5.966   0.561   4.939  0.5234 -0.4364  0.4109
 3616TIP3    H110854   6.014   0.644   4.938 -1.6098  0.8671 -0.2167
 3616TIP3    H210855   5.987   0.521   4.854 -1.2438  1.2491 -0.9004
 3617TIP3   OH210856   2.679   4.305   1.475 -0.0003  0.6150 -0.3786
 3617TIP3    H110857   2.700   4.265   1.391  0.7467  1.0238 -0.3894
 3617TIP3    H210858   2.600   4.357   1.458  0.1327  0.6752 -0.8197
 3618TIP3   OH210859   4.402   2.236   1.017 -0.6039 -0.1661  0.0041
 3618TIP3    H110860   4.356   2.168   0.968 -0.0012 -1.3666  1.0386
 3618TIP3    H210861   4.335   2.301   1.037 -0.7454  0.7219 -2.9201
 3619TIP3   OH210862   4.436   2.794   3.787  0.0136 -0.3518 -0.5393
 3619TIP3    H110863   4.499   2.860   3.757 -1.1727  0.0510 -2.3272
 3619TIP3    H210864   4.381   2.840   3.850 -0.3301  0.1671 -1.2058
 3620TIP3   OH210865   2.221   3.955   2.394  0.0445 -0.0405 -0.6591
 3620TIP3    H110866   2.164   3.969   2.319  0.0588  0.7411 -0.5350
 3620TIP3    H210867   2.283   4.028   2.391 -0.0273  0.0685  0.1700
 3621TIP3   OH210868   3.520   4.095   5.159  0.0095 -0.1714 -0.8089
 3621TIP3    H110869   3.548   4.165   5.101 -1.2559 -0.1771 -1.4470
 3621TIP3    H210870   3.596   4.036   5.163  0.9850  1.0819 -0.4642
 3622TIP3   OH210871   4.183   3.745   3.043 -0.2383 -0.5764 -0.0926
 3622TIP3    H110872   4.124   3.806   2.997  0.6536 -0.4686 -1.1382
 3622TIP3    H210873   4.270   3.785   3.035  0.0159 -0.7956  1.3275
 3623TIP3   OH210874   4.230   2.469   1.914 -0.1301  0.0023  0.0168
 3623TIP3    H110875   4.178   2.548   1.929  2.5830  1.5701  2.2239
 3623TIP3    H210876   4.314   2.501   1.882  0.1512 -2.2675 -1.7704
 3624TIP3   OH210877   6.295   4.071   2.648 -0.1531 -0.5349 -0.4490
 3624TIP3    H110878   6.286   4.053   2.741 -0.2913 -1.2772 -0.6028
 3624TIP3    H210879   6.244   4.151   2.634 -1.3434 -1.2148 -0.1428
 3625TIP3   OH210880   1.309   2.635   3.148  0.3262  0.1106  0.0400
 3625TIP3    H110881   1.376   2.686   3.194  1.2044 -0.2014 -0.8477
 3625TIP3    H210882   1.227   2.679   3.168  0.9629  1.3741  0.0005
 3626TIP3   OH210883   5.195   3.227   4.716  0.2344  0.3736  0.1824
 3626TIP3    H110884   5.273   3.172   4.725 -1.1296 -2.0949 -1.6243
 3626TIP3    H210885   5.222   3.299   4.661  1.2188 -0.5987 -0.6510
 3627TIP3   OH210886   0.124   2.739   5.038  0.2333 -0.3179  0.2108
 3627TIP3    H110887   0.145   2.781   4.955  0.7371 -1.3092 -0.1793
 3627TIP3    H210888   0.053   2.792   5.074 -1.2917 -0.9069 -1.7160
 3628TIP3   OH210889   3.657   5.900   2.525  0.4566 -0.0705 -0.0517
 3628TIP3    H110890   3.739   5.854   2.541  0.6130  0.4462  0.7168
 3628TIP3    H210891   3.608   5.889   2.607  0.2968  0.7143 -0.0403
 3629TIP3   OH210892   3.398   2.531   1.868  0.9409  0.0545  0.1085
 3629TIP3    H110893   3.339   2.584   1.922  0.9267  0.6504 -0.4731
 3629TIP3    H210894   3.414   2.585   1.790 -1.2385 -1.8498 -1.8260
 3630TIP3   OH210895   5.840   3.430   1.930 -0.3265  0.4483  0.2798
 3630TIP3    H110896   5.826   3.524   1.914 -0.4035  0.4361  0.2740
 3630TIP3    H210897   5.767   3.387   1.884 -0.0976  0.3635 -0.0117
 3631TIP3   OH210898   0.154   4.069   0.876  0.8127 -0.0498 -0.0473
 3631TIP3    H110899   0.169   4.155   0.914  0.4036  0.7561 -1.6055
 3631TIP3    H210900   0.241   4.028   0.875  1.3920  1.1300 -1.0452
 3632TIP3   OH210901   1.934   4.588   0.497  0.0667  0.3734  0.2118
 3632TIP3    H110902   1.995   4.579   0.571 -1.7716 -1.1225  1.6366
 3632TIP3    H210903   1.977   4.542   0.425  0.3241 -1.3603  1.4107
 3633TIP3   OH210904   1.682   1.156   0.883 -0.7938 -0.5081 -0.0650
 3633TIP3    H110905   1.660   1.249   0.890 -1.8321 -0.7095 -0.3664
 3633TIP3    H210906   1.703   1.129   0.973 -1.0487 -0.1110  0.1167
 3634TIP3   OH210907   0.830   0.176   4.785  0.5401  0.2634 -0.6551
 3634TIP3    H110908   0.763   0.225   4.833  1.2393 -0.1418  0.8120
 3634TIP3    H210909   0.780   0.124   4.722 -0.2412  2.5552 -2.0546
 3635TIP3   OH210910   6.325   2.865   2.603  0.3574  0.3508  0.5057
 3635TIP3    H110911   6.276   2.793   2.642  0.3111  0.0636 -0.0644
 3635TIP3    H210912   6.372   2.825   2.529  0.9297  0.7555  0.6468
 3636TIP3   OH210913   4.555   5.425   3.703  0.5146  0.7740  0.0496
 3636TIP3    H110914   4.516   5.446   3.787 -0.2442  0.2065 -0.1487
 3636TIP3    H210915   4.595   5.339   3.715  0.8489  0.9168 -0.0279
 3637TIP3   OH210916   2.924   1.049   4.711  0.0461  0.0293  0.5993
 3637TIP3    H110917   2.912   1.144   4.713 -1.5775 -0.1450  0.0892
 3637TIP3    H210918   3.011   1.037   4.672 -0.8141  1.2497 -1.8990
 3638TIP3   OH210919   0.838   2.134   2.628 -0.4483  0.2834 -0.4728
 3638TIP3    H110920   0.841   2.122   2.722 -0.1928  0.7453 -0.4210
 3638TIP3    H210921   0.840   2.045   2.592  0.9061  0.1343 -0.0804
 3639TIP3   OH210922   0.950   2.231   4.480 -0.7907 -0.0322 -0.3589
 3639TIP3    H110923   0.861   2.262   4.460 -1.3973 -1.0082  0.6698
 3639TIP3    H210924   0.978   2.185   4.401 -1.1235  0.4436 -0.7618
 3640TIP3   OH210925   1.734   0.252   2.420 -0.4304 -0.4637 -0.2952
 3640TIP3    H110926   1.727   0.202   2.338  0.0347 -2.1558  0.6569
 3640TIP3    H210927   1.827   0.251   2.440 -0.3965  0.9309 -0.3080
 3641TIP3   OH210928   2.753   0.891   0.480 -0.2575 -0.1204 -0.3699
 3641TIP3    H110929   2.659   0.901   0.494  0.0143 -1.0859  3.0702
 3641TIP3    H210930   2.760   0.813   0.424 -1.4728  1.4436 -2.8523
 3642TIP3   OH210931   0.034   5.231   2.768 -0.2281  0.1049  0.1593
 3642TIP3    H110932   0.022   5.254   2.676 -0.1191 -0.7788 -0.0833
 3642TIP3    H210933   0.042   5.316   2.813 -1.1505  0.5583 -0.5136
 3643TIP3   OH210934   6.175   0.032   1.891  0.1308  0.1855  0.2582
 3643TIP3    H110935   6.214   0.088   1.959  0.6461 -1.1185  1.0679
 3643TIP3    H210936   6.199  -0.057   1.917 -0.7902 -0.4280 -0.9312
 3644TIP3   OH210937   5.186   0.490   0.563 -0.1841 -1.0826 -0.6408
 3644TIP3    H110938   5.105   0.483   0.614  0.2017 -1.4469 -0.0762
 3644TIP3    H210939   5.175   0.571   0.512  1.0145  1.4958  2.8256
 3645TIP3   OH210940   5.770   3.367   3.392 -1.0055 -0.0656 -1.0883
 3645TIP3    H110941   5.834   3.296   3.400 -0.1522  0.7179 -0.7183
 3645TIP3    H210942   5.685   3.322   3.388 -0.4771 -1.1103 -1.0948
 3646TIP3   OH210943   0.237   4.582   4.957 -0.1249 -0.3434  0.0040
 3646TIP3    H110944   0.149   4.580   4.995  0.9646 -0.1812  2.7735
 3646TIP3    H210945   0.253   4.493   4.928 -1.0545 -0.4550 -0.2094
 3647TIP3   OH210946   5.900   5.620   2.527 -0.0061  1.0003 -0.0403
 3647TIP3    H110947   5.860   5.689   2.579  0.1480  0.5686  0.6701
 3647TIP3    H210948   5.841   5.545   2.538  0.3431  0.7297  0.0136
 3648TIP3   OH210949   1.062   0.546   2.588  0.2837 -0.6300  0.1839
 3648TIP3    H110950   1.022   0.592   2.662  2.1733 -0.0811  0.9239
 3648TIP3    H210951   1.139   0.503   2.625  1.5883  0.0958 -1.5691
 3649TIP3   OH210952   1.107   1.436   3.264 -0.0035  0.0172 -0.0345
 3649TIP3    H110953   1.033   1.397   3.218  0.0684 -0.6275  0.3754
 3649TIP3    H210954   1.071   1.463   3.348  0.6162 -2.1665  1.0182
 3650TIP3   OH210955   3.693   1.054   1.886 -0.5509 -0.4080  0.7544
 3650TIP3    H110956   3.639   1.068   1.964  0.2467  1.6299  1.0190
 3650TIP3    H210957   3.758   0.988   1.914 -1.2215 -0.8548  1.2935
 3651TIP3   OH210958   3.523   3.081   4.860 -0.6493 -0.1000 -0.0530
 3651TIP3    H110959   3.437   3.080   4.902 -0.7167  1.9796 -0.0623
 3651TIP3    H210960   3.579   3.130   4.919  0.6835 -1.7349  0.1297
 3652TIP3   OH210961   0.841   5.005   4.167  0.3864  0.4552  0.2406
 3652TIP3    H110962   0.759   5.027   4.122 -0.0105  1.3542  1.3671
 3652TIP3    H210963   0.906   5.001   4.097 -0.4736  0.4330 -0.5835
 3653TIP3   OH210964   4.674   1.022   3.680  0.3158 -0.2713 -0.4158
 3653TIP3    H110965   4.660   0.940   3.726  0.5412 -0.4270 -0.6192
 3653TIP3    H210966   4.624   1.087   3.730  0.0081 -0.5587 -0.3480
 3654TIP3   OH210967   1.328   4.913   3.600 -0.0259 -0.0863 -0.2375
 3654TIP3    H110968   1.395   4.949   3.541 -1.1062  1.2490 -0.7085
 3654TIP3    H210969   1.377   4.887   3.678  1.0592  0.8140 -0.5913
 3655TIP3   OH210970   1.288   4.632   2.939 -0.2796 -0.3552 -0.5621
 3655TIP3    H110971   1.350   4.698   2.909 -0.4030 -0.5592 -1.2824
 3655TIP3    H210972   1.203   4.677   2.937 -0.0348  0.3422  1.6818
 3656TIP3   OH210973   3.175   4.959   2.998 -0.0138  0.0210  0.1406
 3656TIP3    H110974   3.192   4.884   2.940  1.0456  1.3654 -1.4123
 3656TIP3    H210975   3.094   4.937   3.044 -0.4641 -1.4913 -1.2778
 3657TIP3   OH210976   2.058   4.016   2.607 -0.2263  0.5485  0.2936
 3657TIP3    H110977   2.133   4.000   2.550 -0.4172  1.1848 -0.1422
 3657TIP3    H210978   1.982   4.007   2.550 -0.6436 -2.0229  1.1192
 3658TIP3   OH210979   5.120   4.449   0.523 -0.3547 -0.2123 -0.7019
 3658TIP3    H110980   5.154   4.362   0.545 -0.3587  0.3426  1.8160
 3658TIP3    H210981   5.042   4.431   0.471  0.1036 -1.6772 -0.9432
 3659TIP3   OH210982   4.964   2.524   4.918  0.3046  0.5234  0.1622
 3659TIP3    H110983   4.929   2.488   4.999 -0.5208 -0.0425 -0.4277
 3659TIP3    H210984   5.054   2.491   4.913 -0.4901 -1.7231 -0.4819
 3660TIP3   OH210985   2.719   0.283   3.451 -0.0458 -0.5668  0.0484
 3660TIP3    H110986   2.739   0.371   3.418 -1.1204 -0.4924 -0.4441
 3660TIP3    H210987   2.714   0.228   3.373 -0.3195 -0.8713  0.2811
 3661TIP3   OH210988   2.317   3.442   1.175  0.0766 -0.3501  0.0905
 3661TIP3    H110989   2.294   3.431   1.268 -1.5909  0.6564 -0.1584
 3661TIP3    H210990   2.387   3.507   1.175 -1.3318  1.2565  0.5771
 3662TIP3   OH210991   1.101   4.908   4.390 -0.0679  0.1388  0.4138
 3662TIP3    H110992   1.180   4.883   4.438 -0.5781  0.1799  1.3158
 3662TIP3    H210993   1.132   4.968   4.322  0.8702 -1.0993 -0.2826
 3663TIP3   OH210994   6.280   0.663   5.132  0.1868  0.1601  0.3565
 3663TIP3    H110995   6.341   0.728   5.167  0.9628 -0.2122 -0.2643
 3663TIP3    H210996   6.262   0.605   5.207  2.0984 -0.8302  0.1193
 3664TIP3   OH210997   1.028   3.109   0.166 -0.0033 -0.3947  0.0994
 3664TIP3    H110998   0.936   3.083   0.169 -0.5340  1.3051 -0.3643
 3664TIP3    H210999   1.034   3.166   0.089  2.0671 -2.6581 -1.5943
 3665TIP3   OH211000   3.979   5.871   3.379  0.8074 -0.1210 -0.2523
 3665TIP3    H111001   4.016   5.951   3.416  0.0018  0.0024  0.3220
 3665TIP3    H211002   4.053   5.810   3.374  0.8127 -0.4695  2.4987
 3666TIP3   OH211003   1.726   5.751   2.997  0.1405  0.2725  0.6320
 3666TIP3    H111004   1.793   5.734   3.063 -0.5866  0.4234  1.4243
 3666TIP3    H211005   1.748   5.838   2.963  0.6974  0.0649  0.4460
 3667TIP3   OH211006   3.967   3.603   4.890  0.0106  0.0094  0.1208
 3667TIP3    H111007   3.953   3.651   4.971  0.3815 -0.5618  0.5386
 3667TIP3    H211008   3.981   3.670   4.824  1.9039  0.4929  0.9426
 3668TIP3   OH211009   0.293   4.377   0.514 -0.0198 -0.3082  0.7097
 3668TIP3    H111010   0.377   4.418   0.538  1.0973 -1.2651 -1.2973
 3668TIP3    H211011   0.303   4.286   0.541 -0.1323 -0.5714 -0.1100
 3669TIP3   OH211012   5.679   0.427   4.183  0.7102 -0.3167  0.2576
 3669TIP3    H111013   5.716   0.411   4.096 -1.2343  0.0580 -0.7022
 3669TIP3    H211014   5.729   0.502   4.216  1.4394 -0.4178 -0.5607
 3670TIP3   OH211015   4.974   3.585   1.646  0.3454 -0.0606 -0.2979
 3670TIP3    H111016   4.897   3.596   1.702 -0.2730 -1.5830 -0.7765
 3670TIP3    H211017   5.049   3.601   1.703 -0.3052  1.4787  0.1755
 3671TIP3   OH211018   2.809   4.445   2.109 -0.5999 -0.4590 -0.1465
 3671TIP3    H111019   2.827   4.536   2.134 -0.9766 -0.1239 -1.0261
 3671TIP3    H211020   2.878   4.394   2.151 -1.1896  0.0542  1.5201
 3672TIP3   OH211021   2.621   5.292   2.817 -0.2098 -0.4847  0.4418
 3672TIP3    H111022   2.682   5.279   2.745  0.4280  0.6422  0.7495
 3672TIP3    H211023   2.578   5.376   2.796  0.1073 -0.0607  1.4440
 3673TIP3   OH211024   5.148   3.685   3.222 -0.0407 -0.4582  0.0920
 3673TIP3    H111025   5.129   3.599   3.260 -0.3880  0.5884  2.4852
 3673TIP3    H211026   5.227   3.715   3.268  0.3900  0.2956 -1.0924
 3674TIP3   OH211027   3.993   2.248   2.967 -0.1788 -0.1581  0.8357
 3674TIP3    H111028   4.043   2.298   2.902  1.2973 -0.4024  1.7402
 3674TIP3    H211029   3.929   2.311   3.001 -0.6900  0.0896 -0.5224
 3675TIP3   OH211030   2.839   4.822   3.724  0.0320  0.2135  0.4751
 3675TIP3    H111031   2.810   4.864   3.804 -1.1832  1.1749 -0.4327
 3675TIP3    H211032   2.886   4.891   3.676  0.9029 -0.3950  0.4109
 3676TIP3   OH211033   0.984   2.820   1.077 -0.4673  0.0080  0.4059
 3676TIP3    H111034   0.971   2.827   1.171  1.0686 -0.1609  0.6409
 3676TIP3    H211035   1.027   2.901   1.052 -0.3941 -0.1740 -0.0748
 3677TIP3   OH211036   0.917   4.515   3.549  0.1329 -0.1183  0.0419
 3677TIP3    H111037   0.867   4.527   3.468 -0.8605 -0.0964  0.6323
 3677TIP3    H211038   0.981   4.585   3.549 -0.5892  0.5588 -0.2031
 3678TIP3   OH211039   2.555   2.650   4.779  0.1635  0.3842 -0.1550
 3678TIP3    H111040   2.478   2.600   4.751  0.4138  0.6424 -1.3777
 3678TIP3    H211041   2.577   2.615   4.865 -0.9807 -0.0862 -0.0370
 3679TIP3   OH211042   5.262   1.937   2.042  0.0851 -0.5828  0.6167
 3679TIP3    H111043   5.199   2.003   2.013  1.3574 -1.2633 -4.8118
 3679TIP3    H211044   5.345   1.985   2.049  0.2560 -0.8738  0.6161
 3680TIP3   OH211045   6.194   5.906   4.199  0.4017 -0.0436 -0.5162
 3680TIP3    H111046   6.257   5.834   4.204  0.1917 -0.1381  1.1526
 3680TIP3    H211047   6.226   5.970   4.262 -0.5582  0.4148 -0.4792
 3681TIP3   OH211048   0.578   0.431   0.446  0.2452  0.3598  0.0245
 3681TIP3    H111049   0.496   0.474   0.468 -1.3142 -1.1706 -2.3478
 3681TIP3    H211050   0.589   0.448   0.352  1.8160 -0.7929 -0.0361
 3682TIP3   OH211051   1.527   3.984   1.275 -0.3888 -0.0166 -0.2538
 3682TIP3    H111052   1.463   4.025   1.218 -2.2141 -2.0569  0.2137
 3682TIP3    H211053   1.489   3.991   1.363 -0.0417 -1.3640  0.0227
 3683TIP3   OH211054   3.674   2.069   0.976  0.2503 -0.2066  0.3890
 3683TIP3    H111055   3.755   2.022   0.955  0.7977 -0.0187  1.9480
 3683TIP3    H211056   3.699   2.161   0.978  0.1015 -0.1709  1.2095
 3684TIP3   OH211057   2.520   3.436   0.370 -0.2493  0.1050 -0.0480
 3684TIP3    H111058   2.612   3.415   0.386 -0.3287 -0.2134 -0.0050
 3684TIP3    H211059   2.478   3.428   0.456 -0.0715  1.5658  0.2017
 3685TIP3   OH211060   2.417   0.365   2.365  0.1021  0.0746 -0.3558
 3685TIP3    H111061   2.512   0.360   2.374 -0.0316  0.5637  1.7454
 3685TIP3    H211062   2.393   0.286   2.316  1.5384 -0.2013 -0.6516
 3686TIP3   OH211063   3.378   4.546   2.392 -0.2488  1.0860 -0.0521
 3686TIP3    H111064   3.323   4.473   2.418  1.6705 -0.5063 -0.2196
 3686TIP3    H211065   3.421   4.517   2.312  0.3665  2.5023 -0.2757
 3687TIP3   OH211066   4.136   0.854   1.798 -0.1419 -0.4686 -0.7772
 3687TIP3    H111067   4.079   0.778   1.792  0.3080 -0.9357  0.5282
 3687TIP3    H211068   4.089   0.915   1.856 -0.2574  0.0339 -1.3842
 3688TIP3   OH211069   2.688   0.976   2.700  0.2241  0.8696 -0.0441
 3688TIP3    H111070   2.763   0.996   2.644  0.5282  0.6221  0.2722
 3688TIP3    H211071   2.638   0.910   2.651  1.2683 -0.4433  0.6047
 3689TIP3   OH211072   4.848   1.023   3.475 -0.2685 -0.5036  0.5123
 3689TIP3    H111073   4.812   1.042   3.562 -0.4010  0.2305  0.3072
 3689TIP3    H211074   4.860   1.110   3.435  1.1147 -0.7562  0.3302
 3690TIP3   OH211075   4.065   2.445   0.597 -0.0897  0.0514 -0.5221
 3690TIP3    H111076   4.077   2.426   0.504 -0.4917 -0.4948 -0.4677
 3690TIP3    H211077   4.086   2.362   0.641  0.3076  0.3650 -0.1114
 3691TIP3   OH211078   4.943   2.300   3.254 -0.2111 -0.0688 -0.6132
 3691TIP3    H111079   4.863   2.353   3.255  0.2595  0.6834 -1.5276
 3691TIP3    H211080   4.932   2.242   3.179 -0.4725 -0.9088  0.0527
 3692TIP3   OH211081   5.149   1.782   3.396 -0.5403 -0.8007  0.1933
 3692TIP3    H111082   5.066   1.786   3.443 -1.0172 -1.9669 -0.4958
 3692TIP3    H211083   5.135   1.714   3.330  1.6285 -2.5235  1.3772
 3693TIP3   OH211084   3.487   1.990   3.070  0.2968 -0.0947  0.3922
 3693TIP3    H111085   3.576   2.021   3.085  0.5541 -0.0788 -1.0229
 3693TIP3    H211086   3.497   1.913   3.014 -0.5943  0.1872 -0.1860
 3694TIP3   OH211087   3.444   1.198   5.003  0.1345  0.6525 -0.1179
 3694TIP3    H111088   3.418   1.248   4.925 -1.1318 -0.2852 -0.3440
 3694TIP3    H211089   3.516   1.143   4.973 -0.4369  0.1950 -0.6892
 3695TIP3   OH211090   0.295   4.419   4.588  0.0219 -0.3063  0.6241
 3695TIP3    H111091   0.244   4.393   4.511  0.8607 -1.0145  0.2909
 3695TIP3    H211092   0.385   4.426   4.556  0.1567  0.8784  1.2164
 3696TIP3   OH211093   4.527   2.192   2.228 -0.1897 -0.0605 -0.0878
 3696TIP3    H111094   4.483   2.162   2.148  3.8897 -0.0031 -2.6234
 3696TIP3    H211095   4.554   2.111   2.271  0.3625 -0.1080 -0.5083
 3697TIP3   OH211096   1.579   2.652   2.522  0.4064 -0.3470 -0.0490
 3697TIP3    H111097   1.501   2.704   2.543  1.1804  0.6439  0.4722
 3697TIP3    H211098   1.613   2.692   2.442  1.8867  1.0156  1.2008
 3698TIP3   OH211099   1.167   2.544   4.327  0.3966  0.7172  0.4367
 3698TIP3    H111100   1.107   2.487   4.279  1.3746  0.4594 -0.5483
 3698TIP3    H211101   1.122   2.564   4.409 -0.5500 -0.3474  0.2022
 3699TIP3   OH211102   5.122   4.282   0.076 -0.1912 -0.4189 -0.1158
 3699TIP3    H111103   5.064   4.246   0.142 -1.2276 -0.7655 -1.1799
 3699TIP3    H211104   5.068   4.286  -0.003  1.2869 -0.9056 -1.1814
 3700TIP3   OH211105   2.774   5.789   1.946 -0.2456  0.1061  0.5529
 3700TIP3    H111106   2.778   5.696   1.968 -0.8023 -0.1888 -0.5331
 3700TIP3    H211107   2.712   5.794   1.873  1.5649  0.9970 -1.0113
 3701TIP3   OH211108   0.219   1.059   1.588 -0.1461  0.2119 -0.8952
 3701TIP3    H111109   0.162   1.066   1.511 -1.3965  2.9424  0.1359
 3701TIP3    H211110   0.303   1.093   1.559 -0.1072 -0.3682 -1.4832
 3702TIP3   OH211111   1.945   5.772   4.450  0.5390 -0.1544 -0.4635
 3702TIP3    H111112   1.994   5.779   4.368 -2.3779  0.6353 -2.3034
 3702TIP3    H211113   1.947   5.860   4.486  1.4574 -0.4025  0.1100
 3703TIP3   OH211114   0.163   2.727   1.112  0.5633  0.1495 -0.4749
 3703TIP3    H111115   0.138   2.820   1.105  0.5948  0.2977  1.1274
 3703TIP3    H211116   0.084   2.684   1.145  1.3713  0.1090  1.5710
 3704TIP3   OH211117   3.114   2.428   0.139 -0.4477  0.2689  0.4588
 3704TIP3    H111118   3.208   2.410   0.135 -0.6488 -1.2358  1.3568
 3704TIP3    H211119   3.083   2.374   0.213 -1.8238  1.6166  0.9166
 3705TIP3   OH211120   1.752   3.606   3.830  0.6794 -0.5889  0.5396
 3705TIP3    H111121   1.780   3.690   3.867 -3.8991  2.0144 -1.1162
 3705TIP3    H211122   1.749   3.547   3.906  1.0300  1.6454  2.4155
 3706TIP3   OH211123   0.825   1.762   4.203 -0.1261 -0.0458  0.4247
 3706TIP3    H111124   0.870   1.703   4.143  0.3111 -0.0205  0.7229
 3706TIP3    H211125   0.756   1.708   4.242 -3.0146  0.8608 -2.8878
 3707TIP3   OH211126   0.151   3.325   4.118  0.6291 -0.1167  0.1605
 3707TIP3    H111127   0.063   3.339   4.085  0.4198  2.5519  1.6107
 3707TIP3    H211128   0.204   3.393   4.076  1.3518  0.2219  1.5489
 3708TIP3   OH211129   0.545   4.118   2.593  0.4695  0.3377 -0.3883
 3708TIP3    H111130   0.477   4.056   2.569  1.8619 -0.8931 -1.3063
 3708TIP3    H211131   0.503   4.175   2.658 -1.0454 -1.1403  0.0104
 3709TIP3   OH211132   1.929   1.126   3.552  0.6512 -0.2653  0.0850
 3709TIP3    H111133   1.965   1.126   3.640  1.5028  1.7908 -0.1907
 3709TIP3    H211134   1.998   1.087   3.498  0.6375 -0.3850  0.1530
 3710TIP3   OH211135   3.304   0.247   2.062 -0.1408 -0.1036 -0.4491
 3710TIP3    H111136   3.249   0.326   2.067 -0.4306 -0.3519  0.6413
 3710TIP3    H211137   3.254   0.181   2.110  0.5561 -0.6795 -0.5127
 3711TIP3   OH211138   5.615   4.159   0.842  0.5978 -0.1737  0.5157
 3711TIP3    H111139   5.706   4.190   0.842  1.2106 -1.8592  0.7855
 3711TIP3    H211140   5.622   4.064   0.829 -1.1933 -0.1799 -0.7729
 3712TIP3   OH211141   5.815   5.685   0.984  0.2716 -0.1323  0.4714
 3712TIP3    H111142   5.829   5.665   1.076  1.9282  0.6990  0.4391
 3712TIP3    H211143   5.747   5.753   0.984  1.8874  1.5796  1.2945
 3713TIP3   OH211144   2.922   3.967   3.732 -0.1941  0.3055 -0.0035
 3713TIP3    H111145   2.828   3.953   3.741 -0.1324 -0.4722 -0.4677
 3713TIP3    H211146   2.929   4.057   3.699 -0.7963  0.2385 -0.3366
 3714TIP3   OH211147   1.233   4.092   1.535 -0.4932  0.3203 -0.6602
 3714TIP3    H111148   1.242   4.133   1.621 -0.7293  0.7897 -0.8565
 3714TIP3    H211149   1.304   4.027   1.531 -0.3165  0.4876 -0.2214
 3715TIP3   OH211150   2.681   2.540   3.102  0.2547 -0.4417  0.3934
 3715TIP3    H111151   2.624   2.472   3.139  0.2983 -0.5292  0.3034
 3715TIP3    H211152   2.670   2.530   3.007 -0.2578  0.1216  0.3878
 3716TIP3   OH211153   4.579   2.474   2.152  0.0716 -0.1250 -0.1102
 3716TIP3    H111154   4.584   2.383   2.124 -3.0918  0.4531 -3.1797
 3716TIP3    H211155   4.530   2.472   2.234  0.5504 -1.1698  0.1661
 3717TIP3   OH211156   0.212   2.447   0.802 -0.5100 -0.4870 -0.2136
 3717TIP3    H111157   0.259   2.518   0.845 -0.5152 -0.4924 -0.1991
 3717TIP3    H211158   0.217   2.374   0.863  0.3837 -0.8238 -0.6660
 3718TIP3   OH211159   5.152   2.174   0.463  0.1626  0.8225  0.5233
 3718TIP3    H111160   5.226   2.135   0.416  0.5536  1.8611  0.2477
 3718TIP3    H211161   5.171   2.268   0.463 -0.9213  1.0480  0.8765
 3719TIP3   OH211162   1.619   3.972   3.306  0.4539  0.2242  0.0955
 3719TIP3    H111163   1.682   3.900   3.310 -0.1821 -0.3026  1.2657
 3719TIP3    H211164   1.559   3.947   3.236 -0.3282 -0.8968  1.1284
 3720TIP3   OH211165   1.646   0.870   0.824  0.1006 -0.2335  0.2722
 3720TIP3    H111166   1.653   0.965   0.825 -0.8911 -0.1526  0.2607
 3720TIP3    H211167   1.649   0.844   0.916  0.7419 -0.2364  0.2603
 3721TIP3   OH211168   4.501   3.918   1.098 -0.3586  0.0745 -0.0713
 3721TIP3    H111169   4.475   4.000   1.056  1.3960  0.5711 -0.2607
 3721TIP3    H211170   4.516   3.857   1.026  1.6001  0.6135 -0.1877
 3722TIP3   OH211171   0.555   4.554   3.508 -0.1032  0.1773 -0.0545
 3722TIP3    H111172   0.564   4.628   3.448  1.2596 -1.0862 -1.4974
 3722TIP3    H211173   0.469   4.517   3.487 -0.0181  0.2775 -0.5861
 3723TIP3   OH211174   3.698   0.350   3.531  0.2739  0.1096  0.4722
 3723TIP3    H111175   3.762   0.355   3.460 -1.7735  1.5523 -1.4030
 3723TIP3    H211176   3.698   0.438   3.569  1.1277 -0.5663  2.1456
 3724TIP3   OH211177   3.769   3.602   2.075 -0.0675 -0.2136  0.0729
 3724TIP3    H111178   3.761   3.513   2.040 -1.0496 -0.7700  1.6182
 3724TIP3    H211179   3.700   3.609   2.140  1.2669  0.9756  1.4463
 3725TIP3   OH211180   0.893   1.148   4.565  0.5209  0.3625 -0.8474
 3725TIP3    H111181   0.985   1.128   4.547 -0.0466 -3.0812 -0.6234
 3725TIP3    H211182   0.875   1.105   4.649 -1.3938  0.5814 -1.0955
 3726TIP3   OH211183   1.689   5.509   4.311  0.0692 -0.3054 -0.3585
 3726TIP3    H111184   1.784   5.506   4.322  0.1561 -0.1867 -0.9900
 3726TIP3    H211185   1.677   5.532   4.218 -0.5729 -0.4973 -0.3267
 3727TIP3   OH211186   0.959   0.584   0.544 -0.1797 -0.4102  0.4173
 3727TIP3    H111187   1.043   0.539   0.558 -0.5478 -0.9546  0.9346
 3727TIP3    H211188   0.961   0.610   0.452  0.5906 -0.3496  0.4483
 3728TIP3   OH211189   4.000   5.721   4.766 -0.4461  0.8760  0.4299
 3728TIP3    H111190   3.920   5.763   4.795 -1.5031 -0.4966 -0.3614
 3728TIP3    H211191   4.070   5.764   4.816 -1.6628  2.0421  1.1900
 3729TIP3   OH211192   5.529   1.491   2.593  0.5242  0.2974  0.1369
 3729TIP3    H111193   5.589   1.485   2.519  0.0891  1.0561 -0.2975
 3729TIP3    H211194   5.513   1.585   2.603  0.3552  0.1851  1.0191
 3730TIP3   OH211195   0.942   1.296   1.436  0.2621  0.1588 -0.2146
 3730TIP3    H111196   1.010   1.360   1.456  0.2458 -0.1935  1.0419
 3730TIP3    H211197   0.866   1.324   1.488 -0.6602  0.6808 -1.7663
 3731TIP3   OH211198   5.457   2.404   2.934 -0.3446 -0.5987  0.3036
 3731TIP3    H111199   5.372   2.402   2.978 -1.2941  1.6563 -1.1912
 3731TIP3    H211200   5.504   2.477   2.975  0.7259 -1.5310  0.7981
 3732TIP3   OH211201   3.744   0.343   0.446 -0.3579  0.0270 -0.0969
 3732TIP3    H111202   3.678   0.286   0.486 -0.1203 -1.4552 -1.6773
 3732TIP3    H211203   3.779   0.291   0.373  1.7165  1.2245 -0.0405
 3733TIP3   OH211204   1.351   1.273   0.775  0.1771  0.2837 -0.0363
 3733TIP3    H111205   1.394   1.189   0.757  0.7184  0.3514  0.8677
 3733TIP3    H211206   1.258   1.255   0.763 -0.0495 -1.3147  2.9417
 3734TIP3   OH211207   4.957   5.747   4.631 -0.0306  0.2678 -0.3752
 3734TIP3    H111208   5.045   5.718   4.655 -0.0770  1.1431  0.9502
 3734TIP3    H211209   4.948   5.724   4.539  0.4553 -2.5491  0.2091
 3735TIP3   OH211210   0.955   4.164   1.951  0.7894  0.4997  0.7098
 3735TIP3    H111211   1.050   4.178   1.952  0.7220  1.0055  0.2734
 3735TIP3    H211212   0.918   4.252   1.959  0.3511  0.2701  1.3190
 3736TIP3   OH211213   1.322   0.914   2.351 -0.4317  0.2659 -0.3242
 3736TIP3    H111214   1.382   0.891   2.421 -0.9009  2.3788  0.8578
 3736TIP3    H211215   1.355   0.998   2.317 -1.6980  0.5885 -0.8325
 3737TIP3   OH211216   5.946   5.501   1.829 -0.4502 -0.0655 -0.1694
 3737TIP3    H111217   5.931   5.587   1.867  2.0757  1.8470 -2.9635
 3737TIP3    H211218   6.022   5.466   1.876 -0.3408  0.0976 -0.2231
 3738TIP3   OH211219   2.974   3.711   4.799 -0.1283 -0.0075 -0.2807
 3738TIP3    H111220   2.954   3.622   4.772 -0.7344 -0.3226  1.1210
 3738TIP3    H211221   2.901   3.737   4.855  0.8437  0.7507  0.6945
 3739TIP3   OH211222   5.667   1.104   4.654  0.0130 -0.2953 -0.1073
 3739TIP3    H111223   5.591   1.086   4.710  0.7841  1.4390  1.6140
 3739TIP3    H211224   5.730   1.146   4.712  1.0145  1.2841 -2.2254
 3740TIP3   OH211225   3.008   0.387   2.268 -0.2224  0.0223  0.3327
 3740TIP3    H111226   2.956   0.358   2.343 -0.3063 -0.4778  0.0877
 3740TIP3    H211227   3.094   0.409   2.305 -0.4491  0.3571  0.6610
 3741TIP3   OH211228   2.170   2.616   0.031 -0.7296  0.1782 -0.5852
 3741TIP3    H111229   2.082   2.654   0.039  0.2174  2.3093  0.8189
 3741TIP3    H211230   2.208   2.626   0.118  1.3555  0.5671 -1.4801
 3742TIP3   OH211231   0.571   4.408   2.416  0.1736 -0.4919  0.3928
 3742TIP3    H111232   0.553   4.455   2.497 -0.5870 -0.7206  0.3617
 3742TIP3    H211233   0.590   4.318   2.443  1.7894 -0.1755  0.4670
 3743TIP3   OH211234   1.400   1.222   1.431  0.3183 -0.3082 -0.2230
 3743TIP3    H111235   1.379   1.228   1.337 -1.7412 -2.0035  0.0531
 3743TIP3    H211236   1.357   1.141   1.460 -0.6168  1.0795  2.5789
 3744TIP3   OH211237   5.478   0.443   4.709 -0.3064 -0.6994  0.3914
 3744TIP3    H111238   5.478   0.424   4.615  0.4593 -1.6560  0.5795
 3744TIP3    H211239   5.569   0.434   4.736 -0.4428  0.0418  1.1437
 3745TIP3   OH211240   4.122   4.593   0.486 -0.3711 -0.1511  0.3548
 3745TIP3    H111241   4.212   4.618   0.506  0.0669 -2.9810  2.5804
 3745TIP3    H211242   4.073   4.613   0.566 -1.3688 -0.2071 -0.2269
 3746TIP3   OH211243   1.287   4.776   1.224  0.0420  0.3908  0.1149
 3746TIP3    H111244   1.322   4.711   1.285 -1.2017  0.1783  0.6289
 3746TIP3    H211245   1.222   4.825   1.274 -1.4386 -0.1730 -1.1590
 3747TIP3   OH211246   2.097   2.598   1.369 -0.2221 -0.3072 -0.5456
 3747TIP3    H111247   2.177   2.621   1.321  0.0152 -1.0916 -0.5368
 3747TIP3    H211248   2.115   2.511   1.405 -1.0133 -0.4111 -0.3920
 3748TIP3   OH211249   6.058   4.078   3.916 -0.0069 -0.1738 -0.5030
 3748TIP3    H111250   6.087   4.154   3.966  0.6606 -0.2468 -0.7573
 3748TIP3    H211251   6.140   4.036   3.888 -0.3666 -0.8423 -0.5737
 3749TIP3   OH211252   5.734   5.388   0.634  0.0584  0.1421  0.0459
 3749TIP3    H111253   5.797   5.429   0.575 -0.1725 -0.0655 -0.3534
 3749TIP3    H211254   5.782   5.375   0.716  0.8411 -0.8975 -0.5436
 3750TIP3   OH211255   1.183   0.136   0.338 -0.1020  0.4968  0.0079
 3750TIP3    H111256   1.124   0.070   0.303  0.6084  0.2109 -0.6811
 3750TIP3    H211257   1.131   0.181   0.405 -0.3122 -1.3519  1.1692
 3751TIP3   OH211258   1.112   2.574   1.004  0.2181  0.0412 -1.2107
 3751TIP3    H111259   1.057   2.651   1.023 -0.3143 -0.9493  1.7053
 3751TIP3    H211260   1.201   2.608   1.001  0.0621  0.7305  0.7698
 3752TIP3   OH211261   3.819   0.257   0.971  0.4739  0.7170 -0.1974
 3752TIP3    H111262   3.726   0.247   0.992  0.7811 -0.1218  0.7904
 3752TIP3    H211263   3.845   0.339   1.013  0.4726  0.3252  0.5762
 3753TIP3   OH211264   2.451   2.585   3.672 -0.1464 -0.0123  0.0652
 3753TIP3    H111265   2.436   2.493   3.695 -0.6427 -0.2000 -0.9340
 3753TIP3    H211266   2.476   2.627   3.754  1.5256 -1.3249  0.2908
 3754TIP3   OH211267   3.851   5.474   0.954  0.2050  0.1157  0.4549
 3754TIP3    H111268   3.778   5.412   0.950 -0.5361  0.8525  1.8512
 3754TIP3    H211269   3.862   5.492   1.047  0.0404  2.4779  0.0765
 3755TIP3   OH211270   2.520   1.166   2.211  0.2309 -0.1951 -0.3819
 3755TIP3    H111271   2.489   1.076   2.220 -2.6163  0.8193  0.8048
 3755TIP3    H211272   2.546   1.191   2.299  0.8861  0.2140 -0.6843
 3756TIP3   OH211273   5.948   2.955   1.063  0.2882 -0.1172  0.4013
 3756TIP3    H111274   5.916   3.042   1.041  0.2696 -0.1829  0.1650
 3756TIP3    H211275   5.931   2.946   1.157  0.1607  0.0775  0.3970
 3757TIP3   OH211276   2.331   1.209   4.267 -0.1199  0.5021 -0.0501
 3757TIP3    H111277   2.247   1.182   4.305  0.3436 -1.5903 -0.3650
 3757TIP3    H211278   2.307   1.265   4.194 -1.2253  0.4149  0.2173
 3758TIP3   OH211279   1.591   1.929   3.740 -0.0453 -0.5108  0.1267
 3758TIP3    H111280   1.577   1.960   3.651  0.2193 -2.5477 -0.7029
 3758TIP3    H211281   1.537   1.850   3.747 -1.6396  0.6792  2.4931
 3759TIP3   OH211282   0.437   3.069   2.722 -0.1720  0.0912 -0.1866
 3759TIP3    H111283   0.441   2.982   2.682  0.1938 -0.2939  0.6555
 3759TIP3    H211284   0.399   3.125   2.654  2.5393 -0.0324 -1.9726
 3760TIP3   OH211285   5.495   2.689   1.608 -0.5705  0.0951  0.1491
 3760TIP3    H111286   5.469   2.611   1.657  0.4285  0.5957  1.5488
 3760TIP3    H211287   5.567   2.658   1.553 -0.2480 -0.0138  0.6192
 3761TIP3   OH211288   3.926   2.032   2.300 -0.1446 -0.0797  0.1556
 3761TIP3    H111289   3.868   1.994   2.366 -0.9661  3.3175  1.5636
 3761TIP3    H211290   4.013   2.031   2.340  0.5823 -3.3028 -1.1642
 3762TIP3   OH211291   0.330   3.906   2.904  0.4411 -0.7194 -0.2901
 3762TIP3    H111292   0.277   3.893   2.825 -0.1320  0.4492 -0.1225
 3762TIP3    H211293   0.412   3.946   2.871  1.2225 -2.4534 -0.5398
 3763TIP3   OH211294   5.900   4.757   2.535  0.0313  0.1237 -0.0613
 3763TIP3    H111295   5.862   4.762   2.623 -1.5194 -0.0167 -0.6944
 3763TIP3    H211296   5.827   4.779   2.476  0.4143 -1.9928 -1.4302
 3764TIP3   OH211297   0.713   3.110   1.706 -0.5338  0.2209  0.1416
 3764TIP3    H111298   0.673   3.183   1.752 -0.6262  0.1572  0.1634
 3764TIP3    H211299   0.729   3.045   1.774 -2.2648 -0.5821 -0.1654
 3765TIP3   OH211300   6.284   5.756   0.140  0.4217  0.5014  0.5901
 3765TIP3    H111301   6.241   5.841   0.136  0.9091  0.7380  0.3650
 3765TIP3    H211302   6.294   5.738   0.234 -1.2915 -0.1364  0.6893
 3766TIP3   OH211303   6.256   2.706   4.769 -0.2969 -0.0768  0.1672
 3766TIP3    H111304   6.322   2.636   4.766  1.3208  1.3961 -0.5498
 3766TIP3    H211305   6.286   2.769   4.705 -0.6506  2.1773  2.0886
 3767TIP3   OH211306   4.971   0.907   2.793  0.0454  0.0516 -0.8638
 3767TIP3    H111307   5.057   0.880   2.760 -0.0029 -0.2570 -0.7398
 3767TIP3    H211308   4.909   0.868   2.731 -0.0765 -1.0523 -0.0750
 3768TIP3   OH211309   4.242   0.511   2.716  0.3455  0.7991 -0.4472
 3768TIP3    H111310   4.230   0.443   2.650  1.0018 -1.4243  1.6302
 3768TIP3    H211311   4.327   0.492   2.756 -0.4117  1.5285  1.6344
 3769TIP3   OH211312   6.114   1.530   4.290 -0.0354  0.4027 -0.3037
 3769TIP3    H111313   6.040   1.546   4.348  0.4924  2.3976 -0.1158
 3769TIP3    H211314   6.089   1.452   4.240 -0.8044 -0.9513  2.0486
 3770TIP3   OH211315   5.864   0.431   1.793  0.3328 -0.3159 -0.5334
 3770TIP3    H111316   5.832   0.373   1.724  0.1113  0.3283 -0.9787
 3770TIP3    H211317   5.798   0.425   1.862  0.1101 -0.2845 -0.7437
 3771TIP3   OH211318   1.620   0.307   3.051  0.2383 -0.4701  0.5039
 3771TIP3    H111319   1.669   0.362   3.112 -0.9037  0.0277  1.0039
 3771TIP3    H211320   1.584   0.369   2.987  0.6458 -0.8848 -0.1359
 3772TIP3   OH211321   3.436   1.930   0.909 -0.3139  0.1363  0.0966
 3772TIP3    H111322   3.520   1.974   0.928  0.0144 -0.6602  0.5553
 3772TIP3    H211323   3.370   1.995   0.932  0.1456  0.1815  1.4036
 3773TIP3   OH211324   0.164   5.035   0.765 -0.9082 -0.3877 -0.0642
 3773TIP3    H111325   0.245   5.045   0.815 -1.1524 -0.1034  0.2793
 3773TIP3    H211326   0.148   4.940   0.764 -1.4575 -0.3378  1.3233
 3774TIP3   OH211327   1.296   2.213   3.811  0.1642 -0.7172  0.7640
 3774TIP3    H111328   1.232   2.282   3.823  1.3584  0.6587 -0.3496
 3774TIP3    H211329   1.311   2.178   3.898 -0.0697  0.8224  1.4472
 3775TIP3   OH211330   4.271   0.575   0.030  0.1792  0.0637  0.0616
 3775TIP3    H111331   4.333   0.507   0.057  0.4123  0.2851  0.0880
 3775TIP3    H211332   4.319   0.626  -0.034 -0.3376 -0.3956 -0.7011
 3776TIP3   OH211333   0.329   3.279   5.119  0.1236  0.8513 -0.1515
 3776TIP3    H111334   0.272   3.209   5.087  1.9794 -0.5126 -0.6182
 3776TIP3    H211335   0.351   3.329   5.041  0.9388  0.3141 -0.2778
 3777TIP3   OH211336   0.263   0.586   4.380  0.6879 -0.0162 -0.0732
 3777TIP3    H111337   0.222   0.563   4.297  0.5797 -0.6390  0.1487
 3777TIP3    H211338   0.300   0.504   4.412  1.7307  0.4433 -0.0528
 3778TIP3   OH211339   4.717   1.031   2.916  0.1568  0.2087  0.3142
 3778TIP3    H111340   4.744   1.062   2.830  0.6573  0.4369  0.5482
 3778TIP3    H211341   4.774   0.956   2.933 -1.6439 -1.4748 -0.6400
 3779TIP3   OH211342   3.333   0.739   2.541  0.0300 -0.0754  0.0362
 3779TIP3    H111343   3.349   0.726   2.447  0.1718 -1.1540  0.1979
 3779TIP3    H211344   3.369   0.826   2.560  0.4182 -0.0423 -0.8100
 3780TIP3   OH211345   0.727   1.782   2.134 -0.2592 -0.0547  0.1842
 3780TIP3    H111346   0.798   1.722   2.155  0.3563 -0.0050 -1.5474
 3780TIP3    H211347   0.649   1.745   2.176  0.6619 -0.4323  1.6023
 3781TIP3   OH211348   4.329   3.772   3.911 -0.2349  0.5192 -0.1686
 3781TIP3    H111349   4.370   3.831   3.848  1.6196 -0.7782 -0.2594
 3781TIP3    H211350   4.383   3.780   3.990  0.0155 -0.9556 -0.1590
 3782TIP3   OH211351   4.575   4.926   1.227 -0.6507  0.2503  0.4110
 3782TIP3    H111352   4.529   4.843   1.212 -0.5914  0.1041  1.0358
 3782TIP3    H211353   4.665   4.909   1.199 -0.0834 -0.5818  2.5352
 3783TIP3   OH211354   0.292   2.032   2.221 -0.2773  0.3401  0.1797
 3783TIP3    H111355   0.315   1.941   2.238  0.6214  0.1413 -1.8200
 3783TIP3    H211356   0.261   2.065   2.305  1.5666 -1.1483  1.5214
 3784TIP3   OH211357   4.134   0.945   1.339 -0.2009 -0.1441 -0.3865
 3784TIP3    H111358   4.168   1.016   1.286 -0.0467  1.0478  1.2385
 3784TIP3    H211359   4.135   0.869   1.281  1.1711  0.8018 -1.6652
 3785TIP3   OH211360   2.878   2.400   1.306  0.6627 -0.4427  0.6406
 3785TIP3    H111361   2.870   2.383   1.212  0.9724 -0.6190  0.6444
 3785TIP3    H211362   2.794   2.439   1.330 -0.2393 -2.3105  0.7016
 3786TIP3   OH211363   2.097   1.497   4.148  0.5857  0.7597  0.7059
 3786TIP3    H111364   2.034   1.493   4.220  1.6623  0.7733  1.6920
 3786TIP3    H211365   2.060   1.561   4.087 -1.0436 -0.2927  0.5297
 3787TIP3   OH211366   5.977   1.370   4.071 -0.0841  0.2743 -0.1339
 3787TIP3    H111367   5.986   1.328   3.986  1.2724  1.0995 -0.4263
 3787TIP3    H211368   5.906   1.322   4.115  0.9312 -1.8417 -0.6996
 3788TIP3   OH211369   0.378   2.400   0.597 -0.1633  0.8152  0.4752
 3788TIP3    H111370   0.307   2.433   0.653  1.0279  0.8894  1.9991
 3788TIP3    H211371   0.398   2.313   0.632  0.1421  0.5645 -0.2948
 3789TIP3   OH211372   5.913   4.188   3.396 -0.5664  0.0841  0.3239
 3789TIP3    H111373   5.938   4.213   3.485  2.1669  0.2831 -0.4188
 3789TIP3    H211374   5.912   4.093   3.396 -1.9920  0.0678  0.8669
 3790TIP3   OH211375   4.455   2.988   4.222  0.4955  0.1137 -0.1008
 3790TIP3    H111376   4.423   3.078   4.213  0.8891  0.2385 -0.2951
 3790TIP3    H211377   4.541   2.989   4.179  1.3220  0.0868  1.4885
 3791TIP3   OH211378   4.063   5.136   4.213  0.1872 -0.4890  0.4534
 3791TIP3    H111379   4.131   5.072   4.188 -0.8579 -1.5327  0.1835
 3791TIP3    H211380   4.036   5.109   4.301 -1.6497 -1.7126 -0.4125
 3792TIP3   OH211381   2.229   1.805   0.389 -0.2773  0.0538 -0.5688
 3792TIP3    H111382   2.171   1.828   0.463 -0.3031 -0.6423 -0.3592
 3792TIP3    H211383   2.310   1.777   0.431  0.5405  1.8475 -0.8905
 3793TIP3   OH211384   3.397   5.272   1.263 -0.2794  0.7073  0.5887
 3793TIP3    H111385   3.330   5.229   1.316 -0.3748  1.4473  1.0671
 3793TIP3    H211386   3.403   5.217   1.184 -1.0020  0.2930  0.8117
 3794TIP3   OH211387   0.347   0.593   0.494  0.4625 -0.2455 -0.4002
 3794TIP3    H111388   0.263   0.548   0.495  1.5518 -2.4372  0.2131
 3794TIP3    H211389   0.359   0.624   0.584 -0.0053  0.7930 -0.6757
 3795TIP3   OH211390   0.698   3.170   3.590  0.1630 -0.3040 -0.7408
 3795TIP3    H111391   0.780   3.218   3.582  1.3363 -1.9877  0.4352
 3795TIP3    H211392   0.680   3.136   3.502 -0.7374  2.2230 -1.6085
 3796TIP3   OH211393   1.701   1.268   3.610 -0.4143 -0.8587 -0.1434
 3796TIP3    H111394   1.780   1.215   3.595 -0.0499 -0.5416  0.6354
 3796TIP3    H211395   1.658   1.226   3.685 -0.7933 -0.8057 -0.3299
 3797TIP3   OH211396   5.648   1.917   1.269 -0.3311 -0.1740  0.2289
 3797TIP3    H111397   5.647   1.831   1.226  0.8365  0.7423 -1.7863
 3797TIP3    H211398   5.732   1.919   1.316 -0.5674 -0.3063  0.6572
 3798TIP3   OH211399   0.737   4.755   4.029 -0.5900 -0.2471  0.4542
 3798TIP3    H111400   0.693   4.677   4.063 -0.5352 -0.2954  0.4117
 3798TIP3    H211401   0.808   4.772   4.092 -0.2802 -0.5293  0.1793
 3799TIP3   OH211402   0.090   0.516   0.461 -0.0802  0.1249  0.0316
 3799TIP3    H111403   0.021   0.488   0.400 -0.4753  1.6906 -0.2887
 3799TIP3    H211404   0.045   0.573   0.523  0.8386  0.8137  0.0846
 3800TIP3   OH211405   0.434   0.200   4.733 -0.0791 -0.0361 -0.5372
 3800TIP3    H111406   0.502   0.165   4.676 -0.1942  0.3436 -0.9133
 3800TIP3    H211407   0.482   0.232   4.809 -0.0546 -1.8466  0.2606
 3801TIP3   OH211408   2.984   4.070   1.881 -0.1081  0.0455 -0.2739
 3801TIP3    H111409   2.934   4.106   1.955 -1.2739  0.6764 -1.3349
 3801TIP3    H211410   2.934   4.095   1.804  0.9952 -0.7599 -1.2836
 3802TIP3   OH211411   1.619   3.496   0.966 -0.2992  0.0605  0.2511
 3802TIP3    H111412   1.697   3.441   0.974 -1.1017 -1.0136  1.2135
 3802TIP3    H211413   1.573   3.484   1.049 -0.6837  1.9735  0.3613
 3803TIP3   OH211414   2.197   3.473   1.452 -0.4930 -0.0391  0.0572
 3803TIP3    H111415   2.282   3.430   1.466 -0.5099 -0.3815 -0.8450
 3803TIP3    H211416   2.137   3.427   1.512 -0.4502 -1.0996 -0.6945
 3804TIP3   OH211417   0.997   1.244   2.862 -0.0548 -0.7475  0.2451
 3804TIP3    H111418   1.092   1.232   2.859  0.3356  1.6685  0.9426
 3804TIP3    H211419   0.962   1.157   2.845  2.2737 -1.7752  0.2534
 3805TIP3   OH211420   6.379   1.503   3.006 -0.1844  0.2974 -0.1312
 3805TIP3    H111421   6.344   1.571   2.948  1.7797 -0.7498 -2.7222
 3805TIP3    H211422   6.305   1.446   3.024 -1.6615  2.5156  1.3767
 3806TIP3   OH211423   0.067   1.755   2.194  0.0847 -0.3508 -0.0655
 3806TIP3    H111424   0.056   1.662   2.174  1.0676 -0.4550 -0.1636
 3806TIP3    H211425   0.148   1.780   2.150 -0.2958  0.6159 -0.2418
 3807TIP3   OH211426   5.130   5.211   3.713  0.1346 -0.7601  0.1704
 3807TIP3    H111427   5.070   5.277   3.679  0.1632 -0.5408  0.5424
 3807TIP3    H211428   5.097   5.191   3.800  0.0565 -1.3268  0.0098
 3808TIP3   OH211429   5.702   5.511   3.962 -0.2170 -0.0341  0.1521
 3808TIP3    H111430   5.687   5.445   3.895  2.4359 -0.2569 -0.3025
 3808TIP3    H211431   5.638   5.490   4.030 -1.3893 -1.2413 -1.2251
 3809TIP3   OH211432   2.043   3.094   0.512  0.3626 -0.2200 -0.6192
 3809TIP3    H111433   2.099   3.152   0.564 -0.0612  2.3460 -2.7948
 3809TIP3    H211434   1.982   3.153   0.467 -1.3753 -2.5546 -1.5652
 3810TIP3   OH211435   3.581   5.294   2.849  0.4409  0.2833 -0.2168
 3810TIP3    H111436   3.570   5.262   2.759 -0.4218  1.4137 -0.5293
 3810TIP3    H211437   3.500   5.267   2.893 -0.9736  3.1678 -0.8568
 3811TIP3   OH211438   3.049   2.246   2.256 -0.1804 -0.4852 -0.4845
 3811TIP3    H111439   3.018   2.313   2.195  1.2049 -0.3579 -1.0808
 3811TIP3    H211440   2.972   2.192   2.274 -0.9500  0.3522 -1.1946
 3812TIP3   OH211441   3.389   3.927   2.660  0.0425  0.3066  0.0507
 3812TIP3    H111442   3.305   3.898   2.696  0.5260 -0.2538  0.7459
 3812TIP3    H211443   3.435   3.846   2.637 -0.8422  0.6010 -3.3501
 3813TIP3   OH211444   3.186   4.928   0.861  0.1106  0.3867 -0.6755
 3813TIP3    H111445   3.119   4.912   0.794 -0.3802 -1.9168  0.2562
 3813TIP3    H211446   3.138   4.970   0.933 -0.3793 -1.2052 -0.0337
 3814TIP3   OH211447   1.287   0.148   2.091  0.1271 -0.1840  0.0485
 3814TIP3    H111448   1.238   0.065   2.092  1.7893 -1.2044  1.5048
 3814TIP3    H211449   1.346   0.140   2.016  0.6615 -0.5672  0.5033
 3815TIP3   OH211450   5.325   1.189   1.775  0.3697 -0.4306  0.3551
 3815TIP3    H111451   5.299   1.098   1.790 -3.4974  0.3725 -0.3070
 3815TIP3    H211452   5.333   1.197   1.680 -0.8122  0.2160  0.2964
 3816TIP3   OH211453   2.487   0.820   2.555  0.3667  0.5169  0.0112
 3816TIP3    H111454   2.474   0.727   2.569 -1.1022  0.7468  0.3583
 3816TIP3    H211455   2.399   0.857   2.554  0.7453  1.5957 -2.4190
 3817TIP3   OH211456   0.809   5.377   4.976  0.6130  0.1261 -0.0034
 3817TIP3    H111457   0.796   5.309   5.042  0.7092 -2.0955 -2.1522
 3817TIP3    H211458   0.865   5.337   4.910 -1.3410  1.3476 -2.6103
 3818TIP3   OH211459   1.776   4.160   2.692 -0.1765  0.2668 -0.5895
 3818TIP3    H111460   1.701   4.191   2.641 -0.9966 -0.0092  0.3972
 3818TIP3    H211461   1.738   4.096   2.753  0.4382  1.7671  1.4687
 3819TIP3   OH211462   5.669   3.082   2.431  0.1056  0.2446 -0.4112
 3819TIP3    H111463   5.657   3.155   2.492  0.7273  0.1992 -0.2325
 3819TIP3    H211464   5.611   3.103   2.357  0.0646  0.7730 -0.2303
 3820TIP3   OH211465   0.211   4.744   4.265  0.6455 -0.2932  0.0141
 3820TIP3    H111466   0.199   4.732   4.360  0.6919  1.9727  0.3599
 3820TIP3    H211467   0.304   4.760   4.255  0.3774  1.2991 -0.1436
 3821TIP3   OH211468   1.640   5.495   1.358 -0.4189 -0.0305 -0.4858
 3821TIP3    H111469   1.638   5.564   1.292  1.4117  1.7597  1.2027
 3821TIP3    H211470   1.570   5.519   1.419  0.5252  0.6542  0.3565
 3822TIP3   OH211471   4.782   0.005   4.264 -0.2613  0.6204 -0.2564
 3822TIP3    H111472   4.854  -0.009   4.326 -0.0563  1.8267 -0.2047
 3822TIP3    H211473   4.704   0.010   4.319 -0.3526 -0.3585 -0.2842
 3823TIP3   OH211474   2.336   2.321   3.647  0.2627 -0.0583 -0.5985
 3823TIP3    H111475   2.406   2.258   3.629  0.3044 -0.4239  0.7416
 3823TIP3    H211476   2.271   2.306   3.578  0.4941 -1.2320 -0.5675
 3824TIP3   OH211477   6.107   0.615   2.636 -0.2853 -0.4848 -0.1008
 3824TIP3    H111478   6.148   0.681   2.692  0.3479 -0.2277 -0.8627
 3824TIP3    H211479   6.102   0.655   2.550 -0.4361 -1.2093 -0.4380
 3825TIP3   OH211480   2.161   2.271   3.438  0.2207 -0.0095  0.8423
 3825TIP3    H111481   2.140   2.364   3.440 -3.1844 -0.5838 -1.0792
 3825TIP3    H211482   2.169   2.250   3.345 -1.5001 -2.0302  1.0858
 3826TIP3   OH211483   4.338   0.766   4.256 -0.2613  0.6901  0.0216
 3826TIP3    H111484   4.247   0.755   4.228 -0.3688 -0.7765  0.8553
 3826TIP3    H211485   4.382   0.687   4.226  0.6555  1.2030 -0.0097
 3827TIP3   OH211486   6.209   4.490   0.359  0.4663 -0.3179 -0.0211
 3827TIP3    H111487   6.273   4.522   0.422  0.2233  2.4862 -1.0457
 3827TIP3    H211488   6.232   4.533   0.277 -1.8976 -0.2675 -0.7491
 3828TIP3   OH211489   1.430   0.151   0.719  0.2011  0.4100  0.4884
 3828TIP3    H111490   1.453   0.058   0.717  0.6046  0.5229 -1.2177
 3828TIP3    H211491   1.419   0.170   0.813  0.7364 -1.1857  0.9182
 3829TIP3   OH211492   1.084   2.630   2.639  0.5186 -0.4701  0.3359
 3829TIP3    H111493   1.132   2.640   2.721 -1.6591  0.7942  1.5563
 3829TIP3    H211494   1.113   2.704   2.585  0.4430 -0.0949  0.8033
 3830TIP3   OH211495   3.715   2.359   1.064  0.4475 -0.2966 -0.1901
 3830TIP3    H111496   3.648   2.427   1.052  2.1880  1.3614 -1.1542
 3830TIP3    H211497   3.769   2.365   0.985  1.5705 -1.7700  0.4254
 3831TIP3   OH211498   5.231   2.355   2.590 -0.5443 -0.5606  0.6535
 3831TIP3    H111499   5.158   2.298   2.615  0.2782 -1.4710  1.0440
 3831TIP3    H211500   5.258   2.323   2.504 -0.7088 -0.1322  0.4461
 3832TIP3   OH211501   1.056   3.767   0.221  0.0290  0.0117 -0.5521
 3832TIP3    H111502   1.136   3.815   0.203  0.3120 -0.2109  0.0981
 3832TIP3    H211503   1.007   3.824   0.281  0.1288 -0.2670 -0.2005
 3833TIP3   OH211504   0.070   2.225   1.368 -0.0188 -0.2605  0.5027
 3833TIP3    H111505   0.033   2.312   1.350 -0.1799 -0.3315  0.4968
 3833TIP3    H211506   0.145   2.243   1.425 -0.5999 -0.1986  1.2531
 3834TIP3   OH211507   4.110   0.285   0.907  0.5049  0.7020 -0.3937
 3834TIP3    H111508   4.172   0.219   0.878  0.0230  0.1725 -0.2287
 3834TIP3    H211509   4.025   0.255   0.874  0.4448  1.9004 -1.4491
 3835TIP3   OH211510   6.282   1.272   1.767  0.3832 -0.0060 -0.2879
 3835TIP3    H111511   6.214   1.335   1.790  1.2352  0.8689 -0.0855
 3835TIP3    H211512   6.309   1.234   1.851  0.6296  0.1636 -0.2902
 3836TIP3   OH211513   2.695   5.021   4.611 -0.0808 -0.3369  0.1483
 3836TIP3    H111514   2.664   4.962   4.679 -0.4450 -2.1544 -1.4915
 3836TIP3    H211515   2.783   4.990   4.590 -0.6257 -0.9594 -1.3842
 3837TIP3   OH211516   6.303   1.402   1.089  0.7689  0.1977 -0.1461
 3837TIP3    H111517   6.378   1.441   1.132 -0.1966  0.1572  1.6824
 3837TIP3    H211518   6.262   1.347   1.156 -1.1073  0.5254 -0.9413
 3838TIP3   OH211519   5.235   2.666   2.151  0.5396  0.3517 -0.0353
 3838TIP3    H111520   5.262   2.702   2.066  0.9651  0.9191  0.3402
 3838TIP3    H211521   5.277   2.722   2.216 -1.4331  1.1778  0.5764
 3839TIP3   OH211522   4.935   4.301   4.180  0.0707 -0.3808 -0.4449
 3839TIP3    H111523   4.989   4.252   4.118 -0.5060  0.2599 -1.4727
 3839TIP3    H211524   4.916   4.238   4.250  0.6111 -1.1546 -0.9766
 3840TIP3   OH211525   5.226   5.474   3.411  0.5427 -1.1211  0.7695
 3840TIP3    H111526   5.257   5.423   3.337  0.3581 -0.1035 -0.0266
 3840TIP3    H211527   5.131   5.460   3.413  0.4582 -0.6143  0.3946
 3841TIP3   OH211528   4.338   2.216   1.995 -0.3556  0.3378  0.2383
 3841TIP3    H111529   4.320   2.194   1.904  2.7154  1.1416 -0.6775
 3841TIP3    H211530   4.326   2.310   2.000  1.8309  0.6742 -0.0389
 3842TIP3   OH211531   5.124   1.015   0.308  0.3417  0.0386 -0.1029
 3842TIP3    H111532   5.148   0.965   0.230 -0.9629 -1.0736  0.1601
 3842TIP3    H211533   5.037   1.050   0.288 -2.0402 -3.7792  2.2684
 3843TIP3   OH211534   1.886   1.208   4.667  0.1818  0.1085  0.2456
 3843TIP3    H111535   1.930   1.262   4.733  0.4117  0.0307  0.1568
 3843TIP3    H211536   1.826   1.153   4.717 -1.2123  1.5351  0.2177
 3844TIP3   OH211537   0.954   3.976   4.930 -0.0783 -0.1233  0.0760
 3844TIP3    H111538   0.950   4.020   4.846 -0.4700 -3.4040 -1.8110
 3844TIP3    H211539   1.040   3.998   4.965  0.2194  1.0754 -1.3286
 3845TIP3   OH211540   2.797   4.068   0.633 -0.0822  0.0147  0.6349
 3845TIP3    H111541   2.879   4.075   0.583  0.4888  1.5832  1.7133
 3845TIP3    H211542   2.747   4.145   0.607 -0.8315 -0.4563  0.6627
 3846TIP3   OH211543   1.276   1.321   4.619 -0.0472 -0.5403  0.4843
 3846TIP3    H111544   1.226   1.298   4.541  1.7895 -0.9660 -0.6254
 3846TIP3    H211545   1.353   1.367   4.586  0.5195 -0.2335  2.0999
 3847TIP3   OH211546   2.372   4.532   0.516  0.5634  0.4889 -0.1271
 3847TIP3    H111547   2.419   4.494   0.442  0.7133  0.2184  0.1081
 3847TIP3    H211548   2.431   4.522   0.591  0.4572  0.8570  0.0120
 3848TIP3   OH211549   4.111   0.259   4.146 -0.7104 -0.1402 -0.2879
 3848TIP3    H111550   4.043   0.201   4.179 -1.9001  0.7146 -1.1353
 3848TIP3    H211551   4.065   0.318   4.086  0.6427  0.9746 -0.2799
 3849TIP3   OH211552   2.618   4.909   2.355 -0.0799 -0.0427  0.3937
 3849TIP3    H111553   2.628   4.946   2.443  0.8926 -0.2725  0.3908
 3849TIP3    H211554   2.648   4.978   2.296 -3.9220  1.4987 -0.0651
 3850TIP3   OH211555   4.860   0.384   1.087  0.2793 -0.9060 -0.3310
 3850TIP3    H111556   4.841   0.478   1.095 -0.2860 -0.7773 -2.4500
 3850TIP3    H211557   4.868   0.353   1.177 -2.9778  0.4831  0.5800
 3851TIP3   OH211558   1.506  -0.025   0.922 -0.7439  0.0710 -0.2021
 3851TIP3    H111559   1.521   0.069   0.920 -1.8245  0.2675 -3.0751
 3851TIP3    H211560   1.428  -0.036   0.977 -0.8138  0.8898 -0.1341
 3852TIP3   OH211561   4.921   0.327   3.755  0.1036  0.2296 -0.0720
 3852TIP3    H111562   4.995   0.267   3.772 -0.0871  0.3777  1.4451
 3852TIP3    H211563   4.852   0.270   3.722  0.2354 -0.2464  0.4520
 3853TIP3   OH211564   5.892   1.442   2.786 -0.0106 -0.6356  0.2905
 3853TIP3    H111565   5.844   1.360   2.795  0.9781 -1.0185  3.3746
 3853TIP3    H211566   5.844   1.504   2.841  1.1101 -0.1476  0.7703
 3854TIP3   OH211567   5.216   2.163   1.015 -0.3282 -0.5259 -0.6372
 3854TIP3    H111568   5.223   2.221   1.091  0.3617 -1.4602  0.0283
 3854TIP3    H211569   5.183   2.081   1.050 -0.5123 -0.8031 -1.4393
 3855TIP3   OH211570   4.261   1.302   2.012  1.1397 -0.1942 -0.2299
 3855TIP3    H111571   4.356   1.305   2.000  0.9658  1.2484 -1.5204
 3855TIP3    H211572   4.228   1.261   1.933  0.7552 -2.2412  0.9347
 3856TIP3   OH211573   1.678   3.068   3.314  0.5059  0.5305 -0.2928
 3856TIP3    H111574   1.670   3.138   3.379 -0.9122 -0.4395  0.6174
 3856TIP3    H211575   1.759   3.023   3.336 -0.1972 -0.0919  1.1486
 3857TIP3   OH211576   0.373   4.936   3.981 -0.2969  0.5788  0.0387
 3857TIP3    H111577   0.419   4.900   3.904 -0.2592 -1.1339  0.8084
 3857TIP3    H211578   0.383   4.868   4.048 -2.0844  1.1322  0.9179
 3858TIP3   OH211579   4.780   1.952   3.271 -0.5956  0.1093  0.0612
 3858TIP3    H111580   4.796   1.954   3.366 -0.1113  2.1109 -0.0174
 3858TIP3    H211581   4.735   1.869   3.256  1.2727 -1.2947  1.7113
 3859TIP3   OH211582   0.112   1.218   0.038  0.1969 -0.6298  0.0421
 3859TIP3    H111583   0.203   1.205   0.010  0.1843  1.0404 -0.9695
 3859TIP3    H211584   0.073   1.131   0.035  1.5162 -1.2371 -0.4381
 3860TIP3   OH211585   4.130   2.804   4.660  0.1270  0.4074 -0.5196
 3860TIP3    H111586   4.093   2.788   4.573  0.2965  0.1453 -0.5454
 3860TIP3    H211587   4.209   2.855   4.643 -1.0358  2.3775 -0.3581
 3861TIP3   OH211588   1.889   1.486   0.108  0.0089  0.0461  0.2296
 3861TIP3    H111589   1.807   1.473   0.061  0.4859  0.1280 -0.6519
 3861TIP3    H211590   1.956   1.449   0.051  0.6975  0.8646  0.4828
 3862TIP3   OH211591   0.663   2.602   5.034  0.0496 -0.0887 -0.6065
 3862TIP3    H111592   0.645   2.631   4.944  2.6619  1.3176 -0.7850
 3862TIP3    H211593   0.607   2.658   5.088  2.0922  2.7599 -1.1822
 3863TIP3   OH211594   1.764   2.674   1.146  0.0800 -0.5753 -0.3051
 3863TIP3    H111595   1.711   2.695   1.069 -0.1477 -1.6015 -0.4487
 3863TIP3    H211596   1.828   2.610   1.114  0.6688 -0.2065  0.1230
 3864TIP3   OH211597   5.150   1.846   4.660 -1.0735 -0.1554  0.0333
 3864TIP3    H111598   5.199   1.892   4.592 -2.4600 -1.1943 -1.7613
 3864TIP3    H211599   5.210   1.777   4.689 -0.8002 -0.3093 -0.8537
 3865TIP3   OH211600   3.361   0.638   1.979 -0.0357 -0.2587  0.1086
 3865TIP3    H111601   3.341   0.684   1.898  1.5139  1.4048  0.6079
 3865TIP3    H211602   3.299   0.673   2.043  0.7357  0.7414  0.3368
 3866TIP3   OH211603   0.484   0.901   0.833  0.2798 -0.1860  0.0943
 3866TIP3    H111604   0.554   0.951   0.791  0.7989 -0.1930  0.9255
 3866TIP3    H211605   0.418   0.966   0.856  0.7590  0.0698  0.7828
 3867TIP3   OH211606   4.457   2.083   0.153  0.2007 -0.0079 -0.0193
 3867TIP3    H111607   4.428   1.998   0.185 -1.5811  0.8351  0.7455
 3867TIP3    H211608   4.551   2.085   0.172  0.2372 -1.6988  0.1396
 3868TIP3   OH211609   3.623   2.121   3.858 -0.1008  0.0455 -0.7244
 3868TIP3    H111610   3.663   2.035   3.845 -0.5903 -0.6732  1.9244
 3868TIP3    H211611   3.537   2.114   3.817 -0.6701 -1.2263  0.6223
 3869TIP3   OH211612   4.668   5.564   4.609  0.0864 -0.3188 -0.3717
 3869TIP3    H111613   4.722   5.555   4.687  1.2233 -0.2351 -1.1263
 3869TIP3    H211614   4.599   5.499   4.620 -0.2492  0.2466  1.0668
 3870TIP3   OH211615   1.595   5.152   2.853  0.3269 -0.0638 -0.3355
 3870TIP3    H111616   1.655   5.223   2.830 -0.9380  0.7930 -1.1382
 3870TIP3    H211617   1.569   5.115   2.769  0.5571 -1.1357  0.0586
 3871TIP3   OH211618   4.653   3.536   3.377 -0.2113 -0.7552  0.4789
 3871TIP3    H111619   4.692   3.469   3.433 -0.7614 -0.7560  0.8707
 3871TIP3    H211620   4.697   3.525   3.292 -0.0917 -1.4190  0.6215
 3872TIP3   OH211621   4.448   1.122   0.050 -0.6491 -0.2378 -0.2116
 3872TIP3    H111622   4.493   1.175   0.116 -2.1538 -0.5513  1.1546
 3872TIP3    H211623   4.503   1.045   0.038 -1.4584 -1.4069  2.6238
 3873TIP3   OH211624   1.695   5.085   3.695  0.5478 -0.2302  0.1072
 3873TIP3    H111625   1.644   5.005   3.688  0.0679  0.1357 -0.7403
 3873TIP3    H211626   1.729   5.084   3.784  0.6286 -1.4158  0.0719
 3874TIP3   OH211627   3.573   5.803   3.243  0.2864  0.0255 -0.1649
 3874TIP3    H111628   3.663   5.825   3.220  1.0123 -2.2636  0.2515
 3874TIP3    H211629   3.580   5.720   3.291 -1.8357  0.9717  1.9553
 3875TIP3   OH211630   3.097   2.273   5.163  0.0444  0.2398 -0.0507
 3875TIP3    H111631   3.094   2.269   5.258  2.7997  0.9965  0.1620
 3875TIP3    H211632   3.115   2.183   5.136 -1.0964 -0.0412  0.1036
 3876TIP3   OH211633   2.803   0.028   3.756 -0.7048  0.3244 -0.5351
 3876TIP3    H111634   2.884  -0.015   3.730  0.4690  0.8174  1.9669
 3876TIP3    H211635   2.811   0.117   3.721 -1.1738 -0.2166 -2.0786
 3877TIP3   OH211636   1.668   1.928   0.702  0.1880  0.8156 -0.0021
 3877TIP3    H111637   1.737   1.870   0.733  0.8004  1.5770  0.0904
 3877TIP3    H211638   1.593   1.908   0.759  0.8843  1.2401  1.1046
 3878TIP3   OH211639   6.119   4.855   1.684 -0.1332 -0.0774 -0.7210
 3878TIP3    H111640   6.208   4.874   1.655 -0.2333 -0.6387 -1.4592
 3878TIP3    H211641   6.099   4.922   1.748  1.3891 -0.8454  0.6297
 3879TIP3   OH211642   5.730   4.044   4.793 -0.2928  0.5737  0.5363
 3879TIP3    H111643   5.684   4.046   4.877 -0.1679  1.0042  0.5956
 3879TIP3    H211644   5.716   3.954   4.761 -0.1200  0.3236  1.1382
 3880TIP3   OH211645   2.322   2.700   1.263  0.4780 -0.0771  0.1540
 3880TIP3    H111646   2.299   2.772   1.203 -1.9636  0.4627  1.6268
 3880TIP3    H211647   2.373   2.742   1.332  0.1635  0.0078  0.3371
 3881TIP3   OH211648   0.862   3.012   2.100 -0.2772 -0.8182  0.0297
 3881TIP3    H111649   0.835   3.035   2.189 -1.7548 -0.4234 -0.4936
 3881TIP3    H211650   0.790   2.960   2.065 -0.3149  0.1080 -1.3594
 3882TIP3   OH211651   5.774   1.977   3.021  0.1452 -0.5865 -0.2630
 3882TIP3    H111652   5.745   2.067   3.009  0.9319  0.1100  2.5540
 3882TIP3    H211653   5.870   1.981   3.014  0.3176 -0.8594  1.5143
 3883TIP3   OH211654   2.653   1.367   2.949  0.2883 -0.3217 -0.1218
 3883TIP3    H111655   2.654   1.388   3.043 -0.7896  1.4458 -0.4505
 3883TIP3    H211656   2.589   1.297   2.941 -0.4919  0.3133  0.3515
 3884TIP3   OH211657   4.225   1.441   0.222  1.2172 -0.0758 -0.0948
 3884TIP3    H111658   4.198   1.376   0.158 -0.9049  1.3234 -0.7236
 3884TIP3    H211659   4.168   1.426   0.297  0.8594  0.8676 -0.1578
 3885TIP3   OH211660   0.215   2.903   4.810  0.3435 -0.3669  0.1351
 3885TIP3    H111661   0.224   2.985   4.763 -2.5375  0.0533  0.0978
 3885TIP3    H211662   0.265   2.840   4.759  1.7869  1.1418 -0.3808
 3886TIP3   OH211663   5.668   2.260   4.555 -0.0899 -0.4037 -0.2553
 3886TIP3    H111664   5.617   2.260   4.636 -0.4638 -1.1531 -0.4784
 3886TIP3    H211665   5.702   2.349   4.548 -1.5260  0.1749 -0.2006
 3887TIP3   OH211666   4.804   3.628   2.925 -0.4751  0.1264  0.3451
 3887TIP3    H111667   4.724   3.584   2.897 -0.9401  0.4294  1.1969
 3887TIP3    H211668   4.872   3.590   2.868 -0.9481 -1.2921  0.6742
 3888TIP3   OH211669   1.193   3.429   3.223  0.5121 -0.2071  0.5453
 3888TIP3    H111670   1.256   3.369   3.263  2.1619  1.7315  1.0279
 3888TIP3    H211671   1.238   3.513   3.221 -0.8841  0.5975 -2.0638
 3889TIP3   OH211672   3.023   1.068   3.141  0.1672  0.3979 -0.2758
 3889TIP3    H111673   2.929   1.053   3.152 -0.0597  1.2939 -0.8993
 3889TIP3    H211674   3.033   1.163   3.145  1.3349  0.2415  1.9005
 3890TIP3   OH211675   1.505   0.304   3.502  0.1554 -0.0617 -0.4689
 3890TIP3    H111676   1.593   0.340   3.507 -0.7630  2.3142  3.2310
 3890TIP3    H211677   1.469   0.338   3.421  1.8855  0.8995 -0.8763
 3891TIP3   OH211678   4.779   0.980   4.631 -0.1258 -0.1674 -0.2612
 3891TIP3    H111679   4.691   0.955   4.603 -0.7765 -0.1532  1.6276
 3891TIP3    H211680   4.837   0.914   4.592 -1.1995 -1.3434  0.0721
 3892TIP3   OH211681   1.890   3.663   0.774  0.0219  0.3534  0.2424
 3892TIP3    H111682   1.806   3.689   0.812 -0.7555  0.1020 -1.2257
 3892TIP3    H211683   1.908   3.578   0.813 -2.2894 -1.3593 -2.0587
 3893TIP3   OH211684   3.827   4.954   0.122 -0.1155 -0.1649 -0.1348
 3893TIP3    H111685   3.820   5.035   0.172 -0.4716 -0.6668  0.6422
 3893TIP3    H211686   3.884   4.898   0.175 -2.0928 -1.4489  0.7429
 3894TIP3   OH211687   2.981   1.787   4.057  0.4879  0.6070  0.1516
 3894TIP3    H111688   3.044   1.855   4.081  1.1396 -0.0747  0.4136
 3894TIP3    H211689   3.027   1.705   4.074  0.5304  0.0640 -2.2372
 3895TIP3   OH211690   4.816   3.872   1.088 -0.1375 -0.5443  0.4760
 3895TIP3    H111691   4.755   3.940   1.059 -0.7403 -0.9113  0.8678
 3895TIP3    H211692   4.898   3.919   1.103 -0.5661  0.1134  0.8083
 3896TIP3   OH211693   1.705   0.918   3.246 -0.4068  0.5262 -0.5055
 3896TIP3    H111694   1.772   0.890   3.183  0.1248  0.9261 -0.1329
 3896TIP3    H211695   1.693   0.843   3.304 -0.3497  0.4222 -0.6274
 3897TIP3   OH211696   1.383   3.993   2.454 -0.1668  0.0779 -0.4221
 3897TIP3    H111697   1.349   3.925   2.512  0.7804 -0.4169 -0.4270
 3897TIP3    H211698   1.307   4.046   2.432 -0.4763  0.6156  1.7197
 3898TIP3   OH211699   3.007   3.570   3.484  0.4168  0.2414  0.0980
 3898TIP3    H111700   3.071   3.636   3.457 -1.2597  0.8304 -2.9938
 3898TIP3    H211701   2.994   3.516   3.406 -0.9298 -1.4932  1.4402
 3899TIP3   OH211702   2.039   5.984   5.092  0.5441  0.3224  0.1242
 3899TIP3    H111703   2.070   5.978   5.182 -0.2028 -1.0914  0.3217
 3899TIP3    H211704   2.115   5.959   5.039  0.3799 -1.0593  0.4962
 3900TIP3   OH211705   5.844   1.541   4.916 -0.6543  0.4848 -0.2658
 3900TIP3    H111706   5.848   1.634   4.894  1.5240  0.4474 -0.2615
 3900TIP3    H211707   5.774   1.506   4.860 -0.7341  1.9019 -1.0957
 3901TIP3   OH211708   5.502   2.992   0.608 -0.4803  0.2572 -0.4914
 3901TIP3    H111709   5.445   3.047   0.662  0.0036 -1.3312  1.7762
 3901TIP3    H211710   5.544   3.054   0.548 -1.6909  2.0157  0.3712
 3902TIP3   OH211711   0.749   5.845   2.436 -0.0414 -0.0307  0.7340
 3902TIP3    H111712   0.791   5.773   2.483 -0.5425 -1.9504 -1.5692
 3902TIP3    H211713   0.817   5.913   2.431  1.0728 -1.0518  1.4136
 3903TIP3   OH211714   1.317   3.357   0.498  0.0519 -0.3769  0.1143
 3903TIP3    H111715   1.286   3.445   0.475 -0.2591  0.5669  3.5919
 3903TIP3    H211716   1.412   3.363   0.495  0.0421  0.2313  0.6942
 3904TIP3   OH211717   3.111   4.324   3.455 -0.3328 -0.2417 -0.1117
 3904TIP3    H111718   3.188   4.333   3.511 -0.1350  2.1128 -0.6284
 3904TIP3    H211719   3.137   4.262   3.387  0.3788 -1.0299  0.8615
 3905TIP3   OH211720   0.259   5.714   4.234  0.5422  0.3932  0.6468
 3905TIP3    H111721   0.332   5.730   4.175 -1.0934  2.3359 -0.9913
 3905TIP3    H211722   0.254   5.794   4.287 -0.6955  0.5213  0.3601
 3906TIP3   OH211723   3.289   2.452   2.217  0.4617  0.2689  0.1558
 3906TIP3    H111724   3.219   2.388   2.236 -0.0385  0.2186 -1.6297
 3906TIP3    H211725   3.364   2.398   2.192  0.8656  0.3402  1.2086
 3907TIP3   OH211726   3.683   1.935   4.304 -0.4187  0.9064  0.6030
 3907TIP3    H111727   3.627   1.885   4.363 -0.1993 -1.5650 -1.1197
 3907TIP3    H211728   3.637   1.933   4.220  1.6046 -0.1627 -0.5622
 3908TIP3   OH211729   0.755   5.406   1.665 -0.0589 -0.4063  0.0834
 3908TIP3    H111730   0.846   5.434   1.661 -0.4051  1.0026  1.1525
 3908TIP3    H211731   0.756   5.316   1.633  1.8829 -0.8429  1.2219
 3909TIP3   OH211732   5.559   2.363   3.232  0.6950  0.6040  0.0063
 3909TIP3    H111733   5.583   2.414   3.154 -0.6711 -0.8360 -1.4467
 3909TIP3    H211734   5.610   2.402   3.303  1.5522  2.3690 -1.4822
 3910TIP3   OH211735   4.936   0.900   3.070  0.8450  0.1073 -0.0179
 3910TIP3    H111736   5.022   0.901   3.112  0.4233 -2.0468  1.0127
 3910TIP3    H211737   4.953   0.867   2.982  1.1821  0.6041 -0.1431
 3911TIP3   OH211738   5.342   0.719   4.988 -0.2614 -0.0288  0.7784
 3911TIP3    H111739   5.424   0.767   4.976 -0.8405  0.9235  0.5060
 3911TIP3    H211740   5.369   0.629   5.008  0.8613  0.4576  1.5796
 3912TIP3   OH211741   1.776   4.791   1.103  0.2023  0.1323 -0.0694
 3912TIP3    H111742   1.779   4.726   1.173 -0.3908  1.2345  1.0185
 3912TIP3    H211743   1.690   4.832   1.111  0.6251  1.1687 -0.6068
 3913TIP3   OH211744   1.601   5.391   0.401  0.2152  0.1419 -0.1577
 3913TIP3    H111745   1.630   5.334   0.473 -2.7802 -0.0706  1.0311
 3913TIP3    H211746   1.580   5.474   0.443  2.0535  1.3585 -1.4788
 3914TIP3   OH211747   0.671   2.255   4.088  0.4912 -0.2408 -0.4392
 3914TIP3    H111748   0.591   2.276   4.136  0.7712  1.8939 -0.8140
 3914TIP3    H211749   0.674   2.160   4.087 -1.4952 -0.3602  0.4879
 3915TIP3   OH211750   4.809   2.469   1.417 -0.3545 -0.0516 -0.1595
 3915TIP3    H111751   4.836   2.459   1.326  2.7869 -0.1237  0.6548
 3915TIP3    H211752   4.814   2.563   1.434  2.0372 -0.2418  0.6206
 3916TIP3   OH211753   3.779   4.643   0.256 -0.3572  0.5743 -0.4990
 3916TIP3    H111754   3.702   4.670   0.206 -1.5448 -2.1609 -0.3374
 3916TIP3    H211755   3.744   4.583   0.322  1.8635 -0.5492 -0.2553
 3917TIP3   OH211756   6.092   2.425   2.314  0.4244 -0.1747  0.3477
 3917TIP3    H111757   6.123   2.459   2.231 -1.9174 -0.2129 -0.6139
 3917TIP3    H211758   6.111   2.495   2.377  1.8761  0.0115 -0.2736
 3918TIP3   OH211759   3.143   0.762   4.638 -0.0669 -0.0045  0.5252
 3918TIP3    H111760   3.173   0.849   4.610 -1.3957  0.6453  1.0126
 3918TIP3    H211761   3.123   0.773   4.731  2.8964 -1.7350  1.5157
 3919TIP3   OH211762   1.401   3.134   2.000 -0.8206  0.3943 -0.3372
 3919TIP3    H111763   1.309   3.122   2.022  0.0526 -0.6251  3.4560
 3919TIP3    H211764   1.429   3.211   2.050  0.8781 -0.7921  0.6775
 3920TIP3   OH211765   3.162   5.483   4.052 -0.2887  0.5757  0.6910
 3920TIP3    H111766   3.124   5.402   4.019  0.4593 -0.0596  1.3447
 3920TIP3    H211767   3.246   5.490   4.008 -1.1401  2.0138 -0.8006
 3921TIP3   OH211768   4.469   0.070   3.046  0.1277 -0.0467 -0.9112
 3921TIP3    H111769   4.475   0.158   3.084 -2.2450  0.5553 -1.7827
 3921TIP3    H211770   4.448   0.085   2.954 -0.8319 -1.5118 -0.9699
 3922TIP3   OH211771   4.366   1.883   2.029 -0.3284  0.0232  0.1541
 3922TIP3    H111772   4.309   1.820   1.984 -0.3642 -0.3800  0.7435
 3922TIP3    H211773   4.309   1.957   2.047  0.2674  1.2718 -2.5975
 3923TIP3   OH211774   2.154   5.882   1.683 -0.0560 -0.5313 -0.0080
 3923TIP3    H111775   2.151   5.954   1.745  0.9856 -0.8312  0.4015
 3923TIP3    H211776   2.079   5.897   1.625  1.1663  1.9153 -1.0898
 3924TIP3   OH211777   2.039   4.201   2.822  0.3693 -0.4431 -0.0611
 3924TIP3    H111778   2.041   4.158   2.736  0.1490 -1.8109  0.5818
 3924TIP3    H211779   1.966   4.160   2.867  1.4282 -0.8796  1.3371
 3925TIP3   OH211780   2.575   4.532   4.374 -0.1089  0.2547  0.1791
 3925TIP3    H111781   2.573   4.525   4.469 -0.7638  2.0656  0.3361
 3925TIP3    H211782   2.668   4.530   4.351  0.0367 -3.0642  0.5236
 3926TIP3   OH211783   2.156   4.520   1.909  0.0653 -0.7069  0.6485
 3926TIP3    H111784   2.243   4.550   1.934 -0.0651 -0.0151  0.2962
 3926TIP3    H211785   2.117   4.595   1.864 -0.6434 -1.0730  0.6428
 3927TIP3   OH211786   5.776   3.102   0.794  0.2553 -0.1964 -0.1911
 3927TIP3    H111787   5.816   3.135   0.874  0.4775 -0.0664 -0.3537
 3927TIP3    H211788   5.699   3.054   0.824 -0.4226  0.9860 -0.0021
 3928TIP3   OH211789   1.651   1.293   4.544  0.6646  0.0389 -0.4848
 3928TIP3    H111790   1.744   1.271   4.540  1.0747  1.7872 -2.1403
 3928TIP3    H211791   1.648   1.376   4.592 -0.0509 -0.0238 -0.4031
 3929TIP3   OH211792   1.259   0.268   0.902 -0.4016  0.1303  0.0624
 3929TIP3    H111793   1.210   0.318   0.837  0.0361  1.7377  0.8882
 3929TIP3    H211794   1.203   0.194   0.923 -1.2359  0.4326 -1.0045
 3930TIP3   OH211795   3.996   3.991   3.638 -0.4877 -0.4586  0.1069
 3930TIP3    H111796   4.020   4.041   3.561 -0.5181  0.0305  0.4084
 3930TIP3    H211797   3.917   3.943   3.613 -0.8384  0.1619  0.0257
 3931TIP3   OH211798   2.365   2.129   0.272 -0.1379 -0.3453  0.0933
 3931TIP3    H111799   2.351   2.118   0.366 -0.9076  0.0369  0.0269
 3931TIP3    H211800   2.287   2.173   0.240 -0.2162 -1.1290 -0.8663
 3932TIP3   OH211801   0.961   3.664   5.023 -0.0960 -0.2334  0.3447
 3932TIP3    H111802   0.913   3.684   4.943 -0.4546  2.2648  1.0827
 3932TIP3    H211803   1.030   3.730   5.027 -0.7543  0.4265  2.5825
 3933TIP3   OH211804   5.203   2.734   2.879 -0.0753 -0.5438  0.5422
 3933TIP3    H111805   5.283   2.710   2.832  0.6859 -0.7465  1.8657
 3933TIP3    H211806   5.211   2.828   2.892 -0.0553 -0.5585  0.6409
 3934TIP3   OH211807   0.135   3.643   3.272  0.0841 -0.0039 -0.5042
 3934TIP3    H111808   0.180   3.574   3.223 -1.5799 -1.8955  0.4702
 3934TIP3    H211809   0.110   3.707   3.205 -2.0073 -2.4372 -2.2766
 3935TIP3   OH211810   0.840   1.436   4.513 -0.1668  0.1632 -0.3401
 3935TIP3    H111811   0.810   1.438   4.422  1.3871 -0.1705 -0.8953
 3935TIP3    H211812   0.840   1.343   4.535 -1.7085  0.3166  0.4472
 3936TIP3   OH211813   4.484   4.200   2.672  0.0224 -0.0394  0.4405
 3936TIP3    H111814   4.550   4.135   2.648 -0.6958 -1.3024  1.7459
 3936TIP3    H211815   4.432   4.212   2.592  0.9227 -0.1303 -0.1711
 3937TIP3   OH211816   3.765   2.840   4.839  0.6610  0.0152 -0.6823
 3937TIP3    H111817   3.757   2.770   4.774 -0.1225  1.1756 -1.8907
 3937TIP3    H211818   3.783   2.919   4.788 -1.9062  1.3472  0.2407
 3938TIP3   OH211819   2.726   0.582   4.689 -0.4112  0.4242 -0.0297
 3938TIP3    H111820   2.775   0.552   4.766 -1.0270 -0.2813  0.1023
 3938TIP3    H211821   2.793   0.598   4.623  0.0308 -0.0975  0.2816
 3939TIP3   OH211822   1.989   2.816   5.082  0.0226  0.0699 -0.1290
 3939TIP3    H111823   1.990   2.908   5.055 -0.3588  0.1479  0.1202
 3939TIP3    H211824   1.898   2.799   5.103  0.1379 -0.2995  0.0651
 3940TIP3   OH211825   6.282   5.147   1.526  0.2719 -0.3156  0.0276
 3940TIP3    H111826   6.332   5.161   1.445  0.7233 -1.9121  0.0014
 3940TIP3    H211827   6.251   5.235   1.550 -0.9895  0.0413 -2.5746
 3941TIP3   OH211828   1.982   2.494   4.886  0.5615 -0.1867 -0.7769
 3941TIP3    H111829   2.007   2.485   4.978  2.6392  0.2423 -1.2575
 3941TIP3    H211830   1.949   2.407   4.862 -1.1462  0.0252  0.6606
 3942TIP3   OH211831   5.168   0.185   3.816  0.0077  0.7300  0.1729
 3942TIP3    H111832   5.159   0.195   3.722 -0.0907  0.9599  0.2032
 3942TIP3    H211833   5.257   0.154   3.830 -0.3368 -0.4080 -0.0679
 3943TIP3   OH211834   4.119   5.285   0.494 -0.6246  0.1999 -0.3059
 3943TIP3    H111835   4.117   5.196   0.528 -1.4511 -0.0488 -0.9675
 3943TIP3    H211836   4.071   5.336   0.559  0.0681  0.2211  0.2009
 3944TIP3   OH211837   5.710   2.494   3.433 -0.0538 -0.5911 -0.3289
 3944TIP3    H111838   5.755   2.579   3.427 -1.5309  0.4128  1.4889
 3944TIP3    H211839   5.780   2.430   3.445  0.9928  0.7175  0.8989
 3945TIP3   OH211840   3.578   0.225   0.651 -0.0305 -0.2510  0.0538
 3945TIP3    H111841   3.501   0.176   0.620 -0.5702  1.7180 -1.9997
 3945TIP3    H211842   3.542   0.308   0.683  1.0608 -0.2646  1.4435
 3946TIP3   OH211843   1.659  -0.008   3.491  0.4872 -0.6447 -0.4929
 3946TIP3    H111844   1.700   0.054   3.552  2.4219 -1.2208 -1.1115
 3946TIP3    H211845   1.680   0.027   3.404 -1.2231 -0.4620 -0.8581
 3947TIP3   OH211846   1.778   2.287   2.485  0.8734 -0.1321  0.0596
 3947TIP3    H111847   1.715   2.216   2.496  4.0234 -3.1412  0.1489
 3947TIP3    H211848   1.798   2.286   2.392  0.9269  0.7292  0.0545
 3948TIP3   OH211849   4.574   1.904   3.675 -0.1402 -0.1928 -0.3561
 3948TIP3    H111850   4.640   1.933   3.612  0.1723 -0.1385 -0.0119
 3948TIP3    H211851   4.576   1.972   3.743  0.3308 -0.8239  0.2720
 3949TIP3   OH211852   4.938   4.181   5.054  0.1090 -0.0793  0.2296
 3949TIP3    H111853   4.903   4.122   4.988  0.1856 -0.3772  0.4553
 3949TIP3    H211854   4.941   4.266   5.010 -2.5615  0.3607  0.7556
 3950TIP3   OH211855   4.597   1.304   3.917 -0.3855 -0.5520 -0.2061
 3950TIP3    H111856   4.634   1.391   3.899 -0.5896 -0.0666  1.5275
 3950TIP3    H211857   4.659   1.263   3.977 -0.1961 -1.7231 -1.1488
 3951TIP3   OH211858   2.046   5.394   0.938  0.0836  0.1047 -0.2662
 3951TIP3    H111859   2.065   5.463   0.875  0.7591 -0.7307 -0.9955
 3951TIP3    H211860   1.950   5.392   0.943  0.0353  0.4082 -1.0107
 3952TIP3   OH211861   0.796   2.361   2.445 -0.7350 -0.3725  0.2036
 3952TIP3    H111862   0.813   2.297   2.513 -0.2782 -1.0816 -0.5486
 3952TIP3    H211863   0.829   2.320   2.365 -2.6258 -0.2175 -0.7212
 3953TIP3   OH211864   5.318   2.305   5.044 -0.1526 -0.1648 -0.3748
 3953TIP3    H111865   5.327   2.245   4.970  2.5451  0.6971 -0.8661
 3953TIP3    H211866   5.371   2.264   5.114 -1.0543  0.0044  0.4275
 3954TIP3   OH211867   5.916   0.073   5.146 -0.0621 -0.1934  0.3044
 3954TIP3    H111868   5.926   0.121   5.064 -1.7010 -0.7132 -0.2353
 3954TIP3    H211869   6.006   0.049   5.171  0.6815  2.0588 -0.0227
 3955TIP3   OH211870   6.020   0.297   0.003  0.0176  0.3321 -0.0445
 3955TIP3    H111871   5.957   0.299   0.076 -0.7303 -1.1277 -0.6209
 3955TIP3    H211872   6.009   0.211  -0.036  0.1756  1.1984 -2.1124
 3956TIP3   OH211873   4.537   3.051   3.838 -0.6316  0.4665  0.0287
 3956TIP3    H111874   4.601   3.096   3.783  0.2301 -0.7272  0.0226
 3956TIP3    H211875   4.568   3.065   3.928  1.1502 -2.2235 -0.0700
 3957TIP3   OH211876   6.277   0.817   2.329  0.0269 -0.1576  0.1030
 3957TIP3    H111877   6.258   0.869   2.407 -1.0210  1.0088 -0.8818
 3957TIP3    H211878   6.191   0.784   2.301  0.3859 -0.5632 -0.5556
 3958TIP3   OH211879   2.491   0.418   1.144  0.1277  0.3821  0.0722
 3958TIP3    H111880   2.434   0.341   1.152  0.5953 -0.0487 -0.6585
 3958TIP3    H211881   2.552   0.410   1.217 -1.1274  1.1957  1.2604
 3959TIP3   OH211882   1.001   4.331   2.367  0.5853 -0.4269  0.1430
 3959TIP3    H111883   0.931   4.286   2.319  0.2988  0.0351  0.1160
 3959TIP3    H211884   1.000   4.292   2.454  0.0531 -0.1754  0.2524
 3960TIP3   OH211885   1.102   3.720   1.183 -0.0184 -0.5732  0.1038
 3960TIP3    H111886   1.165   3.687   1.119 -2.2094 -0.6621 -2.1722
 3960TIP3    H211887   1.095   3.814   1.164 -1.6094 -0.8246 -0.7214
 3961TIP3   OH211888   2.214   5.391   2.871 -0.3764  0.3811 -0.4822
 3961TIP3    H111889   2.276   5.367   2.940 -0.3493  0.3141 -0.5308
 3961TIP3    H211890   2.182   5.478   2.897 -2.9868 -1.0299  1.5171
 3962TIP3   OH211891   1.821   1.636   1.990  0.5729  0.3956 -0.4143
 3962TIP3    H111892   1.834   1.730   1.983  0.1957  0.5045  0.2883
 3962TIP3    H211893   1.738   1.620   1.945  0.5491  0.4218 -0.3796
 3963TIP3   OH211894   3.863   1.709   2.169 -0.6275 -0.5190  0.2266
 3963TIP3    H111895   3.849   1.621   2.135 -2.5992 -0.6522  1.2516
 3963TIP3    H211896   3.947   1.705   2.214 -0.2995 -1.6213 -0.4514
 3964TIP3   OH211897   6.011   2.019   0.223  0.1919  0.0385 -0.2697
 3964TIP3    H111898   6.080   2.030   0.158 -0.2877  0.6651 -0.6872
 3964TIP3    H211899   5.972   1.934   0.203 -0.7195  0.7261 -1.5771
 3965TIP3   OH211900   0.517   4.916   0.279  0.2178 -0.1510 -0.2551
 3965TIP3    H111901   0.530   4.839   0.224  1.2928 -1.0501  1.1798
 3965TIP3    H211902   0.601   4.963   0.273 -0.0242  0.2847 -0.2165
 3966TIP3   OH211903   2.099   5.064   0.549 -0.1527  0.0523  0.0357
 3966TIP3    H111904   2.125   5.040   0.638 -1.0286 -0.0328  0.2800
 3966TIP3    H211905   2.046   4.990   0.519 -1.1322  0.7333  0.0256
 3967TIP3   OH211906   5.920   2.891   2.733  0.9735 -0.2514  0.0238
 3967TIP3    H111907   5.909   2.796   2.731  1.6761 -0.3324 -1.6296
 3967TIP3    H211908   5.897   2.916   2.822 -0.3079 -1.8344  0.1811
 3968TIP3   OH211909   3.833   5.962   4.239  0.1945  0.1806 -0.2139
 3968TIP3    H111910   3.819   5.891   4.302 -1.7763  0.8401  0.1635
 3968TIP3    H211911   3.756   6.017   4.248  0.7390  1.2925 -1.9381
 3969TIP3   OH211912   0.088   0.943   2.711 -0.1406  0.1347 -0.3686
 3969TIP3    H111913   0.157   0.971   2.771  0.1561 -0.7210 -0.2923
 3969TIP3    H211914   0.131   0.882   2.651 -0.7418 -0.1240 -0.5536
 3970TIP3   OH211915   1.480   1.493   4.100 -0.2169 -0.3284 -0.1718
 3970TIP3    H111916   1.444   1.576   4.132 -1.4856 -0.4982 -1.0426
 3970TIP3    H211917   1.567   1.515   4.068  0.0480  0.3559  0.9516
 3971TIP3   OH211918   5.924   5.999   0.624 -0.1615 -0.2452 -1.2608
 3971TIP3    H111919   5.855   5.935   0.605 -0.7495  0.0794 -0.3061
 3971TIP3    H211920   5.949   5.982   0.715  0.5335  0.0935 -1.3784
 3972TIP3   OH211921   1.747   0.278   2.724 -0.0415  0.0484 -0.2303
 3972TIP3    H111922   1.738   0.288   2.629  2.1418 -3.2484 -0.9684
 3972TIP3    H211923   1.674   0.220   2.748 -1.3900  1.9295  0.4588
 3973TIP3   OH211924   4.175   1.511   1.062 -0.6622 -0.1012 -0.0540
 3973TIP3    H111925   4.233   1.454   1.011 -0.1478 -0.0796  0.4928
 3973TIP3    H211926   4.221   1.524   1.145 -1.0120  0.6905  0.0271
 3974TIP3   OH211927   4.733   5.829   0.758 -0.6363 -0.7718 -0.3361
 3974TIP3    H111928   4.735   5.904   0.817  0.2790  0.0362 -1.3452
 3974TIP3    H211929   4.645   5.830   0.720 -0.4562  0.1414 -0.7510
 3975TIP3   OH211930   1.274   2.654   2.850  0.2581  0.2254 -0.2537
 3975TIP3    H111931   1.299   2.609   2.931 -0.2146 -0.7546 -0.6409
 3975TIP3    H211932   1.217   2.725   2.879  0.4434  0.1537  0.3060
 3976TIP3   OH211933   4.434   3.758   4.243  0.1453 -0.0297 -0.3248
 3976TIP3    H111934   4.509   3.785   4.191  0.6299 -0.3489  0.1981
 3976TIP3    H211935   4.466   3.685   4.295 -0.1446  0.7066  0.9147
 3977TIP3   OH211936   1.212   0.544   1.063 -0.1531 -0.3363  0.4764
 3977TIP3    H111937   1.150   0.501   1.122 -0.3483  0.2240  0.6848
 3977TIP3    H211938   1.235   0.477   0.999 -1.1856 -0.4708  0.2322
 3978TIP3   OH211939   1.889   5.423   3.059 -0.3570  0.2635 -0.1043
 3978TIP3    H111940   1.828   5.402   3.130  0.5486 -1.3855  0.2373
 3978TIP3    H211941   1.905   5.517   3.068  0.0442  0.0412  2.1693
 3979TIP3   OH211942   1.164   5.603   4.445  0.0646  0.0001  0.5391
 3979TIP3    H111943   1.085   5.583   4.394  0.4543  1.6118 -0.7874
 3979TIP3    H211944   1.222   5.528   4.429 -0.1041  0.1268 -0.8434
 3980TIP3   OH211945   5.485   1.154   3.029  0.4698  0.0928 -0.0796
 3980TIP3    H111946   5.566   1.115   3.060  0.0356 -0.2127  0.6935
 3980TIP3    H211947   5.426   1.152   3.105  0.1836  1.5638 -0.2289
 3981TIP3   OH211948   2.163   1.283   4.566  0.2228 -0.2261  0.7031
 3981TIP3    H111949   2.145   1.220   4.496  0.1700 -0.3140  0.7952
 3981TIP3    H211950   2.113   1.250   4.642 -2.6212  1.7383 -0.1398
 3982TIP3   OH211951   5.463   0.804   0.234  0.0238 -0.2189  0.1836
 3982TIP3    H111952   5.499   0.890   0.213  1.2754 -1.1446 -1.6706
 3982TIP3    H211953   5.536   0.744   0.223 -0.8489 -1.5612  1.3717
 3983TIP3   OH211954   0.129   5.579   0.685 -0.0711  0.2951  0.2555
 3983TIP3    H111955   0.056   5.536   0.639  0.0591  1.3932 -1.0341
 3983TIP3    H211956   0.191   5.508   0.702 -1.0907 -0.5199  0.6869
 3984TIP3   OH211957   0.497   5.751   2.583  0.8651  0.3377  0.1212
 3984TIP3    H111958   0.473   5.678   2.640 -0.3583 -0.4073 -1.2808
 3984TIP3    H211959   0.570   5.793   2.628  0.5614 -0.7777  1.7551
 3985TIP3   OH211960   3.320   1.280   0.061 -0.4750  0.1060  0.0907
 3985TIP3    H111961   3.225   1.289   0.068 -0.5322 -0.6073  0.2991
 3985TIP3    H211962   3.342   1.206   0.118  0.2118  0.2986  0.0880
 3986TIP3   OH211963   2.456   3.973   1.011 -0.0993 -0.1615 -0.0200
 3986TIP3    H111964   2.544   3.976   0.975  0.2967  2.9198  0.9448
 3986TIP3    H211965   2.406   4.034   0.957 -0.6337  1.0009  1.6887
 3987TIP3   OH211966   3.421   0.290   4.120  0.2752 -0.0432 -0.0908
 3987TIP3    H111967   3.407   0.338   4.201 -0.6321 -0.4836  0.0250
 3987TIP3    H211968   3.338   0.246   4.104  1.2466 -2.0458  0.1204
 3988TIP3   OH211969   5.432   3.525   2.793  0.5121  0.5405 -0.3880
 3988TIP3    H111970   5.369   3.590   2.827  0.8123  0.4812  0.2934
 3988TIP3    H211971   5.398   3.441   2.823  0.9490  0.5136  0.0472
 3989TIP3   OH211972   0.414   5.944   0.908 -0.4908 -0.0935 -0.4301
 3989TIP3    H111973   0.380   6.033   0.905 -0.6040 -0.1589 -2.7966
 3989TIP3    H211974   0.346   5.893   0.951 -1.2181  0.6408 -0.6924
 3990TIP3   OH211975   2.040   1.447   2.153 -0.1216  0.4572  0.0085
 3990TIP3    H111976   2.030   1.452   2.248  0.0970  1.6813 -0.0172
 3990TIP3    H211977   2.111   1.384   2.140  0.7529  1.2650  0.7271
 3991TIP3   OH211978   3.850   0.152   4.431  0.0605  0.1959 -0.7511
 3991TIP3    H111979   3.769   0.106   4.455 -0.1710  0.3875 -1.1422
 3991TIP3    H211980   3.915   0.121   4.493 -0.5675  0.8530  0.2637
 3992TIP3   OH211981   6.043   2.187   3.128  0.4184  0.4361  0.3739
 3992TIP3    H111982   5.949   2.189   3.146  0.3953 -0.5574  0.4062
 3992TIP3    H211983   6.082   2.150   3.207  0.5340 -1.8535 -0.6656
 3993TIP3   OH211984   3.806   5.954   0.495 -0.6046  0.7252 -0.3267
 3993TIP3    H111985   3.832   5.894   0.426 -0.2649  0.2016  0.2456
 3993TIP3    H211986   3.838   5.913   0.576  0.9469  2.3512 -0.0331
 3994TIP3   OH211987   6.085   0.636   2.077  0.0993 -0.3778  0.5561
 3994TIP3    H111988   6.167   0.682   2.058 -1.1578  1.6651 -0.2043
 3994TIP3    H211989   6.065   0.657   2.168 -1.5344  2.5059 -0.3549
 3995TIP3   OH211990   3.225   2.757   1.917 -0.6104 -0.0092 -0.2650
 3995TIP3    H111991   3.153   2.696   1.903 -1.3297  0.6104  0.6738
 3995TIP3    H211992   3.212   2.825   1.851  0.6371 -1.2038 -1.8430
 3996TIP3   OH211993   3.584   3.512   1.597 -0.3654 -0.1999  0.0905
 3996TIP3    H111994   3.571   3.434   1.652 -0.6919  0.4581  0.9683
 3996TIP3    H211995   3.548   3.584   1.648 -0.5450  0.4618 -0.9374
 3997TIP3   OH211996   2.742   5.116   2.189 -0.3108  0.5727  0.3804
 3997TIP3    H111997   2.746   5.193   2.132  1.3194  0.5343  0.3940
 3997TIP3    H211998   2.820   5.123   2.244 -0.2876 -0.9434  0.5724
 3998TIP3   OH211999   2.313   1.713   3.997  0.1111 -0.3646  0.3496
 3998TIP3    H112000   2.330   1.804   3.972  0.0287 -0.1237  1.1393
 3998TIP3    H212001   2.228   1.693   3.959 -1.2897  0.8730  2.6177
 3999TIP3   OH212002   2.180   1.282   1.223  0.1027 -0.1530  0.2888
 3999TIP3    H112003   2.137   1.297   1.139 -1.4558 -1.8232  0.7193
 3999TIP3    H212004   2.268   1.251   1.199 -0.8458 -2.1939 -0.8337
 4000TIP3   OH212005   5.683   2.821   1.160 -0.0765 -0.3994  0.4196
 4000TIP3    H112006   5.770   2.797   1.192 -0.1171  2.3192  2.9752
 4000TIP3    H212007   5.623   2.766   1.211  0.0542  1.0875  2.3230
 4001TIP3   OH212008   6.247   3.593   2.146 -0.0985  0.3031 -0.1097
 4001TIP3    H112009   6.218   3.657   2.212 -1.0369 -0.2973  0.0744
 4001TIP3    H212010   6.288   3.646   2.078  0.4020  0.9863  0.6917
 4002TIP3   OH212011   6.225   4.499   0.971 -0.0966  0.2741 -0.0236
 4002TIP3    H112012   6.211   4.586   1.007  0.0209 -0.0752  0.9176
 4002TIP3    H212013   6.164   4.443   1.020  0.8643 -0.3995  0.4417
 4003TIP3   OH212014   5.152   1.089   3.806 -0.1452 -0.6647 -0.2542
 4003TIP3    H112015   5.210   1.116   3.735 -0.3078 -0.6043 -0.3644
 4003TIP3    H212016   5.172   0.996   3.820  0.8898 -0.3409  0.5726
 4004TIP3   OH212017   1.023   5.534   1.562  0.5285 -0.6702  0.6089
 4004TIP3    H112018   1.010   5.585   1.482 -2.5093 -0.4233  1.1557
 4004TIP3    H212019   1.111   5.557   1.591  0.8798  0.9090 -1.4592
 4005TIP3   OH212020   1.413   0.039   4.588 -0.2721  0.0770  0.0693
 4005TIP3    H112021   1.422   0.015   4.496  0.0016  2.0486 -0.4594
 4005TIP3    H212022   1.358   0.117   4.588 -0.8514 -0.2808  1.6558
 4006TIP3   OH212023   5.323   3.708   0.504  0.6457  0.2261 -0.0988
 4006TIP3    H112024   5.393   3.671   0.557  2.3588 -1.5075 -3.2685
 4006TIP3    H212025   5.263   3.748   0.567  2.7390 -1.1796  3.0065
 4007TIP3   OH212026   3.624   2.071   0.432  0.5728  0.2421 -0.2980
 4007TIP3    H112027   3.665   2.154   0.411 -0.5817  0.9171  0.0164
 4007TIP3    H212028   3.697   2.009   0.439  1.3725  1.0048 -1.4721
 4008TIP3   OH212029   3.939   0.317   1.424 -0.3500 -0.2362  0.0759
 4008TIP3    H112030   3.965   0.336   1.515 -0.2468 -1.3861  0.2961
 4008TIP3    H212031   4.020   0.328   1.374 -0.6996  1.8715 -0.1509
 4009TIP3   OH212032   1.261   4.969   3.064 -0.4477 -0.3386 -0.3936
 4009TIP3    H112033   1.340   5.022   3.059  0.2473 -1.3475 -0.3637
 4009TIP3    H212034   1.194   5.022   3.021  0.4511  0.1690 -1.2128
 4010TIP3   OH212035   3.462   2.944   2.272  0.1376  0.3633 -0.5977
 4010TIP3    H112036   3.550   2.968   2.243 -0.2876 -0.4696 -2.7664
 4010TIP3    H212037   3.455   2.850   2.252 -0.5059 -0.1179  1.6054
 4011TIP3   OH212038   2.159   1.540   4.824  0.1999 -0.4620  0.4440
 4011TIP3    H112039   2.148   1.562   4.917  0.8001 -1.3450  0.7326
 4011TIP3    H212040   2.174   1.446   4.823  2.6067 -0.1406 -0.3268
 4012TIP3   OH212041   1.482   4.093   0.047 -0.2442 -0.6039 -0.8903
 4012TIP3    H112042   1.534   4.164   0.009 -0.4380 -0.8885 -1.7196
 4012TIP3    H212043   1.400   4.134   0.073  0.4874 -0.0826  0.7339
 4013TIP3   OH212044   2.837   2.313   0.788  0.1313  0.0882 -0.7342
 4013TIP3    H112045   2.862   2.387   0.844  0.1787  0.1093 -0.7830
 4013TIP3    H212046   2.745   2.329   0.767 -0.0010 -0.1333 -0.3303
 4014TIP3   OH212047   4.265   3.751   2.312 -0.0474  0.0330 -0.2156
 4014TIP3    H112048   4.184   3.774   2.357  0.7373 -2.2691  2.6953
 4014TIP3    H212049   4.274   3.656   2.326  3.1269  0.2034 -0.3860
 4015TIP3   OH212050   1.825   1.766   0.916  0.4251 -0.1120  0.6745
 4015TIP3    H112051   1.845   1.683   0.874  0.9449  0.2079  0.2822
 4015TIP3    H212052   1.764   1.743   0.986  0.5444 -0.8171  0.5557
 4016TIP3   OH212053   0.521   1.868   3.396 -0.1740  0.7576 -0.8205
 4016TIP3    H112054   0.488   1.832   3.478  0.8443 -0.0115 -0.7357
 4016TIP3    H212055   0.467   1.946   3.380 -2.0368 -0.4611 -0.7146
 4017TIP3   OH212056   3.901   0.070   2.934  0.2248  0.2660  0.1243
 4017TIP3    H112057   3.979   0.070   2.990  0.0757  0.7693  0.3363
 4017TIP3    H212058   3.872   0.161   2.932 -2.6052 -0.3806  3.1899
 4018TIP3   OH212059   2.309   4.733   4.477 -0.5635 -0.3085  0.4226
 4018TIP3    H112060   2.261   4.650   4.473  0.3350 -0.8018 -0.4900
 4018TIP3    H212061   2.245   4.799   4.450 -0.9828 -0.8413  0.1034
 4019TIP3   OH212062   6.098   2.420   3.403  0.1223 -0.3171  0.5046
 4019TIP3    H112063   6.107   2.339   3.353 -0.2808 -0.7055  1.0532
 4019TIP3    H212064   6.051   2.395   3.483  1.1179  0.1978  1.2863
 4020TIP3   OH212065   1.300   5.278   2.850  0.4812  0.3286  0.5542
 4020TIP3    H112066   1.380   5.241   2.887  1.3505  3.1287  1.7382
 4020TIP3    H212067   1.324   5.367   2.825 -2.2479  1.2311  0.8367
 4021TIP3   OH212068   4.743   4.065   0.886  0.2172 -0.9800 -0.3039
 4021TIP3    H112069   4.656   4.102   0.892  0.2981 -1.0204  3.0813
 4021TIP3    H212070   4.741   4.010   0.807 -2.3655 -0.0034 -0.9950
 4022TIP3   OH212071   0.411   3.981   0.913  0.3079 -0.3906  0.4496
 4022TIP3    H112072   0.487   3.932   0.879  0.7070 -0.0249  0.7936
 4022TIP3    H212073   0.449   4.038   0.980  0.2529  2.1418 -1.5558
 4023TIP3   OH212074   5.996   1.886   1.688 -0.2845  0.4150 -0.0199
 4023TIP3    H112075   5.932   1.957   1.691  0.5406  1.2291 -1.0731
 4023TIP3    H212076   6.063   1.911   1.751 -0.4303  0.1386  0.2438
 4024TIP3   OH212077   3.299   4.726   3.566  0.2389 -0.1371 -0.3410
 4024TIP3    H112078   3.288   4.817   3.594 -0.4685 -0.1223 -0.6267
 4024TIP3    H212079   3.279   4.728   3.472 -0.7431 -0.7402 -0.1637
 4025TIP3   OH212080   0.486   5.050   2.182 -0.1992 -0.2448 -0.4223
 4025TIP3    H112081   0.444   5.036   2.097  0.1437  0.7091 -0.7578
 4025TIP3    H212082   0.577   5.025   2.167 -0.4385 -1.4900  0.0756
 4026TIP3   OH212083   1.769   3.870   3.599 -0.3333 -0.2603 -0.4825
 4026TIP3    H112084   1.854   3.889   3.559 -0.1057 -1.0087 -0.3661
 4026TIP3    H212085   1.791   3.831   3.684 -0.8049  0.4510 -0.0230
 4027TIP3   OH212086   0.207   0.083   0.311 -0.5986 -0.4676 -0.4599
 4027TIP3    H112087   0.199   0.016   0.243  0.9071  0.1025 -1.2658
 4027TIP3    H212088   0.200   0.166   0.263  0.1153 -0.0580  0.1179
 4028TIP3   OH212089   4.206   0.197   0.427  0.8144 -0.2264 -0.0703
 4028TIP3    H112090   4.295   0.214   0.398  0.5304  0.1968 -0.6976
 4028TIP3    H212091   4.193   0.257   0.501  0.6957  0.4480 -0.6373
 4029TIP3   OH212092   2.845   5.918   4.969  0.3879 -0.6670 -0.5030
 4029TIP3    H112093   2.915   5.854   4.973  0.7180 -0.4330 -2.0071
 4029TIP3    H212094   2.766   5.867   4.953  0.2455 -0.8855  0.7315
 4030TIP3   OH212095   0.821   0.939   3.420  0.2772  0.5970 -0.4573
 4030TIP3    H112096   0.753   0.920   3.355  0.2862  0.5904 -0.4647
 4030TIP3    H212097   0.829   0.858   3.470 -0.6834  1.0278  0.4226
 4031TIP3   OH212098   2.640   1.864   2.656 -0.3049 -0.6768 -0.5950
 4031TIP3    H112099   2.560   1.908   2.629 -0.3919 -0.6065 -0.2251
 4031TIP3    H212100   2.637   1.865   2.752  0.1455 -0.6535 -0.5794
 4032TIP3   OH212101   2.853   0.953   1.943  0.3932 -0.2343  0.1146
 4032TIP3    H112102   2.910   1.018   1.984 -0.2708  0.5892 -0.2481
 4032TIP3    H212103   2.850   0.881   2.006  0.7447  0.2933  0.7449
 4033TIP3   OH212104   3.883   4.750   2.888 -0.6626 -0.1353 -0.4108
 4033TIP3    H112105   3.871   4.835   2.931 -1.8899  0.1038 -1.1766
 4033TIP3    H212106   3.951   4.766   2.823  0.6460 -0.3038  0.8572
 4034TIP3   OH212107   1.436   1.824   0.850 -0.1540 -0.4069  0.1763
 4034TIP3    H112108   1.447   1.903   0.904 -1.2796  0.4625 -0.8148
 4034TIP3    H212109   1.373   1.771   0.898 -0.3626 -0.1096  0.2379
 4035TIP3   OH212110   6.240   4.159   1.987 -0.0744  0.2347  0.5576
 4035TIP3    H112111   6.219   4.215   1.913 -2.3785 -1.5740 -0.2867
 4035TIP3    H212112   6.217   4.211   2.064 -0.4733  1.0871 -0.1196
 4036TIP3   OH212113   5.682   5.679   2.053  0.3754 -0.0861 -0.2979
 4036TIP3    H112114   5.727   5.602   2.088  0.3009  0.0650  0.1376
 4036TIP3    H212115   5.743   5.751   2.068 -0.4013  0.2993  1.2385
 4037TIP3   OH212116   4.207   3.095   1.040  0.5236  0.5338  0.0015
 4037TIP3    H112117   4.145   3.106   1.113  0.4749 -0.3566  0.1158
 4037TIP3    H212118   4.274   3.036   1.075 -1.6934 -3.5219 -1.8627
 4038TIP3   OH212119   4.174   3.086   1.869 -0.1382  0.6288 -0.1794
 4038TIP3    H112120   4.235   3.108   1.940 -0.0890 -0.4114  0.1215
 4038TIP3    H212121   4.096   3.136   1.888  0.3356  1.3494 -0.1091
 4039TIP3   OH212122   3.213   4.624   2.148 -0.1867  0.3627 -0.1473
 4039TIP3    H112123   3.301   4.661   2.138 -0.0825 -0.2095 -1.5911
 4039TIP3    H212124   3.216   4.579   2.232  0.9335  0.2951 -0.1993
 4040TIP3   OH212125   5.097   2.240   3.474  0.4185 -0.3552  0.3858
 4040TIP3    H112126   5.169   2.257   3.413 -0.2275  0.0723 -0.2812
 4040TIP3    H212127   5.018   2.252   3.421 -0.2304  1.9689  1.7237
 4041TIP3   OH212128   0.514   1.558   2.591 -0.3864 -0.5990 -0.0514
 4041TIP3    H112129   0.424   1.586   2.611  0.0032  1.0392 -0.4555
 4041TIP3    H212130   0.553   1.633   2.547  1.1599 -1.3393 -0.0042
 4042TIP3   OH212131   3.611   3.931   1.005  0.1167 -0.3038  0.0427
 4042TIP3    H112132   3.536   3.990   1.016  0.2697 -0.1790  0.4300
 4042TIP3    H212133   3.657   3.935   1.088 -0.4907 -1.8476  0.4825
 4043TIP3   OH212134   1.783   1.793   0.162 -0.3858  0.7913 -0.8486
 4043TIP3    H112135   1.803   1.883   0.186  2.1920  0.2745 -0.7755
 4043TIP3    H212136   1.849   1.770   0.097 -0.6401 -1.2031 -0.4622
 4044TIP3   OH212137   4.023   2.002   1.742 -0.2097  0.0690 -0.0592
 4044TIP3    H112138   3.935   1.975   1.766  0.2026 -1.2149  0.0820
 4044TIP3    H212139   4.079   1.967   1.811  0.8123 -2.3591 -1.9767
 4045TIP3   OH212140   1.021   0.685   4.654 -0.1603  0.4828 -0.2357
 4045TIP3    H112141   0.953   0.699   4.588 -1.7700 -0.0047  1.2549
 4045TIP3    H212142   1.025   0.590   4.664 -1.1411  0.5860  1.5290
 4046TIP3   OH212143   3.715   5.730   1.238  0.2553 -0.1394  0.2262
 4046TIP3    H112144   3.774   5.654   1.238  0.5704  0.0972 -0.3934
 4046TIP3    H212145   3.629   5.694   1.216  0.1960 -0.4609  0.9497
 4047TIP3   OH212146   5.365   1.881   4.035 -0.0720 -0.3493 -0.7038
 4047TIP3    H112147   5.404   1.827   4.104 -2.5376 -0.0559  1.0379
 4047TIP3    H212148   5.420   1.959   4.033 -0.1526 -0.1744  1.2809
 4048TIP3   OH212149   0.081   3.363   0.527 -0.3173 -0.2512 -0.4937
 4048TIP3    H112150   0.044   3.301   0.591 -1.8947 -0.0093 -1.1455
 4048TIP3    H212151   0.147   3.411   0.577 -0.5446 -1.0051  0.5824
 4049TIP3   OH212152   1.175   0.979   0.658  0.2459 -0.5399  0.2502
 4049TIP3    H112153   1.113   0.937   0.598  1.6077 -0.5478 -1.1897
 4049TIP3    H212154   1.130   0.978   0.743 -1.4721 -1.0744 -0.6266
 4050TIP3   OH212155   4.118   1.054   0.630  0.2627  0.1108  0.1385
 4050TIP3    H112156   4.176   0.978   0.635  3.0055  2.1008  0.7936
 4050TIP3    H212157   4.069   1.041   0.549 -0.0443 -2.7395  0.6604
 4051TIP3   OH212158   3.136   5.402   5.125  0.4915  0.5830 -0.2964
 4051TIP3    H112159   3.098   5.474   5.075  0.7737  0.5873 -0.5072
 4051TIP3    H212160   3.222   5.434   5.152 -0.3666  1.2778  1.7726
 4052TIP3   OH212161   4.920   2.033   4.143 -0.2385 -0.2015  0.2487
 4052TIP3    H112162   4.903   2.069   4.230 -2.2137  0.6528 -0.4396
 4052TIP3    H212163   4.985   1.964   4.158  1.9332  2.0316  1.9405
 4053TIP3   OH212164   4.838   4.336   3.904  0.4129 -0.3385  0.2601
 4053TIP3    H112165   4.828   4.283   3.983 -0.4331 -1.6948 -0.7119
 4053TIP3    H212166   4.892   4.281   3.846  1.3130  0.7839  0.0066
 4054TIP3   OH212167   6.325   3.513   1.510  0.3898 -0.0005 -0.1824
 4054TIP3    H112168   6.348   3.442   1.450  0.4854 -1.6735  1.7130
 4054TIP3    H212169   6.368   3.489   1.593  0.9659  2.6242  0.3723
 4055TIP3   OH212170   5.875   3.997   1.543  0.6298  0.3516 -0.0185
 4055TIP3    H112171   5.841   3.907   1.539  1.8570 -0.0998 -0.9017
 4055TIP3    H212172   5.911   4.005   1.631  2.7916 -0.9338 -0.7066
 4056TIP3   OH212173   6.117   3.405   2.447 -0.0124 -0.2887  0.3056
 4056TIP3    H112174   6.105   3.400   2.352 -1.2428  1.4988  0.3361
 4056TIP3    H212175   6.190   3.466   2.458 -0.7728  0.5977  0.5240
 4057TIP3   OH212176   5.151   1.688   2.574 -0.2998  0.0565  0.7356
 4057TIP3    H112177   5.194   1.714   2.492 -0.6735 -1.9934 -0.1822
 4057TIP3    H212178   5.223   1.681   2.637  0.2326  0.0428  0.1419
 4058TIP3   OH212179   3.436   5.720   4.698  0.4233  0.1010 -0.1854
 4058TIP3    H112180   3.372   5.776   4.654  0.9418  0.3342 -0.6646
 4058TIP3    H212181   3.385   5.666   4.757 -0.3285 -0.3428 -1.2068
 4059TIP3   OH212182   2.052   0.268   3.926  0.5049 -0.2918 -0.4512
 4059TIP3    H112183   2.121   0.202   3.914 -0.7955 -1.8315  0.2194
 4059TIP3    H212184   1.988   0.248   3.857 -0.4832 -0.5231  0.5150
 4060TIP3   OH212185   3.093   5.048   1.116 -0.2046 -0.2801  0.4458
 4060TIP3    H112186   3.049   5.132   1.122  0.1713 -0.1672  2.0073
 4060TIP3    H212187   3.112   5.024   1.207  0.1569 -1.8029  0.0016
 4061TIP3   OH212188   0.262   3.598   0.403  0.0580 -0.1878 -0.5418
 4061TIP3    H112189   0.182   3.643   0.430  0.7881  0.6575  0.2745
 4061TIP3    H212190   0.311   3.585   0.484  1.6934  1.1993 -1.2340
 4062TIP3   OH212191   0.003   2.425   3.950 -0.0381  0.3245 -0.6332
 4062TIP3    H112192   0.037   2.423   3.860  0.9909 -1.1689 -0.2464
 4062TIP3    H212193   0.071   2.471   4.000  0.9468 -1.5833 -0.0896
 4063TIP3   OH212194   3.047   0.890   2.318  0.1337 -0.2645 -0.2864
 4063TIP3    H112195   3.015   0.863   2.404 -2.4745  0.6082 -0.8751
 4063TIP3    H212196   3.112   0.957   2.336  0.4950 -0.9491  1.0221
 4064TIP3   OH212197   1.441   2.255   4.852 -0.4521 -0.3309  0.2303
 4064TIP3    H112198   1.512   2.203   4.815 -1.4669 -0.5889 -1.4584
 4064TIP3    H212199   1.472   2.345   4.847 -0.4099 -0.4035 -0.9023
 4065TIP3   OH212200   6.043   4.978   2.420 -0.7968  0.2805  0.2653
 4065TIP3    H112201   6.064   5.024   2.502 -0.3379 -0.8670  0.8193
 4065TIP3    H212202   6.027   4.887   2.447  0.1007 -0.2904 -0.9969
 4066TIP3   OH212203   4.849   0.452   4.335  0.3338 -0.1249  0.2540
 4066TIP3    H112204   4.901   0.412   4.405  1.9551 -0.3448 -1.0415
 4066TIP3    H212205   4.803   0.524   4.378  0.8388 -0.6057  1.6596
 4067TIP3   OH212206   3.079   3.497   0.467  0.3434  0.0076  0.1513
 4067TIP3    H112207   3.110   3.539   0.547  2.8639  0.1194 -0.7762
 4067TIP3    H212208   3.060   3.407   0.493  2.8342 -0.4596  0.6142
 4068TIP3   OH212209   4.977   3.986   1.530 -0.1454  0.0827  0.3588
 4068TIP3    H112210   4.923   4.039   1.470  3.0488  0.1524 -2.8315
 4068TIP3    H212211   4.981   4.038   1.610 -0.9399  2.4176 -0.9967
 4069TIP3   OH212212   5.925   2.025   1.143  0.3878  0.2455  0.2430
 4069TIP3    H112213   5.852   2.081   1.117  0.5719  0.9390  1.1462
 4069TIP3    H212214   5.906   1.940   1.103 -0.5756  0.5947 -0.0740
 4070TIP3   OH212215   4.755   5.351   4.046 -0.2249  0.4910  0.7536
 4070TIP3    H112216   4.705   5.278   4.011 -0.1225  0.4790  0.6338
 4070TIP3    H212217   4.718   5.428   4.004  0.2614  0.4289  0.2006
 4071TIP3   OH212218   0.995   5.262   1.679 -0.5205  0.0233  0.0513
 4071TIP3    H112219   1.015   5.344   1.634 -0.7006  0.1735  0.2480
 4071TIP3    H212220   1.037   5.270   1.765 -1.1360  0.1983  0.3353
 4072TIP3   OH212221   0.229   5.587   3.231  0.0632 -0.4943 -0.0572
 4072TIP3    H112222   0.308   5.584   3.285 -0.5186  0.3959  0.8873
 4072TIP3    H212223   0.235   5.670   3.184  0.2607 -0.9784 -0.9108
 4073TIP3   OH212224   3.424   1.361   4.120  0.1013 -0.5212  0.1711
 4073TIP3    H112225   3.411   1.319   4.034  0.7416 -0.6487  0.1367
 4073TIP3    H212226   3.425   1.288   4.182 -0.5184 -0.4174  0.3108
 4074TIP3   OH212227   2.918   5.376   3.293 -0.4249  0.3865  0.3437
 4074TIP3    H112228   2.828   5.407   3.281 -0.6928 -0.7029 -0.7234
 4074TIP3    H212229   2.956   5.381   3.205  0.1602 -0.3109  0.5507
 4075TIP3   OH212230   3.980   5.552   3.288 -0.0593 -0.1901  0.5938
 4075TIP3    H112231   4.072   5.576   3.290  0.3279 -1.4987  0.0282
 4075TIP3    H212232   3.964   5.511   3.373 -0.4047  0.9413  1.0904
 4076TIP3   OH212233   0.321   3.103   4.600  0.0776  0.2889  0.2391
 4076TIP3    H112234   0.267   3.181   4.585  0.1969  1.1759  3.7379
 4076TIP3    H212235   0.402   3.137   4.637  1.8142 -1.2962 -1.8271
 4077TIP3   OH212236   4.413   0.393   0.141 -0.2279  0.0272 -0.1220
 4077TIP3    H112237   4.430   0.332   0.069 -0.1133 -0.6698  0.4767
 4077TIP3    H212238   4.429   0.341   0.220 -0.8720  0.6250  0.4122
 4078TIP3   OH212239   4.089   2.373   0.316  0.2064 -0.1458 -0.1294
 4078TIP3    H112240   4.036   2.336   0.245 -1.0589  0.4177  0.4883
 4078TIP3    H212241   4.179   2.346   0.296 -0.0776  0.1815 -2.0652
 4079TIP3   OH212242   1.250   1.929   0.134  0.5435  0.3555  0.0426
 4079TIP3    H112243   1.211   1.843   0.117 -0.0037  0.5454  0.3131
 4079TIP3    H212244   1.311   1.913   0.206  0.1021  0.2722  0.4078
 4080TIP3   OH212245   4.481   5.545   1.628  0.0235  0.2834 -0.6913
 4080TIP3    H112246   4.468   5.452   1.614 -0.2150 -0.1262  1.7093
 4080TIP3    H212247   4.570   5.552   1.664 -0.6718  0.6602  1.0889
 4081TIP3   OH212248   1.621   0.443   0.599 -0.6914 -0.3833 -0.6843
 4081TIP3    H112249   1.694   0.382   0.585  0.0069  0.2527  0.0839
 4081TIP3    H212250   1.546   0.400   0.558 -0.3764 -2.1113  0.4456
 4082TIP3   OH212251   2.494   0.423   0.815  0.2499  0.3753  0.1368
 4082TIP3    H112252   2.460   0.444   0.902  0.4303  0.9849  0.0647
 4082TIP3    H212253   2.588   0.433   0.823  0.3598 -0.5705  0.1340
 4083TIP3   OH212254   1.916   0.900   2.214 -0.0713 -0.1808 -0.0530
 4083TIP3    H112255   1.848   0.905   2.282 -0.3873 -0.2191 -0.3598
 4083TIP3    H212256   1.908   0.812   2.179  0.3864 -0.3053  0.1598
 4084TIP3   OH212257   0.362   5.918   3.666 -0.4584 -0.2168  0.6514
 4084TIP3    H112258   0.426   5.870   3.719 -0.4147 -1.2712 -0.3314
 4084TIP3    H212259   0.367   5.877   3.579 -0.2895  1.6745 -0.2861
 4085TIP3   OH212260   0.745   2.502   4.456  0.1248  0.1309 -0.1774
 4085TIP3    H112261   0.739   2.413   4.423  1.6004  0.4383 -1.3605
 4085TIP3    H212262   0.722   2.558   4.382  0.4823  0.7571  0.1698
 4086TIP3   OH212263   0.785   0.606   2.253 -0.2530 -0.1799  0.2845
 4086TIP3    H112264   0.791   0.557   2.172 -1.3942 -1.6101  1.0170
 4086TIP3    H212265   0.876   0.624   2.278  0.1238 -0.4108 -0.8960
 4087TIP3   OH212266   4.421   0.133   2.789 -0.4916  0.1505 -0.0023
 4087TIP3    H112267   4.445   0.225   2.799 -0.0148 -0.0940  1.1982
 4087TIP3    H212268   4.463   0.106   2.707  0.0842  0.7773  0.0831
 4088TIP3   OH212269   4.072   2.643   0.964  0.1008 -0.4066  0.2149
 4088TIP3    H112270   4.060   2.718   0.907  0.9555  0.2478  0.8683
 4088TIP3    H212271   4.082   2.680   1.052  2.7839 -1.0671  0.2746
 4089TIP3   OH212272   4.654   3.193   2.756 -0.1387  0.4252  0.1671
 4089TIP3    H112273   4.659   3.101   2.730  0.3153  0.4598  0.1207
 4089TIP3    H212274   4.574   3.199   2.807  0.0877 -0.1038  0.5922
 4090TIP3   OH212275   2.430   2.357   3.149  0.2853  0.5691  0.6864
 4090TIP3    H112276   2.390   2.444   3.147 -1.5846 -0.0984 -3.7953
 4090TIP3    H212277   2.356   2.296   3.159  1.0539 -0.5616 -0.2351
 4091TIP3   OH212278   2.173   1.476   1.754 -0.1774  0.0961 -0.8491
 4091TIP3    H112279   2.164   1.457   1.661  1.6843 -0.8972 -0.8679
 4091TIP3    H212280   2.244   1.540   1.758  1.4358 -1.6586  0.0012
 4092TIP3   OH212281   3.604   3.612   1.043  0.1777  0.0970 -0.1668
 4092TIP3    H112282   3.697   3.620   1.020 -0.2103  1.4915 -1.3811
 4092TIP3    H212283   3.568   3.700   1.029 -2.0199 -1.0953 -3.0093
 4093TIP3   OH212284   1.588   1.358   2.210 -0.3677 -0.3735 -0.4078
 4093TIP3    H112285   1.646   1.287   2.182 -1.1114 -1.3371  0.4465
 4093TIP3    H212286   1.648   1.424   2.246  0.3888 -0.2224 -1.8770
 4094TIP3   OH212287   6.069   5.733   2.088 -0.3911  0.0537 -0.0347
 4094TIP3    H112288   6.035   5.726   2.177 -0.6990  1.9110  0.0309
 4094TIP3    H212289   5.999   5.776   2.039  0.6885  1.2457 -0.5934
 4095TIP3   OH212290   0.482   2.429   1.991 -0.8188 -0.3110  0.0250
 4095TIP3    H112291   0.396   2.461   1.962 -1.6500 -1.2192  1.3743
 4095TIP3    H212292   0.464   2.342   2.028  0.9703 -1.2798 -1.2132
 4096TIP3   OH212293   4.345   3.937   1.346  0.2944 -0.2738  0.0130
 4096TIP3    H112294   4.391   3.870   1.295 -1.5454 -2.8145  1.4563
 4096TIP3    H212295   4.265   3.954   1.296  0.2881  0.1202  0.1567
 4097TIP3   OH212296   4.348   1.470   4.576 -0.4835  0.4240  0.7790
 4097TIP3    H112297   4.280   1.526   4.612  0.1618  1.5975  0.2250
 4097TIP3    H212298   4.304   1.419   4.508 -0.6647  1.7635 -0.1399
 4098TIP3   OH212299   0.231   0.778   1.926 -0.1453 -0.5956 -0.5170
 4098TIP3    H112300   0.209   0.758   2.017 -1.2206 -0.2860 -0.6981
 4098TIP3    H212301   0.325   0.795   1.927 -0.1391 -0.6519  0.5255
 4099TIP3   OH212302   3.980   2.935   2.872  0.6781 -0.6122  0.0850
 4099TIP3    H112303   4.017   3.024   2.871 -2.2734  0.7385 -0.6155
 4099TIP3    H212304   3.967   2.916   2.965  0.9165 -0.1125  0.2243
 4100TIP3   OH212305   4.003   1.478   3.668 -0.0513 -0.4694 -0.0081
 4100TIP3    H112306   4.022   1.477   3.761  1.8850 -3.3518 -0.3076
 4100TIP3    H212307   4.089   1.472   3.626 -0.7529  2.0361 -2.1073
 4101TIP3   OH212308   3.988   4.960   3.280  0.4796  0.4254  0.5414
 4101TIP3    H112309   4.064   4.936   3.228  0.3743  3.7394 -1.4212
 4101TIP3    H212310   4.001   5.053   3.300 -2.7761  0.9899  0.5620
 4102TIP3   OH212311   5.306   1.711   4.929  0.1604 -0.3011  0.1527
 4102TIP3    H112312   5.326   1.798   4.962  0.2520  0.2150 -1.2096
 4102TIP3    H212313   5.226   1.686   4.974 -0.0878  0.6598  0.2668
 4103TIP3   OH212314   2.394   1.382   0.364 -0.1508  0.3522 -0.1932
 4103TIP3    H112315   2.303   1.411   0.366 -0.0266  0.7482  1.9486
 4103TIP3    H212316   2.389   1.287   0.355 -0.6090  0.5628 -4.2528
 4104TIP3   OH212317   0.707   0.046   3.117 -0.2422 -0.5155 -0.3602
 4104TIP3    H112318   0.637  -0.019   3.116 -1.2139  0.4995 -1.7321
 4104TIP3    H212319   0.666   0.126   3.084  2.0292 -0.4569 -3.5869
 4105TIP3   OH212320   3.356   1.039   3.511  0.2349  0.3343 -0.0844
 4105TIP3    H112321   3.348   1.110   3.447  0.5738  2.4990  2.1174
 4105TIP3    H212322   3.451   1.033   3.527  0.1540 -0.1865  0.1907
 4106TIP3   OH212323   2.699   5.880   2.357  0.2776  0.3743 -0.0332
 4106TIP3    H112324   2.693   5.935   2.434  2.0510  0.4668  0.0886
 4106TIP3    H212325   2.731   5.796   2.389  2.6780  0.9167 -0.7931
 4107TIP3   OH212326   1.916   1.024   5.076 -0.8597  0.6107  0.0356
 4107TIP3    H112327   1.933   0.979   4.994 -0.1890 -0.4116  0.7133
 4107TIP3    H212328   1.832   0.990   5.105  0.5518 -1.8423  1.5526
 4108TIP3   OH212329   5.792   5.744   3.840  0.3443 -0.2172 -0.1436
 4108TIP3    H112330   5.738   5.673   3.873  1.8835 -0.6929  1.4718
 4108TIP3    H212331   5.848   5.769   3.913  0.3072  2.2421 -0.8470
 4109TIP3   OH212332   4.701   1.726   3.938  0.4698  0.0444  0.2846
 4109TIP3    H112333   4.673   1.810   3.976  0.8737  0.6717 -0.7569
 4109TIP3    H212334   4.620   1.681   3.916  0.2422  0.6581 -0.1727
 4110TIP3   OH212335   2.479   1.547   0.820  0.1620 -0.5836 -0.0246
 4110TIP3    H112336   2.389   1.535   0.788 -0.1142  1.4796 -0.1474
 4110TIP3    H212337   2.534   1.508   0.752 -0.6303 -1.8791  0.0540
 4111TIP3   OH212338   1.463   5.014   0.513  0.0916  0.4321 -0.8743
 4111TIP3    H112339   1.463   5.086   0.577 -1.5186  0.2366 -0.5956
 4111TIP3    H212340   1.468   5.058   0.428 -0.4763  0.8612 -0.6933
 4112TIP3   OH212341   0.764   2.310   3.320 -0.0971 -0.0694 -0.4014
 4112TIP3    H112342   0.675   2.299   3.353  0.5815  0.2903  1.7132
 4112TIP3    H212343   0.791   2.221   3.294 -0.1682 -0.6828  1.4949
 4113TIP3   OH212344   0.178   5.762   1.648  0.0793 -0.0257 -0.3686
 4113TIP3    H112345   0.237   5.790   1.577  0.7163 -0.6546 -0.1073
 4113TIP3    H212346   0.140   5.843   1.681 -0.7381  0.2327 -1.8557
 4114TIP3   OH212347   2.064   2.578   3.730  1.1567 -0.8604 -0.4135
 4114TIP3    H112348   2.036   2.489   3.711 -0.3375 -0.6469  0.5482
 4114TIP3    H212349   2.061   2.623   3.646 -0.5148 -1.1264 -0.5236
 4115TIP3   OH212350   2.367   4.257   3.594  0.4327  0.3486 -0.7853
 4115TIP3    H112351   2.451   4.247   3.637 -0.3034  1.2526  0.9395
 4115TIP3    H212352   2.303   4.261   3.665 -0.9740  0.6878 -2.0082
 4116TIP3   OH212353   5.569   5.523   1.648  0.1850  0.1928  0.1397
 4116TIP3    H112354   5.541   5.489   1.733 -0.7769  1.6009  0.4224
 4116TIP3    H212355   5.595   5.445   1.599 -2.3660 -1.0537  0.5734
 4117TIP3   OH212356   5.932   4.707   3.128 -0.2762  0.2526  0.2786
 4117TIP3    H112357   5.931   4.770   3.055 -1.4549 -0.1705 -0.0900
 4117TIP3    H212358   5.892   4.755   3.201  0.0506  0.3687  0.3820
 4118TIP3   OH212359   4.670   3.492   0.101 -0.5453  0.7105  0.4426
 4118TIP3    H112360   4.706   3.452   0.022  0.9607 -0.6380  1.7411
 4118TIP3    H212361   4.576   3.496   0.086 -0.5313 -1.4857 -0.5875
 4119TIP3   OH212362   4.484   3.431   0.861 -0.3345  0.7543  0.4680
 4119TIP3    H112363   4.424   3.357   0.851  1.5067 -0.9788  1.6164
 4119TIP3    H212364   4.565   3.393   0.894  1.3240  3.0568 -0.6406
 4120TIP3   OH212365   0.924   5.425   4.611 -0.7087 -0.0379  0.1607
 4120TIP3    H112366   0.834   5.456   4.601 -0.7858 -0.0646  0.7627
 4120TIP3    H212367   0.959   5.474   4.685 -0.6683 -1.0043  0.7987
 4121TIP3   OH212368   1.031   1.854   0.549 -0.6079 -1.0564  0.4959
 4121TIP3    H112369   1.080   1.880   0.627 -1.3566 -0.6192  0.8392
 4121TIP3    H212370   0.939   1.855   0.578 -1.2184  2.1195 -1.1709
 4122TIP3   OH212371   1.177   5.446   3.016 -0.4481  0.4721 -0.2716
 4122TIP3    H112372   1.226   5.518   2.977  0.2434  0.3390  0.3252
 4122TIP3    H212373   1.202   5.369   2.965  0.2698  0.3388  0.2705
 4123TIP3   OH212374   4.074   4.451   2.111 -0.1819 -0.9629  0.5306
 4123TIP3    H112375   4.095   4.418   2.198  1.6724  1.3448  1.0715
 4123TIP3    H212376   4.144   4.513   2.091 -1.3366 -0.3241 -2.0081
 4124TIP3   OH212377   6.195   2.233   3.635  0.0352 -1.0011 -0.3914
 4124TIP3    H112378   6.147   2.268   3.710 -0.5721 -1.7377 -0.4233
 4124TIP3    H212379   6.285   2.223   3.666  0.2602  0.6283 -0.4023
 4125TIP3   OH212380   4.440   4.637   1.990  0.1853 -0.4764  0.7831
 4125TIP3    H112381   4.447   4.554   1.942 -1.3530 -0.0915 -0.2034
 4125TIP3    H212382   4.491   4.699   1.939 -2.5378  0.2589 -1.3000
 4126TIP3   OH212383   5.831   0.311   1.567 -0.1340  0.6409  0.0255
 4126TIP3    H112384   5.917   0.269   1.567 -0.1123  0.6851  0.0046
 4126TIP3    H212385   5.820   0.344   1.477  0.1889  1.3773  0.2457
 4127TIP3   OH212386   2.647   3.118   0.260 -0.0455  0.3452 -0.3373
 4127TIP3    H112387   2.633   3.037   0.309 -0.6625  0.7266  0.1364
 4127TIP3    H212388   2.684   3.179   0.324 -0.7712  0.8179 -0.3569
 4128TIP3   OH212389   0.559   0.156   0.634  0.2397  0.0298 -0.5194
 4128TIP3    H112390   0.514   0.133   0.553 -0.6794  0.8173 -0.2555
 4128TIP3    H212391   0.606   0.237   0.612  0.9185 -0.3776 -0.5804
 4129TIP3   OH212392   3.259   0.519   0.039 -0.4438  0.4967  0.6401
 4129TIP3    H112393   3.166   0.536   0.025 -0.2290  2.0747  0.8921
 4129TIP3    H212394   3.270   0.520   0.134 -0.3304 -0.6984  0.6463
 4130TIP3   OH212395   5.295   3.111   2.470 -0.0190 -0.3693 -0.2448
 4130TIP3    H112396   5.234   3.043   2.499  0.4033 -0.3816  0.6363
 4130TIP3    H212397   5.351   3.127   2.546  1.8879 -1.2245 -1.3931
 4131TIP3   OH212398   6.184   0.490   3.040 -0.0060  0.0422  0.0757
 4131TIP3    H112399   6.189   0.475   3.135  0.5395  0.0083  0.0475
 4131TIP3    H212400   6.227   0.575   3.027 -2.2031  1.2307  0.1248
 4132TIP3   OH212401   5.511   2.494   0.995 -0.1154  0.3962 -0.5235
 4132TIP3    H112402   5.453   2.526   1.063 -1.0671  1.5414 -1.8049
 4132TIP3    H212403   5.466   2.418   0.958  0.3114 -0.1113 -0.0143
 4133TIP3   OH212404   4.946   5.729   0.444  0.0059 -0.0362  0.2682
 4133TIP3    H112405   5.000   5.805   0.467  1.1759 -0.7829  0.0800
 4133TIP3    H212406   4.907   5.702   0.527 -0.6080  0.8833  0.3012
 4134TIP3   OH212407   5.582   5.718   2.475 -0.6176  0.0786 -0.3748
 4134TIP3    H112408   5.554   5.672   2.395  1.9874  0.7994 -1.8503
 4134TIP3    H212409   5.577   5.652   2.544 -1.4533 -1.0336 -1.4660
 4135TIP3   OH212410   1.702   3.023   3.016 -0.3587  0.1550  0.1108
 4135TIP3    H112411   1.627   3.016   2.957 -0.8477 -1.2116  0.8602
 4135TIP3    H212412   1.665   3.029   3.103  0.3910  0.2351  0.4361
 4136TIP3   OH212413   3.587   2.527   4.512  0.0011  0.3582  0.0704
 4136TIP3    H112414   3.657   2.589   4.529  1.3607 -1.4551  1.5511
 4136TIP3    H212415   3.620   2.471   4.442 -1.0382  1.0255 -0.9740
 4137TIP3   OH212416   0.402   5.002   0.536 -0.0750 -0.8134 -0.6708
 4137TIP3    H112417   0.307   5.004   0.523  0.1918  0.7571 -3.3882
 4137TIP3    H212418   0.437   4.995   0.447  2.3323  3.8050 -0.3904
 4138TIP3   OH212419   2.454   2.956   2.106 -0.3635 -0.5092 -0.8088
 4138TIP3    H112420   2.478   2.995   2.022 -1.7091 -0.4223 -1.1777
 4138TIP3    H212421   2.533   2.962   2.159 -0.1511  1.5359 -1.2977
 4139TIP3   OH212422   0.740   4.960   2.614 -0.9854 -0.0071 -0.3062
 4139TIP3    H112423   0.650   4.950   2.582 -0.6296 -0.6335 -1.1275
 4139TIP3    H212424   0.777   4.872   2.610 -0.3680  0.2193  0.1670
 4140TIP3   OH212425   1.555   5.731   0.292 -0.1707 -0.1846 -0.3650
 4140TIP3    H112426   1.636   5.735   0.241 -0.9000 -2.6613 -1.8336
 4140TIP3    H212427   1.485   5.736   0.228 -1.2351  0.9849  0.8197
 4141TIP3   OH212428   1.379   1.684   4.254 -0.1924  0.0093 -0.1285
 4141TIP3    H112429   1.420   1.759   4.211 -0.3539  0.0231 -0.2567
 4141TIP3    H212430   1.317   1.723   4.316 -0.6037 -0.0233 -0.5144
 4142TIP3   OH212431   3.613   0.096   1.444  0.0351  0.1578  0.4886
 4142TIP3    H112432   3.602   0.179   1.399 -0.3646  0.3453  0.9293
 4142TIP3    H212433   3.619   0.119   1.536 -4.0018 -0.5020  1.1323
 4143TIP3   OH212434   6.136   0.404   1.783 -0.6666  0.0235  0.1670
 4143TIP3    H112435   6.043   0.426   1.782 -0.4002  1.2304 -0.6988
 4143TIP3    H212436   6.149   0.349   1.705 -0.4888  0.6731 -0.2704
 4144TIP3   OH212437   2.889   5.912   0.506  0.2019 -0.3192 -0.6431
 4144TIP3    H112438   2.856   6.002   0.510  0.9144 -0.0971  1.0264
 4144TIP3    H212439   2.840   5.872   0.434 -1.1826  0.9709 -0.4788
 4145TIP3   OH212440   3.033   4.350   0.572  0.1854 -0.1047 -0.0064
 4145TIP3    H112441   3.023   4.384   0.483  0.3707 -0.0515 -0.0091
 4145TIP3    H212442   3.126   4.365   0.592  0.1214 -0.0295  0.2316
 4146TIP3   OH212443   4.939   1.084   1.611 -0.3669  0.3475  0.0656
 4146TIP3    H112444   5.021   1.044   1.638 -1.8343 -3.0761 -0.0709
 4146TIP3    H212445   4.906   1.128   1.690  0.7993  0.3745  0.5553
 4147TIP3   OH212446   1.810   3.278   4.174 -1.0881  0.5942 -0.0963
 4147TIP3    H112447   1.745   3.244   4.112  0.6462 -2.2431 -0.5206
 4147TIP3    H212448   1.862   3.202   4.199  2.0253  2.6529  0.2988
 4148TIP3   OH212449   5.470   4.655   4.603  0.0648 -0.3057 -0.7829
 4148TIP3    H112450   5.503   4.627   4.517  0.3626  1.1152 -1.1575
 4148TIP3    H212451   5.476   4.750   4.601 -1.8092 -0.1271  0.0747
 4149TIP3   OH212452   2.717   4.880   3.976 -0.0436  0.1540 -0.5876
 4149TIP3    H112453   2.672   4.796   3.985 -0.2328  0.4265  1.5838
 4149TIP3    H212454   2.655   4.934   3.926 -0.6126 -0.5127 -0.6313
 4150TIP3   OH212455   3.389   2.599   2.480 -0.1237  0.0993  0.7098
 4150TIP3    H112456   3.462   2.543   2.453 -1.3696 -1.7555  0.9886
 4150TIP3    H212457   3.315   2.569   2.426 -0.7077  1.9115  0.4486
 4151TIP3   OH212458   1.462   5.989   3.058  0.2255  0.2426 -0.4876
 4151TIP3    H112459   1.445   5.935   2.981 -0.6589 -0.6363  0.3059
 4151TIP3    H212460   1.484   5.926   3.127  0.2207  0.9683  0.1899
 4152TIP3   OH212461   3.286   5.668   2.153 -0.1834  0.3011 -0.1705
 4152TIP3    H112462   3.206   5.720   2.165 -1.0681 -0.8809 -0.6804
 4152TIP3    H212463   3.277   5.632   2.064 -0.2135 -1.6694  0.5786
 4153TIP3   OH212464   2.566   4.429   1.720  0.3313 -0.0295 -0.2506
 4153TIP3    H112465   2.509   4.356   1.697 -1.1909  0.6669  1.1229
 4153TIP3    H212466   2.565   4.431   1.816  1.0145  1.2783 -0.2446
 4154TIP3   OH212467   1.424   3.717   4.453 -0.4136  0.1096 -0.1706
 4154TIP3    H112468   1.350   3.769   4.485 -0.0841  0.7471 -0.4243
 4154TIP3    H212469   1.412   3.713   4.358 -0.0387  0.3508 -0.2302
 4155TIP3   OH212470   6.217   5.776   3.577  0.6188  0.8151 -0.2572
 4155TIP3    H112471   6.262   5.821   3.648 -0.0158  0.0358  0.6731
 4155TIP3    H212472   6.280   5.711   3.546 -0.0244 -0.7888  1.5397
 4156TIP3   OH212473   6.181   4.681   4.744  0.3628 -0.2611 -0.0967
 4156TIP3    H112474   6.130   4.730   4.680 -1.0217 -2.1017 -0.4874
 4156TIP3    H212475   6.137   4.696   4.827  0.9894  0.5466  0.0975
 4157TIP3   OH212476   3.398   2.723   1.210  0.6060  0.7016 -0.4188
 4157TIP3    H112477   3.328   2.770   1.166  0.6266  1.3381  0.2085
 4157TIP3    H212478   3.370   2.631   1.209  0.4489  0.7585 -1.4267
 4158TIP3   OH212479   2.199   3.516   1.780  0.2404 -0.4302  0.6929
 4158TIP3    H112480   2.280   3.472   1.753 -0.3112 -0.5317 -0.9028
 4158TIP3    H212481   2.131   3.450   1.770 -0.2455  0.0790  0.6121
 4159TIP3   OH212482   4.893   2.905   1.181 -0.2064 -0.8423  0.2566
 4159TIP3    H112483   4.815   2.961   1.180  0.4980  0.1393 -0.0268
 4159TIP3    H212484   4.890   2.862   1.267 -0.5676 -0.1099  0.6164
 4160TIP3   OH212485   0.756   1.706   3.516  0.2008  0.5065 -0.1247
 4160TIP3    H112486   0.697   1.778   3.537  0.7997  0.7706  0.7396
 4160TIP3    H212487   0.701   1.641   3.472  0.0545  2.3000 -2.7802
 4161TIP3   OH212488   0.483   1.892   0.752  0.6530 -0.0557  0.2984
 4161TIP3    H112489   0.482   1.862   0.661  0.1441 -0.4234  0.4245
 4161TIP3    H212490   0.500   1.814   0.804  1.7100  0.2756  0.4849
 4162TIP3   OH212491   4.097   4.201   1.985 -0.2582  0.3713  0.1587
 4162TIP3    H112492   4.031   4.171   2.047  0.6545  0.3278  1.1227
 4162TIP3    H212493   4.100   4.296   1.998  0.8366  0.2179  1.0984
 4163TIP3   OH212494   5.762   4.221   0.528  0.2897  0.3474  1.0195
 4163TIP3    H112495   5.848   4.225   0.487 -0.0547  1.1484  0.3325
 4163TIP3    H212496   5.760   4.296   0.589  0.7549 -0.7626  2.4589
 4164TIP3   OH212497   3.807   1.934   3.325 -0.3851  0.3276 -0.9977
 4164TIP3    H112498   3.729   1.974   3.363  2.1434  1.7168  3.4456
 4164TIP3    H212499   3.820   1.854   3.375  0.6764 -0.2822 -2.1836
 4165TIP3   OH212500   5.000   2.414   1.981 -0.1224  0.0686 -0.5848
 4165TIP3    H112501   4.964   2.497   1.950 -0.9484 -0.1482 -0.2278
 4165TIP3    H212502   4.924   2.356   1.989 -0.1332  0.3350  2.5831
 4166TIP3   OH212503   4.507   0.958   1.664 -0.6033 -0.7324  0.0050
 4166TIP3    H112504   4.463   0.915   1.738 -1.5918 -1.1234 -0.7965
 4166TIP3    H212505   4.437   0.983   1.605  0.2764 -2.4122 -1.8643
 4167TIP3   OH212506   3.379   3.345   3.803 -0.2048 -0.1413  0.3030
 4167TIP3    H112507   3.317   3.374   3.869  0.6939  0.5232  0.8844
 4167TIP3    H212508   3.441   3.417   3.794 -0.0526 -0.3946 -0.9600
 4168TIP3   OH212509   2.695   4.689   1.852  0.0735  0.4351 -0.1823
 4168TIP3    H112510   2.765   4.730   1.802 -0.0281 -0.9392 -1.5141
 4168TIP3    H212511   2.692   4.739   1.934  1.7964  1.2719 -0.5805
 4169TIP3   OH212512   3.505   2.387   2.925  0.0826  0.0729 -0.0731
 4169TIP3    H112513   3.433   2.336   2.886 -0.0797  0.1750  0.0955
 4169TIP3    H212514   3.513   2.464   2.869  1.9115 -1.2608 -1.7929
 4170TIP3   OH212515   4.864   5.462   1.069  0.1446 -0.2544 -0.3240
 4170TIP3    H112516   4.819   5.541   1.038  0.0369 -0.1023  0.2054
 4170TIP3    H212517   4.816   5.436   1.147  0.5169 -0.5308 -0.1830
 4171TIP3   OH212518   2.995   4.954   2.116 -0.7288 -0.4114 -0.5654
 4171TIP3    H112519   2.982   4.982   2.207 -0.8174  2.3130 -1.3311
 4171TIP3    H212520   3.089   4.963   2.101 -0.6868 -1.0455 -0.7122
 4172TIP3   OH212521   4.597   3.319   2.243  0.5486 -0.1309 -0.0832
 4172TIP3    H112522   4.610   3.402   2.288  1.1402 -0.1293 -0.2474
 4172TIP3    H212523   4.664   3.261   2.281  1.2815 -0.0372 -1.1780
 4173TIP3   OH212524   1.368   1.339   3.272  0.0998  0.1357  0.2652
 4173TIP3    H112525   1.287   1.386   3.250  0.1627 -0.2121 -0.7838
 4173TIP3    H212526   1.342   1.247   3.278  0.1839  0.1689  1.1981
 4174TIP3   OH212527   3.154   0.583   1.002 -0.1736 -0.0359  0.2838
 4174TIP3    H112528   3.195   0.562   0.918 -0.9320 -1.3716  0.2188
 4174TIP3    H212529   3.161   0.678   1.009 -0.4871  0.1509 -1.5053
 4175TIP3   OH212530   4.536   0.740   1.059 -0.0364 -0.1302 -0.2015
 4175TIP3    H112531   4.458   0.746   1.115  1.6462  0.0725  2.2918
 4175TIP3    H212532   4.602   0.699   1.115  1.2990 -1.5456 -2.6807
 4176TIP3   OH212533   5.818   0.536   2.356  0.4313  0.3127  0.1781
 4176TIP3    H112534   5.891   0.598   2.365  0.8751 -0.3499  1.4206
 4176TIP3    H212535   5.837   0.488   2.275  1.1627  0.4384  0.2684
 4177TIP3   OH212536   2.490   2.883   1.684  0.4839 -0.5289 -0.4008
 4177TIP3    H112537   2.520   2.809   1.736  1.6029 -0.9423 -1.5804
 4177TIP3    H212538   2.518   2.960   1.734 -0.2184 -0.8811  0.5649
 4178TIP3   OH212539   1.942   4.922   1.306 -0.0539 -0.1607 -0.5907
 4178TIP3    H112540   1.916   4.856   1.242 -0.0737  0.4342 -1.2095
 4178TIP3    H212541   1.870   4.985   1.306 -0.0549 -0.1541  0.0242
 4179TIP3   OH212542   0.826   0.972   2.241 -0.2697 -1.0017 -0.3864
 4179TIP3    H112543   0.827   0.907   2.170  0.8975 -1.7048  0.2462
 4179TIP3    H212544   0.852   1.054   2.198  0.5204 -1.4402 -0.7799
 4180TIP3   OH212545   4.270   2.581   0.774 -0.3979 -0.6188  0.5275
 4180TIP3    H112546   4.233   2.513   0.717 -0.3490  0.4242 -0.7942
 4180TIP3    H212547   4.213   2.582   0.851 -2.8169  0.4834 -1.1421
 4181TIP3   OH212548   1.150   1.253   2.186  0.2412  0.2880  0.2901
 4181TIP3    H112549   1.200   1.201   2.123 -0.4691  0.6122 -0.5589
 4181TIP3    H212550   1.208   1.327   2.207 -0.0710  0.9448 -1.0931
 4182TIP3   OH212551   2.041   3.860   0.148  0.0881 -0.3209  0.0497
 4182TIP3    H112552   2.099   3.931   0.122 -0.6900  1.0695  1.9076
 4182TIP3    H212553   1.956   3.882   0.111  0.2826 -1.4377 -1.1578
 4183TIP3   OH212554   3.601   5.598   2.923 -0.4946 -0.0675 -0.0933
 4183TIP3    H112555   3.673   5.582   2.984 -2.7137 -2.4907  2.1435
 4183TIP3    H212556   3.577   5.512   2.891 -1.5768  0.8352 -1.8755
 4184TIP3   OH212557   3.141   3.375   0.789 -0.6197 -0.0362 -0.3233
 4184TIP3    H112558   3.170   3.382   0.698 -1.9955  0.4724 -0.7516
 4184TIP3    H212559   3.164   3.459   0.829  0.6521 -0.5281  0.0287
 4185TIP3   OH212560   2.152   3.997   4.530 -0.0085 -0.1983 -0.1046
 4185TIP3    H112561   2.211   3.943   4.478 -0.7935 -1.9662  0.7884
 4185TIP3    H212562   2.201   4.078   4.544  1.2377 -0.6822 -1.3805
 4186TIP3   OH212563   1.717   3.388   2.587  0.1018  0.0997  0.0881
 4186TIP3    H112564   1.789   3.412   2.645 -0.9301  0.6803  1.1755
 4186TIP3    H212565   1.710   3.293   2.595  0.1813  0.1427  0.6504
 4187TIP3   OH212566   1.019   3.617   4.616 -0.1359  0.1775 -0.4060
 4187TIP3    H112567   1.023   3.630   4.521  1.6165 -0.3993 -0.4479
 4187TIP3    H212568   1.054   3.528   4.629 -2.2588 -0.5692  0.6415
 4188TIP3   OH212569   3.150   5.212   1.703  0.5511 -0.1514  0.2685
 4188TIP3    H112570   3.108   5.137   1.745 -0.9218 -0.0362 -0.9046
 4188TIP3    H212571   3.188   5.261   1.775 -0.3802 -0.8680  1.2896
 4189TIP3   OH212572   0.738   3.374   0.946 -0.0486  0.0748  0.1494
 4189TIP3    H112573   0.706   3.405   1.031 -0.5891  0.9024 -0.3397
 4189TIP3    H212574   0.824   3.414   0.936 -0.4985  0.9688 -0.2212
 4190TIP3   OH212575   4.715   0.518   0.538 -0.1887  0.3722  0.2221
 4190TIP3    H112576   4.632   0.548   0.573 -0.3859  0.0459  0.0445
 4190TIP3    H212577   4.714   0.423   0.553 -0.7100  0.0689 -1.5406
 4191TIP3   OH212578   5.293   5.507   4.854  0.3302  0.3699  0.3361
 4191TIP3    H112579   5.327   5.434   4.802 -1.5694 -0.0706 -0.3721
 4191TIP3    H212580   5.236   5.465   4.919 -0.6581  1.1974  0.0265
 4192TIP3   OH212581   4.878   0.403   4.029  0.4933 -0.1687  0.1613
 4192TIP3    H112582   4.950   0.440   4.081 -0.2299  0.5937  0.6507
 4192TIP3    H212583   4.921   0.370   3.950  1.4674 -0.3208  0.7252
 4193TIP3   OH212584   1.168   0.673   3.016  0.5588  0.6092 -0.3075
 4193TIP3    H112585   1.133   0.761   3.004  0.2658  0.5544  0.1059
 4193TIP3    H212586   1.251   0.686   3.061  0.3745  0.6612  0.0221
 4194TIP3   OH212587   2.863   2.870   2.975  0.2153 -0.6745 -0.0535
 4194TIP3    H112588   2.848   2.910   2.889  0.2525  1.9491  1.0664
 4194TIP3    H212589   2.926   2.800   2.958  0.9253  0.3662 -2.0519
 4195TIP3   OH212590   5.896   2.382   0.120 -0.2407  0.1110  0.1477
 4195TIP3    H112591   5.964   2.317   0.140  0.2581  0.3058 -0.8680
 4195TIP3    H212592   5.920   2.458   0.174  0.1813  0.0667  0.0318
 4196TIP3   OH212593   4.745   2.042   3.524  0.0172  0.0825 -0.0453
 4196TIP3    H112594   4.712   2.130   3.504 -1.7827 -0.5044  0.1184
 4196TIP3    H212595   4.828   2.057   3.569 -0.5613  1.7322  0.5639
 4197TIP3   OH212596   6.108   2.819   2.314 -0.2774  0.2430 -0.4568
 4197TIP3    H112597   6.033   2.863   2.354  0.3007  0.7848  0.0657
 4197TIP3    H212598   6.140   2.881   2.249 -1.1386 -0.5877 -1.7054
 4198TIP3   OH212599   2.835   0.843   4.862  0.4593 -0.8044  0.3043
 4198TIP3    H112600   2.916   0.802   4.893  0.7781 -0.2775  0.1829
 4198TIP3    H212601   2.865   0.915   4.805 -0.1061 -1.4464 -0.8423
 4199TIP3   OH212602   2.225   4.294   0.290 -0.5042 -0.1659 -0.5012
 4199TIP3    H112603   2.158   4.360   0.275  1.8050  2.6469  0.5787
 4199TIP3    H212604   2.203   4.256   0.375 -1.9543 -1.0213 -1.2138
 4200TIP3   OH212605   2.404   5.651   2.903  0.2287  0.0574  0.2059
 4200TIP3    H112606   2.463   5.613   2.968 -0.3330 -0.7899  0.2386
 4200TIP3    H212607   2.320   5.660   2.950 -0.7045 -2.2628 -0.8442
 4201TIP3   OH212608   4.574   5.501   4.269 -0.3358 -0.8248  0.0979
 4201TIP3    H112609   4.514   5.453   4.326  0.7975 -1.8141  0.4902
 4201TIP3    H212610   4.659   5.459   4.282  0.1424 -0.4856 -1.6533
 4202TIP3   OH212611   4.549   1.581   2.617 -0.2731  0.4436  0.5456
 4202TIP3    H112612   4.573   1.491   2.639 -1.3741 -0.2613 -0.9632
 4202TIP3    H212613   4.626   1.617   2.574 -0.1289 -0.0779  0.3650
 4203TIP3   OH212614   3.179   4.549   3.751  0.0825  0.1634 -0.3999
 4203TIP3    H112615   3.222   4.628   3.720 -0.9400  1.2291  0.7888
 4203TIP3    H212616   3.087   4.560   3.727  0.1335 -1.2900 -1.3825
 4204TIP3   OH212617   0.889   3.365   1.681  0.2762 -0.0441  0.3250
 4204TIP3    H112618   0.862   3.304   1.611 -1.1405  0.9208 -0.0034
 4204TIP3    H212619   0.936   3.310   1.743  0.1301 -1.2418 -0.5825
 4205TIP3   OH212620   2.101   2.285   2.356  0.1101  0.4363 -0.4111
 4205TIP3    H112621   2.012   2.304   2.325  0.1253  0.5136 -0.4089
 4205TIP3    H212622   2.110   2.190   2.348 -0.0120  0.4165 -0.3068
 4206TIP3   OH212623   3.180   3.304   0.130 -0.1241 -0.3297  0.0251
 4206TIP3    H112624   3.257   3.342   0.086 -0.0067 -0.9292 -0.2987
 4206TIP3    H212625   3.210   3.283   0.218 -0.6453  1.8491  0.7726
 4207TIP3   OH212626   2.182   4.997   2.199 -0.1021  0.1896  0.1934
 4207TIP3    H112627   2.256   5.055   2.217 -0.6726  1.3216 -0.9530
 4207TIP3    H212628   2.211   4.911   2.231  1.9413  0.4530 -0.7492
 4208TIP3   OH212629   2.654   4.253   2.971 -0.0050  0.6602 -0.1439
 4208TIP3    H112630   2.616   4.184   3.026  0.0559  1.3484  0.7825
 4208TIP3    H212631   2.712   4.206   2.910  0.9197 -0.0315  1.2154
 4209TIP3   OH212632   4.978   2.810   1.696 -0.0334  0.2138 -0.2458
 4209TIP3    H112633   5.073   2.826   1.692  0.0400  0.1388  0.7737
 4209TIP3    H212634   4.940   2.895   1.715 -0.0043 -0.0472  1.0696
 4210TIP3   OH212635   4.196   0.973   0.928  0.6504  0.2867 -0.7640
 4210TIP3    H112636   4.196   0.944   0.837  2.7158  0.3112 -0.8226
 4210TIP3    H212637   4.234   0.900   0.977 -0.6938  0.1624  0.1550
 4211TIP3   OH212638   4.810   2.560   4.655  0.0091  0.1308  0.0562
 4211TIP3    H112639   4.863   2.589   4.729  1.3542 -0.5011 -0.6090
 4211TIP3    H212640   4.760   2.486   4.689 -0.1505  0.4808  0.5945
 4212TIP3   OH212641   6.231   0.442   2.273  0.0790 -0.3428  0.1461
 4212TIP3    H112642   6.155   0.383   2.270 -0.0956 -0.1014 -0.7278
 4212TIP3    H212643   6.265   0.434   2.361  0.2961 -2.0619 -0.0714
 4213TIP3   OH212644   5.851   1.627   1.761 -0.3255  0.1109  0.2955
 4213TIP3    H112645   5.894   1.710   1.780  0.5572 -0.3560  0.3957
 4213TIP3    H212646   5.784   1.649   1.697  1.0232  0.6615 -0.9938
 4214TIP3   OH212647   3.675   4.663   0.638 -0.1213  0.2704  0.6887
 4214TIP3    H112648   3.698   4.591   0.698  2.0150  1.1303  1.0027
 4214TIP3    H212649   3.670   4.621   0.552  0.0296 -0.4312  1.0107
 4215TIP3   OH212650   1.735   1.391   5.002  0.1013  0.5945  0.6481
 4215TIP3    H112651   1.715   1.468   4.949 -0.9066 -0.0516  0.0260
 4215TIP3    H212652   1.827   1.373   4.986 -0.2041  0.3539 -1.0140
 4216TIP3   OH212653   2.545   2.979   5.029  0.0684  0.6800 -0.1690
 4216TIP3    H112654   2.608   2.987   5.101 -0.0457  0.7757 -0.0790
 4216TIP3    H212655   2.490   2.905   5.052 -0.0377  0.7784 -0.1032
 4217TIP3   OH212656   2.930   3.997   4.873  0.1130  0.0130  0.1121
 4217TIP3    H112657   2.965   3.908   4.864 -0.4967 -0.1885 -0.3720
 4217TIP3    H212658   3.007   4.053   4.883  0.4861 -0.6127  0.8347
 4218TIP3   OH212659   3.285   0.185   0.514 -0.0211 -0.1671 -0.5187
 4218TIP3    H112660   3.306   0.277   0.526 -1.7342  0.4019 -1.7153
 4218TIP3    H212661   3.282   0.172   0.419  1.0745 -1.6843 -0.3910
 4219TIP3   OH212662   4.440   0.937   4.855 -0.2234 -0.0116 -0.2230
 4219TIP3    H112663   4.348   0.919   4.873 -0.5166  1.2941 -0.2577
 4219TIP3    H212664   4.457   1.019   4.902  0.5880  0.4028 -1.1979
 4220TIP3   OH212665   4.102   5.289   3.797 -0.6316  0.1321 -0.0368
 4220TIP3    H112666   4.113   5.194   3.799 -1.2208  0.0344 -0.8684
 4220TIP3    H212667   4.150   5.320   3.873 -1.1224 -0.9084  0.7319
 4221TIP3   OH212668   4.158   0.631   1.440 -0.2446 -0.3732  0.0655
 4221TIP3    H112669   4.169   0.536   1.447  0.4268 -0.3348 -0.3515
 4221TIP3    H212670   4.071   0.643   1.403 -0.1434 -0.8453 -0.3344
 4222TIP3   OH212671   3.530   4.526   4.865  0.0782  0.1330 -0.1149
 4222TIP3    H112672   3.576   4.530   4.782  0.8502  0.5379  0.3186
 4222TIP3    H212673   3.564   4.448   4.908 -0.4690 -0.1903 -0.2541
 4223TIP3   OH212674   0.144   4.991   1.136 -0.0080 -0.7025  0.2390
 4223TIP3    H112675   0.070   4.967   1.192  0.0972 -0.1379  0.6252
 4223TIP3    H212676   0.150   4.919   1.072 -0.2936 -1.2171  0.7815
 4224TIP3   OH212677   4.626   1.623   1.918 -0.3439  0.0033  0.2680
 4224TIP3    H112678   4.631   1.686   1.847 -2.1303  0.6799  0.6936
 4224TIP3    H212679   4.586   1.670   1.991  1.1144 -0.7676  1.6517
 4225TIP3   OH212680   5.016   0.454   1.537 -0.0038  0.0241  0.0724
 4225TIP3    H112681   4.922   0.442   1.549 -0.2575  1.9772  0.4014
 4225TIP3    H212682   5.047   0.370   1.502 -1.5467 -1.2450  1.5602
 4226TIP3   OH212683   5.923   2.857   1.326  0.4030 -0.2868  0.5419
 4226TIP3    H112684   5.962   2.774   1.356  1.3818 -0.0124  0.0855
 4226TIP3    H212685   5.889   2.897   1.406  0.3273 -0.9163  0.8375
 4227TIP3   OH212686   3.520   5.971   3.521 -0.7948  0.6266 -0.2228
 4227TIP3    H112687   3.603   5.924   3.534  0.1713  1.9449 -1.3109
 4227TIP3    H212688   3.528   6.049   3.576 -1.3997  0.6832 -0.2120
 4228TIP3   OH212689   6.200   4.597   1.650  0.0292 -0.5951  0.2014
 4228TIP3    H112690   6.144   4.670   1.677 -0.9892 -0.9722 -0.7982
 4228TIP3    H212691   6.286   4.618   1.686  0.5084  2.5678 -2.3542
 4229TIP3   OH212692   3.890   4.868   0.670 -0.0945 -0.5958 -0.4360
 4229TIP3    H112693   3.924   4.822   0.747 -0.1352 -0.0415 -0.0808
 4229TIP3    H212694   3.795   4.853   0.673 -0.5702  1.9861  1.4235
 4230TIP3   OH212695   5.025   5.461   1.496 -0.8813 -0.2609  0.0181
 4230TIP3    H112696   4.980   5.457   1.580 -2.9903 -2.2773 -1.1179
 4230TIP3    H212697   5.104   5.409   1.508 -1.1624 -0.5236  0.7478
 4231TIP3   OH212698   5.341   3.931   4.957  0.0160 -0.1015  0.1314
 4231TIP3    H112699   5.354   4.025   4.971  0.3665  0.1650 -1.6622
 4231TIP3    H212700   5.425   3.892   4.983 -0.1005  0.0780  0.8003
 4232TIP3   OH212701   0.562   0.115   2.474 -0.1729  0.1644 -0.9033
 4232TIP3    H112702   0.485   0.171   2.482 -0.4214 -0.3030  0.2102
 4232TIP3    H212703   0.623   0.165   2.421 -1.1007  0.6965 -1.4908
 4233TIP3   OH212704   2.125   4.388   5.015  0.3734  1.0027  0.4375
 4233TIP3    H112705   2.066   4.463   5.024  0.7184  1.2874  0.3513
 4233TIP3    H212706   2.130   4.351   5.103 -1.0135  0.1405  0.1842
 4234TIP3   OH212707   6.295   4.881   2.008  0.4020 -0.2020 -0.2359
 4234TIP3    H112708   6.265   4.926   1.928  1.6868 -1.0227 -1.2022
 4234TIP3    H212709   6.262   4.936   2.079 -0.6146  0.6535 -1.3244
 4235TIP3   OH212710   2.722   1.141   5.029  0.6782 -0.0638  0.0773
 4235TIP3    H112711   2.673   1.068   5.067  1.9520 -0.7144  0.5453
 4235TIP3    H212712   2.810   1.106   5.016  1.0443  1.0816 -0.6877
 4236TIP3   OH212713   1.406   5.135   3.433 -0.1348 -0.7451 -0.2795
 4236TIP3    H112714   1.344   5.162   3.365  0.0716 -0.0143 -0.1925
 4236TIP3    H212715   1.492   5.145   3.392 -0.0003 -0.1057  0.1516
 4237TIP3   OH212716   5.314   1.457   3.274 -0.1364  0.2949 -0.2998
 4237TIP3    H112717   5.249   1.397   3.309 -2.0109  1.5015 -1.5261
 4237TIP3    H212718   5.263   1.520   3.223  1.8370  2.2553  0.0030
 4238TIP3   OH212719   4.362   0.025   0.127  0.2121 -0.3640 -0.2460
 4238TIP3    H112720   4.389  -0.011   0.212 -0.2609 -0.2814 -0.0592
 4238TIP3    H212721   4.267   0.032   0.133  0.1597 -0.5486 -0.8624
 4239TIP3   OH212722   1.751   3.752   0.567 -1.1096  0.2829  0.0120
 4239TIP3    H112723   1.712   3.833   0.601 -0.2085  0.3282  0.9911
 4239TIP3    H212724   1.821   3.731   0.629  0.5785  0.3141 -1.8174
 4240TIP3   OH212725   0.544   4.757   3.299 -0.1941  0.3478  0.2200
 4240TIP3    H112726   0.470   4.725   3.248  0.0440 -0.7952  0.5576
 4240TIP3    H212727   0.526   4.850   3.312  1.0998  1.4746 -4.3059
 4241TIP3   OH212728   3.354   3.189   2.386 -0.0235 -0.1595  0.0688
 4241TIP3    H112729   3.386   3.103   2.361 -0.3904 -0.2597 -0.0663
 4241TIP3    H212730   3.411   3.217   2.457 -0.0271 -0.6016  0.2454
 4242TIP3   OH212731   0.030   4.524   2.566 -0.4188 -0.2010  0.8048
 4242TIP3    H112732   0.029   4.497   2.474 -1.6705  0.5140  0.5744
 4242TIP3    H212733   0.122   4.520   2.591  0.0910  0.5560 -0.7779
 4243TIP3   OH212734   4.700   4.674   0.011  0.6713 -0.4241  0.0934
 4243TIP3    H112735   4.717   4.765  -0.014  0.9748 -0.1939  1.1006
 4243TIP3    H212736   4.784   4.642   0.043  0.5355 -1.0309 -0.1501
 4244TIP3   OH212737   1.339   0.801   3.217  0.0936 -0.8041 -0.2834
 4244TIP3    H112738   1.380   0.742   3.280 -0.2810 -0.6393  0.1197
 4244TIP3    H212739   1.245   0.787   3.229  0.0219 -0.9185 -0.9491
 4245TIP3   OH212740   6.073   1.462   1.810 -0.1039  0.1482 -0.5380
 4245TIP3    H112741   5.983   1.482   1.785 -0.1897  0.1235 -0.2522
 4245TIP3    H212742   6.100   1.535   1.866 -0.1909 -0.1892 -0.0414
 4246TIP3   OH212743   5.473   2.860   3.573 -0.1435  0.0690  0.4030
 4246TIP3    H112744   5.448   2.887   3.485  1.9545 -2.3608 -1.1063
 4246TIP3    H212745   5.416   2.785   3.593  0.9501 -0.9132  0.0043
 4247TIP3   OH212746   0.669   4.537   2.638 -0.1987  0.2185 -0.1303
 4247TIP3    H112747   0.606   4.599   2.675 -0.5872 -0.8160  1.0094
 4247TIP3    H212748   0.755   4.574   2.660 -0.4069  0.9455 -0.5095
 4248TIP3   OH212749   1.153   3.082   1.278 -0.1180 -0.2918 -0.0088
 4248TIP3    H112750   1.202   3.044   1.205  0.8969  0.8686  0.0347
 4248TIP3    H212751   1.212   3.071   1.353  0.4602  1.8254 -0.1049
 4249TIP3   OH212752   1.421   0.750   3.583  0.2334 -0.5063  0.3363
 4249TIP3    H112753   1.332   0.769   3.611 -1.8349 -2.2642 -4.0095
 4249TIP3    H212754   1.456   0.835   3.556 -2.0761 -0.2099 -2.2379
 4250TIP3   OH212755   1.193   5.137   0.308  0.0657  0.2304  0.2641
 4250TIP3    H112756   1.265   5.158   0.250  0.5129  1.3053  1.1629
 4250TIP3    H212757   1.194   5.042   0.315  2.1151  0.2596  1.0936
 4251TIP3   OH212758   5.960   1.422   2.343 -0.5346 -0.0084 -0.3729
 4251TIP3    H112759   5.980   1.336   2.306 -0.5517  0.8163 -2.4155
 4251TIP3    H212760   5.998   1.419   2.431  0.8344 -1.5649 -0.9610
 4252TIP3   OH212761   3.339   1.220   3.893 -0.6444 -0.5434  0.1042
 4252TIP3    H112762   3.403   1.153   3.868  0.7447  0.6704  0.2351
 4252TIP3    H212763   3.255   1.175   3.891 -0.1819 -1.4754 -3.0535
 4253TIP3   OH212764   3.399   4.377   3.976 -0.2532 -0.8294  0.4119
 4253TIP3    H112765   3.322   4.383   4.032  0.5764 -0.2141  1.5296
 4253TIP3    H212766   3.386   4.445   3.909 -0.4834 -0.4456  0.8413
 4254TIP3   OH212767   0.307   4.340   4.848 -0.1057 -0.2043 -0.0909
 4254TIP3    H112768   0.315   4.358   4.754  1.6186  1.9498  0.3789
 4254TIP3    H212769   0.381   4.282   4.867 -1.3478 -1.9180 -0.2787
 4255TIP3   OH212770   2.716   2.739   0.064  0.0736  0.2091 -0.0258
 4255TIP3    H112771   2.728   2.666   0.004  0.7325 -0.0959  0.4607
 4255TIP3    H212772   2.774   2.808   0.029  2.3346 -0.7720  1.5202
 4256TIP3   OH212773   2.797   3.507   1.975  0.2623  0.2159  0.1628
 4256TIP3    H112774   2.725   3.475   2.028 -0.6621  0.2495 -1.0328
 4256TIP3    H212775   2.844   3.567   2.032 -1.0347  0.6949  0.7560
 4257TIP3   OH212776   3.974   4.803   1.716 -0.0703  0.5492  0.3178
 4257TIP3    H112777   3.971   4.804   1.811 -2.7106  1.6384  0.2849
 4257TIP3    H212778   3.952   4.892   1.690 -1.1807 -0.1574 -1.3208
 4258TIP3   OH212779   3.680   2.816   2.507  0.1500 -0.8711  0.2876
 4258TIP3    H112780   3.758   2.816   2.564 -0.2431 -1.6198  0.8349
 4258TIP3    H212781   3.606   2.823   2.568 -0.2839 -1.9078 -0.1052
 4259TIP3   OH212782   1.985   3.393   2.817 -0.0712 -0.3715  0.5840
 4259TIP3    H112783   2.061   3.359   2.865  0.9133  0.0685 -0.5891
 4259TIP3    H212784   2.005   3.373   2.725 -1.2872 -0.0571  0.2422
 4260TIP3   OH212785   6.183   4.724   1.146 -0.2683  0.2170  0.3519
 4260TIP3    H112786   6.262   4.707   1.197 -0.1304 -0.6409 -0.1145
 4260TIP3    H212787   6.113   4.684   1.196 -0.1458 -0.5458 -0.0679
 4261TIP3   OH212788   1.872   3.371   1.040  0.3019 -0.3559  0.3104
 4261TIP3    H112789   1.939   3.438   1.024  0.1138 -0.3833 -0.6729
 4261TIP3    H212790   1.909   3.316   1.109  0.7491  0.3606  0.6593
 4262TIP3   OH212791   0.019   5.388   2.131 -0.4893 -0.3608 -0.2505
 4262TIP3    H112792  -0.052   5.414   2.073 -0.6254 -0.5053 -0.1475
 4262TIP3    H212793   0.053   5.471   2.166 -2.3113 -0.3702  1.7482
 4263TIP3   OH212794   6.155   1.352   3.746 -0.5504  0.1034  0.1790
 4263TIP3    H112795   6.209   1.274   3.738  0.4362  0.7204  0.5837
 4263TIP3    H212796   6.110   1.359   3.662  1.1674  0.4033 -0.7529
 4264TIP3   OH212797   0.568   5.807   4.732  0.3567 -0.1019  0.2602
 4264TIP3    H112798   0.563   5.797   4.637 -1.5100 -0.5573  0.3603
 4264TIP3    H212799   0.482   5.843   4.756  0.6228 -0.4533  1.8160
 4265TIP3   OH212800   1.527   2.286   5.133  0.3148 -0.1985  0.6438
 4265TIP3    H112801   1.618   2.274   5.106 -0.5089 -2.3613 -1.6268
 4265TIP3    H212802   1.476   2.274   5.053 -2.0578 -0.4161  2.0683
 4266TIP3   OH212803   2.608   1.526   4.208 -0.8469 -0.2199 -0.2740
 4266TIP3    H112804   2.513   1.527   4.217 -0.7587  1.2597  0.7709
 4266TIP3    H212805   2.637   1.450   4.258 -1.2973  0.9434  1.8359
 4267TIP3   OH212806   5.046   4.962   1.373  0.0660 -1.0000 -0.0601
 4267TIP3    H112807   4.993   4.928   1.445 -1.7922  0.8725 -0.4561
 4267TIP3    H212808   4.982   4.991   1.308  1.5292  1.5636 -0.4852
 4268TIP3   OH212809   4.772   1.256   4.680 -0.4337 -0.3906 -0.7502
 4268TIP3    H112810   4.777   1.165   4.649  0.7138 -1.3441  1.8964
 4268TIP3    H212811   4.801   1.308   4.605  0.6050 -2.3539 -1.8257
 4269TIP3   OH212812   3.653   2.347   5.115 -0.1009 -0.6088  0.3812
 4269TIP3    H112813   3.688   2.313   5.198  2.4975  0.1312 -0.3273
 4269TIP3    H212814   3.615   2.431   5.139  0.1419 -0.6419  0.9059
 4270TIP3   OH212815   3.484   3.137   1.509  0.3789 -0.2444 -0.3013
 4270TIP3    H112816   3.394   3.136   1.476 -0.3581 -1.0702  1.6223
 4270TIP3    H212817   3.493   3.054   1.556  0.3840  1.9579  3.9590
 4271TIP3   OH212818   4.640   1.389   1.225 -0.4090 -0.1184  0.1456
 4271TIP3    H112819   4.690   1.340   1.159  1.3977  0.2323  1.1847
 4271TIP3    H212820   4.613   1.322   1.289 -0.3517 -0.1491  0.1374
 4272TIP3   OH212821   2.676   3.325   1.592  0.4020 -0.0682  0.5133
 4272TIP3    H112822   2.688   3.252   1.652  0.8380  1.7650  2.7900
 4272TIP3    H212823   2.762   3.367   1.589 -0.0085  0.7396 -0.2526
 4273TIP3   OH212824   3.752   5.345   0.219 -0.1084 -0.0931  0.8532
 4273TIP3    H112825   3.758   5.403   0.295  2.8908  1.3792 -0.3396
 4273TIP3    H212826   3.836   5.299   0.218 -0.7429 -1.2882 -0.6667
 4274TIP3   OH212827   0.587   5.242   2.396  0.1428  0.0572 -0.6803
 4274TIP3    H112828   0.621   5.287   2.473  1.0667 -0.5243 -0.7336
 4274TIP3    H212829   0.593   5.149   2.418 -0.1828 -0.0960 -1.2121
 4275TIP3   OH212830   2.372   1.709   2.211  0.6952  0.3043 -0.4285
 4275TIP3    H112831   2.422   1.676   2.136  1.0897 -0.3470  0.1153
 4275TIP3    H212832   2.375   1.804   2.201  3.3302  0.3805  0.3785
 4276TIP3   OH212833   6.280   5.537   3.945 -0.4859 -0.2106 -0.2644
 4276TIP3    H112834   6.310   5.578   4.027 -1.5010 -1.1461  0.6098
 4276TIP3    H212835   6.186   5.555   3.943 -0.7158 -1.3671 -0.5140
 4277TIP3   OH212836   0.940   5.478   1.045 -0.0519  0.2639  0.5466
 4277TIP3    H112837   0.904   5.397   1.008 -0.0272  0.6963 -0.4674
 4277TIP3    H212838   1.004   5.449   1.109  0.5106 -0.5303 -0.3487
 4278TIP3   OH212839   0.863   5.055   1.588 -0.2414  0.4617 -0.4879
 4278TIP3    H112840   0.930   5.121   1.605 -0.3442  0.4771 -0.1339
 4278TIP3    H212841   0.807   5.056   1.666  1.0796 -1.6476  0.5973
 4279TIP3   OH212842   2.757   2.613   0.329  0.1566  0.0420  0.8156
 4279TIP3    H112843   2.787   2.659   0.250  2.2115 -0.8543  1.0236
 4279TIP3    H212844   2.710   2.536   0.295  0.3057  0.1019  0.4737
 4280TIP3   OH212845   2.914   5.556   2.200  0.2662  0.2447 -0.4579
 4280TIP3    H112846   2.880   5.526   2.116 -0.6635  0.6780 -0.2470
 4280TIP3    H212847   2.840   5.549   2.260  1.4188 -2.0923  0.8666
 4281TIP3   OH212848   0.854   5.852   4.973  0.1917 -0.3681 -0.1787
 4281TIP3    H112849   0.856   5.856   4.877  0.3255 -0.1680 -0.1681
 4281TIP3    H212850   0.924   5.911   5.001 -0.1353 -0.0859  0.0520
 4282TIP3   OH212851   4.343   3.130   3.629  0.1602 -0.0143  0.2339
 4282TIP3    H112852   4.392   3.196   3.580 -1.1304  1.8026  1.2914
 4282TIP3    H212853   4.410   3.080   3.676  1.1401  0.9532 -0.0963
 4283TIP3   OH212854   2.016   0.743   3.426  0.4928 -0.4450 -0.1589
 4283TIP3    H112855   2.054   0.831   3.429 -0.1904 -0.1570  0.5165
 4283TIP3    H212856   2.064   0.694   3.492 -0.7241  0.1210  1.2249
 4284TIP3   OH212857   2.014   3.606   2.346  0.0521 -0.3967  0.8718
 4284TIP3    H112858   2.018   3.590   2.251  0.2302  2.0804  0.4098
 4284TIP3    H212859   1.921   3.603   2.367 -0.1793  1.0989  0.1862
 4285TIP3   OH212860   2.140   2.962   1.692 -0.6990  0.5914  0.5411
 4285TIP3    H112861   2.223   3.008   1.679 -0.0440 -0.2833  1.4849
 4285TIP3    H212862   2.086   2.987   1.617  0.1968  1.6574  0.2438
 4286TIP3   OH212863   4.695   4.508   1.778 -0.3264 -0.3388 -0.7717
 4286TIP3    H112864   4.746   4.475   1.852 -1.2969  0.8905  0.5058
 4286TIP3    H212865   4.611   4.463   1.785 -1.5266  1.9151  0.7606
 4287TIP3   OH212866   4.004   1.853   1.153  0.4156  0.2851 -0.1378
 4287TIP3    H112867   4.004   1.782   1.217  1.6807 -0.1883 -0.6304
 4287TIP3    H212868   4.049   1.925   1.198 -0.5693  0.6823  0.2408
 4288TIP3   OH212869   0.209   2.467   3.720  0.0555  0.4276  0.3673
 4288TIP3    H112870   0.273   2.537   3.737  2.7034 -1.8046  0.2274
 4288TIP3    H212871   0.177   2.484   3.632  1.1832  1.0908  0.0738
 4289TIP3   OH212872   1.100   1.415   3.934 -0.0196 -0.0998  0.3942
 4289TIP3    H112873   1.059   1.489   3.979 -0.8519  0.8111 -1.7403
 4289TIP3    H212874   1.032   1.381   3.877  0.8760 -1.4618  0.0865
 4290TIP3   OH212875   4.402   5.361   0.712 -0.2284 -0.5170  0.2280
 4290TIP3    H112876   4.475   5.353   0.774 -0.8922 -1.2111  0.9429
 4290TIP3    H212877   4.444   5.366   0.626  0.7047  0.2508  0.7007
 4291TIP3   OH212878   2.674   0.486   0.535  0.2195  0.5387 -0.3864
 4291TIP3    H112879   2.626   0.565   0.558 -1.4886  0.2676 -2.6177
 4291TIP3    H212880   2.749   0.517   0.484  0.4377  0.7838  0.0782
 4292TIP3   OH212881   0.236   5.073   4.223 -0.1648  0.2149  0.5004
 4292TIP3    H112882   0.206   5.075   4.132 -0.5771 -0.2450  0.6199
 4292TIP3    H212883   0.331   5.062   4.217 -0.0522  1.3194  0.1197
 4293TIP3   OH212884   5.319   0.420   0.025 -0.1734  0.4529 -0.3423
 4293TIP3    H112885   5.410   0.450   0.028 -0.6809  2.1184 -0.5792
 4293TIP3    H212886   5.305   0.376   0.109  0.9499 -0.1741 -0.4709
 4294TIP3   OH212887   2.249   0.072   3.507 -0.2465  0.6557 -0.1017
 4294TIP3    H112888   2.328   0.119   3.534 -0.2941  0.6281  0.0847
 4294TIP3    H212889   2.282  -0.015   3.482 -0.2166  0.6491 -0.0394
 4295TIP3   OH212890   5.378   1.641   3.507 -0.6430  0.0675 -0.8480
 4295TIP3    H112891   5.347   1.726   3.475 -1.7461 -0.5608 -1.5289
 4295TIP3    H212892   5.377   1.585   3.430  1.7763 -0.1481 -0.7878
 4296TIP3   OH212893   0.576   3.663   1.325 -0.1140 -0.1589 -0.2896
 4296TIP3    H112894   0.652   3.704   1.366  0.1320 -0.0672 -0.8289
 4296TIP3    H212895   0.553   3.591   1.384  0.1885  0.0146  0.0462
 4297TIP3   OH212896   0.475   1.178   1.558 -0.6921 -0.0026  0.4623
 4297TIP3    H112897   0.547   1.236   1.534 -0.6804 -0.2169 -0.0454
 4297TIP3    H212898   0.441   1.213   1.640 -0.4484  0.4989  0.3500
 4298TIP3   OH212899   1.235   5.110   1.885 -0.3939  1.0524 -0.2803
 4298TIP3    H112900   1.212   5.069   1.801 -1.6356 -0.6936  0.8559
 4298TIP3    H212901   1.330   5.099   1.892 -0.6693 -1.9787  0.0647
 4299TIP3   OH212902   3.224   2.158   4.829  0.2133  0.1097  0.7819
 4299TIP3    H112903   3.267   2.140   4.913  0.7795 -0.2828  0.4108
 4299TIP3    H212904   3.149   2.100   4.828  0.0862  0.2603  1.1011
 4300TIP3   OH212905   3.459   1.389   3.597  0.0536 -0.0429  0.2714
 4300TIP3    H112906   3.387   1.328   3.609 -0.1961  0.5137  1.7392
 4300TIP3    H212907   3.468   1.397   3.502 -2.9207  1.1297 -0.0267
 4301TIP3   OH212908   3.010   5.118   4.831  0.1707  0.8547 -0.0036
 4301TIP3    H112909   3.106   5.114   4.839  0.2111  2.0529  0.3148
 4301TIP3    H212910   2.990   5.060   4.758  1.2825  1.6272 -0.9679
 4302TIP3   OH212911   6.297   0.175   2.113 -0.0054 -0.0193  0.8043
 4302TIP3    H112912   6.309   0.144   2.203  1.9995 -0.5738  0.3986
 4302TIP3    H212913   6.296   0.271   2.121 -1.7653 -0.0519  1.5757
 4303TIP3   OH212914   2.982   1.919   2.704 -0.5801  0.6223  0.4660
 4303TIP3    H112915   2.887   1.928   2.696 -0.7299 -1.8524 -2.7268
 4303TIP3    H212916   3.013   1.912   2.613  2.2044 -1.8416  1.4434
 4304TIP3   OH212917   2.492   1.125   4.842 -0.1323 -0.1740 -0.3588
 4304TIP3    H112918   2.511   1.137   4.749  0.0997 -2.2518 -0.6096
 4304TIP3    H212919   2.577   1.126   4.885 -0.0638 -1.2742 -0.4472
 4305TIP3   OH212920   2.555   3.078   1.865 -0.5774  0.2376 -0.5502
 4305TIP3    H112921   2.647   3.090   1.841 -0.0719  0.2128  1.2215
 4305TIP3    H212922   2.522   3.167   1.879 -0.3214  0.1914  0.4567
 4306TIP3   OH212923   3.522   0.663   0.525 -0.0568 -0.6125  0.3263
 4306TIP3    H112924   3.526   0.755   0.551  1.0983 -0.1724 -1.2470
 4306TIP3    H212925   3.614   0.637   0.517 -0.3804 -1.6390 -0.1496
 4307TIP3   OH212926   0.389   4.961   1.945  0.3711 -0.0681 -0.3276
 4307TIP3    H112927   0.358   5.023   1.879  1.6809 -0.8275 -1.6920
 4307TIP3    H212928   0.441   4.898   1.897 -0.8462 -2.2322  1.0251
 4308TIP3   OH212929   3.062   0.928   4.108 -0.0361  0.8653  0.1019
 4308TIP3    H112930   3.126   0.936   4.037 -1.2969 -0.5613 -1.2624
 4308TIP3    H212931   2.978   0.952   4.068 -0.8870 -0.7071  0.8724
 4309TIP3   OH212932   3.307   1.263   3.366  0.4661  0.6974  0.3784
 4309TIP3    H112933   3.232   1.285   3.421  0.8059 -0.6362  1.4223
 4309TIP3    H212934   3.357   1.345   3.359 -1.3180  1.7506 -0.7733
 4310TIP3   OH212935   1.248   4.594   1.463  0.2118 -0.0017 -0.3420
 4310TIP3    H112936   1.197   4.653   1.519  0.9524  1.3927 -1.0695
 4310TIP3    H212937   1.183   4.551   1.407 -0.3531  0.0726  0.2541
 4311TIP3   OH212938   4.533   3.608   1.525 -0.2035 -0.1764  0.2296
 4311TIP3    H112939   4.568   3.674   1.465 -1.9745  0.5625 -0.0431
 4311TIP3    H212940   4.476   3.553   1.471 -0.6126 -0.4559  0.9318
 4312TIP3   OH212941   0.956   0.058   3.503  0.0657 -0.3568  0.0075
 4312TIP3    H112942   1.022  -0.008   3.484 -1.7830 -1.8071 -1.7156
 4312TIP3    H212943   0.923   0.035   3.590  1.4094  0.0934  0.6729
 4313TIP3   OH212944   2.754   3.780   0.606 -0.0091 -0.1207 -0.3118
 4313TIP3    H112945   2.766   3.775   0.511 -3.1702 -0.4192 -0.8073
 4313TIP3    H212946   2.790   3.866   0.629  1.2264 -0.2242 -1.6610
 4314TIP3   OH212947   2.611   4.972   3.096  0.6696 -0.1412 -0.1187
 4314TIP3    H112948   2.625   5.065   3.114 -1.3221  0.4784 -1.3866
 4314TIP3    H212949   2.697   4.938   3.070  1.3247  1.4667 -0.1341
 4315TIP3   OH212950   4.044   3.060   4.040 -0.6716  0.2772  0.0478
 4315TIP3    H112951   4.010   3.039   3.954 -1.2725 -1.2032  0.6163
 4315TIP3    H212952   4.020   2.985   4.095  1.1553  0.3959  1.1062
 4316TIP3   OH212953   2.016   4.718   1.774  0.6385  0.1512 -0.6187
 4316TIP3    H112954   1.930   4.757   1.792  1.0897  1.6385 -1.5502
 4316TIP3    H212955   2.075   4.760   1.836  0.4478 -2.2718  1.3879
 4317TIP3   OH212956   2.729   2.005   3.448 -0.2629 -0.0896 -0.1460
 4317TIP3    H112957   2.745   1.999   3.354  0.0949 -0.6013 -0.0586
 4317TIP3    H212958   2.816   2.005   3.487 -0.1767  4.0636  0.0421
 4318TIP3   OH212959   4.609   2.703   0.076 -0.5336  0.5102  0.4854
 4318TIP3    H112960   4.522   2.732   0.105 -0.7105 -2.2173  3.0977
 4318TIP3    H212961   4.599   2.609   0.060  1.2745  0.6596 -2.2487
 4319TIP3   OH212962   6.044   5.353   4.689  0.8000  0.3331  0.2502
 4319TIP3    H112963   6.126   5.376   4.644  1.0564  0.8729  0.9786
 4319TIP3    H212964   6.052   5.394   4.775 -0.0945  0.1007  0.4473
 4320TIP3   OH212965   3.792   2.242   2.707  0.2376 -0.3196 -0.3160
 4320TIP3    H112966   3.713   2.240   2.761  1.4419 -0.7198  1.4982
 4320TIP3    H212967   3.814   2.335   2.700  0.0304 -0.2633 -0.2169
 4321TIP3   OH212968   3.006   2.900   2.347 -0.1417  0.0170 -0.4150
 4321TIP3    H112969   3.003   2.975   2.406 -0.2298  1.4425 -2.1579
 4321TIP3    H212970   2.944   2.838   2.384 -0.7931  1.2090  0.5497
 4322TIP3   OH212971   3.423   2.100   4.648  0.2415  0.6470  0.1093
 4322TIP3    H112972   3.440   2.191   4.623 -0.4571  0.4874 -1.0126
 4322TIP3    H212973   3.379   2.107   4.733 -2.9406  1.6101 -1.4827
 4323TIP3   OH212974   0.641   2.049   1.947 -0.0434  0.4245  0.0325
 4323TIP3    H112975   0.657   1.996   2.025  2.1397  1.3239  0.2759
 4323TIP3    H212976   0.576   2.113   1.975  0.0987  0.2206  0.8704
 4324TIP3   OH212977   0.102   0.792   0.272  0.3976 -0.3320  0.2195
 4324TIP3    H112978   0.128   0.845   0.197 -1.4835 -0.4320 -0.5669
 4324TIP3    H212979   0.166   0.814   0.341  1.8094  0.2053 -1.1981
 4325TIP3   OH212980   5.713   4.396   3.842  0.8401  0.4362  0.1889
 4325TIP3    H112981   5.731   4.308   3.810  0.8562  0.6414 -0.3819
 4325TIP3    H212982   5.618   4.398   3.857  0.8906  0.2123  0.5568
 4326TIP3   OH212983   5.182   5.318   4.091  0.4560  0.4597 -0.0526
 4326TIP3    H112984   5.136   5.321   4.174  2.6895  2.0584  1.2465
 4326TIP3    H212985   5.214   5.228   4.083  0.4470  0.3608  0.9759
 4327TIP3   OH212986   2.518   4.343   0.040 -0.9482  0.4676 -0.3977
 4327TIP3    H112987   2.612   4.327   0.043 -0.5973  2.4012  0.9837
 4327TIP3    H212988   2.484   4.278  -0.021  0.9544 -1.7886  0.7910
 4328TIP3   OH212989   1.173   4.874   0.479  0.3171 -0.1165  0.3332
 4328TIP3    H112990   1.136   4.814   0.415 -1.0265  1.9323 -0.9593
 4328TIP3    H212991   1.251   4.830   0.512  0.5365 -1.6668 -2.0237
 4329TIP3   OH212992   0.816   2.946   0.189  0.3574  0.6245  0.4218
 4329TIP3    H112993   0.761   2.898   0.252  0.5486 -0.0317  0.0951
 4329TIP3    H212994   0.867   2.878   0.145 -0.5190  0.9538 -1.1808
 4330TIP3   OH212995   6.284   0.799   3.012 -0.4651 -0.4202 -0.4342
 4330TIP3    H112996   6.378   0.802   2.996 -0.1158 -0.4897  1.4253
 4330TIP3    H212997   6.266   0.875   3.066 -1.2619 -1.0520  0.2238
 4331TIP3   OH212998   4.818   4.936   2.329 -0.0543  0.2547 -0.6567
 4331TIP3    H112999   4.796   4.864   2.388 -1.1983  1.8142  0.8946
 4331TIP3    H213000   4.908   4.959   2.352 -0.8564  1.6148  1.4193
 4332TIP3   OH213001   3.242   5.569   2.842  0.2841  0.0571 -0.1227
 4332TIP3    H113002   3.190   5.648   2.827 -0.9890 -0.8417 -0.5788
 4332TIP3    H213003   3.294   5.590   2.919 -0.7233  1.0272  0.3300
 4333TIP3   OH213004   4.082   1.860   5.013  0.7723  0.3279 -0.5763
 4333TIP3    H113005   4.174   1.883   5.023  0.3602  1.6917  0.3635
 4333TIP3    H213006   4.038   1.903   5.086 -0.2515 -2.6026  0.6565
 4334TIP3   OH213007   0.726   0.286   2.634 -0.1075 -0.4960  0.5348
 4334TIP3    H113008   0.670   0.208   2.631  1.0045 -1.3103 -1.5073
 4334TIP3    H213009   0.804   0.258   2.682 -0.2180 -0.2611  0.8530
 4335TIP3   OH213010   2.185   2.639   5.009 -0.2152 -0.0552  0.7286
 4335TIP3    H113011   2.156   2.614   4.921  1.1987  0.4536  0.0732
 4335TIP3    H213012   2.116   2.696   5.042 -0.2983  0.5861 -0.4803
 4336TIP3   OH213013   6.097   5.365   1.075 -0.2215 -0.5815  0.1897
 4336TIP3    H113014   6.133   5.418   1.146 -1.3424  0.1101  0.2612
 4336TIP3    H213015   6.174   5.325   1.034  0.7063  1.3128 -0.0371
 4337TIP3   OH213016   2.020   2.308   3.990  0.0053  0.0918  0.2449
 4337TIP3    H113017   2.089   2.245   3.969 -1.6948 -1.2667 -1.5939
 4337TIP3    H213018   2.048   2.347   4.073  1.5225 -2.5076  1.0795
 4338TIP3   OH213019   2.501   3.862   2.291  0.3124  0.5629  0.8327
 4338TIP3    H113020   2.459   3.777   2.277  1.0385  0.3318 -0.0136
 4338TIP3    H213021   2.475   3.914   2.215 -0.9735  1.4672  1.8445
 4339TIP3   OH213022   5.121   5.190   1.130  0.2515 -0.1964 -0.7856
 4339TIP3    H113023   5.067   5.246   1.074 -0.4554 -0.5852 -0.5069
 4339TIP3    H213024   5.058   5.138   1.179  0.8678  0.0484  0.2843
 4340TIP3   OH213025   3.682   0.688   3.511 -0.4259 -0.0364  0.6474
 4340TIP3    H113026   3.747   0.746   3.471  0.0282 -1.5699 -0.9467
 4340TIP3    H213027   3.625   0.662   3.439 -1.9516  0.1188  1.7503
 4341TIP3   OH213028   2.948   2.995   2.705  0.4730 -0.1525 -0.2211
 4341TIP3    H113029   2.862   2.966   2.674 -0.5594  1.2760  1.1448
 4341TIP3    H213030   2.993   3.023   2.626  0.8063 -3.4194 -1.3516
 4342TIP3   OH213031   2.921   2.435   4.805  0.2607  0.2656 -0.3313
 4342TIP3    H113032   3.014   2.420   4.823  0.4695  1.4063 -0.3999
 4342TIP3    H213033   2.918   2.457   4.712 -0.0733  0.2724 -0.3180
 4343TIP3   OH213034   5.236   1.563   0.289 -0.6548 -0.4395  1.0227
 4343TIP3    H113035   5.199   1.476   0.270  0.6327 -0.7092 -0.4680
 4343TIP3    H213036   5.176   1.624   0.246 -0.3037 -0.7604  0.0544
 4344TIP3   OH213037   0.919   2.168   5.078 -0.2706  0.0839  0.6126
 4344TIP3    H113038   0.910   2.190   4.985  1.0232 -1.8441 -0.0121
 4344TIP3    H213039   0.879   2.082   5.086  1.1383 -0.5182  1.4663
 4345TIP3   OH213040   2.317   2.647   0.268  0.5663  0.4875 -0.7140
 4345TIP3    H113041   2.244   2.601   0.307  1.8831 -0.1102  1.1543
 4345TIP3    H213042   2.384   2.580   0.253  0.8001  1.0259 -2.3209
 4346TIP3   OH213043   2.965   4.657   3.189  0.4901 -0.0223  0.0513
 4346TIP3    H113044   3.054   4.647   3.222  1.3857 -0.5326 -2.3459
 4346TIP3    H213045   2.944   4.572   3.149 -0.2283  0.7675 -1.3187
 4347TIP3   OH213046   0.068   5.262   0.407  0.9112 -0.1372  0.3369
 4347TIP3    H113047   0.044   5.325   0.476 -0.4991 -0.1498 -0.1264
 4347TIP3    H213048   0.142   5.303   0.363  0.9476  0.5139  0.9786
 4348TIP3   OH213049   2.951   3.592   4.312 -0.2853  0.2044 -0.7702
 4348TIP3    H113050   2.878   3.533   4.331  0.1701 -0.1095  0.0633
 4348TIP3    H213051   2.931   3.672   4.361 -0.4876  0.4303 -1.2220
 4349TIP3   OH213052   5.890   5.114   1.494  0.0296 -0.5168  0.1757
 4349TIP3    H113053   5.844   5.175   1.437  0.6086  0.6045  0.8543
 4349TIP3    H213054   5.895   5.160   1.578  2.1049 -0.7200  0.2027
 4350TIP3   OH213055   0.069   3.721   0.560 -0.0180 -0.2550  0.0929
 4350TIP3    H113056   0.069   3.670   0.641 -1.9639 -1.9222 -0.8648
 4350TIP3    H213057   0.034   3.807   0.585 -0.1918 -0.6088  1.1031
 4351TIP3   OH213058   0.386   5.519   0.067 -1.0422 -0.4261  0.3646
 4351TIP3    H113059   0.391   5.583   0.139 -1.0239 -0.7877  0.6852
 4351TIP3    H213060   0.322   5.557   0.006  1.1993  1.4692 -1.0162
 4352TIP3   OH213061   3.566   0.982   2.122  0.3832  0.2738  0.5199
 4352TIP3    H113062   3.639   0.926   2.148  0.5640  0.6955  0.9530
 4352TIP3    H213063   3.544   1.031   2.202 -0.4425  0.0754  0.4207
 4353TIP3   OH213064   0.218   4.371   4.307 -0.0171 -0.0232 -0.5703
 4353TIP3    H113065   0.132   4.377   4.267 -0.0913  0.5060 -0.3484
 4353TIP3    H213066   0.279   4.366   4.233 -0.1537  0.9425 -0.7638
 4354TIP3   OH213067   3.294   1.829   3.444 -0.1594  0.1963 -0.2114
 4354TIP3    H113068   3.273   1.838   3.537 -1.1462 -0.6609 -0.3237
 4354TIP3    H213069   3.335   1.911   3.420  0.9911  0.0629  1.2097
 4355TIP3   OH213070   6.195   0.159   1.633  0.0346  0.4936 -0.7969
 4355TIP3    H113071   6.244   0.113   1.565 -0.7852 -0.4844 -0.7385
 4355TIP3    H213072   6.250   0.152   1.712  0.5114  0.7534 -1.0988
 4356TIP3   OH213073   2.626   0.122   4.121  0.0067  0.5104 -0.7313
 4356TIP3    H113074   2.557   0.154   4.180 -1.6566 -0.7788 -1.8760
 4356TIP3    H213075   2.655   0.201   4.075  1.1456  1.4920  1.5394
 4357TIP3   OH213076   1.109   3.555   2.159  0.6514 -0.5262  0.4184
 4357TIP3    H113077   1.076   3.626   2.213 -1.7477 -0.6258 -0.7890
 4357TIP3    H213078   1.091   3.475   2.208  0.3504 -0.4932  0.3608
 4358TIP3   OH213079   1.886   4.244   5.027 -0.3090  0.0444 -0.8131
 4358TIP3    H113080   1.945   4.319   5.017  0.7052 -0.4794  0.8372
 4358TIP3    H213081   1.850   4.231   4.939  2.0264  0.4213 -1.9136
 4359TIP3   OH213082   2.741   2.845   3.910 -0.0890 -0.7135  0.5277
 4359TIP3    H113083   2.817   2.790   3.929  0.1637 -0.1825  1.1343
 4359TIP3    H213084   2.779   2.929   3.883 -0.4109  0.0207  2.1904
 4360TIP3   OH213085   4.500   1.397   4.202  0.2383 -0.1447  0.8885
 4360TIP3    H113086   4.508   1.490   4.222  0.6784  0.3033 -1.1471
 4360TIP3    H213087   4.590   1.366   4.191  0.0777 -0.6986  1.0995
 4361TIP3   OH213088   1.718   4.609   4.027  0.4500 -0.2274 -0.0306
 4361TIP3    H113089   1.683   4.691   3.992  0.9414  0.2110  0.4767
 4361TIP3    H213090   1.701   4.545   3.958 -2.4851 -0.3574  0.6875
 4362TIP3   OH213091   5.600   2.940   4.597 -0.5640  0.4424 -0.3132
 4362TIP3    H113092   5.506   2.924   4.601 -0.4629 -0.3091 -0.6266
 4362TIP3    H213093   5.614   2.972   4.508 -0.3249 -1.0273 -0.8429
 4363TIP3   OH213094   6.018   2.692   1.546 -0.0948 -0.4127  0.1271
 4363TIP3    H113095   6.070   2.611   1.549  0.9560  0.0877 -2.5784
 4363TIP3    H213096   6.082   2.762   1.551 -0.7353  0.2299 -0.4879
 4364TIP3   OH213097   4.436   5.422   3.376 -0.1940  0.0529  0.4566
 4364TIP3    H113098   4.515   5.469   3.403  0.6361 -1.6246  1.0859
 4364TIP3    H213099   4.408   5.466   3.296  1.1124  0.9606  0.4721
 4365TIP3   OH213100   0.029   1.897   3.375 -0.1675  0.7908 -0.1809
 4365TIP3    H113101   0.081   1.825   3.340 -2.6417 -0.9892 -0.3853
 4365TIP3    H213102  -0.025   1.858   3.444 -1.8731  2.3366 -0.5497
 4366TIP3   OH213103   5.486   4.808   0.893 -0.2500  0.0922 -0.0563
 4366TIP3    H113104   5.506   4.776   0.981 -0.2873 -0.5376 -0.2717
 4366TIP3    H213105   5.570   4.804   0.847 -0.2055  0.5362 -0.0154
 4367TIP3   OH213106   2.595   4.599   1.407  0.0998  0.1538 -0.3847
 4367TIP3    H113107   2.590   4.592   1.503  1.1881 -0.7001 -0.3620
 4367TIP3    H213108   2.532   4.667   1.384 -0.8173 -0.2390  0.8640
 4368TIP3   OH213109   5.925   4.319   4.897  0.2739 -0.3281  0.5671
 4368TIP3    H113110   5.914   4.373   4.819  1.9666 -0.5367  0.1520
 4368TIP3    H213111   5.871   4.242   4.881  2.1800 -1.3600 -1.4020
 4369TIP3   OH213112   3.728   1.167   0.139 -0.1271 -0.3040 -0.4615
 4369TIP3    H113113   3.711   1.084   0.096  0.7374 -0.4598 -0.5121
 4369TIP3    H213114   3.820   1.187   0.120 -0.1229  0.3152  0.1287
 4370TIP3   OH213115   1.044   0.841   1.562 -0.0211  0.5543 -1.2935
 4370TIP3    H113116   0.973   0.795   1.607  0.1710  1.7449  0.3472
 4370TIP3    H213117   1.005   0.924   1.534  0.5365  0.9588 -0.9079
 4371TIP3   OH213118   2.264   2.559   4.738 -0.3935  0.4235 -0.7127
 4371TIP3    H113119   2.289   2.474   4.702  1.3349  1.0443 -1.0857
 4371TIP3    H213120   2.205   2.597   4.673 -1.2282 -0.4954 -0.5135
 4372TIP3   OH213121   3.199   5.830   4.580 -0.1986 -0.1699  0.1073
 4372TIP3    H113122   3.139   5.782   4.523  0.6968 -2.5789  1.0907
 4372TIP3    H213123   3.142   5.868   4.648 -0.9745  0.6903 -0.9788
 4373TIP3   OH213124   0.729   3.700   2.884 -0.5982  0.8262  0.3037
 4373TIP3    H113125   0.813   3.735   2.853 -0.5942  0.2441 -0.3543
 4373TIP3    H213126   0.664   3.738   2.825 -0.6305  0.0034 -0.1970
 4374TIP3   OH213127   3.164   1.992   3.996  0.0000 -0.0990  0.0468
 4374TIP3    H113128   3.147   2.059   4.063 -2.1389 -0.0221 -0.5004
 4374TIP3    H213129   3.235   2.029   3.943 -1.1630  1.8210 -0.2827
 4375TIP3   OH213130   2.339   2.677   4.299 -0.6551  0.2779  0.5010
 4375TIP3    H113131   2.427   2.670   4.263 -0.3230  2.5725  0.7052
 4375TIP3    H213132   2.315   2.588   4.322  2.0744 -0.2735  1.5663
 4376TIP3   OH213133   1.960   1.095   2.759  0.0543 -0.0006  0.2263
 4376TIP3    H113134   1.904   1.112   2.835  0.5416 -0.8325  0.7936
 4376TIP3    H213135   2.049   1.094   2.795  0.2036 -1.6992 -0.0826
 4377TIP3   OH213136   0.599   4.976   2.932  0.0405 -0.0634 -0.4106
 4377TIP3    H113137   0.662   4.904   2.939  0.0770  0.0768  0.9094
 4377TIP3    H213138   0.651   5.052   2.908  0.2818 -0.0885  0.0243
 4378TIP3   OH213139   3.011   0.295   3.266 -0.6439 -0.4218  0.8838
 4378TIP3    H113140   2.981   0.340   3.186 -1.5521  0.2849  1.6032
 4378TIP3    H213141   3.012   0.203   3.242 -2.1378 -0.3529  0.3969
 4379TIP3   OH213142   1.072   2.393   4.676  0.1078  0.0639  0.2385
 4379TIP3    H113143   1.163   2.385   4.647  0.2000  2.4504 -0.3226
 4379TIP3    H213144   1.019   2.370   4.600  0.2751  0.2677  0.0607
 4380TIP3   OH213145   6.010   4.663   1.886  0.1974  0.2836 -0.4281
 4380TIP3    H113146   6.089   4.655   1.938  0.5485 -2.0474 -1.2268
 4380TIP3    H213147   6.027   4.737   1.827  1.2966  0.5233  0.1718
 4381TIP3   OH213148   4.202   5.303   4.605 -0.7190 -0.0627  0.2477
 4381TIP3    H113149   4.214   5.209   4.617 -0.8871 -0.2002 -0.5982
 4381TIP3    H213150   4.154   5.331   4.683  0.2096 -0.4822  1.0071
 4382TIP3   OH213151   4.403   0.073   2.516 -0.2972  0.2219 -0.2486
 4382TIP3    H113152   4.412  -0.020   2.498 -0.2236 -0.1355  1.4913
 4382TIP3    H213153   4.481   0.113   2.476  0.4885 -0.6749  0.3435
 4383TIP3   OH213154   5.704   0.651   0.508 -0.1067 -0.4129  0.3211
 4383TIP3    H113155   5.681   0.730   0.557 -1.9772 -0.9163  0.3576
 4383TIP3    H213156   5.673   0.579   0.564  0.3289 -1.1151 -0.3194
 4384TIP3   OH213157   3.325   0.718   4.082  0.0554 -0.2622  1.1024
 4384TIP3    H113158   3.282   0.795   4.046  0.2432 -0.3681  0.6373
 4384TIP3    H213159   3.255   0.667   4.122 -0.3041 -0.5446  0.1529
 4385TIP3   OH213160   0.635   0.516   2.529 -0.2846  0.3370  0.0366
 4385TIP3    H113161   0.558   0.542   2.580 -0.2683 -0.0624  0.2649
 4385TIP3    H213162   0.671   0.441   2.576  0.2572  0.5339 -0.0558
 4386TIP3   OH213163   4.658   0.260   4.160  0.4786 -0.0351  0.2866
 4386TIP3    H113164   4.709   0.192   4.203  1.6213 -0.7756 -2.0663
 4386TIP3    H213165   4.721   0.331   4.145  0.3642 -0.1634 -0.9068
 4387TIP3   OH213166   5.033   0.111   4.071 -0.2258  0.4617  0.0477
 4387TIP3    H113167   4.958   0.167   4.093 -1.2021  0.0767 -2.0561
 4387TIP3    H213168   5.058   0.138   3.983  0.7855 -0.8442 -0.0985
 4388TIP3   OH213169   4.342   3.364   1.116 -0.3685  0.3473  0.7437
 4388TIP3    H113170   4.343   3.280   1.070  0.1982  0.1078  1.1795
 4388TIP3    H213171   4.405   3.417   1.068  1.2828 -0.3568  2.0360
 4389TIP3   OH213172   6.202   0.585   0.685  0.1455  0.0145  0.2494
 4389TIP3    H113173   6.120   0.634   0.687 -0.4308 -0.8664  3.2512
 4389TIP3    H213174   6.175   0.495   0.665  0.7309  0.1621 -1.3079
 4390TIP3   OH213175   0.810   2.625   4.705 -0.6470  0.0335  0.2615
 4390TIP3    H113176   0.773   2.599   4.621  1.4600  0.8786 -1.0255
 4390TIP3    H213177   0.890   2.573   4.712  0.7557  2.0752  0.2618
 4391TIP3   OH213178   2.213   5.692   3.746 -0.2507  0.0231 -0.1942
 4391TIP3    H113179   2.285   5.662   3.692  0.0910  1.4927 -0.5964
 4391TIP3    H213180   2.244   5.775   3.784 -1.4596  0.3374  0.1574
 4392TIP3   OH213181   5.690   4.104   3.865  0.2182  0.3674  0.6034
 4392TIP3    H113182   5.677   4.089   3.771 -1.1534 -2.1794  1.1308
 4392TIP3    H213183   5.714   4.019   3.900 -0.0936  1.1013  2.7113
 4393TIP3   OH213184   6.023   4.263   0.442 -0.1279  0.2649  0.4628
 4393TIP3    H113185   5.992   4.251   0.352 -0.1199 -1.2910  0.6505
 4393TIP3    H213186   6.094   4.327   0.434 -0.3129  0.3582 -0.5877
 4394TIP3   OH213187   2.366   3.492   3.180  0.1029  0.2047  0.4425
 4394TIP3    H113188   2.393   3.484   3.089 -1.5923  1.1954 -0.1813
 4394TIP3    H213189   2.338   3.403   3.204 -0.3504  0.1456 -0.2943
 4395TIP3   OH213190   4.122   2.275   0.812 -0.6870 -0.6435  0.2370
 4395TIP3    H113191   4.191   2.211   0.792  1.0998  1.3745 -0.4247
 4395TIP3    H213192   4.143   2.305   0.900 -1.0084 -0.3600  0.2166
 4396TIP3   OH213193   4.802   0.091   3.452 -0.1508 -0.0574 -0.0292
 4396TIP3    H113194   4.816   0.067   3.544  2.6782 -0.2016 -0.4105
 4396TIP3    H213195   4.762   0.178   3.456 -1.7308 -0.7730  1.2853
 4397TIP3   OH213196   2.314   4.567   0.140  0.2906 -0.2112 -0.6023
 4397TIP3    H113197   2.353   4.569   0.052  0.5942  1.2780 -0.4633
 4397TIP3    H213198   2.296   4.475   0.156  0.4734 -0.5467 -2.1279
 4398TIP3   OH213199   0.365   3.692   1.859 -0.0326 -0.0926 -0.4231
 4398TIP3    H113200   0.322   3.753   1.920 -2.3261 -1.6563 -0.3452
 4398TIP3    H213201   0.314   3.699   1.779  1.4347  0.1096 -1.3757
 4399TIP3   OH213202   2.382   2.194   4.191 -0.2860 -0.2581  0.3683
 4399TIP3    H113203   2.456   2.135   4.208  1.2224  0.8769 -1.7330
 4399TIP3    H213204   2.371   2.192   4.096 -1.9912  0.7680  0.5073
 4400TIP3   OH213205   1.220   4.721   3.966  0.0703  0.3924 -0.6711
 4400TIP3    H113206   1.217   4.655   4.035  2.7077  2.7018  1.9332
 4400TIP3    H213207   1.306   4.711   3.927 -0.3945  0.8438 -1.8523
 4401TIP3   OH213208   3.193   4.934   3.861 -0.4380  0.0004  0.0161
 4401TIP3    H113209   3.129   4.865   3.843 -2.3392  1.0728  2.1493
 4401TIP3    H213210   3.158   5.012   3.819  0.5223  0.1931 -0.4626
 4402TIP3   OH213211   1.517   0.282   1.002 -0.0359 -0.2246  0.2817
 4402TIP3    H113212   1.428   0.305   1.029 -0.3561 -1.3592  0.2332
 4402TIP3    H213213   1.545   0.356   0.949 -0.7643  0.3739  0.7078
 4403TIP3   OH213214   6.171   3.399   1.135 -0.2857  0.6568  0.4090
 4403TIP3    H113215   6.204   3.316   1.102 -0.6722 -0.4721  2.6745
 4403TIP3    H213216   6.248   3.445   1.167  0.0012  1.4719 -1.3233
 4404TIP3   OH213217   4.038   2.567   4.059 -0.1205 -0.1560 -0.5477
 4404TIP3    H113218   4.128   2.534   4.064 -0.5642 -1.2232  0.8387
 4404TIP3    H213219   3.986   2.501   4.104 -1.7878 -0.1604 -2.3381
 4405TIP3   OH213220   6.341   0.209   0.549 -0.2803  0.3892 -0.0086
 4405TIP3    H113221   6.259   0.244   0.585  0.0131  0.8815  0.1933
 4405TIP3    H213222   6.351   0.253   0.465  0.3040  1.1301  0.4330
 4406TIP3   OH213223   0.868   3.648   1.692  0.1146 -0.2195 -0.4257
 4406TIP3    H113224   0.784   3.655   1.737  0.6321  1.0758  0.4030
 4406TIP3    H213225   0.889   3.554   1.694 -1.7677 -0.7261 -1.5823
 4407TIP3   OH213226   3.875   0.246   0.683 -0.4640  0.7944 -0.5284
 4407TIP3    H113227   3.851   0.337   0.698 -0.4721  0.6817  0.1895
 4407TIP3    H213228   3.936   0.248   0.609 -1.0780  1.2964 -1.0224
 4408TIP3   OH213229   0.787   3.490   5.176  0.1121 -0.2924  0.1458
 4408TIP3    H113230   0.725   3.546   5.129  1.0282  1.0020  0.4150
 4408TIP3    H213231   0.733   3.423   5.218 -0.9243 -0.1552 -0.9305
 4409TIP3   OH213232   3.654   4.600   2.524  0.8706 -0.4176  0.4240
 4409TIP3    H113233   3.656   4.603   2.620 -0.6742  2.2111  0.4664
 4409TIP3    H213234   3.572   4.555   2.503  0.1737  0.8043  0.4170
 4410TIP3   OH213235   5.476   3.439   1.684  0.4806 -0.1186 -0.3347
 4410TIP3    H113236   5.478   3.532   1.662 -0.6711  0.0491  0.2068
 4410TIP3    H213237   5.494   3.394   1.601  1.4297  0.5845 -0.5171
 4411TIP3   OH213238   3.006   3.415   3.234 -0.5490  0.0168  0.0907
 4411TIP3    H113239   2.983   3.427   3.142  0.6689 -2.2986 -0.6256
 4411TIP3    H213240   3.099   3.389   3.231 -0.5481 -0.2866  1.9430
 4412TIP3   OH213241   0.393   0.984   0.520  0.7091  0.1578  0.8676
 4412TIP3    H113242   0.445   1.057   0.553 -0.6294  1.4371  0.2016
 4412TIP3    H213243   0.347   0.951   0.597  1.3895 -0.0690  1.1873
 4413TIP3   OH213244   5.290   3.530   0.849 -0.4604  0.3339  0.4650
 4413TIP3    H113245   5.268   3.437   0.849  1.9466 -0.3330 -0.8298
 4413TIP3    H213246   5.305   3.550   0.942 -0.4625 -0.7138  0.7115
 4414TIP3   OH213247   5.374   4.627   1.067 -0.3044  0.1919 -0.0545
 4414TIP3    H113248   5.313   4.693   1.036 -1.6391 -0.3093  1.3780
 4414TIP3    H213249   5.385   4.567   0.993 -1.9239  0.0474 -0.2135
 4415TIP3   OH213250   4.040   0.609   3.012  0.0570  0.5335 -0.2899
 4415TIP3    H113251   4.095   0.682   3.041 -0.6898  0.2677  2.0573
 4415TIP3    H213252   3.966   0.651   2.968 -1.0474  1.4105  2.1787
 4416TIP3   OH213253   2.197   0.485   4.247  0.6010 -0.2930  1.0093
 4416TIP3    H113254   2.120   0.495   4.190  0.6642  1.5462  1.1950
 4416TIP3    H213255   2.160   0.476   4.335  0.5591 -1.6184  0.8826
 4417TIP3   OH213256   5.208   2.623   4.298  0.4925 -0.3467  0.0115
 4417TIP3    H113257   5.234   2.564   4.368  0.6301  0.4094  0.6147
 4417TIP3    H213258   5.164   2.695   4.342 -0.2716 -0.3182 -0.7705
 4418TIP3   OH213259   2.631   3.535   2.215 -0.4439  0.2560 -0.6569
 4418TIP3    H113260   2.568   3.465   2.228 -1.0726  1.0287  0.6007
 4418TIP3    H213261   2.662   3.557   2.303 -0.6200  1.8584 -0.9663
 4419TIP3   OH213262   3.148   3.362   2.290 -0.7713 -0.1198  0.0618
 4419TIP3    H113263   3.231   3.323   2.317 -1.4566 -1.0052  0.9648
 4419TIP3    H213264   3.129   3.321   2.205 -0.1535  0.2945 -0.2789
 4420TIP3   OH213265   1.201   0.903   4.657  0.4590  0.1447 -0.1265
 4420TIP3    H113266   1.138   0.830   4.652  0.4855  0.0590  0.5967
 4420TIP3    H213267   1.190   0.950   4.575 -0.7781  0.3025  0.1032
 4421TIP3   OH213268   5.515   1.396   1.856 -0.2411  0.4684  0.8792
 4421TIP3    H113269   5.492   1.487   1.837  0.1622  0.6822  1.3766
 4421TIP3    H213270   5.456   1.344   1.801  0.8980  1.0394 -0.9743
 4422TIP3   OH213271   5.472   5.655   3.160 -0.2745  0.2035  0.2984
 4422TIP3    H113272   5.491   5.568   3.126 -1.0464  0.3389 -0.5364
 4422TIP3    H213273   5.558   5.697   3.168  0.2221 -1.0391  1.9487
 4423TIP3   OH213274   4.688   5.913   3.037  0.1663  0.3062 -0.4155
 4423TIP3    H113275   4.611   5.938   2.986  0.9347  3.3707 -0.2664
 4423TIP3    H213276   4.663   5.932   3.128 -0.0078 -1.8976  0.0547
 4424TIP3   OH213277   4.599   2.196   0.836  0.6474 -0.3915 -0.1066
 4424TIP3    H113278   4.539   2.217   0.907 -0.2033 -1.3848 -0.4938
 4424TIP3    H213279   4.568   2.249   0.762  1.2253  0.2680  0.1139
 4425TIP3   OH213280   2.682   0.028   2.956  0.6778 -0.6507  0.0674
 4425TIP3    H113281   2.631   0.091   2.904  0.6018  0.7631  1.7455
 4425TIP3    H213282   2.672  -0.055   2.910 -1.2431  0.0685 -0.9232
 4426TIP3   OH213283   5.728   3.609   1.651 -0.2661  0.0701  0.0626
 4426TIP3    H113284   5.662   3.667   1.613  0.2321 -0.2659 -1.3725
 4426TIP3    H213285   5.759   3.655   1.729 -0.1074  1.5803 -0.8652
 4427TIP3   OH213286   1.870   5.927   2.726 -0.7465  0.0170 -0.4379
 4427TIP3    H113287   1.815   5.941   2.648 -1.8561 -0.7551  0.1793
 4427TIP3    H213288   1.822   5.971   2.796  0.2063  0.6377 -0.1586
 4428TIP3   OH213289   3.459   4.262   1.271  0.0846 -0.0453  0.2654
 4428TIP3    H113290   3.404   4.188   1.300 -1.9233  1.4810  0.5825
 4428TIP3    H213291   3.412   4.340   1.301  0.5450  1.4924 -2.6225
 4429TIP3   OH213292   0.873   5.812   2.760 -0.1516  0.0014  0.2707
 4429TIP3    H113293   0.935   5.765   2.705 -0.8392 -0.2605 -0.2980
 4429TIP3    H213294   0.891   5.780   2.849 -1.0754 -1.9320 -0.1725
 4430TIP3   OH213295   3.432   3.402   2.217  0.2025  0.4706 -0.3269
 4430TIP3    H113296   3.441   3.333   2.283 -2.7109  1.5644  1.4048
 4430TIP3    H213297   3.493   3.470   2.244  0.2248  0.2186  0.2757
 4431TIP3   OH213298   4.613   4.687   1.613 -0.1185  0.6735 -0.3177
 4431TIP3    H113299   4.653   4.631   1.680  1.3525  0.9206 -0.9432
 4431TIP3    H213300   4.603   4.630   1.537  0.5078  1.0025 -0.6552
 4432TIP3   OH213301   0.427   2.218   0.258  0.2633  0.9066 -0.7768
 4432TIP3    H113302   0.497   2.162   0.292 -0.1166  0.1074 -1.2563
 4432TIP3    H213303   0.422   2.195   0.165  1.3572  3.1149 -1.4471
 4433TIP3   OH213304   3.573   0.379   3.906 -0.0118 -0.0503  0.1570
 4433TIP3    H113305   3.553   0.376   4.000  0.1699  1.7162  0.2862
 4433TIP3    H213306   3.491   0.357   3.863 -0.6432  1.0559  0.7437
 4434TIP3   OH213307   5.622   0.304   1.899  0.5199  0.7129  0.0352
 4434TIP3    H113308   5.609   0.230   1.840 -1.6659  0.7470  0.3802
 4434TIP3    H213309   5.543   0.306   1.953  1.6970  1.7041  1.8473
 4435TIP3   OH213310   0.604   0.221   4.022 -0.1005 -0.6576 -0.1066
 4435TIP3    H113311   0.591   0.254   4.111 -0.0062 -3.3443  0.9921
 4435TIP3    H213312   0.539   0.268   3.970 -0.5003  0.6221  1.4514
 4436TIP3   OH213313   3.673   4.962   5.043  0.0885  0.0160 -0.1305
 4436TIP3    H113314   3.678   5.045   5.091 -2.0507  0.8046 -1.1499
 4436TIP3    H213315   3.644   4.898   5.109 -0.8250  0.6521  0.0982
 4437TIP3   OH213316   4.971   4.589   4.240  0.6308  0.0783 -0.5962
 4437TIP3    H113317   5.060   4.624   4.243  0.4187  0.5783  1.5801
 4437TIP3    H213318   4.981   4.499   4.212  1.9149 -0.0478  0.1933
 4438TIP3   OH213319   5.912   2.769   5.141 -0.3808 -0.3309  0.7334
 4438TIP3    H113320   5.981   2.795   5.202 -0.0676  0.9338 -0.1023
 4438TIP3    H213321   5.960   2.738   5.064 -0.7369  0.0978  0.3348
 4439TIP3   OH213322   5.678   5.504   3.458  0.4527  0.1520 -0.1851
 4439TIP3    H113323   5.710   5.580   3.505  1.4788 -0.5619  0.3097
 4439TIP3    H213324   5.601   5.535   3.411  2.0112  2.0307 -1.6736
 4440TIP3   OH213325   1.261   5.769   0.338 -0.4263  0.3465 -0.2785
 4440TIP3    H113326   1.314   5.791   0.415 -0.5521  0.2086 -0.1519
 4440TIP3    H213327   1.298   5.823   0.268  0.0040  0.1136 -0.2372
 4441TIP3   OH213328   4.622   4.225   1.700  0.1132 -1.0326 -0.1146
 4441TIP3    H113329   4.537   4.218   1.655 -0.3878  0.7832  0.4718
 4441TIP3    H213330   4.681   4.262   1.634 -0.3665  0.6635  0.3635
 4442TIP3   OH213331   3.913   1.318   4.725  0.4378  0.0111  0.0505
 4442TIP3    H113332   3.900   1.411   4.707  2.0190  0.5506  1.4033
 4442TIP3    H213333   3.972   1.289   4.656  0.7412  0.2820  0.1894
 4443TIP3   OH213334   4.740   2.174   1.427  0.4543  0.4380 -0.0266
 4443TIP3    H113335   4.797   2.237   1.382  1.2473 -0.6691 -0.6292
 4443TIP3    H213336   4.680   2.143   1.360  1.1667 -0.6759 -0.1825
 4444TIP3   OH213337   2.623   3.532   1.301 -0.0803  0.0254 -0.2902
 4444TIP3    H113338   2.675   3.588   1.359  2.2949 -0.0920 -2.1386
 4444TIP3    H213339   2.586   3.592   1.236  1.6969 -0.3467 -1.7227
 4445TIP3   OH213340   1.791   3.731   4.383 -0.3908 -0.1698  0.1329
 4445TIP3    H113341   1.824   3.641   4.383 -0.3931 -0.2448  2.6115
 4445TIP3    H213342   1.859   3.781   4.337  0.5631 -1.1558  0.4232
 4446TIP3   OH213343   0.404   4.762   0.987 -0.3187 -0.1933 -0.0963
 4446TIP3    H113344   0.486   4.765   1.036 -0.1325 -0.1570 -0.4017
 4446TIP3    H213345   0.431   4.779   0.896 -0.9970  2.7074  0.1647
 4447TIP3   OH213346   2.949   0.545   0.614  0.1162  0.1678 -0.3072
 4447TIP3    H113347   2.965   0.510   0.702  1.9560  0.3988 -0.5048
 4447TIP3    H213348   2.932   0.468   0.560 -1.0511  0.0272  0.2335
 4448TIP3   OH213349   1.472   5.178   2.134 -0.3818  0.3496 -0.3581
 4448TIP3    H113350   1.518   5.261   2.134 -1.0248  0.7263  0.5812
 4448TIP3    H213351   1.511   5.128   2.062 -0.1385  1.5368 -1.0677
 4449TIP3   OH213352   5.452   2.161   0.479  0.0692  0.7669  0.0541
 4449TIP3    H113353   5.496   2.246   0.482 -0.8991  1.3274 -1.0294
 4449TIP3    H213354   5.446   2.135   0.571  1.0287  1.5199  0.3526
 4450TIP3   OH213355   4.832   2.988   4.510 -0.0534 -0.1577 -0.1517
 4450TIP3    H113356   4.769   3.011   4.442  1.2594  0.3184 -1.2590
 4450TIP3    H213357   4.782   2.991   4.591 -1.2086  1.2834 -0.8750
 4451TIP3   OH213358   0.923   1.588   2.192  0.0064  0.3539 -0.6234
 4451TIP3    H113359   0.868   1.572   2.116  0.2948  0.9864 -0.9763
 4451TIP3    H213360   0.904   1.515   2.252 -1.5308  0.7928 -0.5326
 4452TIP3   OH213361   3.476   3.197   2.059 -0.1421  0.1801  0.4065
 4452TIP3    H113362   3.392   3.153   2.046 -0.1330  0.0715  0.7106
 4452TIP3    H213363   3.454   3.277   2.106 -0.0007 -0.1745  1.0843
 4453TIP3   OH213364   2.059   0.248   0.474  0.3348  0.4640  0.3611
 4453TIP3    H113365   2.140   0.210   0.507 -0.9807 -3.0383  0.0148
 4453TIP3    H213366   2.007   0.267   0.552  0.8271  1.1112  0.5350
 4454TIP3   OH213367   0.743   2.084   4.787  0.0678 -0.0067  0.3227
 4454TIP3    H113368   0.715   2.166   4.746  0.2265 -0.7402 -1.3628
 4454TIP3    H213369   0.679   2.019   4.758  0.0896 -0.5491  1.4184
 4455TIP3   OH213370   2.274   0.634   1.828 -0.4264 -0.1626  0.2900
 4455TIP3    H113371   2.345   0.579   1.794 -0.9024  0.5839 -2.0820
 4455TIP3    H213372   2.291   0.720   1.789 -1.8298  0.3823  0.8508
 4456TIP3   OH213373   0.232   2.121   0.449 -0.1585  0.2183 -0.1601
 4456TIP3    H113374   0.311   2.160   0.411 -0.5615  0.5566 -0.6617
 4456TIP3    H213375   0.243   2.132   0.544  0.4312  0.1911 -0.2226
 4457TIP3   OH213376   1.744   0.718   4.661 -0.1742 -0.1246  0.3020
 4457TIP3    H113377   1.761   0.796   4.607  0.3525 -0.7094 -0.4088
 4457TIP3    H213378   1.649   0.714   4.668 -0.3513 -0.7851 -1.7770
 4458TIP3   OH213379   2.454   1.699   1.778 -0.8865 -0.3399  0.1856
 4458TIP3    H113380   2.544   1.728   1.792 -1.2109 -0.0615  1.8874
 4458TIP3    H213381   2.455   1.658   1.691  1.4220 -2.5239  1.1205
 4459TIP3   OH213382   4.699   3.632   1.749  0.0621  0.8876  0.1526
 4459TIP3    H113383   4.615   3.615   1.792 -0.6538 -0.2770 -1.5985
 4459TIP3    H213384   4.677   3.642   1.657  1.8171  1.0347 -0.2824
 4460TIP3   OH213385   1.478   4.751   2.058  0.5864  0.1280  0.2568
 4460TIP3    H113386   1.461   4.839   2.092 -0.7606 -0.5498  1.4494
 4460TIP3    H213387   1.450   4.692   2.128  0.4305 -1.2798 -0.9357
 4461TIP3   OH213388   5.878   1.696   4.378 -0.1090  0.2044 -0.0170
 4461TIP3    H113389   5.851   1.678   4.288 -0.4799  0.0156  0.1288
 4461TIP3    H213390   5.881   1.791   4.384  2.2637  0.2534 -0.9175
 4462TIP3   OH213391   1.797   3.971   4.560  0.1456 -0.8797  0.7236
 4462TIP3    H113392   1.886   3.964   4.526  0.2173 -1.8915  1.1047
 4462TIP3    H213393   1.750   3.897   4.523 -0.4213 -0.6233  0.9006
 4463TIP3   OH213394   3.911   4.932   2.307  0.3775  0.1832 -0.2138
 4463TIP3    H113395   3.927   4.839   2.321  3.4687  0.8654  2.0013
 4463TIP3    H213396   3.943   4.949   2.218  0.8129 -0.6973 -0.2376
 4464TIP3   OH213397   6.163   1.325   0.353  0.4268  0.5488 -0.3470
 4464TIP3    H113398   6.204   1.241   0.372  0.7437  0.5360 -1.0567
 4464TIP3    H213399   6.236   1.387   0.351  0.3264  0.6476 -0.9172
 4465TIP3   OH213400   6.138   3.156   1.356  0.2415 -0.1580 -0.2075
 4465TIP3    H113401   6.121   3.183   1.447 -0.0095 -1.4833  0.1617
 4465TIP3    H213402   6.073   3.204   1.305  0.7568  1.0446  0.2313
 4466TIP3   OH213403   2.216   4.073   0.142 -0.1679  0.1458  0.3192
 4466TIP3    H113404   2.192   4.140   0.207  0.1377  0.5302  0.0427
 4466TIP3    H213405   2.255   4.123   0.070  0.6412 -0.3848  0.3800
 4467TIP3   OH213406   5.479   3.402   0.180 -0.2538  0.3741  0.2196
 4467TIP3    H113407   5.447   3.489   0.206 -1.0088 -0.0743  0.8184
 4467TIP3    H213408   5.524   3.418   0.096 -0.5066  1.3172  0.2452
 4468TIP3   OH213409   1.987   4.908   0.273 -0.0895  0.0435  0.1397
 4468TIP3    H113410   2.075   4.872   0.266  0.6433  1.7261  0.0271
 4468TIP3    H213411   1.954   4.910   0.183  0.9248  2.0227 -0.2451
 4469TIP3   OH213412   5.692   0.587   3.267 -0.3121  0.1206 -0.6407
 4469TIP3    H113413   5.679   0.532   3.190 -1.6751 -0.1297 -0.2631
 4469TIP3    H213414   5.614   0.643   3.270  0.4074  1.1366 -0.2452
 4470TIP3   OH213415   2.923   4.589   3.632 -0.5778  0.1603 -0.3097
 4470TIP3    H113416   2.895   4.675   3.664 -0.4453  0.0010  0.2433
 4470TIP3    H213417   2.843   4.551   3.597 -0.4796  0.8236 -1.3012
 4471TIP3   OH213418   6.334   1.358   3.440 -0.1011  0.0542 -0.3638
 4471TIP3    H113419   6.332   1.290   3.507  1.8727  0.5374  0.2461
 4471TIP3    H213420   6.352   1.311   3.359  2.6929 -0.0971  0.2624
 4472TIP3   OH213421   5.580   1.515   3.819  0.0894 -0.1952  0.4189
 4472TIP3    H113422   5.570   1.470   3.904 -2.9966  1.6965  1.2042
 4472TIP3    H213423   5.493   1.512   3.780  1.3422 -0.6419 -2.5972
 4473TIP3   OH213424   2.264   3.513   3.489  0.0038 -0.3370  0.9549
 4473TIP3    H113425   2.320   3.498   3.565 -0.0759 -0.2593  1.0290
 4473TIP3    H213426   2.192   3.568   3.522 -0.4757 -0.9897  1.0132
 4474TIP3   OH213427   6.130   5.604   0.359  0.1929  0.0667 -0.3058
 4474TIP3    H113428   6.132   5.557   0.275  1.0424  1.1086 -0.9067
 4474TIP3    H213429   6.105   5.693   0.335 -1.2283 -0.0180  0.7889
 4475TIP3   OH213430   4.924   5.281   4.239 -0.1300 -0.4070  0.2545
 4475TIP3    H113431   4.870   5.267   4.317 -1.2787 -0.9263 -0.6199
 4475TIP3    H213432   4.867   5.327   4.178  0.5738 -0.5379 -0.5093
 4476TIP3   OH213433   0.128   3.784   2.722 -0.5367  0.0805  0.2459
 4476TIP3    H113434   0.040   3.753   2.699 -0.1736  0.3953 -1.7995
 4476TIP3    H213435   0.148   3.740   2.805 -2.7965  0.4005  1.0330
 4477TIP3   OH213436   2.297   3.751   0.757  0.1519 -0.1699  0.1797
 4477TIP3    H113437   2.364   3.815   0.732  0.1808  0.8638  2.6371
 4477TIP3    H213438   2.214   3.794   0.738  0.1786  0.3410  1.1740
 4478TIP3   OH213439   4.885   3.662   0.702 -0.1966  0.8076 -0.4766
 4478TIP3    H113440   4.965   3.713   0.695  0.0045  0.7161  0.7799
 4478TIP3    H213441   4.897   3.587   0.644  0.5890  0.8493 -0.3690
 4479TIP3   OH213442   4.406   3.676   4.608 -0.4038 -0.4678 -0.0633
 4479TIP3    H113443   4.472   3.663   4.541 -0.6097 -0.3386 -0.2925
 4479TIP3    H213444   4.328   3.631   4.573 -0.1998 -1.3538  0.5770
 4480TIP3   OH213445   3.681   3.454   4.325  0.2652  0.3784 -0.1158
 4480TIP3    H113446   3.686   3.438   4.230 -0.5148  1.3701 -0.3500
 4480TIP3    H213447   3.597   3.417   4.351  0.0378  0.9513 -0.0080
 4481TIP3   OH213448   0.066   4.310   3.898 -0.0808  0.4355 -0.0001
 4481TIP3    H113449   0.087   4.233   3.951  4.7591 -0.2910 -2.3918
 4481TIP3    H213450   0.022   4.275   3.821  0.9529  0.1539 -0.4837
 4482TIP3   OH213451   6.131   1.544   4.826  0.0174 -0.3485  0.1129
 4482TIP3    H113452   6.037   1.550   4.841 -0.0192  0.5645 -0.3955
 4482TIP3    H213453   6.152   1.620   4.771  1.1491 -0.1905  0.7161
 4483TIP3   OH213454   5.740   5.179   5.017  0.2311  0.3636  0.0263
 4483TIP3    H113455   5.680   5.113   5.053  1.7146  0.3281  2.6503
 4483TIP3    H213456   5.770   5.140   4.935 -3.0867  0.3140 -1.3295
 4484TIP3   OH213457   2.702   1.978   2.914 -0.4395  0.6532  0.1346
 4484TIP3    H113458   2.665   1.947   2.996 -1.3936  0.6937 -0.2641
 4484TIP3    H213459   2.681   2.072   2.912  0.1062  0.7802  0.1138
 4485TIP3   OH213460   4.909   1.178   3.943 -0.1207 -0.2529 -0.1827
 4485TIP3    H113461   4.882   1.094   3.979  0.5424 -0.2649  0.3140
 4485TIP3    H213462   4.990   1.159   3.896  0.7136  0.3164  0.9952
 4486TIP3   OH213463   5.005   3.882   3.535 -0.1780 -0.2459 -0.2434
 4486TIP3    H113464   5.099   3.882   3.552 -0.6206  0.3192  2.9072
 4486TIP3    H213465   4.977   3.972   3.552 -1.2848 -0.3310 -1.4161
 4487TIP3   OH213466   2.706   4.568   5.127 -0.0749 -0.1408  0.4567
 4487TIP3    H113467   2.702   4.661   5.107  1.2489 -0.4618 -1.5680
 4487TIP3    H213468   2.750   4.528   5.052 -1.1188 -2.5011  0.9881
 4488TIP3   OH213469   1.199   1.978   2.327  0.0087  0.2031 -0.2087
 4488TIP3    H113470   1.205   1.917   2.254  0.2765 -0.0428  0.0168
 4488TIP3    H213471   1.122   2.032   2.307  0.4523  0.5622 -0.9887
 4489TIP3   OH213472   6.265   5.326   5.151  0.1387 -0.7265 -0.2890
 4489TIP3    H113473   6.299   5.339   5.239  0.3193  0.9056 -0.5669
 4489TIP3    H213474   6.343   5.331   5.094 -0.3375  2.1107 -0.8462
 4490TIP3   OH213475   3.741   5.708   4.355  0.6401 -0.3414  0.0188
 4490TIP3    H113476   3.779   5.692   4.441  1.2772 -0.1423 -0.2191
 4490TIP3    H213477   3.799   5.661   4.295  2.1148  2.0869 -0.6306
 4491TIP3   OH213478   4.858   4.856   3.900 -0.5681 -0.1130  0.1511
 4491TIP3    H113479   4.778   4.882   3.947  0.0712  1.9946  0.1757
 4491TIP3    H213480   4.851   4.761   3.892 -3.9460  0.1303 -1.4538
 4492TIP3   OH213481   3.567   3.129   4.592 -0.9767 -0.2987  0.5603
 4492TIP3    H113482   3.536   3.109   4.681 -1.9830 -1.2722  0.0187
 4492TIP3    H213483   3.504   3.193   4.559  0.6549  1.8107  1.2896
 4493TIP3   OH213484   5.637   1.973   2.539 -0.1416  0.2535  0.0185
 4493TIP3    H113485   5.691   2.015   2.606 -0.6879 -0.5291  0.9735
 4493TIP3    H213486   5.570   2.037   2.517 -0.4467  0.2129  0.8255
 4494TIP3   OH213487   1.735   4.357   1.596  0.3422 -0.3720 -0.7488
 4494TIP3    H113488   1.652   4.403   1.587 -0.2669 -0.8100  1.8066
 4494TIP3    H213489   1.712   4.264   1.592  0.3908 -0.5368  1.5259
 4495TIP3   OH213490   4.100   0.958   2.392  0.6364  0.4835 -0.0033
 4495TIP3    H113491   4.179   0.998   2.428  1.8284  0.8598 -2.7495
 4495TIP3    H213492   4.092   0.995   2.304 -2.7170  0.5338  0.1961
 4496TIP3   OH213493   6.252   1.197   4.349 -0.0882  0.3914  0.4693
 4496TIP3    H113494   6.311   1.123   4.335 -1.2581 -1.0369  2.5380
 4496TIP3    H213495   6.243   1.237   4.263  2.5941 -0.3001 -0.2233
 4497TIP3   OH213496   2.872   5.336   0.994 -0.1178  0.2255 -0.4665
 4497TIP3    H113497   2.939   5.325   1.060  0.0437 -3.9581 -1.0828
 4497TIP3    H213498   2.909   5.400   0.932  1.9529  0.2867  0.7519
 4498TIP3   OH213499   0.510   2.011   1.043 -0.2341 -0.3566  0.0472
 4498TIP3    H113500   0.556   1.958   1.107 -1.2402 -1.5486 -0.1730
 4498TIP3    H213501   0.419   2.012   1.074 -0.2419  1.2840  0.0615
 4499TIP3   OH213502   3.552   5.559   2.438 -0.0319  0.4380  0.3714
 4499TIP3    H113503   3.585   5.473   2.411  1.3954  0.5962  1.4889
 4499TIP3    H213504   3.519   5.598   2.357 -2.4364 -1.8330  0.1208
 4500TIP3   OH213505   2.139   4.305   1.126  0.6493 -0.3985  0.2687
 4500TIP3    H113506   2.165   4.382   1.178  0.4568  0.5649 -1.0122
 4500TIP3    H213507   2.190   4.233   1.164  2.5145  0.7596  0.1254
 4501TIP3   OH213508   3.372   4.112   2.448 -0.0035 -0.0874 -0.5215
 4501TIP3    H113509   3.460   4.089   2.417  0.4251 -0.6431  1.0154
 4501TIP3    H213510   3.342   4.034   2.495 -0.8631  0.4924 -0.0880
 4502TIP3   OH213511   4.549   1.407   3.456 -0.8229 -0.0738 -0.2601
 4502TIP3    H113512   4.458   1.435   3.450 -1.0644 -0.8458 -0.2576
 4502TIP3    H213513   4.597   1.485   3.485 -1.6749 -0.0207  1.0557
 4503TIP3   OH213514   3.859   1.026   2.578 -0.0329  0.6857  0.4094
 4503TIP3    H113515   3.829   0.985   2.658 -1.4934  0.0684 -0.4121
 4503TIP3    H213516   3.881   0.953   2.520 -0.4464  1.0802 -0.2647
 4504TIP3   OH213517   0.891   2.631   4.071  0.3780 -0.5031 -0.6129
 4504TIP3    H113518   0.815   2.670   4.112  0.4636  0.2075 -1.1196
 4504TIP3    H213519   0.905   2.549   4.119  0.2910  0.1535  0.5504
 4505TIP3   OH213520   2.022   0.839   4.360 -0.1356  0.2583 -0.6593
 4505TIP3    H113521   2.026   0.766   4.421  1.7549  0.2768 -0.7075
 4505TIP3    H213522   1.996   0.799   4.276 -2.1724  0.1552 -0.0393
 4506TIP3   OH213523   1.302   1.757   1.334  0.2921 -0.6754 -0.0541
 4506TIP3    H113524   1.393   1.780   1.354  0.8112 -0.8989 -1.9716
 4506TIP3    H213525   1.257   1.764   1.418  1.4026  2.5286  0.4161
 4507TIP3   OH213526   5.761   2.921   3.134  0.3094  0.8579  1.0436
 4507TIP3    H113527   5.850   2.946   3.108  0.0023  3.1192  1.9201
 4507TIP3    H213528   5.715   2.910   3.051  1.7890 -2.3613  0.4887
 4508TIP3   OH213529   2.027   3.275   2.312 -0.3252 -0.2795 -0.7679
 4508TIP3    H113530   2.056   3.311   2.396 -1.8342 -0.7427  0.0065
 4508TIP3    H213531   2.041   3.346   2.249  1.3756 -0.1223 -0.2680
 4509TIP3   OH213532   5.940   1.987   3.675 -0.0433  0.1775  0.7097
 4509TIP3    H113533   5.859   1.938   3.661  0.2210 -0.1698  0.3659
 4509TIP3    H213534   5.997   1.959   3.604  0.2643  0.6671  0.7617
 4510TIP3   OH213535   5.224   2.576   0.542 -0.3187  0.0450  0.3105
 4510TIP3    H113536   5.232   2.528   0.460 -0.6924 -0.2690  0.4576
 4510TIP3    H213537   5.281   2.652   0.530  2.6832 -1.8946  1.1720
 4511TIP3   OH213538   1.839   4.150   4.766 -0.5992  0.4679 -0.1171
 4511TIP3    H113539   1.924   4.193   4.753 -0.1079  0.5597  2.7607
 4511TIP3    H213540   1.831   4.091   4.692  0.8109  2.2194 -1.7900
 4512TIP3   OH213541   1.391   3.425   1.162  0.2247  0.7258 -0.6598
 4512TIP3    H113542   1.450   3.396   1.231  0.3110  0.4350 -0.8531
 4512TIP3    H213543   1.304   3.394   1.190  0.4086 -0.2852 -1.1729
 4513TIP3   OH213544   0.933   4.074   0.231  0.0268  0.1273 -0.0738
 4513TIP3    H113545   0.945   4.049   0.322  0.5760 -1.3875 -0.5265
 4513TIP3    H213546   1.018   4.109   0.204 -0.0697  0.3659 -0.0736
 4514TIP3   OH213547   2.386   4.740   2.400  0.2811 -0.0397 -0.5657
 4514TIP3    H113548   2.476   4.773   2.412 -0.1011  0.5453  0.9259
 4514TIP3    H213549   2.380   4.665   2.459 -0.4361  0.3885 -0.0836
 4515TIP3   OH213550   1.982   2.196   1.745  0.2153  0.0153 -0.0794
 4515TIP3    H113551   2.076   2.203   1.726  0.3026 -0.7532  0.0257
 4515TIP3    H213552   1.941   2.256   1.683  0.6234 -1.2119 -1.6226
 4516TIP3   OH213553   5.009   1.455   2.670  0.0006 -0.2835  0.1295
 4516TIP3    H113554   5.073   1.398   2.713 -0.8963 -2.2584 -1.0281
 4516TIP3    H213555   5.059   1.532   2.644  1.7279 -1.4012  0.0039
 4517TIP3   OH213556   5.205   1.706   1.637  0.7625 -0.1002  0.3591
 4517TIP3    H113557   5.282   1.743   1.594  0.0951  0.9573  0.0371
 4517TIP3    H213558   5.232   1.692   1.728  1.3638  0.1330  0.2203
 4518TIP3   OH213559   3.733   0.698   2.126 -0.0012  0.4816  0.0641
 4518TIP3    H113560   3.743   0.605   2.108  0.0716  0.5133 -0.0525
 4518TIP3    H213561   3.735   0.704   2.222  3.9315  0.8056  0.1166
 4519TIP3   OH213562   2.535   0.121   1.486  0.0942  0.6331 -0.1998
 4519TIP3    H113563   2.536   0.161   1.573 -1.4254  1.2434 -0.4279
 4519TIP3    H213564   2.571   0.189   1.428 -0.1145  0.7165 -0.2314
 4520TIP3   OH213565   2.300   5.572   0.247  0.0487  0.3531 -0.1561
 4520TIP3    H113566   2.326   5.585   0.156 -0.6608 -1.5195 -0.6643
 4520TIP3    H213567   2.383   5.558   0.293  0.3107 -0.5101 -0.8595
 4521TIP3   OH213568   0.238   1.040   0.896 -0.5351 -0.3080  0.3423
 4521TIP3    H113569   0.233   1.134   0.881  0.3007 -0.2423  0.4025
 4521TIP3    H213570   0.216   1.001   0.812  1.2088 -0.0028 -0.2942
 4522TIP3   OH213571   2.360   3.862   3.949 -0.8543  0.4665  0.0817
 4522TIP3    H113572   2.378   3.951   3.918  2.7848 -0.0494  0.2369
 4522TIP3    H213573   2.407   3.855   4.032 -0.9368 -1.6189  0.0109
 4523TIP3   OH213574   4.060   4.467   4.910  0.0983  0.1011  0.0236
 4523TIP3    H113575   4.070   4.377   4.943 -1.6143 -0.6909 -1.4580
 4523TIP3    H213576   3.999   4.507   4.972 -0.1835 -0.1834 -0.0658
 4524TIP3   OH213577   5.427   5.731   0.072 -0.0891 -0.3086 -0.3265
 4524TIP3    H113578   5.419   5.688   0.158  1.6611 -0.1400 -0.0484
 4524TIP3    H213579   5.368   5.681   0.015 -0.5174 -1.0556  0.7394
 4525TIP3   OH213580   3.673   2.284   0.102 -0.4571  1.0973 -0.0499
 4525TIP3    H113581   3.765   2.269   0.122 -0.5907 -2.0990 -1.1646
 4525TIP3    H213582   3.665   2.260   0.009 -2.2365  2.4091 -0.2871
 4526TIP3   OH213583   5.651   5.756   1.550  0.3266  0.3578 -0.6692
 4526TIP3    H113584   5.606   5.744   1.466 -2.9010  0.5271  0.9012
 4526TIP3    H213585   5.639   5.673   1.596 -1.5012  1.5201  1.1065
 4527TIP3   OH213586   1.067   0.078   4.248  0.0417 -0.6119 -0.1703
 4527TIP3    H113587   1.040   0.020   4.319 -0.3533 -1.7983 -1.2383
 4527TIP3    H213588   1.095   0.018   4.178 -1.6458  0.3905 -1.8196
 4528TIP3   OH213589   1.431   1.915   4.128  0.4407 -0.3090  0.0922
 4528TIP3    H113590   1.456   1.971   4.055  0.0400 -0.0275  0.1714
 4528TIP3    H213591   1.412   1.975   4.200 -0.3923 -0.5143  0.0590
 4529TIP3   OH213592   4.754   3.608   3.741  1.0443 -0.1627  0.5743
 4529TIP3    H113593   4.736   3.698   3.768 -2.7506 -0.2695 -0.9682
 4529TIP3    H213594   4.817   3.617   3.669 -0.0145  1.4166 -0.2288
 4530TIP3   OH213595   4.406   0.686   1.600  0.1977 -0.4968 -0.1488
 4530TIP3    H113596   4.422   0.708   1.692  0.9394  1.6199 -0.7212
 4530TIP3    H213597   4.312   0.672   1.595  0.2325 -1.3299  1.0414
 4531TIP3   OH213598   3.276   3.119   4.985  0.1914 -0.0000  0.8923
 4531TIP3    H113599   3.209   3.073   4.935  1.5708 -1.1243 -0.0091
 4531TIP3    H213600   3.246   3.210   4.989 -0.6631 -0.1787 -0.7439
 4532TIP3   OH213601   1.969   5.320   3.743  0.1199 -0.0313  0.2205
 4532TIP3    H113602   1.907   5.326   3.816  0.7298  1.9323  0.6348
 4532TIP3    H213603   1.914   5.298   3.667 -0.9883  0.8106  0.7412
 4533TIP3   OH213604   4.038   2.296   2.015  0.2802 -0.4001  0.1773
 4533TIP3    H113605   4.106   2.363   2.003 -0.6168  0.3503 -1.0086
 4533TIP3    H213606   4.075   2.217   1.976  0.7103 -0.1456  0.0638
 4534TIP3   OH213607   3.480   0.542   3.646  0.1558  0.1403 -0.0714
 4534TIP3    H113608   3.563   0.588   3.660 -1.1489  2.1220  1.9115
 4534TIP3    H213609   3.417   0.611   3.626 -1.2577 -1.1824 -0.4054
 4535TIP3   OH213610   4.288   2.047   0.862  0.4367 -0.1660  0.2273
 4535TIP3    H113611   4.222   1.987   0.898 -0.5574 -0.4520 -1.9596
 4535TIP3    H213612   4.342   1.992   0.805  0.8734  0.6142 -0.1221
 4536TIP3   OH213613   1.102   0.499   0.249 -0.0210  0.1252  0.0083
 4536TIP3    H113614   1.089   0.591   0.270 -0.6722 -0.2415  1.3148
 4536TIP3    H213615   1.194   0.493   0.223  0.5175  0.8494  1.6114
 4537TIP3   OH213616   6.291   5.043   3.158 -0.1360  0.5286  0.1426
 4537TIP3    H113617   6.345   5.113   3.195  1.1827 -0.4383  0.1221
 4537TIP3    H213618   6.211   5.087   3.128  0.5131  1.9562  0.4449
 4538TIP3   OH213619   5.090   5.415   4.579  0.4721  0.0455 -0.5118
 4538TIP3    H113620   5.087   5.485   4.644  1.5920 -1.0614  0.7924
 4538TIP3    H213621   5.055   5.338   4.624  0.9927 -0.6812 -1.3072
 4539TIP3   OH213622   3.972   2.559   4.390 -0.6170 -0.0607 -0.0316
 4539TIP3    H113623   4.002   2.469   4.382 -0.5060 -0.2662  2.1205
 4539TIP3    H213624   3.883   2.558   4.356 -0.0882 -0.6070 -1.4820
 4540TIP3   OH213625   3.297   4.417   0.974  0.3505  0.4917  0.5048
 4540TIP3    H113626   3.287   4.463   0.891  0.7153 -0.1070  0.1266
 4540TIP3    H213627   3.271   4.482   1.040 -1.0047  0.6258 -0.1273
 4541TIP3   OH213628   4.337   1.314   3.700  0.4823 -0.0532  0.5774
 4541TIP3    H113629   4.294   1.320   3.614 -0.3833 -0.8600  0.9289
 4541TIP3    H213630   4.427   1.288   3.679 -0.1944 -2.1530 -0.0578
 4542TIP3   OH213631   0.805   3.081   2.355 -0.0328  0.3474  0.0866
 4542TIP3    H113632   0.757   3.000   2.371 -0.0673  0.3709  0.1028
 4542TIP3    H213633   0.867   3.088   2.428  1.3640 -0.6931 -0.9343
 4543TIP3   OH213634   2.807   1.978   0.512 -0.4014 -0.2718  0.2639
 4543TIP3    H113635   2.792   1.890   0.479 -0.1413 -0.6087  1.0210
 4543TIP3    H213636   2.739   1.990   0.579 -0.1317 -0.0796  0.5043
 4544TIP3   OH213637   2.102   3.250   0.818 -0.2132  0.6168  0.3235
 4544TIP3    H113638   2.144   3.336   0.823  0.8032  0.1413  0.2632
 4544TIP3    H213639   2.149   3.197   0.883 -1.7744  0.4790  1.3813
 4545TIP3   OH213640   1.193   0.377   0.522  0.0235  0.0941 -0.1945
 4545TIP3    H113641   1.251   0.424   0.462 -0.8518 -0.3332 -1.3964
 4545TIP3    H213642   1.224   0.403   0.609  2.0032 -0.1079 -0.7910
 4546TIP3   OH213643   0.221   0.262   2.211 -0.0856 -0.0907 -0.3088
 4546TIP3    H113644   0.197   0.207   2.287  3.9555 -2.7238 -0.6344
 4546TIP3    H213645   0.218   0.202   2.137 -0.0559  1.4112 -1.5614
 4547TIP3   OH213646   1.295   5.682   3.500  0.4091  0.0530  0.7106
 4547TIP3    H113647   1.277   5.672   3.407 -1.2262  1.2238  0.8675
 4547TIP3    H213648   1.358   5.754   3.505  0.7317 -0.2125  0.5011
 4548TIP3   OH213649   0.596   3.620   0.521 -0.6418  0.2875 -0.3288
 4548TIP3    H113650   0.535   3.686   0.487 -3.4449 -2.7880 -1.8598
 4548TIP3    H213651   0.610   3.561   0.447  1.6778 -0.9366  0.9826
 4549TIP3   OH213652   5.828   3.440   2.930 -0.1107 -0.1883  0.3746
 4549TIP3    H113653   5.791   3.525   2.955 -1.9138 -0.3458 -1.4398
 4549TIP3    H213654   5.796   3.426   2.841  1.3345 -2.1366  0.1070
 4550TIP3   OH213655   3.875   2.455   0.888  0.2027 -0.0331 -0.1799
 4550TIP3    H113656   3.938   2.508   0.937  0.3617 -1.6728  1.4893
 4550TIP3    H213657   3.926   2.416   0.817  0.0044  2.2338 -1.6703
 4551TIP3   OH213658   6.049   2.978   4.134 -0.5640  0.0330 -0.5106
 4551TIP3    H113659   6.066   3.060   4.089  1.2880  1.1035  1.9008
 4551TIP3    H213660   6.053   3.001   4.227  0.8030 -2.9108  0.2646
 4552TIP3   OH213661   0.156   0.819   2.177  0.6910 -0.6109 -0.3825
 4552TIP3    H113662   0.109   0.846   2.256 -0.6740  0.3093 -1.4818
 4552TIP3    H213663   0.201   0.738   2.203  0.1016 -0.4476  1.2634
 4553TIP3   OH213664   4.821   2.046   4.711  0.0173  0.0613  0.0469
 4553TIP3    H113665   4.771   2.116   4.754  0.7194  0.2883  0.4998
 4553TIP3    H213666   4.786   2.044   4.622  0.4002  1.4033 -0.1540
 4554TIP3   OH213667   0.064   4.753   1.741 -0.5682 -0.1047 -0.6373
 4554TIP3    H113668   0.058   4.836   1.788  1.5530 -0.8461  1.0884
 4554TIP3    H213669   0.114   4.775   1.662 -1.2512  0.5054 -0.9163
 4555TIP3   OH213670   5.187   0.561   4.741  0.0673 -0.6158  0.0959
 4555TIP3    H113671   5.248   0.599   4.679 -1.2902 -0.4171 -1.1828
 4555TIP3    H213672   5.211   0.598   4.826  0.7729  0.5993 -0.6163
 4556TIP3   OH213673   5.887   5.857   1.954 -0.0196 -0.2694  0.1502
 4556TIP3    H113674   5.836   5.938   1.960  0.2379 -0.0457 -0.5158
 4556TIP3    H213675   5.906   5.848   1.860  2.2838  0.3772  0.4809
 4557TIP3   OH213676   3.159   1.111   1.600 -0.5736 -0.0318  0.5294
 4557TIP3    H113677   3.201   1.055   1.536  0.3288  0.0598  1.0194
 4557TIP3    H213678   3.132   1.052   1.670 -1.9476 -0.1925 -0.1065
 4558TIP3   OH213679   5.468   4.703   5.052 -0.5667 -0.5358 -0.1512
 4558TIP3    H113680   5.514   4.697   5.136 -2.1578 -1.2188  0.7159
 4558TIP3    H213681   5.508   4.634   4.999  1.3559  0.7452 -0.4715
 4559TIP3   OH213682   5.129   3.836   4.792  0.0382 -0.3928 -0.1974
 4559TIP3    H113683   5.194   3.853   4.860  1.1142 -1.0674 -1.0292
 4559TIP3    H213684   5.134   3.912   4.734 -1.8171  0.8393  1.1117
 4560TIP3   OH213685   1.679   0.592   1.275  0.1199 -0.2095  0.7904
 4560TIP3    H113686   1.702   0.598   1.367  0.2344 -1.7498  0.8797
 4560TIP3    H213687   1.623   0.515   1.268 -0.9778  0.6408 -0.2261
 4561TIP3   OH213688   0.765   2.634   2.389 -0.3013 -0.2118  0.2211
 4561TIP3    H113689   0.838   2.684   2.427 -0.3033  0.5994 -0.8064
 4561TIP3    H213690   0.755   2.559   2.447 -2.0954  2.2849  3.4487
 4562TIP3   OH213691   1.989   2.042   5.139 -0.0009 -0.2571 -0.1332
 4562TIP3    H113692   2.045   1.986   5.193 -0.9320 -0.5211  0.5924
 4562TIP3    H213693   1.912   1.988   5.120 -0.5773  0.5040 -0.0477
 4563TIP3   OH213694   5.167   5.476   2.197 -0.1567  0.2288 -0.7735
 4563TIP3    H113695   5.145   5.569   2.203 -0.2028  0.1424  1.2953
 4563TIP3    H213696   5.227   5.470   2.123  0.0549  1.9552 -0.7855
 4564TIP3   OH213697   3.893   4.613   1.920  0.0261  0.1143 -0.4280
 4564TIP3    H113698   3.924   4.533   1.961 -1.6803  0.4466  1.7365
 4564TIP3    H213699   3.834   4.584   1.851 -0.2264 -0.5022  0.0413
 4565TIP3   OH213700   3.811   2.219   1.584  0.0573  0.3193  0.4445
 4565TIP3    H113701   3.807   2.304   1.628 -2.7670  0.2255  0.5444
 4565TIP3    H213702   3.825   2.157   1.655 -1.8876  0.4068  0.9709
 4566TIP3   OH213703   4.856   5.316   0.600  0.3879 -0.0813 -0.2908
 4566TIP3    H113704   4.827   5.233   0.638 -1.4269  1.0088  0.8920
 4566TIP3    H213705   4.914   5.354   0.667 -0.5889  0.5794  0.2127
 4567TIP3   OH213706   0.986   3.767   2.748 -0.2267  0.4002 -0.2753
 4567TIP3    H113707   1.036   3.844   2.774  2.5304 -0.9823 -1.0456
 4567TIP3    H213708   1.038   3.693   2.780 -1.6183 -1.1511 -1.4363
 4568TIP3   OH213709   2.420   5.301   3.323 -0.1328  0.1403 -0.4454
 4568TIP3    H113710   2.450   5.211   3.338 -0.1969  0.4218  1.5808
 4568TIP3    H213711   2.325   5.297   3.329 -0.1865  0.2114 -1.1855
 4569TIP3   OH213712   2.127   4.613   0.690  0.7597 -0.7578 -0.2248
 4569TIP3    H113713   2.101   4.580   0.776  0.4310  1.4477  0.5951
 4569TIP3    H213714   2.223   4.609   0.690  0.8135  0.1354  0.6717
 4570TIP3   OH213715   4.545   1.280   2.450  0.5124 -0.4076  0.2976
 4570TIP3    H113716   4.525   1.320   2.366 -0.1547 -0.2185  0.5407
 4570TIP3    H213717   4.614   1.336   2.487  0.0494  0.1360  0.3470
 4571TIP3   OH213718   3.301   3.922   5.021  0.2637 -0.3870  0.1465
 4571TIP3    H113719   3.341   3.948   5.104 -1.5069 -0.2908  1.0178
 4571TIP3    H213720   3.276   4.005   4.980 -1.7520 -0.4903  1.0549
 4572TIP3   OH213721   3.592   2.593   3.502 -0.0663  0.3357 -0.3577
 4572TIP3    H113722   3.659   2.660   3.516  0.2086  0.1451 -0.7560
 4572TIP3    H213723   3.511   2.633   3.533  0.2338  0.5573  0.1553
 4573TIP3   OH213724   0.453   2.250   4.624 -0.5378 -1.1887  0.5698
 4573TIP3    H113725   0.431   2.248   4.717 -0.7744 -1.7621  0.5062
 4573TIP3    H213726   0.435   2.161   4.593 -0.0631 -1.1169  0.0676
 4574TIP3   OH213727   4.306   1.112   3.272  0.0168 -0.1854  0.4341
 4574TIP3    H113728   4.372   1.095   3.339 -0.4511  1.2902  1.2992
 4574TIP3    H213729   4.354   1.110   3.190  0.9212 -0.2801  0.9520
 4575TIP3   OH213730   1.126   4.654   3.478 -0.3202  0.6881  0.2649
 4575TIP3    H113731   1.218   4.628   3.471 -0.0025  1.7812  0.2839
 4575TIP3    H213732   1.128   4.749   3.480 -1.5975  0.8083 -1.8001
 4576TIP3   OH213733   3.510   2.797   5.001  0.1151 -0.8300  0.1678
 4576TIP3    H113734   3.495   2.878   5.050 -0.3923  0.6162 -2.2129
 4576TIP3    H213735   3.582   2.819   4.941 -0.6576 -1.8101 -1.1747
 4577TIP3   OH213736   1.825   4.524   3.408 -0.5267 -0.0558 -0.2276
 4577TIP3    H113737   1.887   4.452   3.394  0.0926  0.1872  1.1114
 4577TIP3    H213738   1.814   4.563   3.322  0.4845 -0.6723 -0.6563
 4578TIP3   OH213739   3.106   4.257   1.111  0.7319  0.7541  0.2420
 4578TIP3    H113740   3.169   4.311   1.064 -0.2627  0.8484 -1.0406
 4578TIP3    H213741   3.155   4.178   1.135  0.9063 -0.0633 -2.4675
 4579TIP3   OH213742   5.216   5.146   2.207  0.4622 -0.1468 -0.2368
 4579TIP3    H113743   5.207   5.228   2.255 -1.5733  0.0329 -0.8144
 4579TIP3    H213744   5.162   5.158   2.129 -1.5811 -2.7275  0.6190
 4580TIP3   OH213745   5.945   4.175   1.353  0.3699  0.1816 -0.1651
 4580TIP3    H113746   5.916   4.102   1.407  2.6260 -1.0340 -0.4545
 4580TIP3    H213747   6.014   4.217   1.404 -1.6136  2.9179  0.5021
 4581TIP3   OH213748   2.083   0.518   2.610 -0.0288  0.0936 -0.0912
 4581TIP3    H113749   2.064   0.608   2.636  1.2233  0.2704  0.3025
 4581TIP3    H213750   2.137   0.484   2.681 -0.8117 -1.1116 -0.0442
 4582TIP3   OH213751   2.615   4.972   2.647 -0.2687 -0.0084 -0.4144
 4582TIP3    H113752   2.579   4.884   2.649  0.0326 -0.1292 -0.1849
 4582TIP3    H213753   2.545   5.028   2.680  0.8056 -0.6220  3.3352
 4583TIP3   OH213754   1.506   2.444   1.102 -0.1830 -0.1338  0.1165
 4583TIP3    H113755   1.503   2.447   1.198 -0.0882  1.0031  0.0934
 4583TIP3    H213756   1.436   2.503   1.074  1.3898  1.5192 -0.5033
 4584TIP3   OH213757   5.291   3.577   2.550 -0.1319  0.4026  0.1464
 4584TIP3    H113758   5.234   3.638   2.597  0.4100  0.5670  0.5943
 4584TIP3    H213759   5.365   3.563   2.609  2.1640  3.0696 -1.8384
 4585TIP3   OH213760   2.348   4.532   5.022  0.2568  0.4014 -0.1355
 4585TIP3    H113761   2.386   4.558   5.106 -0.1332  0.6890 -0.0434
 4585TIP3    H213762   2.281   4.467   5.046  1.7894 -1.3750 -0.4241
 4586TIP3   OH213763   0.230   5.306   0.662  0.2787  0.1979 -0.1720
 4586TIP3    H113764   0.311   5.320   0.614 -0.7461  1.1370 -1.7144
 4586TIP3    H213765   0.206   5.215   0.643  1.2198 -0.2812  0.7735
 4587TIP3   OH213766   3.334   3.337   0.352 -0.1782 -0.2547  0.3101
 4587TIP3    H113767   3.306   3.347   0.443 -0.9783  0.8184 -0.0370
 4587TIP3    H213768   3.426   3.311   0.358  0.5576  2.3048  1.4211
 4588TIP3   OH213769   1.038   1.269   0.830 -0.3490 -0.5066  0.0971
 4588TIP3    H113770   0.982   1.198   0.858 -1.6984 -0.1917 -1.6153
 4588TIP3    H213771   1.045   1.326   0.907 -1.5302 -1.0855  0.6625
 4589TIP3   OH213772   6.358   2.287   4.615 -0.2229  0.1921 -0.1982
 4589TIP3    H113773   6.370   2.379   4.641  0.9639 -0.4589  1.7459
 4589TIP3    H213774   6.265   2.270   4.631 -0.8513  1.4430 -2.1199
 4590TIP3   OH213775   1.079   5.365   2.419  0.2535 -0.3160  0.3415
 4590TIP3    H113776   1.125   5.408   2.347 -0.3089  1.2355  0.8758
 4590TIP3    H213777   1.101   5.272   2.409  1.2803  0.0396 -1.0115
 4591TIP3   OH213778   2.638   1.536   2.188  0.3857  0.0666  0.6807
 4591TIP3    H113779   2.608   1.551   2.278 -2.7843 -0.6610 -0.1231
 4591TIP3    H213780   2.557   1.536   2.136  1.7539 -2.7470 -1.7143
 4592TIP3   OH213781   4.344   0.748   1.252 -0.0433  0.6047 -0.1992
 4592TIP3    H113782   4.412   0.795   1.299 -1.8925  2.4637  0.7828
 4592TIP3    H213783   4.277   0.729   1.318 -0.5213 -1.1431 -1.1213
 4593TIP3   OH213784   1.708   2.441   1.771 -0.0366 -0.0938 -0.3101
 4593TIP3    H113785   1.726   2.501   1.698  1.6285  0.1441  0.2728
 4593TIP3    H213786   1.700   2.355   1.729 -0.2202  0.1991 -0.8982
 4594TIP3   OH213787   4.404   1.410   0.922 -0.4276  0.1396 -0.5286
 4594TIP3    H113788   4.402   1.359   0.841 -1.5533 -1.4688  0.4519
 4594TIP3    H213789   4.438   1.350   0.988 -0.9314  0.9431  0.4966
 4595TIP3   OH213790   4.647   0.667   2.054  0.1801  0.0949  0.1242
 4595TIP3    H113791   4.562   0.707   2.037 -0.2574 -0.7386  0.2763
 4595TIP3    H213792   4.661   0.607   1.981 -0.1276 -0.9691  0.9197
 4596TIP3   OH213793   3.799   0.596   0.400  0.1313  0.1770 -0.3750
 4596TIP3    H113794   3.789   0.576   0.307  2.1148 -0.2168 -0.5304
 4596TIP3    H213795   3.797   0.511   0.444 -1.2822  0.3885  0.0340
 4597TIP3   OH213796   3.308   5.592   1.561 -0.0711 -0.6158 -0.0977
 4597TIP3    H113797   3.365   5.601   1.638 -1.6976 -2.3681  1.4200
 4597TIP3    H213798   3.299   5.681   1.528  2.9561 -0.1703 -0.0402
 4598TIP3   OH213799   4.827   1.809   4.834 -0.7270 -0.3245 -0.6765
 4598TIP3    H113800   4.806   1.836   4.924  1.1395  0.2163 -0.3597
 4598TIP3    H213801   4.846   1.890   4.788 -0.2713 -0.7110 -1.1774
 4599TIP3   OH213802   5.238   5.621   0.673  0.1090 -0.9897 -0.4072
 4599TIP3    H113803   5.284   5.703   0.691  0.8883 -1.3991 -0.4988
 4599TIP3    H213804   5.148   5.637   0.703  0.3011 -0.1733 -0.2416
 4600TIP3   OH213805   1.156   3.960   3.240  0.6049 -0.0835  0.0371
 4600TIP3    H113806   1.150   4.033   3.302  0.8831  0.7136 -0.8484
 4600TIP3    H213807   1.250   3.944   3.230  0.5451 -0.6292  0.2832
 4601TIP3   OH213808   0.840   4.321   0.763 -0.4256  0.0662 -0.2140
 4601TIP3    H113809   0.880   4.292   0.681  2.9411  1.0860  0.8722
 4601TIP3    H213810   0.881   4.266   0.830 -0.0484  1.8506  1.0962
 4602TIP3   OH213811   4.870   2.372   0.056  0.6632  0.0541  0.0245
 4602TIP3    H113812   4.845   2.388   0.147 -0.3983  0.2956 -0.2919
 4602TIP3    H213813   4.945   2.313   0.061 -0.2639 -1.0731  1.0195
 4603TIP3   OH213814   6.074   0.182   4.794  0.5072  0.1604  0.2946
 4603TIP3    H113815   6.067   0.230   4.877  0.7170  1.2554 -0.2969
 4603TIP3    H213816   6.155   0.215   4.755  0.6944 -0.7539 -0.1007
 4604TIP3   OH213817   5.191   1.127   0.955 -0.2801  0.4130 -0.2262
 4604TIP3    H113818   5.120   1.164   1.007 -0.2662  0.2754 -0.1090
 4604TIP3    H213819   5.205   1.039   0.992  0.5953  0.7939  0.3821
 4605TIP3   OH213820   5.824   5.274   2.417 -0.0502 -0.4044  0.4919
 4605TIP3    H113821   5.762   5.205   2.439  0.5382 -1.0184  0.2373
 4605TIP3    H213822   5.790   5.351   2.462 -1.6876 -0.4160 -0.6200
 4606TIP3   OH213823   0.759   0.506   4.798  0.2557  0.5551  0.0938
 4606TIP3    H113824   0.722   0.541   4.716 -0.3417 -1.1090 -0.3768
 4606TIP3    H213825   0.847   0.476   4.774  0.9339  2.0151  0.5959
 4607TIP3   OH213826   1.435   1.672   2.133 -0.4305 -0.6868 -0.1069
 4607TIP3    H113827   1.356   1.710   2.172 -1.1334 -0.6668 -1.4890
 4607TIP3    H213828   1.411   1.580   2.116 -0.4515 -0.4924 -1.2295
 4608TIP3   OH213829   3.180   0.056   1.877 -0.5841  0.1192  0.3790
 4608TIP3    H113830   3.247   0.106   1.924 -0.8228  0.6549  0.1540
 4608TIP3    H213831   3.125   0.122   1.836 -1.6195 -0.2928  1.0589
 4609TIP3   OH213832   0.127   4.844   3.131  0.0212  0.0698  0.3312
 4609TIP3    H113833   0.076   4.913   3.173  1.5934  1.7169 -0.3132
 4609TIP3    H213834   0.069   4.808   3.064 -0.8864  0.6428  0.7925
 4610TIP3   OH213835   2.295   3.209   2.089  0.3071  0.5753  0.0140
 4610TIP3    H113836   2.225   3.204   2.153 -0.5960  0.5909 -0.9457
 4610TIP3    H213837   2.323   3.118   2.076 -1.1193  0.2866 -1.2768
 4611TIP3   OH213838   0.072   3.963   0.641 -0.0365  0.2048  0.1390
 4611TIP3    H113839   0.102   3.994   0.727  1.3796 -0.2512 -0.1635
 4611TIP3    H213840  -0.001   4.020   0.620 -1.1531 -0.3725  2.1403
 4612TIP3   OH213841   3.333   1.006   1.936 -0.4771  0.3628 -0.2283
 4612TIP3    H113842   3.390   0.968   2.003 -1.7300 -0.5654  0.3436
 4612TIP3    H213843   3.384   1.000   1.855  0.9659  1.2890  0.5702
 4613TIP3   OH213844   5.307   1.516   3.757 -0.0024  0.0599 -0.2533
 4613TIP3    H113845   5.315   1.566   3.676  0.8818  0.9600  0.3568
 4613TIP3    H213846   5.269   1.578   3.819  1.7836  0.2702  0.7168
 4614TIP3   OH213847   6.253   0.833   1.992  0.5995  0.5495  0.3537
 4614TIP3    H113848   6.319   0.798   2.053  0.2869 -1.0524 -0.1615
 4614TIP3    H213849   6.301   0.848   1.911  0.8411  1.8580  0.7309
 4615TIP3   OH213850   2.584   1.983   3.866 -0.0502 -0.2324 -0.7036
 4615TIP3    H113851   2.674   2.015   3.861 -0.4760  1.5723  1.4173
 4615TIP3    H213852   2.588   1.910   3.927 -0.1770  0.6972  0.4508
 4616TIP3   OH213853   1.264   4.349   1.694  0.0909  0.5030  0.4892
 4616TIP3    H113854   1.352   4.383   1.679  1.4114 -2.1422  1.5244
 4616TIP3    H213855   1.218   4.364   1.612  1.9932  0.5915 -0.6199
 4617TIP3   OH213856   0.155   2.578   1.500 -0.1462 -0.4698 -0.7130
 4617TIP3    H113857   0.171   2.671   1.516 -1.0601 -0.2767 -0.8738
 4617TIP3    H213858   0.060   2.569   1.498 -0.0736 -1.3615 -0.9802
 4618TIP3   OH213859   5.459   3.028   4.356 -1.1030 -0.5084  0.2787
 4618TIP3    H113860   5.490   3.000   4.270 -1.0745 -3.4118  1.1178
 4618TIP3    H213861   5.370   3.061   4.341 -0.2034  1.4383 -1.1494
 4619TIP3   OH213862   2.330   5.111   0.301 -0.1064 -0.5157  0.0047
 4619TIP3    H113863   2.353   5.086   0.390 -3.0105  1.2919  1.4273
 4619TIP3    H213864   2.293   5.032   0.262  0.1621 -1.0532  0.8279
 4620TIP3   OH213865   1.472   5.593   1.535  0.3491  0.2914 -0.4383
 4620TIP3    H113866   1.431   5.672   1.499 -1.0464 -0.5562 -0.7847
 4620TIP3    H213867   1.404   5.551   1.586  0.5642 -1.4767 -1.5092
 4621TIP3   OH213868   4.377   1.613   0.114  0.0588 -0.2184  0.1895
 4621TIP3    H113869   4.327   1.635   0.036  2.0457 -0.9596 -1.3576
 4621TIP3    H213870   4.331   1.538   0.152 -0.8243  0.0333 -0.3648
 4622TIP3   OH213871   2.680   4.879   2.053 -0.0559 -0.0305 -0.3673
 4622TIP3    H113872   2.725   4.859   2.135 -0.8710 -0.5305 -0.0278
 4622TIP3    H213873   2.734   4.946   2.011  0.6339 -0.1341  0.3410
 4623TIP3   OH213874   4.792   1.386   4.124 -0.1564 -0.5013 -0.2122
 4623TIP3    H113875   4.865   1.438   4.091 -0.1392 -0.4964 -0.1669
 4623TIP3    H213876   4.833   1.309   4.163 -0.1530 -0.3582  0.0782
 4624TIP3   OH213877   2.540   5.459   5.084  0.1991  0.5594 -0.2199
 4624TIP3    H113878   2.533   5.364   5.077 -0.1029  0.5142  0.5738
 4624TIP3    H213879   2.544   5.476   5.178  2.4429  1.2038 -0.3861
 4625TIP3   OH213880   3.666   5.028   0.407 -0.1177 -0.5243 -0.2155
 4625TIP3    H113881   3.665   5.059   0.498 -1.2101  1.0131 -0.7267
 4625TIP3    H213882   3.756   4.996   0.395 -0.0976 -1.2736  1.5540
 4626TIP3   OH213883   3.190   4.084   0.208  0.0207 -0.8716  0.0961
 4626TIP3    H113884   3.225   3.998   0.231  0.7227 -0.3777  0.9487
 4626TIP3    H213885   3.181   4.081   0.113  2.5315 -1.0198 -0.2030
 4627TIP3   OH213886   4.209   3.481   2.589 -0.1001  0.6902  0.1944
 4627TIP3    H113887   4.245   3.505   2.675 -0.7692 -0.6061  0.8503
 4627TIP3    H213888   4.275   3.423   2.551 -1.1055 -1.0764  1.0779
 4628TIP3   OH213889   0.049   1.123   1.275 -0.2784 -0.2691 -0.1599
 4628TIP3    H113890  -0.041   1.150   1.295 -0.4908 -2.2809  1.9752
 4628TIP3    H213891   0.041   1.033   1.244  1.0045 -0.6042  0.4081
 4629TIP3   OH213892   5.831   2.745   3.329  0.0626 -0.2042  0.1210
 4629TIP3    H113893   5.823   2.828   3.280  0.0633 -0.8644 -1.0472
 4629TIP3    H213894   5.885   2.690   3.272 -0.7072 -1.3178  0.4492
 4630TIP3   OH213895   4.691   4.898   3.549 -1.1996  0.3575  0.1410
 4630TIP3    H113896   4.678   4.855   3.634 -0.4875  0.1299  0.1382
 4630TIP3    H213897   4.611   4.949   3.536 -1.1311  0.7676  1.1752
 4631TIP3   OH213898   1.592   0.525   0.860 -0.1782  0.1455 -0.2804
 4631TIP3    H113899   1.635   0.503   0.777  0.0032 -0.3915 -0.0500
 4631TIP3    H213900   1.658   0.574   0.909 -0.5317  1.0909 -0.7357
 4632TIP3   OH213901   4.572   2.339   3.517  0.0661 -0.2785  0.8230
 4632TIP3    H113902   4.640   2.360   3.580  0.1195  0.0176  0.6681
 4632TIP3    H213903   4.534   2.423   3.492 -0.7299 -0.4781  1.3180
 4633TIP3   OH213904   3.275   3.445   1.180  0.5954  0.0567  0.3467
 4633TIP3    H113905   3.229   3.523   1.210 -0.9159 -1.6803  2.9618
 4633TIP3    H213906   3.358   3.445   1.230  0.6279  0.0316  0.2929
 4634TIP3   OH213907   2.787   0.299   0.682  0.3098  0.0893 -0.0797
 4634TIP3    H113908   2.735   0.362   0.632 -0.7819 -0.5533  0.2090
 4634TIP3    H213909   2.754   0.305   0.771 -0.5628 -1.6198 -0.2473
 4635TIP3   OH213910   5.473   1.475   0.654  0.1736 -0.8216 -0.5623
 4635TIP3    H113911   5.390   1.519   0.633  1.1013 -0.3645 -3.8189
 4635TIP3    H213912   5.488   1.417   0.580  3.0598 -0.4436 -0.3803
 4636TIP3   OH213913   0.031   2.699   4.272 -0.1209 -0.0273 -0.2431
 4636TIP3    H113914   0.070   2.768   4.218  0.1904  0.2843  0.3683
 4636TIP3    H213915   0.102   2.635   4.283 -0.3480 -0.3503 -0.6410
 4637TIP3   OH213916   2.837   0.561   1.986  1.1116 -0.7142 -0.7996
 4637TIP3    H113917   2.826   0.644   2.033  2.1144 -1.8137  1.5460
 4637TIP3    H213918   2.763   0.508   2.014  0.8159 -0.8605 -1.8108
 4638TIP3   OH213919   3.268   0.709   3.284  0.2609 -0.2235  0.4747
 4638TIP3    H113920   3.243   0.634   3.229 -1.2182  0.0384  0.7664
 4638TIP3    H213921   3.189   0.730   3.334  0.9833  0.8527  1.1970
 4639TIP3   OH213922   5.565   3.746   3.642  0.2313  0.2705 -0.1944
 4639TIP3    H113923   5.513   3.719   3.718 -2.3869 -1.7252 -2.4912
 4639TIP3    H213924   5.607   3.665   3.611 -1.0115  0.3912 -2.4063
 4640TIP3   OH213925   5.178   5.764   1.386 -0.1860  0.1057  0.6293
 4640TIP3    H113926   5.109   5.775   1.321  0.8492  2.4112 -0.2170
 4640TIP3    H213927   5.183   5.670   1.401 -2.2711 -0.2604 -0.6099
 4641TIP3   OH213928   2.815   1.448   3.433  0.1718 -0.3562  0.3135
 4641TIP3    H113929   2.827   1.407   3.519  0.8114  0.3043  0.5452
 4641TIP3    H213930   2.824   1.542   3.450  0.5307 -0.2376 -0.5210
 4642TIP3   OH213931   4.480   2.287   0.499  0.6158 -0.2591 -0.2933
 4642TIP3    H113932   4.450   2.338   0.423  1.2080  1.5432  0.6181
 4642TIP3    H213933   4.401   2.242   0.529  0.0364  0.1904 -1.0807
 4643TIP3   OH213934   3.300   1.516   0.885 -0.2693  0.0672  0.1946
 4643TIP3    H113935   3.236   1.533   0.816 -0.4010  1.9865  0.7319
 4643TIP3    H213936   3.258   1.449   0.940 -0.8125 -0.3684 -0.7392
 4644TIP3   OH213937   3.070   4.337   1.618  0.1356 -0.1179 -0.1722
 4644TIP3    H113938   3.055   4.318   1.710  1.6318 -0.5432  0.0138
 4644TIP3    H213939   3.073   4.252   1.575  0.1125  0.0375 -0.4892
 4645TIP3   OH213940   4.039   3.108   0.562  0.5089  1.1853  0.0729
 4645TIP3    H113941   3.945   3.096   0.550  0.6222  0.2789  0.0083
 4645TIP3    H213942   4.050   3.118   0.657  0.2137  2.6799 -0.0300
 4646TIP3   OH213943   5.706   2.784   0.397  0.1999 -0.1025  0.3118
 4646TIP3    H113944   5.698   2.739   0.481 -2.0911  0.1736  0.3061
 4646TIP3    H213945   5.736   2.872   0.421  1.4241 -0.5841  0.6304
 4647TIP3   OH213946   0.037   3.826   4.590  0.1434 -0.1885 -0.7428
 4647TIP3    H113947  -0.020   3.811   4.666 -0.1239 -0.9849 -1.1023
 4647TIP3    H213948   0.107   3.883   4.625  0.1186 -0.6780  0.1443
 4648TIP3   OH213949   6.321   1.561   2.525 -0.2874  0.4331  0.7242
 4648TIP3    H113950   6.280   1.632   2.476 -1.3050 -3.0982 -4.3859
 4648TIP3    H213951   6.250   1.499   2.543  1.2467 -1.6276  0.1056
 4649TIP3   OH213952   2.902   4.795   0.682 -0.3556  0.0216  0.2384
 4649TIP3    H113953   2.851   4.780   0.762 -0.8769  2.0580  0.3557
 4649TIP3    H213954   2.845   4.766   0.611 -1.3168  1.3580  0.4325
 4650TIP3   OH213955   4.053   2.962   1.308  0.0083  0.4731  0.4486
 4650TIP3    H113956   3.980   3.014   1.275  1.5347  1.3931 -1.7435
 4650TIP3    H213957   4.082   3.008   1.387 -2.9084 -1.0306  2.5810
 4651TIP3   OH213958   1.906   3.423   3.145 -0.5854 -0.3522  0.0752
 4651TIP3    H113959   1.933   3.477   3.070 -0.1474 -0.5638  0.0777
 4651TIP3    H213960   1.916   3.333   3.114  0.6509 -0.4632  0.7452
 4652TIP3   OH213961   2.926   1.649   4.827 -0.0851 -0.3390 -0.2661
 4652TIP3    H113962   2.955   1.571   4.874 -1.1062 -1.3006 -1.1672
 4652TIP3    H213963   2.865   1.692   4.886  0.3196 -0.3274  0.1503
 4653TIP3   OH213964   0.937   2.460   1.187 -0.0422 -0.5915 -0.3227
 4653TIP3    H113965   1.024   2.421   1.180 -0.7656 -2.0473 -1.9234
 4653TIP3    H213966   0.940   2.537   1.130  0.3233 -0.3838 -0.0232
 4654TIP3   OH213967   1.466   1.125   4.673  0.1897 -0.3069  0.1121
 4654TIP3    H113968   1.382   1.164   4.649 -0.2559 -1.0123  0.5068
 4654TIP3    H213969   1.529   1.166   4.614 -0.3926  0.4017 -0.0301
 4655TIP3   OH213970   0.849   3.817   1.152 -0.3785  0.5809 -0.3700
 4655TIP3    H113971   0.927   3.762   1.158 -0.0969  0.9133 -0.8226
 4655TIP3    H213972   0.809   3.812   1.239  0.9552  1.5618  0.3452
 4656TIP3   OH213973   5.390   1.171   0.228  0.0669 -0.0632 -0.0495
 4656TIP3    H113974   5.425   1.095   0.181 -0.9536 -0.0630 -0.8446
 4656TIP3    H213975   5.297   1.153   0.237  0.2586 -0.1476  2.1919
 4657TIP3   OH213976   2.643   0.398   3.990 -0.4610 -0.4215 -0.1114
 4657TIP3    H113977   2.676   0.431   4.073 -0.5379 -1.8598  0.5152
 4657TIP3    H213978   2.549   0.417   3.992 -0.6195 -1.1996  0.5271
 4658TIP3   OH213979   0.633   3.125   0.062 -0.6082  0.0090  0.2678
 4658TIP3    H113980   0.697   3.194   0.077  0.0169 -0.6847  0.8640
 4658TIP3    H213981   0.678   3.044   0.085 -1.4473 -0.5727 -0.0521
 4659TIP3   OH213982   0.829   1.707   4.900  0.3086  0.0179 -0.4384
 4659TIP3    H113983   0.877   1.630   4.930  0.4491  0.3856  0.2981
 4659TIP3    H213984   0.874   1.734   4.820 -0.1297 -1.0306 -1.0607
 4660TIP3   OH213985   2.252   3.537   0.242  0.1299  0.5136  0.3585
 4660TIP3    H113986   2.286   3.447   0.243 -0.2038  0.3906  1.6165
 4660TIP3    H213987   2.243   3.561   0.334 -2.3407  0.8556  0.0891
 4661TIP3   OH213988   4.900   5.042   0.235  0.2795  0.1770  0.3646
 4661TIP3    H113989   4.910   4.969   0.297 -0.2029  0.2356  0.5161
 4661TIP3    H213990   4.961   5.109   0.267  0.4942 -0.0395  0.4070
 4662TIP3   OH213991   3.923   5.066   4.441 -0.3189 -0.3128  0.5464
 4662TIP3    H113992   3.844   5.115   4.461 -0.2481 -1.2567  3.4952
 4662TIP3    H213993   3.904   4.977   4.470  1.4480 -0.7904  0.3231
 4663TIP3   OH213994   0.676   0.996   4.442  0.3615 -0.0713 -0.0053
 4663TIP3    H113995   0.719   1.063   4.496 -0.0189  0.2107 -0.0495
 4663TIP3    H213996   0.584   1.001   4.468  0.5648 -1.6746  1.1600
 4664TIP3   OH213997   5.471   1.925   4.630  0.5286  0.0906  0.2128
 4664TIP3    H113998   5.492   1.944   4.721  0.8287  1.7498 -0.1566
 4664TIP3    H213999   5.444   1.833   4.629 -3.5302  0.9835  2.6982
 4665TIP3   OH214000   3.818   0.312   4.742  0.1222 -0.1938  0.5615
 4665TIP3    H114001   3.759   0.388   4.744 -0.7043 -0.8405  1.3371
 4665TIP3    H214002   3.794   0.266   4.662  0.1531 -0.0105  0.4453
 4666TIP3   OH214003   5.484   0.187   1.162  0.1798  0.4489 -0.2520
 4666TIP3    H114004   5.516   0.158   1.248  0.2476 -0.2718 -0.5179
 4666TIP3    H214005   5.546   0.253   1.134  1.6511 -1.1463 -0.9031
 4667TIP3   OH214006   0.485   3.827   3.207 -0.0231  0.4713  0.2505
 4667TIP3    H114007   0.459   3.810   3.116  1.0874  0.2435 -0.0315
 4667TIP3    H214008   0.575   3.858   3.201 -0.2031  1.2312  1.2172
 4668TIP3   OH214009   2.011   5.232   2.758  0.0609 -0.2141  0.3561
 4668TIP3    H114010   1.922   5.257   2.783 -0.8600 -4.2107  1.9827
 4668TIP3    H214011   2.068   5.279   2.818 -1.2167  0.2688  1.2220
 4669TIP3   OH214012   1.759   4.492   2.854 -0.0626 -0.5556 -0.6387
 4669TIP3    H114013   1.764   4.401   2.883  0.1822 -0.4902 -0.4756
 4669TIP3    H214014   1.794   4.491   2.765  1.7042 -0.3215  0.0146
 4670TIP3   OH214015   3.567   5.293   5.003 -0.4569  0.0951 -0.7032
 4670TIP3    H114016   3.623   5.310   5.080 -1.3357 -0.2441  0.0194
 4670TIP3    H214017   3.628   5.261   4.936  0.5452  1.6720 -0.6096
 4671TIP3   OH214018   3.999   0.589   1.706  0.8412  0.9530  0.0742
 4671TIP3    H114019   4.060   0.573   1.634  1.9265 -0.1721  1.1955
 4671TIP3    H214020   4.048   0.568   1.785 -1.0079 -0.0111  1.0418
 4672TIP3   OH214021   4.367   3.628   4.872  0.2210  0.1386 -0.0244
 4672TIP3    H114022   4.329   3.541   4.864  1.1062 -0.1842 -0.9280
 4672TIP3    H214023   4.390   3.653   4.782  3.1241 -0.1731  0.5293
 4673TIP3   OH214024   1.763   4.038   0.872  0.0548 -0.0430  0.6196
 4673TIP3    H114025   1.690   4.090   0.906 -0.4930  0.1647 -0.8205
 4673TIP3    H214026   1.724   3.953   0.852  0.3132 -0.0935  0.3243
 4674TIP3   OH214027   5.241   5.827   4.363  0.2678  0.3614 -0.0144
 4674TIP3    H114028   5.259   5.774   4.285 -2.3015  0.3743 -0.7225
 4674TIP3    H214029   5.271   5.773   4.436  0.3853 -0.7875 -0.8851
 4675TIP3   OH214030   3.702   3.805   4.879  0.0611 -0.2703 -0.2916
 4675TIP3    H114031   3.731   3.889   4.844 -2.5935  1.4607  1.3292
 4675TIP3    H214032   3.652   3.766   4.808 -0.4489  0.5152 -0.3730
 4676TIP3   OH214033   3.277   3.306   4.072  0.2262 -0.4217  0.1650
 4676TIP3    H114034   3.206   3.368   4.087 -0.5570 -1.8319  2.9669
 4676TIP3    H214035   3.233   3.223   4.052  0.8845 -1.5234  2.7673
 4677TIP3   OH214036   3.814   0.067   2.090 -0.4079  0.2025 -0.4045
 4677TIP3    H114037   3.847   0.111   2.168 -1.2652  0.0513  0.0531
 4677TIP3    H214038   3.727   0.106   2.075 -0.3730  0.0293 -1.1133
 4678TIP3   OH214039   5.773   5.888   2.277 -0.3753  0.0634 -0.0492
 4678TIP3    H114040   5.732   5.954   2.333 -2.2730 -0.0530 -1.2100
 4678TIP3    H214041   5.756   5.805   2.322 -0.0737  0.1560  0.2354
 4679TIP3   OH214042   5.581   2.067   0.948  0.0640 -0.3722  0.4711
 4679TIP3    H114043   5.565   2.043   0.857  0.4288  1.6232 -0.1758
 4679TIP3    H214044   5.498   2.049   0.993 -0.5626 -0.1206 -0.5576
 4680TIP3   OH214045   6.163   3.684   3.277  0.3114  0.0951 -0.0550
 4680TIP3    H114046   6.081   3.646   3.246 -0.3378  1.3762  0.0391
 4680TIP3    H214047   6.220   3.608   3.293  0.3988 -0.7165 -3.4472
 4681TIP3   OH214048   2.890   0.998   0.890  0.5367 -0.0286  0.2705
 4681TIP3    H114049   2.863   0.909   0.912  0.8682 -0.3509 -0.5878
 4681TIP3    H214050   2.812   1.037   0.851  0.2062  0.2708  1.1858
 4682TIP3   OH214051   2.930   2.119   1.368  0.1823  0.5935  0.0080
 4682TIP3    H114052   2.905   2.207   1.339 -0.8350  0.0548 -0.8233
 4682TIP3    H214053   2.964   2.076   1.290 -2.3311 -0.7796 -0.4675
 4683TIP3   OH214054   2.595   1.978   1.164  0.3237  0.4401  0.0116
 4683TIP3    H114055   2.681   2.019   1.167  1.2423 -1.3719  0.3260
 4683TIP3    H214056   2.582   1.957   1.071 -0.3046  1.7132 -0.2003
 4684TIP3   OH214057   1.413   2.145   4.265  0.7699 -0.1532  0.8377
 4684TIP3    H114058   1.487   2.136   4.325  1.2123  0.4796  0.4041
 4684TIP3    H214059   1.430   2.228   4.219  1.7651 -1.7914 -1.9682
 4685TIP3   OH214060   5.880   1.633   4.104  0.1249  0.2360 -0.0709
 4685TIP3    H114061   5.884   1.539   4.086  0.0055 -0.0833  1.4535
 4685TIP3    H214062   5.972   1.660   4.108  0.4727 -0.8365  4.1405
 4686TIP3   OH214063   3.157   5.904   0.598 -0.2709  0.4137 -0.4476
 4686TIP3    H114064   3.166   5.991   0.637 -1.0515 -0.2192  1.2508
 4686TIP3    H214065   3.065   5.901   0.569  0.4534  1.1157 -3.0735
 4687TIP3   OH214066   0.354   5.072   3.612 -0.0340  0.1033 -0.1853
 4687TIP3    H114067   0.296   5.141   3.579 -1.1875  0.7482  2.8441
 4687TIP3    H214068   0.304   4.991   3.599 -0.3328  0.2998 -0.2860
 4688TIP3   OH214069   0.021   3.773   3.505 -0.1941 -0.4530  0.6471
 4688TIP3    H114070   0.034   3.710   3.575  1.0634  0.5872  1.3893
 4688TIP3    H214071   0.036   3.724   3.424  3.4847 -0.5819  1.2736
 4689TIP3   OH214072   2.798   5.644   3.581  0.0277 -0.3637  0.2833
 4689TIP3    H114073   2.738   5.630   3.507  0.2383 -0.6785  0.1724
 4689TIP3    H214074   2.863   5.706   3.547 -0.5990  0.4924  0.6073
 4690TIP3   OH214075   5.208   5.708   1.035 -0.9964  0.3681  0.3451
 4690TIP3    H114076   5.147   5.657   1.088  0.4848  1.1453  2.9823
 4690TIP3    H214077   5.177   5.799   1.043 -0.0665  0.6461  0.9520
 4691TIP3   OH214078   0.862   5.761   1.145  0.0536 -0.1572 -0.5059
 4691TIP3    H114079   0.876   5.687   1.084  0.4711 -1.4304  1.0560
 4691TIP3    H214080   0.769   5.757   1.167  0.2754 -0.9252  0.3839
 4692TIP3   OH214081   4.398   0.057   1.910 -0.6569 -0.4499 -0.3825
 4692TIP3    H114082   4.363   0.006   1.983  0.4893  1.5813  1.7204
 4692TIP3    H214083   4.490   0.031   1.905  0.5984  2.7827  2.2646
 4693TIP3   OH214084   0.386   1.309   1.783 -0.3846  0.1783  0.1954
 4693TIP3    H114085   0.360   1.283   1.871 -0.7031  1.5030  0.5068
 4693TIP3    H214086   0.313   1.360   1.749 -0.2665 -0.3046 -0.8538
 4694TIP3   OH214087   4.748   0.912   4.089  0.4426 -0.5829  0.4531
 4694TIP3    H114088   4.732   0.835   4.035  0.7053  1.2579 -2.5316
 4694TIP3    H214089   4.665   0.928   4.135 -0.6826 -0.8809 -1.3856
 4695TIP3   OH214090   2.127   4.159   3.198 -0.2489  0.0752 -0.0029
 4695TIP3    H114091   2.181   4.196   3.128 -2.0147  1.2842 -0.7864
 4695TIP3    H214092   2.068   4.098   3.154 -0.2470 -0.4503  0.6930
 4696TIP3   OH214093   3.328   3.855   0.233 -0.0598  0.4231 -0.3355
 4696TIP3    H114094   3.382   3.812   0.299  0.2634 -0.7795 -1.3569
 4696TIP3    H214095   3.293   3.784   0.180  0.5365  1.4072 -2.1269
 4697TIP3   OH214096   5.936   3.876   3.354  0.0615 -0.3466  0.0239
 4697TIP3    H114097   6.020   3.894   3.397 -0.5365 -0.7760  1.4350
 4697TIP3    H214098   5.898   3.804   3.405 -0.7927 -0.7350 -1.1107
 4698TIP3   OH214099   1.194   4.184   0.483  0.2920  0.3412 -0.4779
 4698TIP3    H114100   1.238   4.099   0.484 -0.3382  0.0128 -0.0854
 4698TIP3    H214101   1.201   4.213   0.393  0.1916 -0.2946 -0.6983
 4699TIP3   OH214102   6.328   6.000   1.288  0.3016  0.2325 -0.3758
 4699TIP3    H114103   6.422   5.986   1.278  0.1850 -0.2200 -0.9653
 4699TIP3    H214104   6.297   5.923   1.336 -0.0287 -0.5772 -1.8015
 4700TIP3   OH214105   3.802   1.242   2.301 -0.6491  0.0507 -0.2303
 4700TIP3    H114106   3.858   1.255   2.378  0.6529 -0.4682 -1.0459
 4700TIP3    H214107   3.742   1.171   2.326 -0.3856  0.0425  0.3844
 4701TIP3   OH214108   3.309   5.294   0.332  0.1407 -0.4966 -0.2842
 4701TIP3    H114109   3.314   5.369   0.272 -0.5963  0.4524  0.8122
 4701TIP3    H214110   3.371   5.314   0.401 -0.9878 -0.2740  0.6861
 4702TIP3   OH214111   2.724   4.305   2.511 -0.5260  0.0362 -0.0552
 4702TIP3    H114112   2.646   4.330   2.561  0.5800  1.9767  0.8427
 4702TIP3    H214113   2.741   4.381   2.455 -0.9149 -1.5231 -2.4359
 4703TIP3   OH214114   1.911   1.266   1.620 -0.4356 -0.0670 -0.1592
 4703TIP3    H114115   1.918   1.339   1.682  1.6126 -0.9236  0.6973
 4703TIP3    H214116   1.817   1.252   1.610 -0.8929  2.4874 -0.1415
 4704TIP3   OH214117   0.465   3.324   4.318 -0.0006  0.5982  0.1100
 4704TIP3    H114118   0.539   3.297   4.263 -1.3336 -0.3464 -1.3043
 4704TIP3    H214119   0.470   3.420   4.320  0.7960  0.5855 -0.6432
 4705TIP3   OH214120   1.538   5.340   1.110  0.0665 -0.1655 -0.1583
 4705TIP3    H114121   1.554   5.296   1.194  2.5601  1.2424  0.1821
 4705TIP3    H214122   1.467   5.401   1.128  1.0904  0.6782  1.1877
 4706TIP3   OH214123   1.085   3.264   0.660  0.1531 -0.8379 -0.0729
 4706TIP3    H114124   1.074   3.206   0.585  1.9622 -2.1197  0.5968
 4706TIP3    H214125   1.145   3.333   0.629 -0.9654 -0.0084 -0.4714
 4707TIP3   OH214126   1.592   3.461   0.047 -0.1325  0.7350  0.3318
 4707TIP3    H114127   1.685   3.465   0.070 -0.0459  0.5938  0.0152
 4707TIP3    H214128   1.582   3.524  -0.025  0.8439 -2.8660 -3.3338
 4708TIP3   OH214129   0.504   1.706   3.087 -0.0981  0.0510 -0.7819
 4708TIP3    H114130   0.419   1.663   3.101 -1.2483  2.3452 -0.3161
 4708TIP3    H214131   0.519   1.757   3.166  1.8417 -0.4392 -0.7875
 4709TIP3   OH214132   0.293   1.696   3.526 -0.4204  0.7912  0.7323
 4709TIP3    H114133   0.255   1.664   3.444  2.1104  0.7375 -0.4993
 4709TIP3    H214134   0.322   1.617   3.571  0.7199  0.9834  0.3495
 4710TIP3   OH214135   2.427   5.089   0.845 -0.1104 -0.0720  0.0633
 4710TIP3    H114136   2.450   5.064   0.756  0.8025 -1.4956  0.6596
 4710TIP3    H214137   2.478   5.168   0.862  0.0360 -0.0356 -0.5265
 4711TIP3   OH214138   0.561   5.400   4.188  0.1270 -0.0474  0.1059
 4711TIP3    H114139   0.525   5.467   4.130 -0.3897 -1.1268 -0.8657
 4711TIP3    H214140   0.499   5.327   4.182 -0.0507 -0.1491  2.1813
 4712TIP3   OH214141   1.963   2.750   4.752  0.2073 -0.1149 -0.0167
 4712TIP3    H114142   1.964   2.737   4.657 -0.2744  0.2389 -0.0747
 4712TIP3    H214143   1.957   2.661   4.788 -0.1003 -0.2264 -0.3334
 4713TIP3   OH214144   2.943   1.823   1.725  0.8303 -0.0859 -0.3274
 4713TIP3    H114145   2.854   1.789   1.714  1.0475 -1.1202  0.9100
 4713TIP3    H214146   2.998   1.762   1.674  0.9149  0.1471 -0.5183
 4714TIP3   OH214147   3.390   3.836   2.036  0.3197  0.0932 -0.0322
 4714TIP3    H114148   3.426   3.911   2.084 -1.4062  0.3108  1.0069
 4714TIP3    H214149   3.303   3.865   2.008 -0.0730 -1.2476 -0.2741
 4715TIP3   OH214150   1.404   3.319   3.377  0.0811 -0.2038  0.3371
 4715TIP3    H114151   1.499   3.319   3.388  0.1488  1.4442 -0.0410
 4715TIP3    H214152   1.371   3.362   3.456 -0.3094 -0.0925  0.1144
 4716TIP3   OH214153   3.735   2.984   2.284 -1.1366 -0.1320  0.6111
 4716TIP3    H114154   3.791   3.053   2.320  0.9610 -1.6400  0.4075
 4716TIP3    H214155   3.717   2.927   2.359 -0.0464 -1.1443  0.1316
 4717TIP3   OH214156   2.794   3.124   1.716 -0.1441 -0.2918 -0.1696
 4717TIP3    H114157   2.821   3.141   1.625 -2.6592  0.4306 -0.8638
 4717TIP3    H214158   2.851   3.052   1.744  2.9953  1.6376 -1.1008
 4718TIP3   OH214159   2.016   5.833   1.000 -0.3497  0.8296 -0.1927
 4718TIP3    H114160   1.963   5.904   1.036 -1.3351 -0.5357  1.2265
 4718TIP3    H214161   2.101   5.842   1.044 -0.3706  1.2995 -0.2420
 4719TIP3   OH214162   4.836   3.693   0.231  0.7207  0.2640  0.5551
 4719TIP3    H114163   4.795   3.626   0.176  1.2798  0.2114  0.1951
 4719TIP3    H214164   4.873   3.755   0.169  0.5220  0.7192  0.8847
 4720TIP3   OH214165   0.675   4.805   4.352 -0.1443 -0.1029  0.4409
 4720TIP3    H114166   0.732   4.754   4.294 -0.1061  0.6884 -0.2321
 4720TIP3    H214167   0.735   4.843   4.417 -0.1272 -0.6018  0.7244
 4721TIP3   OH214168   3.508   5.469   1.949  0.7305  0.9863  0.1588
 4721TIP3    H114169   3.483   5.424   2.030  1.1754  0.6137  0.0979
 4721TIP3    H214170   3.431   5.463   1.893  1.2568 -1.1084 -0.4439
 4722TIP3   OH214171   6.142   0.595   0.152 -0.0734 -0.2912  0.4268
 4722TIP3    H114172   6.147   0.622   0.061  0.0502 -1.3440  0.1041
 4722TIP3    H214173   6.106   0.671   0.198 -0.5634  0.0973 -0.5657
 4723TIP3   OH214174   1.104   4.343   4.480 -0.3520  0.2288 -0.5132
 4723TIP3    H114175   1.186   4.382   4.513  0.3028 -0.9261 -0.7265
 4723TIP3    H214176   1.038   4.410   4.496  0.4448  0.7730  0.6419
 4724TIP3   OH214177   3.418   1.578   3.375 -0.6111  0.4848 -0.1160
 4724TIP3    H114178   3.382   1.666   3.364 -2.2515 -0.4327 -3.1158
 4724TIP3    H214179   3.504   1.582   3.333 -0.5467  0.7242  0.0367
 4725TIP3   OH214180   6.145   5.260   0.282  0.2493  0.0675  0.4969
 4725TIP3    H114181   6.229   5.280   0.325  0.7164  0.1858 -0.4500
 4725TIP3    H214182   6.170   5.222   0.198 -0.6547 -0.7804  0.5975
 4726TIP3   OH214183   5.537   2.608   0.021  0.1965 -0.1630 -0.4098
 4726TIP3    H114184   5.549   2.700   0.047  0.6050 -0.0600 -0.9332
 4726TIP3    H214185   5.626   2.572   0.019 -0.0412 -0.8548  0.7717
 4727TIP3   OH214186   4.206   4.372   0.793 -0.3422 -0.7493  0.3210
 4727TIP3    H114187   4.203   4.467   0.781 -2.1857 -0.4865  2.3398
 4727TIP3    H214188   4.183   4.336   0.707 -0.9123  0.6589 -0.1399
 4728TIP3   OH214189   4.312   1.744   3.499 -0.4293  0.0312 -0.3422
 4728TIP3    H114190   4.332   1.657   3.464  1.0628  0.1978  0.0404
 4728TIP3    H214191   4.277   1.793   3.424  1.4746 -0.0163 -1.3157
 4729TIP3   OH214192   0.904   2.470   5.097  0.1078 -0.1532  0.4496
 4729TIP3    H114193   0.824   2.522   5.094  0.1083 -0.1694  0.0252
 4729TIP3    H214194   0.874   2.379   5.088  0.0488 -0.2999  1.8645
 4730TIP3   OH214195   0.339   3.943   2.532 -0.6215  0.2767 -0.2276
 4730TIP3    H114196   0.318   3.853   2.507 -1.1807  0.7236 -1.4436
 4730TIP3    H214197   0.259   3.993   2.513  0.2163  1.3222 -1.2060
 4731TIP3   OH214198   2.425   1.140   1.087  0.3901 -0.0667  0.1377
 4731TIP3    H114199   2.425   1.046   1.072  1.7694 -0.0695  0.0329
 4731TIP3    H214200   2.466   1.177   1.008 -0.8246  0.7004 -0.1676
 4732TIP3   OH214201   3.370   4.772   3.982 -0.4870 -0.5508 -0.4740
 4732TIP3    H114202   3.308   4.818   3.926  0.3665 -0.0835 -1.0602
 4732TIP3    H214203   3.407   4.703   3.927 -2.0059 -2.2193  0.4955
 4733TIP3   OH214204   6.159   5.959   3.373 -0.1420 -0.2929 -0.1460
 4733TIP3    H114205   6.171   5.894   3.443 -0.4264 -1.3813 -1.0851
 4733TIP3    H214206   6.146   5.907   3.294  1.9687  0.8991 -1.3639
 4734TIP3   OH214207   1.590   4.492   3.538 -0.1170 -0.3550 -0.5047
 4734TIP3    H114208   1.527   4.504   3.466  0.1593 -1.6287 -0.9884
 4734TIP3    H214209   1.676   4.497   3.496  0.2444  2.6288  0.3340
 4735TIP3   OH214210   2.073   4.482   2.714  0.8327  0.1242 -0.4278
 4735TIP3    H114211   2.060   4.408   2.774  1.2257  0.4218  0.0221
 4735TIP3    H214212   2.012   4.464   2.642  0.3405 -0.2236  0.0632
 4736TIP3   OH214213   5.336   3.062   1.133  0.6178  0.4602  0.3403
 4736TIP3    H114214   5.284   2.982   1.123  0.6640  0.2909  1.3051
 4736TIP3    H214215   5.270   3.131   1.145  0.5656  0.6502 -0.9301
 4737TIP3   OH214216   0.765   2.580   3.308  0.4735  0.4580  0.0132
 4737TIP3    H114217   0.753   2.491   3.339  0.7602 -0.2766 -1.8139
 4737TIP3    H214218   0.817   2.570   3.228  0.5550  2.2662 -0.2005
 4738TIP3   OH214219   5.387   4.221   1.932 -0.0106 -0.1670  0.0851
 4738TIP3    H114220   5.393   4.288   1.865 -0.2624 -0.5530 -0.3309
 4738TIP3    H214221   5.293   4.204   1.942 -0.0822  0.9107  1.5792
 4739TIP3   OH214222   5.919   4.511   4.686  0.4070 -0.5541 -0.0827
 4739TIP3    H114223   5.938   4.501   4.593 -1.7840 -1.6938 -0.4565
 4739TIP3    H214224   5.858   4.585   4.691 -0.0812 -0.9775  0.3532
 4740TIP3   OH214225   0.506   2.691   4.048 -0.4063  0.6186  0.6591
 4740TIP3    H114226   0.492   2.763   3.986 -0.3923  0.6615  0.7053
 4740TIP3    H214227   0.531   2.617   3.993 -1.9228  0.2145  0.4584
 4741TIP3   OH214228   0.042   3.419   2.567  0.0637  0.6659  0.8395
 4741TIP3    H114229   0.028   3.428   2.661  0.1737  2.2634  0.7364
 4741TIP3    H214230   0.054   3.325   2.553 -0.2613  0.3694  2.3645
 4742TIP3   OH214231   4.082   2.750   3.611  0.4216 -0.2419  0.0170
 4742TIP3    H114232   4.136   2.673   3.628 -0.7345 -0.7354  1.7492
 4742TIP3    H214233   4.134   2.804   3.552  3.2277 -0.2345  2.3038
 4743TIP3   OH214234   1.305   1.352   4.900  0.0302 -0.0681  0.0801
 4743TIP3    H114235   1.376   1.381   4.843  1.4510  0.1612  1.8780
 4743TIP3    H214236   1.264   1.279   4.853  0.7946  0.4604 -1.4483
 4744TIP3   OH214237   3.257   1.012   5.063 -0.0134  0.3263  0.0396
 4744TIP3    H114238   3.229   1.025   5.154 -1.5126  0.0594 -0.3498
 4744TIP3    H214239   3.312   1.088   5.043 -0.5493  0.9372  0.8296
 4745TIP3   OH214240   4.417   3.234   2.939 -0.5124  0.1971  0.4309
 4745TIP3    H114241   4.403   3.283   3.020 -0.1076  1.2454 -0.1123
 4745TIP3    H214242   4.328   3.219   2.906 -0.7098 -0.6897  1.3082
 4746TIP3   OH214243   0.329   0.032   3.263 -0.5149 -0.4141 -0.1547
 4746TIP3    H114244   0.283   0.078   3.332  0.5041 -0.7857  0.7955
 4746TIP3    H214245   0.364   0.101   3.207  0.8114 -0.0231  1.1291
 4747TIP3   OH214246   2.999   1.174   4.970 -0.0652 -0.4976  0.2099
 4747TIP3    H114247   3.079   1.121   4.981  1.9645  2.0024 -1.3337
 4747TIP3    H214248   2.960   1.143   4.888 -0.2282 -1.1825  0.5436
 4748TIP3   OH214249   3.439   2.452   1.012  0.3711 -0.1713  0.4580
 4748TIP3    H114250   3.414   2.391   0.942 -0.7293  0.2362  0.4742
 4748TIP3    H214251   3.375   2.523   1.006 -0.8015 -0.9071  2.8836
 4749TIP3   OH214252   4.075   4.653   0.237 -0.2775 -0.6241  0.0496
 4749TIP3    H114253   3.984   4.684   0.242 -0.6738 -1.6922 -0.2329
 4749TIP3    H214254   4.094   4.621   0.325  0.3492  0.9292  0.5196
 4750TIP3   OH214255   0.454   0.957   1.393 -0.0548 -0.0847 -0.5723
 4750TIP3    H114256   0.473   1.027   1.455 -1.7592  0.6729 -0.8333
 4750TIP3    H214257   0.417   1.002   1.317 -0.4016 -1.2028 -1.0898
 4751TIP3   OH214258   4.186   3.344   4.559  0.5263  0.2274  0.0279
 4751TIP3    H114259   4.148   3.432   4.559  2.3023  1.0375  0.5297
 4751TIP3    H214260   4.196   3.322   4.651 -0.3173 -0.7128 -0.0926
 4752TIP3   OH214261   1.916   3.675   1.196  0.1304 -0.0414  0.0432
 4752TIP3    H114262   1.968   3.625   1.132  0.5674  0.7259 -0.2159
 4752TIP3    H214263   1.907   3.616   1.271  0.4883 -0.5733 -0.3248
 4753TIP3   OH214264   2.623   5.912   3.989  0.2170  0.1054  0.5993
 4753TIP3    H114265   2.651   5.934   4.078 -1.8514 -1.2668  1.6831
 4753TIP3    H214266   2.623   5.817   3.986  0.7502  0.1238 -1.0806
 4754TIP3   OH214267   5.827   4.528   2.043  0.1069  0.2084 -0.3370
 4754TIP3    H114268   5.762   4.596   2.059  0.9073  0.7971  0.5470
 4754TIP3    H214269   5.909   4.576   2.028  0.2918 -0.5002 -1.8147
 4755TIP3   OH214270   2.383   0.835   0.290  0.8162 -0.0283 -0.6640
 4755TIP3    H114271   2.328   0.763   0.322 -0.1201  0.9495 -0.0059
 4755TIP3    H214272   2.426   0.868   0.369  1.6595 -0.2096 -1.0451
 4756TIP3   OH214273   0.628   4.226   5.102  0.0173 -0.3903 -0.1350
 4756TIP3    H114274   0.583   4.204   5.020  0.4809  1.7835 -1.0418
 4756TIP3    H214275   0.575   4.296   5.141 -0.2624 -1.4673  1.5337
 4757TIP3   OH214276   2.246   4.846   0.221 -0.3815 -0.2588  0.3464
 4757TIP3    H114277   2.269   4.832   0.313  2.2596  0.2206 -0.1500
 4757TIP3    H214278   2.239   4.757   0.185  0.5349 -0.4516  0.6067
 4758TIP3   OH214279   4.662   3.201   3.277 -0.6543  0.5616 -0.1004
 4758TIP3    H114280   4.585   3.235   3.231  0.2072  0.0593 -2.0417
 4758TIP3    H214281   4.636   3.113   3.305 -0.7503  0.3229 -0.9132
 4759TIP3   OH214282   3.119   4.446   0.315 -0.2214  0.0360 -0.1248
 4759TIP3    H114283   3.196   4.396   0.288 -0.2348  0.1793 -0.4380
 4759TIP3    H214284   3.153   4.529   0.346 -0.3280  0.6710 -1.6111
 4760TIP3   OH214285   1.947   4.687   4.186  0.1418  0.1236 -0.2892
 4760TIP3    H114286   1.872   4.649   4.140  0.1039 -0.0922 -0.0497
 4760TIP3    H214287   1.911   4.764   4.231  0.2531  0.5491 -0.9098
 4761TIP3   OH214288   1.492   1.977   5.142 -0.1250 -0.0047 -0.0614
 4761TIP3    H114289   1.526   1.977   5.053 -1.4519  0.9041 -0.6054
 4761TIP3    H214290   1.568   1.963   5.198  0.8475  0.2672 -1.2957
 4762TIP3   OH214291   2.699   3.038   3.586  0.5768  0.9373 -0.3300
 4762TIP3    H114292   2.698   2.953   3.541  1.1820  1.2025 -0.8606
 4762TIP3    H214293   2.765   3.027   3.654 -0.2015  0.5996  0.3868
 4763TIP3   OH214294   2.555   4.009   0.122  0.1365 -0.3129 -0.1628
 4763TIP3    H114295   2.650   4.016   0.131  0.0443  0.4439  0.3202
 4763TIP3    H214296   2.521   4.047   0.203 -0.5372 -2.8381  0.8583
 4764TIP3   OH214297   4.196   2.804   2.625  0.0232 -0.4723 -0.3781
 4764TIP3    H114298   4.248   2.778   2.701 -0.2395 -3.3743 -1.0833
 4764TIP3    H214299   4.175   2.896   2.641  1.5026 -0.4774  2.1421
 4765TIP3   OH214300   2.323   3.894   2.936 -0.4333  0.2711  0.1276
 4765TIP3    H114301   2.408   3.848   2.936 -0.8382 -0.5584 -1.4329
 4765TIP3    H214302   2.298   3.898   3.028  0.8178 -0.3796  0.5275
 4766TIP3   OH214303   5.295   5.817   5.123  0.4990 -0.1445 -0.1122
 4766TIP3    H114304   5.309   5.859   5.038  0.3292 -0.5711 -0.3582
 4766TIP3    H214305   5.207   5.845   5.149  0.4813 -0.1533 -0.1615
 4767TIP3   OH214306   5.836   0.797   2.698  0.8030 -0.2253  0.2523
 4767TIP3    H114307   5.815   0.704   2.691  1.8710 -0.5619  1.1871
 4767TIP3    H214308   5.852   0.811   2.792 -0.6852  1.2097  0.3415
 4768TIP3   OH214309   3.366   4.262   4.485 -0.2043 -0.1828  0.3153
 4768TIP3    H114310   3.353   4.247   4.391  1.3265  0.4792 -0.0235
 4768TIP3    H214311   3.309   4.198   4.527  1.6619 -2.9400 -1.0499
 4769TIP3   OH214312   6.040   5.183   2.658 -0.2930 -0.3374  0.3985
 4769TIP3    H114313   6.081   5.097   2.663 -0.5726 -0.5337 -0.5561
 4769TIP3    H214314   6.076   5.223   2.579 -1.5242 -0.3147 -0.1821
 4770TIP3   OH214315   2.361   1.443   4.646  0.6075 -0.8650  0.3201
 4770TIP3    H114316   2.304   1.490   4.707  0.0736  1.2918 -1.6968
 4770TIP3    H214317   2.302   1.384   4.598  0.5231 -0.5801  0.0667
 4771TIP3   OH214318   0.311   3.516   0.665 -0.6072  0.5449  0.1504
 4771TIP3    H114319   0.329   3.577   0.736 -1.9102 -0.6942  1.6313
 4771TIP3    H214320   0.384   3.453   0.668  1.0219  2.2056 -1.7187
 4772TIP3   OH214321   3.046   2.186   4.222 -0.2762  0.2508 -0.3472
 4772TIP3    H114322   3.119   2.242   4.248  0.2749 -0.1397 -1.0207
 4772TIP3    H214323   3.053   2.110   4.281  1.8431 -1.3158 -2.4585
 4773TIP3   OH214324   3.904   5.233   3.166 -0.3359  0.5197 -0.5788
 4773TIP3    H114325   3.997   5.245   3.148  0.4129 -0.9626  1.8480
 4773TIP3    H214326   3.883   5.300   3.231 -0.7146  0.2452 -0.4134
 4774TIP3   OH214327   3.967   2.966   3.793  0.0397 -0.5632  0.2738
 4774TIP3    H114328   3.875   2.990   3.791  0.1564  0.5938  3.4539
 4774TIP3    H214329   4.001   2.994   3.708 -2.6054 -1.7464 -1.3261
 4775TIP3   OH214330   5.021   3.479   2.824  0.0397  0.2322 -0.2435
 4775TIP3    H114331   5.083   3.408   2.812  1.0500  0.5856  2.3154
 4775TIP3    H214332   5.075   3.558   2.820 -0.5742  0.6690  0.0180
 4776TIP3   OH214333   4.466   4.108   3.950 -0.2705  0.5371 -0.3218
 4776TIP3    H114334   4.416   4.080   3.873 -0.1331  1.9600 -0.9702
 4776TIP3    H214335   4.513   4.030   3.978 -3.1307 -0.9857  0.5663
 4777TIP3   OH214336   2.919   5.706   1.092  0.1577 -0.1009  0.5328
 4777TIP3    H114337   2.937   5.788   1.046  0.1688  0.8022  2.0855
 4777TIP3    H214338   3.004   5.662   1.099 -0.1300 -1.2525 -2.0312
 4778TIP3   OH214339   5.490   2.778   5.021  0.3847  0.2542  0.0826
 4778TIP3    H114340   5.527   2.709   5.076  1.0951  0.8636  0.3971
 4778TIP3    H214341   5.557   2.794   4.955 -0.0805  0.1560 -0.4206
 4779TIP3   OH214342   1.969   3.736   1.799  0.1786  0.3800  0.3866
 4779TIP3    H114343   1.917   3.656   1.795 -0.4285  0.6748  1.8413
 4779TIP3    H214344   1.999   3.750   1.709 -1.8082 -0.0893 -0.4035
 4780TIP3   OH214345   1.914   2.382   3.077 -0.0908  0.3633  0.2546
 4780TIP3    H114346   1.921   2.478   3.082  3.0165  0.5258 -2.8811
 4780TIP3    H214347   1.848   2.367   3.009  0.6811  0.4242 -0.5360
 4781TIP3   OH214348   0.797   5.900   0.898 -0.1383  0.1084  0.3673
 4781TIP3    H114349   0.846   5.843   0.839 -2.4492 -1.6668 -0.0114
 4781TIP3    H214350   0.824   5.874   0.986  1.2768  0.8289  0.1751
 4782TIP3   OH214351   3.064   5.976   1.032 -0.4489  0.2082 -0.2573
 4782TIP3    H114352   3.122   5.984   1.108  0.0047  0.6511 -0.6377
 4782TIP3    H214353   3.109   5.915   0.974 -0.1584  0.8685 -0.7345
 4783TIP3   OH214354   1.546   2.247   3.101  0.0610  0.4034 -0.2862
 4783TIP3    H114355   1.511   2.158   3.103 -0.9342  0.7720  1.9820
 4783TIP3    H214356   1.475   2.301   3.137  0.9456  2.0115 -0.8484
 4784TIP3   OH214357   6.323   3.023   2.957 -0.4389  0.0114 -0.8923
 4784TIP3    H114358   6.279   3.042   2.874 -1.9173 -0.6842 -0.3166
 4784TIP3    H214359   6.314   2.929   2.968 -1.8614  0.2836  0.8495
 4785TIP3   OH214360   1.198   5.582   3.240 -0.0895  0.4523  0.5172
 4785TIP3    H114361   1.189   5.532   3.158  0.7182 -0.4147  0.9322
 4785TIP3    H214362   1.121   5.557   3.291 -0.5955  0.9937  0.0270
 4786TIP3   OH214363   1.849   3.547   4.119  0.3372  0.3138  0.3147
 4786TIP3    H114364   1.937   3.542   4.156  0.4793 -1.4936 -0.1914
 4786TIP3    H214365   1.814   3.458   4.128 -0.7549  0.5683 -1.1151
 4787TIP3   OH214366   3.208   0.469   1.729 -0.4269  0.1488  0.4890
 4787TIP3    H114367   3.188   0.455   1.822 -1.2560 -1.1602  0.1481
 4787TIP3    H214368   3.258   0.550   1.727  1.3087 -0.7902  2.2891
 4788TIP3   OH214369   1.927   1.490   2.978 -0.2026  0.4035 -0.5209
 4788TIP3    H114370   1.891   1.401   2.985 -0.3735  0.4451 -0.8599
 4788TIP3    H214371   1.960   1.509   3.066 -1.6822  0.6566 -0.0028
 4789TIP3   OH214372   4.201   1.374   3.468 -0.0169  0.1106  0.2019
 4789TIP3    H114373   4.146   1.310   3.423 -1.9693  0.3869  2.0219
 4789TIP3    H214374   4.240   1.426   3.398 -0.3771 -1.4633 -1.2266
 4790TIP3   OH214375   0.359   4.752   3.758  0.6365 -0.3329  0.1624
 4790TIP3    H114376   0.363   4.676   3.701  0.4738  0.3288 -0.7564
 4790TIP3    H214377   0.268   4.755   3.787  0.6450 -0.4964  0.2055
 4791TIP3   OH214378   0.970   3.083   3.798 -0.3809  0.2856  0.1112
 4791TIP3    H114379   0.989   3.023   3.725 -0.6311 -0.9113  1.0073
 4791TIP3    H214380   1.043   3.145   3.797 -0.5040  0.4409 -1.3041
 4792TIP3   OH214381   5.031   5.059   0.756 -0.4833 -0.5917  0.4568
 4792TIP3    H114382   5.101   5.117   0.725 -0.8119 -0.4057  0.0611
 4792TIP3    H214383   5.078   4.982   0.789 -0.0702 -0.3003  0.5609
 4793TIP3   OH214384   2.640   5.699   2.630  0.2318  0.2030 -0.4078
 4793TIP3    H114385   2.602   5.777   2.670 -0.5968 -0.7526  0.7283
 4793TIP3    H214386   2.731   5.723   2.613  0.4271  0.9221  1.3752
 4794TIP3   OH214387   3.918   4.033   0.708 -0.4544 -0.2146  0.0229
 4794TIP3    H114388   3.840   4.076   0.743 -0.8571 -1.6357  0.9446
 4794TIP3    H214389   3.990   4.062   0.765 -0.8431 -1.2772  1.0852
 4795TIP3   OH214390   0.330   3.700   0.880 -0.0888  0.2078 -0.2227
 4795TIP3    H114391   0.263   3.740   0.936 -0.5357 -1.9411  0.8579
 4795TIP3    H214392   0.405   3.688   0.937 -0.5009 -1.8917 -0.0752
 4796TIP3   OH214393   2.970   3.331   1.863 -0.6749 -1.1001 -0.0980
 4796TIP3    H114394   2.918   3.408   1.886  0.8480  0.0642 -0.3716
 4796TIP3    H214395   2.915   3.281   1.804 -0.9739  0.8082 -1.5223
 4797TIP3   OH214396   0.948   5.247   0.750  0.0248 -0.1694 -0.1632
 4797TIP3    H114397   0.957   5.188   0.674  0.7311  0.3679 -0.5071
 4797TIP3    H214398   0.896   5.320   0.718  0.1059 -0.0645 -0.0562
 4798TIP3   OH214399   0.508   3.466   1.486 -0.1040  0.2507 -0.2611
 4798TIP3    H114400   0.450   3.528   1.529  0.0625 -0.5411  1.2046
 4798TIP3    H214401   0.501   3.387   1.540  0.8840 -0.4692 -1.1574
 4799TIP3   OH214402   1.666   5.478   0.166  0.0711  0.4848 -0.8097
 4799TIP3    H114403   1.581   5.500   0.128 -0.4680  1.9306  1.0905
 4799TIP3    H214404   1.646   5.446   0.254  1.4586  0.3072 -0.5231
 4800TIP3   OH214405   3.855   3.354   0.910 -0.0772 -0.4440  0.5873
 4800TIP3    H114406   3.827   3.445   0.921 -1.8354 -0.8214 -0.4173
 4800TIP3    H214407   3.877   3.325   0.998  1.2829  1.1622  0.8246
 4801TIP3   OH214408   6.129   0.305   0.668 -0.3064 -0.5243 -0.2748
 4801TIP3    H114409   6.083   0.307   0.752  0.6620 -1.2698  0.2928
 4801TIP3    H214410   6.059   0.308   0.603 -1.0681  0.2284  0.5520
 4802TIP3   OH214411   5.050   3.331   2.410  0.0809  0.1727  0.2251
 4802TIP3    H114412   5.010   3.412   2.443 -0.4705  0.2479 -0.6067
 4802TIP3    H214413   5.134   3.359   2.374 -0.2326  0.4252 -0.3179
 4803TIP3   OH214414   3.448   0.478   1.610  0.0536  0.0927  0.0561
 4803TIP3    H114415   3.439   0.542   1.539  0.0785 -0.4840 -0.4762
 4803TIP3    H214416   3.359   0.463   1.641  0.2832  3.7335  3.2800
 4804TIP3   OH214417   3.335   1.453   2.206 -0.0308 -0.2534  0.1185
 4804TIP3    H114418   3.327   1.361   2.182  0.8406 -0.3556  0.1745
 4804TIP3    H214419   3.247   1.488   2.197  0.0196 -0.5595 -2.1019
 4805TIP3   OH214420   4.748   3.842   2.451 -0.1146  0.4809  0.1702
 4805TIP3    H114421   4.657   3.850   2.422 -0.0410 -0.5419 -0.4218
 4805TIP3    H214422   4.799   3.892   2.387 -0.1539 -0.0347 -0.2791
 4806TIP3   OH214423   0.959   2.410   0.561  0.1609 -0.4913 -0.1630
 4806TIP3    H114424   0.865   2.397   0.578 -0.2993  1.5669 -0.8294
 4806TIP3    H214425   0.999   2.411   0.648 -0.5756 -0.4568  0.1851
 4807TIP3   OH214426   5.572   0.118   2.489  0.8677  0.1146  0.3335
 4807TIP3    H114427   5.632   0.192   2.503  1.8851 -0.8144  0.9982
 4807TIP3    H214428   5.622   0.041   2.514  0.4834 -1.0353 -2.1125
 4808TIP3   OH214429   0.070   4.898   4.072  0.0755  0.3875 -0.1343
 4808TIP3    H114430   0.127   4.854   4.134 -1.5408 -0.9751  0.4440
 4808TIP3    H214431   0.089   4.857   3.988 -0.2918 -0.3147  0.1217
 4809TIP3   OH214432   1.167   2.168   0.631  0.1099  0.0479 -0.3880
 4809TIP3    H114433   1.076   2.193   0.643 -0.1000 -0.9063  0.1406
 4809TIP3    H214434   1.170   2.076   0.658  1.2613  0.1163 -0.2391
 4810TIP3   OH214435   0.998   1.924   1.378 -0.2515  0.0976  0.0402
 4810TIP3    H114436   1.038   1.932   1.464  2.3595 -1.3959 -0.9370
 4810TIP3    H214437   1.022   1.837   1.347 -0.2040  0.9382 -2.6018
 4811TIP3   OH214438   1.951   1.978   1.917 -0.7479 -0.0822  0.0925
 4811TIP3    H114439   1.959   2.038   1.843 -1.7030  2.3254  1.8161
 4811TIP3    H214440   1.860   1.949   1.914 -0.0828 -2.2658 -1.2310
 4812TIP3   OH214441   0.228   1.448   4.119  0.0658 -0.2448 -0.2743
 4812TIP3    H114442   0.139   1.426   4.091  0.5448  0.1835 -2.2367
 4812TIP3    H214443   0.285   1.412   4.052  1.4408 -0.8225  1.1365
 4813TIP3   OH214444   3.465   4.001   4.671  0.2271  0.1762  0.5126
 4813TIP3    H114445   3.405   3.969   4.739  0.8666  0.6861  1.3262
 4813TIP3    H214446   3.434   4.089   4.651  0.8034  0.5131  1.0689
 4814TIP3   OH214447   3.727   1.042   0.900 -0.2082  0.4646 -0.0140
 4814TIP3    H114448   3.669   0.989   0.955  1.9247  1.0934  3.0796
 4814TIP3    H214449   3.776   0.978   0.848  0.7381 -0.5676  2.0361
 4815TIP3   OH214450   6.121   5.700   1.642  0.3140  0.0442  0.0698
 4815TIP3    H114451   6.186   5.726   1.708  0.7650 -0.6064 -0.1063
 4815TIP3    H214452   6.054   5.768   1.646  0.6584  0.3506  0.7507
 4816TIP3   OH214453   5.344   2.652   1.151  0.1007 -0.0894 -0.3452
 4816TIP3    H114454   5.358   2.699   1.069  0.3001  0.1621 -0.1697
 4816TIP3    H214455   5.355   2.719   1.219  2.3352 -0.7689  0.0252
 4817TIP3   OH214456   4.396   4.770   2.339  0.0435  0.2627 -0.0653
 4817TIP3    H114457   4.350   4.746   2.419  1.6245 -0.3018  0.7318
 4817TIP3    H214458   4.371   4.861   2.322 -2.4027 -0.4308 -0.4744
 4818TIP3   OH214459   2.527   3.185   4.228 -0.3374  0.0569  0.0799
 4818TIP3    H114460   2.621   3.166   4.219 -0.3492 -0.0338  0.1344
 4818TIP3    H214461   2.488   3.157   4.145 -0.2378  0.6140 -0.1545
 4819TIP3   OH214462   3.018   5.767   1.828  0.1455  0.3993  0.7708
 4819TIP3    H114463   3.060   5.838   1.876  1.0805  1.0093 -0.8920
 4819TIP3    H214464   2.930   5.761   1.866  0.3350  1.8610  1.5065
 4820TIP3   OH214465   3.150   1.019   0.802  0.3096  0.3748  0.1329
 4820TIP3    H114466   3.192   0.963   0.866  1.4596  2.0315  0.8812
 4820TIP3    H214467   3.056   1.010   0.819  0.5530 -0.1668  1.2234
 4821TIP3   OH214468   1.156   1.961   4.005  0.1725 -0.0046  0.3411
 4821TIP3    H114469   1.219   1.904   4.049  1.5114  0.1133 -1.3152
 4821TIP3    H214470   1.093   1.902   3.964  0.9214 -0.2861 -0.4392
 4822TIP3   OH214471   2.836   1.817   1.395 -0.0759  0.6833  0.6058
 4822TIP3    H114472   2.821   1.786   1.306 -1.0889 -0.4953  1.1634
 4822TIP3    H214473   2.857   1.910   1.385  3.8564 -0.1679 -1.2225
 4823TIP3   OH214474   4.654   3.706   1.270  0.2706 -0.0791  0.1937
 4823TIP3    H114475   4.626   3.776   1.211 -1.1875 -0.2694  0.6200
 4823TIP3    H214476   4.747   3.721   1.282  0.4953  0.2810 -1.7293
 4824TIP3   OH214477   5.784   5.741   3.557 -0.1734 -0.0020 -0.5192
 4824TIP3    H114478   5.837   5.816   3.533 -0.0054  0.4297  1.0746
 4824TIP3    H214479   5.838   5.691   3.618 -0.3163 -1.3844 -1.4644
 4825TIP3   OH214480   1.584   0.572   0.226  0.2641  0.3339 -0.0512
 4825TIP3    H114481   1.599   0.666   0.235  1.6058  0.5754 -3.2399
 4825TIP3    H214482   1.653   0.532   0.280 -0.0696  1.1673  1.0177
 4826TIP3   OH214483   3.078   5.657   0.260 -0.2128 -0.6259 -0.0399
 4826TIP3    H114484   3.145   5.683   0.196 -0.5780  2.5815  0.6710
 4826TIP3    H214485   3.123   5.659   0.344 -1.3088  3.1593  0.6623
 4827TIP3   OH214486   5.345   4.143   0.763 -0.6086  0.2352 -0.0607
 4827TIP3    H114487   5.440   4.151   0.778 -0.7669  1.3248  0.5279
 4827TIP3    H214488   5.314   4.091   0.837 -0.5436  0.3874  0.0755
 4828TIP3   OH214489   5.080   3.001   4.907 -0.2304  0.5613  0.1147
 4828TIP3    H114490   5.075   3.061   4.832  0.9674 -1.2444 -1.5073
 4828TIP3    H214491   5.169   2.967   4.905 -0.6447 -0.7035  1.4382
 4829TIP3   OH214492   1.755   5.582   3.278  0.7143 -0.0117  0.2316
 4829TIP3    H114493   1.743   5.580   3.373  0.1272  0.0336  0.1624
 4829TIP3    H214494   1.834   5.635   3.264  0.7551  0.0467  0.6887
 4830TIP3   OH214495   5.959   2.226   2.179 -0.2225 -0.0521  0.3042
 4830TIP3    H114496   5.995   2.283   2.247 -1.4549  0.3793  0.6215
 4830TIP3    H214497   5.916   2.155   2.227 -1.0333  0.2109 -0.0250
 4831TIP3   OH214498   5.242   3.159   0.554  0.0673 -0.4190  0.4305
 4831TIP3    H114499   5.327   3.182   0.516 -0.2054 -0.8865 -0.4975
 4831TIP3    H214500   5.179   3.176   0.484 -0.5402 -0.6244  0.9151
 4832TIP3   OH214501   3.724   3.885   5.145 -0.1529  0.0346  0.4155
 4832TIP3    H114502   3.709   3.868   5.052 -2.9997  1.0625  0.5785
 4832TIP3    H214503   3.811   3.848   5.163  0.4086 -0.3413 -2.5768
 4833TIP3   OH214504   2.390   3.693   5.143  0.1998 -0.0312  0.1183
 4833TIP3    H114505   2.319   3.648   5.097  0.6915 -0.3102 -0.3826
 4833TIP3    H214506   2.409   3.637   5.218  1.8809 -1.5989 -1.3362
 4834TIP3   OH214507   0.082   3.355  -0.017  0.0156  0.2749  0.5130
 4834TIP3    H114508   0.043   3.271   0.007 -0.6879  0.4634  0.0446
 4834TIP3    H214509   0.153   3.367   0.046 -0.1959 -0.4336  0.8954
 4835TIP3   OH214510   0.812   3.660   4.799 -0.1650 -0.3032 -0.2759
 4835TIP3    H114511   0.743   3.621   4.746 -1.1136 -0.0754  0.7572
 4835TIP3    H214512   0.887   3.665   4.740 -1.2542  0.2011 -1.6825
 4836TIP3   OH214513   0.562   0.349   1.020 -0.1303  0.4460  0.2750
 4836TIP3    H114514   0.516   0.414   1.073  2.0094  0.9262  1.6612
 4836TIP3    H214515   0.655   0.359   1.044  0.6332 -1.0299 -1.7522
 4837TIP3   OH214516   1.729   5.723   3.813 -0.1759 -0.4058  0.0736
 4837TIP3    H114517   1.667   5.792   3.837 -0.5540 -1.2437  1.5979
 4837TIP3    H214518   1.812   5.749   3.854 -0.5396 -1.2612  1.4261
 4838TIP3   OH214519   5.421   3.300   1.911  0.2067 -0.2943 -0.0400
 4838TIP3    H114520   5.453   3.348   1.835  0.4246 -0.0539  0.2018
 4838TIP3    H214521   5.331   3.331   1.924 -0.0285 -0.7485 -0.5367
 4839TIP3   OH214522   2.921   1.071   3.639 -0.2894 -0.1047 -0.0090
 4839TIP3    H114523   2.947   1.045   3.551 -0.3022 -0.2253  0.0226
 4839TIP3    H214524   2.913   0.988   3.687  0.7787  0.0189  0.4079
 4840TIP3   OH214525   5.510   2.426   3.595  0.4095  0.1031  0.0282
 4840TIP3    H114526   5.524   2.428   3.690 -0.3022 -3.2981  0.3105
 4840TIP3    H214527   5.595   2.447   3.558  0.8880  0.7422  1.4047
 4841TIP3   OH214528   2.148   4.260   3.783  0.5032  0.5150  0.1415
 4841TIP3    H114529   2.136   4.170   3.753  1.1971  0.7997 -1.0380
 4841TIP3    H214530   2.069   4.279   3.834  0.7125 -1.0183  1.0976
 4842TIP3   OH214531   3.538   4.019   0.390 -0.3040 -0.2479 -0.3640
 4842TIP3    H114532   3.466   4.019   0.453 -2.0180  0.9454 -2.1970
 4842TIP3    H214533   3.551   3.927   0.369  1.3555 -0.8718  2.7079
 4843TIP3   OH214534   2.610   1.890   4.632  0.5049  0.0693  0.4263
 4843TIP3    H114535   2.671   1.867   4.562  2.8326  1.6358  1.8060
 4843TIP3    H214536   2.619   1.821   4.697 -0.6503 -0.6755 -0.1717
 4844TIP3   OH214537   4.575   0.198   3.781 -0.5266  0.0007  0.4228
 4844TIP3    H114538   4.571   0.155   3.695  1.5691  0.5961 -0.0478
 4844TIP3    H214539   4.535   0.135   3.841 -2.5520 -0.1995 -1.0250
 4845TIP3   OH214540   3.991   0.661   0.010 -0.0300 -0.2124 -0.9086
 4845TIP3    H114541   4.076   0.623   0.032  0.0435 -0.2554 -1.2523
 4845TIP3    H214542   4.011   0.751  -0.017 -0.2162  0.1224  0.0182
 4846TIP3   OH214543   2.980   4.319   0.042  0.1021 -0.3163 -0.6608
 4846TIP3    H114544   2.999   4.411   0.060  0.7801 -0.5079 -0.3782
 4846TIP3    H214545   3.057   4.286  -0.004  0.9854 -1.3547  1.3878
 4847TIP3   OH214546   3.963   5.778   0.244 -0.9488 -0.2031 -0.4522
 4847TIP3    H114547   4.033   5.843   0.251  0.1847 -1.3200 -0.9760
 4847TIP3    H214548   3.978   5.719   0.317 -0.9664 -0.8028 -0.9299
 4848TIP3   OH214549   0.142   0.128   1.159 -0.0359 -0.2054 -0.0480
 4848TIP3    H114550   0.050   0.132   1.132  0.1820 -1.1441 -0.9942
 4848TIP3    H214551   0.180   0.210   1.128  0.0717 -1.0101 -2.1812
 4849TIP3   OH214552   3.319   5.287   3.274  0.4903 -0.3097 -0.4687
 4849TIP3    H114553   3.313   5.381   3.263 -1.0211 -0.4001 -0.5606
 4849TIP3    H214554   3.333   5.274   3.368 -0.0870 -0.0151 -0.3399
 4850TIP3   OH214555   2.071   4.526   2.445  0.7056 -0.6992  0.1259
 4850TIP3    H114556   2.142   4.480   2.400  1.7217  2.1257 -1.4293
 4850TIP3    H214557   2.116   4.579   2.512  0.1609  1.0746 -0.8371
 4851TIP3   OH214558   3.326   1.394   1.473  0.0136 -0.2079  0.0455
 4851TIP3    H114559   3.232   1.373   1.477  0.1356 -0.7540  0.1216
 4851TIP3    H214560   3.345   1.401   1.380  0.0223 -0.7093  0.0028
 4852TIP3   OH214561   0.845   0.457   1.998  0.4242  0.4412  0.7037
 4852TIP3    H114562   0.908   0.395   2.036  0.2316 -0.0154  0.2930
 4852TIP3    H214563   0.764   0.406   1.989  0.2974  0.7173  0.2614
 4853TIP3   OH214564   2.295   4.280   4.008 -0.3629 -0.6464 -0.0113
 4853TIP3    H114565   2.366   4.220   3.982 -1.1742 -1.3003 -0.7933
 4853TIP3    H214566   2.234   4.278   3.934  0.0228  1.8870 -0.4818
 4854TIP3   OH214567   2.843   1.572   2.704 -0.1018 -0.2483 -0.1759
 4854TIP3    H114568   2.939   1.569   2.711 -0.1377 -1.3981 -0.0180
 4854TIP3    H214569   2.815   1.605   2.790  0.1372 -0.2086 -0.1104
 4855TIP3   OH214570   5.571   0.573   1.979 -0.4957 -0.3531  0.5046
 4855TIP3    H114571   5.607   0.495   2.022  0.4910 -0.0896  0.1789
 4855TIP3    H214572   5.567   0.549   1.887  1.0544  0.4157  0.2081
 4856TIP3   OH214573   0.378   3.198   0.017  0.5902 -0.4224 -0.2629
 4856TIP3    H114574   0.380   3.194   0.113  0.2960 -0.9768 -0.2723
 4856TIP3    H214575   0.468   3.180  -0.009  0.8423  0.5535 -0.0706
 4857TIP3   OH214576   3.440   3.986   0.009 -0.5221 -0.5367 -0.0281
 4857TIP3    H114577   3.471   4.070   0.044  0.7459 -0.5782 -0.9795
 4857TIP3    H214578   3.391   3.947   0.081 -0.4285  0.6555  0.7123
 4858TIP3   OH214579   5.533   5.126   3.739 -0.2586 -0.4097  0.3861
 4858TIP3    H114580   5.481   5.204   3.724  0.1339 -0.3807 -0.9793
 4858TIP3    H214581   5.470   5.058   3.760 -0.5856  0.3007  1.9056
 4859TIP3   OH214582   5.169   4.354   0.848 -0.0609 -0.0378  0.0526
 4859TIP3    H114583   5.245   4.299   0.833 -0.1723 -0.1066 -0.2701
 4859TIP3    H214584   5.190   4.436   0.805 -0.5697 -0.3910 -0.8840
 4860TIP3   OH214585   0.360   1.732   4.759 -0.3915  0.3437  0.2064
 4860TIP3    H114586   0.433   1.671   4.774  0.9634  1.8785  0.0327
 4860TIP3    H214587   0.379   1.807   4.816 -0.4357  1.9219 -1.7687
 4861TIP3   OH214588   5.411   1.590   2.152 -0.0454 -0.1553  0.4393
 4861TIP3    H114589   5.503   1.609   2.172  0.0279  0.5040 -0.4477
 4861TIP3    H214590   5.404   1.603   2.057 -0.7322 -1.5915  0.2740
 4862TIP3   OH214591   1.876   2.047   0.178 -0.2520 -0.1785 -0.1754
 4862TIP3    H114592   1.959   2.010   0.148  0.2333  1.1483 -0.5639
 4862TIP3    H214593   1.841   2.092   0.101 -1.7202 -1.3525 -0.2165
 4863TIP3   OH214594   0.346   3.165   4.063 -0.5016 -0.1285 -0.5194
 4863TIP3    H114595   0.419   3.216   4.027  1.5231 -0.8519  2.2274
 4863TIP3    H214596   0.290   3.230   4.107  0.5370  0.0921  0.5250
 4864TIP3   OH214597   3.953   4.459   1.345 -0.6958 -0.2950 -0.3561
 4864TIP3    H114598   3.944   4.523   1.416  1.5922 -0.7603  0.4548
 4864TIP3    H214599   3.899   4.385   1.372  1.1382 -1.0026  1.6415
 4865TIP3   OH214600   2.196   5.151   3.215  0.7376  0.4979 -0.0264
 4865TIP3    H114601   2.101   5.151   3.206  0.7477  0.4577 -0.1291
 4865TIP3    H214602   2.228   5.108   3.136  0.7833 -0.6621  0.5872
 4866TIP3   OH214603   0.916   0.749   2.022  0.3319  0.1855 -0.0021
 4866TIP3    H114604   0.896   0.661   1.992 -1.8833  0.1247  1.3891
 4866TIP3    H214605   0.966   0.736   2.103  0.0554  0.1905  0.1719
 4867TIP3   OH214606   4.544   1.903   0.979 -0.0636  0.1561  0.3085
 4867TIP3    H114607   4.584   1.960   0.913 -1.3502  0.8008  0.0464
 4867TIP3    H214608   4.599   1.825   0.981  0.0821  0.1861 -1.4436
 4868TIP3   OH214609   4.090   4.160   2.840  0.3574 -0.7091 -0.4468
 4868TIP3    H114610   4.120   4.243   2.803 -1.4183  0.0025 -0.3906
 4868TIP3    H214611   4.154   4.139   2.908  0.2989  1.1534  0.2355
 4869TIP3   OH214612   2.707   5.433   1.886  0.3813 -0.2992  0.2733
 4869TIP3    H114613   2.653   5.476   1.952 -0.4271 -0.7117 -0.1044
 4869TIP3    H214614   2.691   5.482   1.805  1.3079  0.1588  0.3529
 4870TIP3   OH214615   4.995   4.315   2.941  0.2280  0.6068 -0.1227
 4870TIP3    H114616   5.002   4.224   2.969 -0.6167  0.1262 -1.3783
 4870TIP3    H214617   4.933   4.354   3.002  0.6015  0.3360  0.4306
 4871TIP3   OH214618   1.665   4.124   3.723  0.4047 -0.3165 -0.2953
 4871TIP3    H114619   1.583   4.152   3.682  0.3575 -0.7135 -0.4750
 4871TIP3    H214620   1.688   4.043   3.678  0.8396 -0.2658 -0.1696
 4872TIP3   OH214621   5.007   5.886   2.479  0.5382 -0.5105  0.3417
 4872TIP3    H114622   4.961   5.966   2.454 -0.1760 -0.9895  0.0722
 4872TIP3    H214623   5.013   5.836   2.397 -0.7083 -1.5533  0.8625
 4873TIP3   OH214624   1.314   0.384   1.672  0.6577  0.2122  0.1331
 4873TIP3    H114625   1.391   0.432   1.642  0.5017  0.3804 -0.0045
 4873TIP3    H214626   1.271   0.442   1.735  0.1559  0.5009 -0.4620
 4874TIP3   OH214627   0.220   0.483   1.847  0.3193 -0.2660 -0.4692
 4874TIP3    H114628   0.218   0.578   1.841  0.4757 -0.3701 -3.5637
 4874TIP3    H214629   0.135   0.459   1.882 -0.7363  0.9531 -2.0702
 4875TIP3   OH214630   3.616   0.817   2.576 -0.9762  0.3931 -1.0926
 4875TIP3    H114631   3.576   0.740   2.537 -1.8326 -0.4257  1.1929
 4875TIP3    H214632   3.697   0.784   2.617 -0.4789  1.0586 -1.5172
 4876TIP3   OH214633   0.932   3.436   4.219 -0.0146 -0.0062 -0.2123
 4876TIP3    H114634   0.936   3.362   4.159 -2.6445  0.8814 -1.6541
 4876TIP3    H214635   0.912   3.396   4.304  2.4987 -1.1708 -0.0675
 4877TIP3   OH214636   3.163   1.318   3.583 -0.1817 -0.4757  0.5215
 4877TIP3    H114637   3.151   1.409   3.610  1.0005 -0.1550 -0.0202
 4877TIP3    H214638   3.076   1.291   3.553 -0.4738  0.5623  0.3950
 4878TIP3   OH214639   4.309   4.859   4.207  0.3130 -0.4308 -0.6990
 4878TIP3    H114640   4.320   4.805   4.128 -1.0143  0.2194 -1.3685
 4878TIP3    H214641   4.230   4.824   4.248  0.1948  0.1497 -0.4324
 4879TIP3   OH214642   4.753   0.928   2.145  0.1718 -0.7110  0.4490
 4879TIP3    H114643   4.745   0.842   2.103 -2.0558 -0.5026  0.3676
 4879TIP3    H214644   4.667   0.944   2.184  0.3249  1.7743 -0.0856
 4880TIP3   OH214645   3.369   4.503   2.714  0.6510 -0.0078  0.2346
 4880TIP3    H114646   3.278   4.484   2.691  0.7019  0.1688 -0.1223
 4880TIP3    H214647   3.420   4.468   2.641  0.7615  1.2570 -0.3156
 4881TIP3   OH214648   0.855   2.709   2.791  0.4745  0.1951 -0.4728
 4881TIP3    H114649   0.931   2.692   2.735  0.9778  0.1122  0.2284
 4881TIP3    H214650   0.783   2.662   2.749  0.9514 -0.2419 -0.7988
 4882TIP3   OH214651   5.477   0.160   0.180  0.6687 -0.3550  0.1629
 4882TIP3    H114652   5.391   0.132   0.212 -0.9557  0.9220 -2.6558
 4882TIP3    H214653   5.524   0.189   0.258 -1.5633 -0.8092  1.7808
 4883TIP3   OH214654   3.002   0.337   1.013  0.3910 -1.0126  0.3535
 4883TIP3    H114655   3.071   0.403   1.005 -0.8723  0.2339 -1.0192
 4883TIP3    H214656   2.972   0.323   0.923 -1.4613 -1.1609  0.9559
 4884TIP3   OH214657   3.220   3.256   3.531  1.1342 -0.2808 -0.0130
 4884TIP3    H114658   3.210   3.169   3.493 -2.7937 -0.1402  0.2213
 4884TIP3    H214659   3.216   3.316   3.457 -0.1056 -0.2375  0.0593
 4885TIP3   OH214660   1.266   2.970   0.577  1.1245  0.4010 -0.0922
 4885TIP3    H114661   1.194   2.925   0.533  0.2280  1.6095  0.0936
 4885TIP3    H214662   1.330   2.986   0.508  0.0043  1.7149 -0.8798
 4886TIP3   OH214663   3.332   2.861   4.559 -0.1902 -0.4520 -0.6660
 4886TIP3    H114664   3.399   2.928   4.555 -1.7546  1.1526 -1.5579
 4886TIP3    H214665   3.344   2.820   4.644  0.0794  1.8008  0.4538
 4887TIP3   OH214666   6.005   4.594   1.404 -0.3546 -0.2454  0.1041
 4887TIP3    H114667   6.077   4.574   1.464 -0.8489  1.9979  1.5669
 4887TIP3    H214668   6.007   4.689   1.395 -1.6533 -0.3435 -1.7689
 4888TIP3   OH214669   3.511   4.084   2.097 -0.1627  0.4697  0.8417
 4888TIP3    H114670   3.527   4.169   2.056  2.1166 -0.1458  0.3112
 4888TIP3    H214671   3.563   4.086   2.177 -3.0945  0.9404  2.8918
 4889TIP3   OH214672   2.033   4.399   3.288 -0.1369 -0.0396  0.7670
 4889TIP3    H114673   2.099   4.449   3.336  0.2858 -0.3074  0.4731
 4889TIP3    H214674   2.073   4.313   3.275 -1.4834 -1.0444  2.7221
 4890TIP3   OH214675   0.985   2.655   3.793 -0.0456  0.5683  0.3565
 4890TIP3    H114676   0.894   2.644   3.766  0.2494 -2.6373  0.2846
 4890TIP3    H214677   0.980   2.666   3.888 -0.5597  2.7281  0.1365
 4891TIP3   OH214678   4.719   1.415   0.688  0.3347 -0.4179  0.2694
 4891TIP3    H114679   4.683   1.335   0.650  0.0986 -0.3555  0.3597
 4891TIP3    H214680   4.795   1.436   0.633 -0.2325 -0.1102 -0.4202
 4892TIP3   OH214681   1.054   0.813   0.849  0.3969  0.2667 -0.4745
 4892TIP3    H114682   1.143   0.788   0.873 -0.0805 -1.4181 -0.2852
 4892TIP3    H214683   1.014   0.731   0.818 -1.5587  0.5996  0.9424
 4893TIP3   OH214684   1.196   5.984   2.671 -0.2529  0.0005  0.3218
 4893TIP3    H114685   1.286   5.952   2.667 -0.2135  0.1278  0.1895
 4893TIP3    H214686   1.143   5.904   2.674 -0.1130 -0.0687  1.0237
 4894TIP3   OH214687   0.784   1.818   1.853 -0.6684 -0.1058  0.2781
 4894TIP3    H114688   0.701   1.850   1.819 -1.0754 -1.9763 -0.6446
 4894TIP3    H214689   0.774   1.823   1.948 -2.2812 -1.2201  0.2139
 4895TIP3   OH214690   2.349   0.907   4.891 -0.2939 -0.2481 -0.4807
 4895TIP3    H114691   2.389   0.981   4.846 -2.3363 -0.1017 -2.2490
 4895TIP3    H214692   2.418   0.841   4.897  0.7247  0.6775 -1.6630
 4896TIP3   OH214693   3.406   1.907   0.207 -0.8439  0.1802 -0.6199
 4896TIP3    H114694   3.362   1.906   0.292 -2.3845  1.2225 -1.3588
 4896TIP3    H214695   3.495   1.936   0.226 -0.2777 -2.2701  0.9667
 4897TIP3   OH214696   2.468   3.525   2.892  0.1552 -0.2552 -0.2006
 4897TIP3    H114697   2.437   3.530   2.801 -2.4618 -3.7208  0.2721
 4897TIP3    H214698   2.539   3.461   2.889 -0.0688 -0.5272  0.1911
 4898TIP3   OH214699   3.076   0.741   2.835 -0.0261  0.3714 -0.4930
 4898TIP3    H114700   3.028   0.703   2.909 -0.3513  1.8397  0.0727
 4898TIP3    H214701   3.148   0.789   2.875  2.0143 -1.7707 -1.3224
 4899TIP3   OH214702   4.111   0.577   0.275  0.2192  0.1553  0.0866
 4899TIP3    H114703   4.041   0.604   0.215 -0.1647  0.8604  0.8236
 4899TIP3    H214704   4.179   0.541   0.218 -1.3639 -2.0217 -0.5601
 4900TIP3   OH214705   0.695   3.638   2.499 -0.3963 -0.0457 -0.1005
 4900TIP3    H114706   0.638   3.583   2.553  1.0711 -0.5517  0.9746
 4900TIP3    H214707   0.715   3.583   2.423 -2.0412  0.4818 -0.9847
 4901TIP3   OH214708   5.978   4.233   3.678  0.1630  0.5874 -0.0038
 4901TIP3    H114709   6.030   4.164   3.637 -0.9282 -0.2537 -0.0261
 4901TIP3    H214710   5.987   4.217   3.772  0.0058  0.4801 -0.0063
 4902TIP3   OH214711   3.394   5.375   2.171 -0.0057  0.3674 -0.6026
 4902TIP3    H114712   3.454   5.353   2.242  1.6290  0.4062 -1.9151
 4902TIP3    H214713   3.308   5.348   2.203  0.7084  0.1950  1.2920
 4903TIP3   OH214714   5.475   2.498   2.372 -0.1766 -0.7326  0.4822
 4903TIP3    H114715   5.503   2.497   2.463  0.2039 -0.6150  0.3707
 4903TIP3    H214716   5.509   2.415   2.336  1.7295  0.2577 -0.1422
 4904TIP3   OH214717   5.549   0.844   2.237 -0.0910  0.4903  0.4963
 4904TIP3    H114718   5.556   0.901   2.314 -1.2364  1.5489 -0.1392
 4904TIP3    H214719   5.527   0.904   2.166  2.6182 -0.1981 -1.0603
 4905TIP3   OH214720   1.330   5.449   4.021 -0.1314  0.0256 -0.3345
 4905TIP3    H114721   1.293   5.528   3.982 -0.3408 -0.1696 -0.5334
 4905TIP3    H214722   1.388   5.414   3.953 -0.4375 -0.2730 -0.4424
 4906TIP3   OH214723   1.690   4.391   4.201  0.2059  0.2721 -0.1317
 4906TIP3    H114724   1.710   4.460   4.138 -1.0716  0.7129 -0.0858
 4906TIP3    H214725   1.695   4.433   4.286  0.9137 -0.0677 -0.0023
 4907TIP3   OH214726   3.457   5.811   4.366  0.0410 -0.0146 -0.4471
 4907TIP3    H114727   3.550   5.818   4.346  0.4050 -0.3243  1.0679
 4907TIP3    H214728   3.452   5.754   4.442 -1.3486  0.4421 -0.1653
 4908TIP3   OH214729   0.886   1.221   2.132  0.4806  0.1887 -0.3919
 4908TIP3    H114730   0.866   1.290   2.069  0.1814  0.5865  0.1292
 4908TIP3    H214731   0.981   1.224   2.143  0.3240  1.7364  0.9624
 4909TIP3   OH214732   1.661   3.377   4.697 -0.0660 -0.0378 -0.1371
 4909TIP3    H114733   1.663   3.473   4.691 -4.0675  0.2293  0.2491
 4909TIP3    H214734   1.687   3.348   4.609  1.4927  1.3160 -0.1843
 4910TIP3   OH214735   5.802   1.458   3.674 -0.5970  0.7624 -0.4418
 4910TIP3    H114736   5.881   1.472   3.726 -0.1969 -0.5875 -0.6464
 4910TIP3    H214737   5.732   1.499   3.726  0.2502  2.1621 -0.3705
 4911TIP3   OH214738   5.936   0.580   0.384 -0.2919 -0.4893  0.4520
 4911TIP3    H114739   5.863   0.618   0.435 -0.7494 -1.1362  0.2961
 4911TIP3    H214740   5.894   0.513   0.331  0.2627 -0.1316 -0.4469
 4912TIP3   OH214741   5.177   3.271   1.574 -0.0528  0.1474 -0.0116
 4912TIP3    H114742   5.086   3.270   1.545 -0.6983 -1.8589  1.8439
 4912TIP3    H214743   5.183   3.346   1.633  0.1001  1.5287 -1.7042
 4913TIP3   OH214744   1.719   5.516   1.801 -0.1410 -0.1313 -0.3205
 4913TIP3    H114745   1.626   5.494   1.804 -0.5589  1.5741  0.5645
 4913TIP3    H214746   1.728   5.590   1.860  1.6737  0.1798 -0.9183
 4914TIP3   OH214747   3.584   4.251   0.596 -0.7552  0.5102  0.4518
 4914TIP3    H114748   3.594   4.178   0.534 -1.3185  2.2629 -1.8469
 4914TIP3    H214749   3.629   4.222   0.675  0.3645 -1.7079 -0.9100
 4915TIP3   OH214750   0.573   2.931   0.844  0.4095 -0.8532  0.6907
 4915TIP3    H114751   0.512   2.884   0.786  0.2616 -0.0856  0.2079
 4915TIP3    H214752   0.516   2.975   0.908  0.4075  0.2742 -0.0637
 4916TIP3   OH214753   6.011   5.524   0.109 -0.4876  0.4945  0.1577
 4916TIP3    H114754   6.091   5.506   0.058 -1.2926  0.1520 -1.0379
 4916TIP3    H214755   5.968   5.595   0.061 -0.5568  1.1642  1.1937
 4917TIP3   OH214756   0.379   5.643   2.106  0.0107 -0.0083  0.1969
 4917TIP3    H114757   0.437   5.598   2.045  1.1654  2.7056 -0.8767
 4917TIP3    H214758   0.434   5.662   2.181 -0.6545 -0.9219  0.9352
 4918TIP3   OH214759   2.137   0.106   2.807 -0.3208 -0.8684 -0.4155
 4918TIP3    H114760   2.097   0.097   2.893  1.7158  1.0243  0.8441
 4918TIP3    H214761   2.202   0.035   2.804 -0.5767 -1.0995 -0.5077
 4919TIP3   OH214762   1.285   4.826   0.112  0.5953  0.4189  0.4177
 4919TIP3    H114763   1.380   4.822   0.121  0.6200 -2.9959 -0.0308
 4919TIP3    H214764   1.253   4.749   0.160 -1.7943  0.4265 -0.9867
 4920TIP3   OH214765   5.905   3.748   1.427 -0.2114 -0.0829  0.4628
 4920TIP3    H114766   5.951   3.685   1.481  1.3842  0.0653 -0.6771
 4920TIP3    H214767   5.966   3.770   1.356 -1.2829  1.5922 -0.0211
 4921TIP3   OH214768   5.050   3.792   0.386  0.2613 -0.1639  0.2313
 4921TIP3    H114769   5.108   3.722   0.414 -0.2350 -0.4057  0.6828
 4921TIP3    H214770   4.970   3.748   0.358  0.4174  0.1418 -0.7092
 4922TIP3   OH214771   1.721   0.679   3.402 -0.3915 -1.0381  0.8361
 4922TIP3    H114772   1.743   0.598   3.448  1.5415 -2.0067 -1.5530
 4922TIP3    H214773   1.798   0.735   3.414 -1.3147  0.1135  1.6530
 4923TIP3   OH214774   3.083   2.913   0.947  0.4020 -0.2261  0.1750
 4923TIP3    H114775   3.112   2.871   0.866  0.6048  1.7848 -0.8429
 4923TIP3    H214776   2.995   2.944   0.927  1.2870  2.2979 -0.1186
 4924TIP3   OH214777   6.350   4.656   2.965 -0.6409  0.2696  0.5120
 4924TIP3    H114778   6.362   4.593   2.895 -1.6563  0.4710  0.1405
 4924TIP3    H214779   6.342   4.603   3.045 -3.7284 -0.2901 -0.0543
 4925TIP3   OH214780   3.397   3.844   3.531  0.9469  0.1760  0.2370
 4925TIP3    H114781   3.428   3.934   3.517  0.6194  0.2191 -0.2404
 4925TIP3    H214782   3.401   3.832   3.626  1.1185  0.6491  0.2931
 4926TIP3   OH214783   2.998   4.926   4.626  0.3581  0.2511 -0.3386
 4926TIP3    H114784   3.044   4.961   4.550 -2.1034  1.4189 -1.4199
 4926TIP3    H214785   2.976   4.836   4.602 -1.3977  0.9530 -1.5912
 4927TIP3   OH214786   2.371   0.462   4.879  0.1174 -0.3078 -0.4617
 4927TIP3    H114787   2.452   0.503   4.909  1.6917 -0.2752 -4.1708
 4927TIP3    H214788   2.320   0.534   4.843 -0.0056 -0.7338 -1.1670
 4928TIP3   OH214789   4.794   2.214   1.056  0.5701 -0.1663 -0.4018
 4928TIP3    H114790   4.769   2.175   0.972  0.0533  0.7276 -0.6795
 4928TIP3    H214791   4.815   2.139   1.112 -1.7759 -0.9676 -0.4626
 4929TIP3   OH214792   3.474   1.629   3.683 -0.1127 -0.2206  0.0556
 4929TIP3    H114793   3.446   1.548   3.640  0.1858 -0.6098  0.5766
 4929TIP3    H214794   3.569   1.624   3.682 -0.0985 -0.6355  1.4727
 4930TIP3   OH214795   4.096   5.911   4.239  0.1196 -0.3421  0.3799
 4930TIP3    H114796   4.087   5.857   4.317 -1.3519  0.7296  0.9970
 4930TIP3    H214797   4.006   5.927   4.210  0.5746  0.5776 -0.6218
 4931TIP3   OH214798   3.102   2.561   4.070  0.4114 -0.4051  0.1268
 4931TIP3    H114799   3.151   2.529   4.146  0.1578 -1.5742 -0.1827
 4931TIP3    H214800   3.012   2.531   4.085  0.4316 -0.9584 -0.8084
 4932TIP3   OH214801   5.400   0.850   0.715 -0.0267  0.1458 -0.7054
 4932TIP3    H114802   5.413   0.922   0.654  2.1569 -0.5214 -1.1102
 4932TIP3    H214803   5.459   0.868   0.788 -1.1302 -0.0927  0.2838
 4933TIP3   OH214804   5.142   0.049   2.457 -0.5232 -0.0314 -0.2954
 4933TIP3    H114805   5.064   0.071   2.509 -0.5581 -0.4042 -0.1842
 4933TIP3    H214806   5.195   0.128   2.459 -0.3773 -0.1389  0.5889
 4934TIP3   OH214807   2.015   2.926   0.719 -0.3337  0.3206 -0.2570
 4934TIP3    H114808   1.944   2.873   0.683 -1.0399  0.0560  1.4345
 4934TIP3    H214809   2.005   3.012   0.678 -1.3128  0.1317 -0.4167
 4935TIP3   OH214810   5.094   4.974   4.177 -0.0895 -0.3114 -0.2538
 4935TIP3    H114811   5.002   4.949   4.181 -0.8448  2.2130 -0.1202
 4935TIP3    H214812   5.141   4.898   4.209 -2.1781 -1.4149  0.3482
 4936TIP3   OH214813   0.804   4.296   3.115  0.4224 -0.4907 -0.0493
 4936TIP3    H114814   0.721   4.343   3.110  0.0003 -1.1989  0.1543
 4936TIP3    H214815   0.870   4.361   3.089 -0.0796  0.3810  0.7629
 4937TIP3   OH214816   4.931   0.848   3.793 -0.1635 -0.4873 -0.1421
 4937TIP3    H114817   4.847   0.874   3.833 -0.1840  0.5475 -0.8259
 4937TIP3    H214818   4.919   0.755   3.773 -0.5305 -0.7771  1.2834
 4938TIP3   OH214819   0.627   5.153   0.563 -0.0519  0.1033  0.3419
 4938TIP3    H114820   0.629   5.248   0.577 -0.5530  0.4111 -1.4083
 4938TIP3    H214821   0.534   5.132   0.553 -0.1164 -0.9196  2.5394
 4939TIP3   OH214822   1.546   2.529   2.247  0.3659 -0.7153  0.2815
 4939TIP3    H114823   1.589   2.481   2.317 -0.0235 -2.3288 -0.5480
 4939TIP3    H214824   1.576   2.619   2.258  0.8588 -1.0569  2.0799
 4940TIP3   OH214825   4.424   5.782   3.471  0.2794 -0.6460  0.1269
 4940TIP3    H114826   4.433   5.870   3.435 -0.2954 -0.6218  0.0370
 4940TIP3    H214827   4.474   5.785   3.553  1.3934 -0.6402 -0.5378
 4941TIP3   OH214828   3.078   0.616   2.583  0.2542 -0.1782 -0.6833
 4941TIP3    H114829   3.085   0.659   2.668  2.0889  0.8038 -1.2714
 4941TIP3    H214830   3.133   0.669   2.525 -1.9127 -0.0989 -2.7950
 4942TIP3   OH214831   3.987   1.475   2.437  0.4145  0.3168  0.5183
 4942TIP3    H114832   4.047   1.454   2.508 -0.3394  0.2394  1.1503
 4942TIP3    H214833   4.040   1.469   2.357  1.5659  1.6148  1.1626
 4943TIP3   OH214834   0.790   0.710   4.988  0.1459 -0.5315 -0.4289
 4943TIP3    H114835   0.803   0.786   4.931 -1.9265 -0.3646 -0.7395
 4943TIP3    H214836   0.753   0.643   4.930 -0.2220 -1.0026  0.3347
 4944TIP3   OH214837   5.215   0.154   1.700 -0.0564  0.1033  0.2265
 4944TIP3    H114838   5.260   0.184   1.779 -1.2914 -0.5716  1.2120
 4944TIP3    H214839   5.210   0.059   1.709 -0.7536  0.0728 -0.3690
 4945TIP3   OH214840   6.195   5.516   1.948  0.2579  0.2730 -0.5170
 4945TIP3    H114841   6.217   5.577   1.877  2.3401 -0.3874 -0.5196
 4945TIP3    H214842   6.154   5.572   2.014  2.7319  1.9177 -0.2226
 4946TIP3   OH214843   3.739   5.798   3.520  0.4397 -0.3605 -0.6120
 4946TIP3    H114844   3.778   5.731   3.575  0.1389  0.9895  1.3461
 4946TIP3    H214845   3.810   5.824   3.461  0.9673 -1.4181 -0.4696
 4947TIP3   OH214846   2.328   1.089   1.841  0.1363  0.1133  0.2158
 4947TIP3    H114847   2.382   1.040   1.903  0.2718 -0.3032 -0.2221
 4947TIP3    H214848   2.243   1.096   1.884  0.3738  0.2825  0.6682
 4948TIP3   OH214849   5.323   2.402   2.142  0.2031 -0.1299 -0.4466
 4948TIP3    H114850   5.309   2.489   2.179  1.3504  0.0961 -0.4861
 4948TIP3    H214851   5.298   2.411   2.050  1.2914  0.4554 -0.6986
 4949TIP3   OH214852   5.094   4.931   0.492  0.1305 -0.6707 -0.0111
 4949TIP3    H114853   5.083   4.990   0.567  1.3053  0.2713 -0.5352
 4949TIP3    H214854   5.173   4.963   0.449  0.2160 -2.0237 -0.9039
 4950TIP3   OH214855   3.188   1.430   1.924  0.0976 -1.2042  0.1484
 4950TIP3    H114856   3.243   1.425   1.845 -0.1159 -0.1819 -0.0900
 4950TIP3    H214857   3.220   1.360   1.980  2.3995 -0.0009  0.4771
 4951TIP3   OH214858   0.611   2.911   4.363 -0.0092  0.2014 -0.1712
 4951TIP3    H114859   0.611   2.970   4.288 -1.0126  0.9366  0.3851
 4951TIP3    H214860   0.642   2.964   4.436 -2.5434  0.6470  0.7151
 4952TIP3   OH214861   4.965   4.672   2.067 -0.2302  0.0530 -0.0914
 4952TIP3    H114862   5.018   4.677   2.146  1.2777 -1.8435 -0.8841
 4952TIP3    H214863   4.895   4.736   2.080  1.5579  1.8074  1.5461
 4953TIP3   OH214864   3.078   3.286   1.040 -1.0224 -0.2365 -0.7277
 4953TIP3    H114865   3.169   3.289   1.070 -1.5898 -1.5711  1.3227
 4953TIP3    H214866   3.078   3.337   0.959  1.5254 -0.1363 -0.7532
 4954TIP3   OH214867   2.252   4.250   4.546 -0.2503 -0.8484  0.2709
 4954TIP3    H114868   2.312   4.244   4.472  0.5339  2.5051  0.4689
 4954TIP3    H214869   2.170   4.282   4.508 -0.3898 -0.7591  0.6387
 4955TIP3   OH214870   5.370   4.021   1.047  0.1933 -0.5534 -0.0335
 4955TIP3    H114871   5.416   3.987   1.123  1.1149 -0.0852 -0.3642
 4955TIP3    H214872   5.338   4.107   1.074 -2.5069 -1.7503  0.9453
 4956TIP3   OH214873   0.285   1.051   4.909 -0.0307  0.3467  0.2982
 4956TIP3    H114874   0.379   1.067   4.894 -0.6279  2.7413 -1.5628
 4956TIP3    H214875   0.254   1.130   4.953 -2.1011  2.2680 -4.0154
 4957TIP3   OH214876   2.613   0.772   0.160 -0.0495 -0.1478  0.4982
 4957TIP3    H114877   2.521   0.792   0.173 -0.5352 -1.2909 -0.9019
 4957TIP3    H214878   2.639   0.825   0.084 -0.6140 -2.5326 -1.4858
 4958TIP3   OH214879   4.621   4.866   4.066 -0.1974  0.3305  0.4302
 4958TIP3    H114880   4.566   4.934   4.105 -0.2075 -0.0394  1.0912
 4958TIP3    H214881   4.560   4.795   4.045 -0.1365  0.3791  0.0900
 4959TIP3   OH214882   3.921   3.153   3.354 -0.4957  0.0660 -0.0835
 4959TIP3    H114883   3.940   3.114   3.439 -1.3496  0.6688  0.3941
 4959TIP3    H214884   4.006   3.158   3.311 -0.0086  0.0055  0.8442
 4960TIP3   OH214885   6.156   2.908   0.438 -0.4804 -0.1322 -0.0959
 4960TIP3    H114886   6.086   2.973   0.433  0.1316  0.7561  1.9548
 4960TIP3    H214887   6.143   2.864   0.522 -0.1643 -1.8642 -0.9159
 4961TIP3   OH214888   3.429   5.871   1.308  0.5833  0.4879  0.1394
 4961TIP3    H114889   3.449   5.828   1.391  1.4195 -1.0690 -0.8206
 4961TIP3    H214890   3.480   5.951   1.310  2.0433 -0.4079  0.4004
 4962TIP3   OH214891   4.129   1.569   3.908 -0.0418 -0.1960 -0.0945
 4962TIP3    H114892   4.184   1.556   3.986 -0.1286 -1.9958 -0.3021
 4962TIP3    H214893   4.187   1.615   3.846  1.1256 -1.6825 -0.1560
 4963TIP3   OH214894   1.546   2.448   4.127 -0.2748  0.1263  0.1161
 4963TIP3    H114895   1.556   2.502   4.049  4.0663  1.2182  1.1721
 4963TIP3    H214896   1.601   2.372   4.111  0.9042  0.4914  2.1497
 4964TIP3   OH214897   2.498   4.112   3.912 -0.1017 -0.1653  0.1931
 4964TIP3    H114898   2.566   4.122   3.979  0.4010 -0.9718 -0.1896
 4964TIP3    H214899   2.537   4.146   3.832 -0.7244  0.8486  0.2977
 4965TIP3   OH214900   2.610   3.294   1.143 -0.6484 -0.2909 -0.0009
 4965TIP3    H114901   2.627   3.367   1.203 -1.0470 -0.8191  0.7718
 4965TIP3    H214902   2.669   3.225   1.173 -0.3811 -0.3463 -0.6367
 4966TIP3   OH214903   2.532   2.361   1.000  0.3862 -0.1298  0.1019
 4966TIP3    H114904   2.491   2.325   0.921  0.4242 -1.0973  0.5167
 4966TIP3    H214905   2.530   2.456   0.986 -1.1008 -0.1898 -0.3401
 4967TIP3   OH214906   2.772   1.881   0.153  0.2976 -0.5123  0.2990
 4967TIP3    H114907   2.690   1.929   0.161  1.2630  1.4733 -0.8834
 4967TIP3    H214908   2.797   1.890   0.061  2.4173  0.0536  0.8528
 4968TIP3   OH214909   4.410   5.741   4.653 -0.0944 -0.1567 -0.0584
 4968TIP3    H114910   4.426   5.783   4.568 -1.4537  0.4544 -0.0367
 4968TIP3    H214911   4.467   5.787   4.714 -0.1567  0.3546 -0.3809
 4969TIP3   OH214912   0.078   3.112   2.585 -0.1577 -0.5519 -0.0455
 4969TIP3    H114913   0.086   3.017   2.594 -1.5691 -0.6339  0.6151
 4969TIP3    H214914  -0.010   3.132   2.618  0.0572  0.9677 -0.3190
 4970TIP3   OH214915   2.859   1.374   2.231 -0.0288 -0.1694 -0.2764
 4970TIP3    H114916   2.768   1.401   2.216  0.1034  0.1417 -0.5098
 4970TIP3    H214917   2.851   1.296   2.286 -0.5669 -1.6292 -2.2803
 4971TIP3   OH214918   1.945   1.727   2.388  0.0301 -0.2840  0.0166
 4971TIP3    H114919   1.965   1.772   2.306 -0.6189 -0.9031 -0.4951
 4971TIP3    H214920   2.017   1.666   2.400 -0.5221 -1.1270 -0.8000
 4972TIP3   OH214921   5.598   4.767   0.093 -0.2469  0.3246 -0.8336
 4972TIP3    H114922   5.654   4.749   0.018 -0.0980 -1.3237 -0.3661
 4972TIP3    H214923   5.658   4.785   0.165 -0.3849  3.0371 -1.2887
 4973TIP3   OH214924   4.154   3.564   3.859 -0.1444 -0.2438 -0.1067
 4973TIP3    H114925   4.225   3.627   3.865 -0.7460  0.3733  0.5483
 4973TIP3    H214926   4.176   3.512   3.781  1.6904 -0.9052  0.7876
 4974TIP3   OH214927   5.254   5.221   4.455  0.1685  0.1729  0.3990
 4974TIP3    H114928   5.187   5.154   4.470  0.8510 -0.5397  0.3213
 4974TIP3    H214929   5.206   5.304   4.458 -0.5431 -0.2523  1.4262
 4975TIP3   OH214930   0.669   3.186   2.857  0.3913  0.9695  0.0404
 4975TIP3    H114931   0.689   3.280   2.858  0.3610  1.0512 -2.0231
 4975TIP3    H214932   0.598   3.177   2.794  1.0267 -0.5320 -0.5239
 4976TIP3   OH214933   0.713   4.580   2.282  0.3481  0.4579 -0.4752
 4976TIP3    H114934   0.656   4.625   2.219  1.9156  3.0109 -0.2253
 4976TIP3    H214935   0.663   4.503   2.308 -2.5147  1.9250 -1.1135
 4977TIP3   OH214936   5.711   3.512   4.425  0.2990 -0.3347  0.2131
 4977TIP3    H114937   5.802   3.483   4.433  0.0472 -1.2097  0.0234
 4977TIP3    H214938   5.685   3.536   4.514  0.7536  0.0577  0.2453
 4978TIP3   OH214939   3.847   3.132   2.608 -0.7861 -0.1762 -0.5168
 4978TIP3    H114940   3.819   3.141   2.699  1.1520 -2.8870  0.4614
 4978TIP3    H214941   3.943   3.135   2.612 -0.6731  0.3886 -2.6002
 4979TIP3   OH214942   1.807   5.107   0.290 -0.6165 -0.2456  0.0274
 4979TIP3    H114943   1.806   5.156   0.372 -0.3294 -1.7025  0.9429
 4979TIP3    H214944   1.867   5.034   0.307  0.2626 -0.0031 -1.8341
 4980TIP3   OH214945   1.256   5.834   4.571  0.1638  0.2006  0.3053
 4980TIP3    H114946   1.213   5.760   4.528 -0.8906  0.9145  0.0995
 4980TIP3    H214947   1.186   5.896   4.588  1.0781  1.3080  0.1789
 4981TIP3   OH214948   0.042   2.441   1.173  0.1724 -0.4715 -0.0283
 4981TIP3    H114949   0.063   2.385   1.099 -1.0796 -1.0017 -0.0085
 4981TIP3    H214950   0.126   2.456   1.216  0.8880 -0.3400 -1.4094
 4982TIP3   OH214951   2.446   1.515   1.988  0.2712 -0.1656  0.0148
 4982TIP3    H114952   2.423   1.588   1.930  0.4501  0.3477  0.5822
 4982TIP3    H214953   2.479   1.447   1.929  0.0167  0.1771 -0.5262
 4983TIP3   OH214954   2.511   5.178   5.175 -0.1735  0.0898  0.2708
 4983TIP3    H114955   2.575   5.133   5.119 -1.5352  0.1043 -1.3606
 4983TIP3    H214956   2.428   5.136   5.154 -1.0589  1.5692  0.7075
 4984TIP3   OH214957   3.576   4.261   3.804 -0.2227 -0.3039  0.3792
 4984TIP3    H114958   3.655   4.229   3.847  0.4089 -0.1765 -0.6559
 4984TIP3    H214959   3.528   4.307   3.874  1.6429  1.4781  0.5895
 4985TIP3   OH214960   5.099   4.942   2.360  0.0743  0.4472 -0.5517
 4985TIP3    H114961   5.134   5.014   2.308 -0.0206 -0.2545 -1.6153
 4985TIP3    H214962   5.132   4.863   2.318  0.8992 -0.1408  1.1217
 4986TIP3   OH214963   0.986   0.094   5.173  0.1833 -0.0055  0.1451
 4986TIP3    H114964   0.961   0.164   5.234  2.1791 -0.2106  1.2708
 4986TIP3    H214965   1.067   0.125   5.133 -0.5729 -0.3248 -1.7159
 4987TIP3   OH214966   0.751   2.482   0.850  0.0844  0.1335  0.0900
 4987TIP3    H114967   0.841   2.451   0.847  0.9501  2.5012 -1.0370
 4987TIP3    H214968   0.718   2.467   0.761  0.1142  1.1958 -0.1161
 4988TIP3   OH214969   1.053   2.314   2.675 -0.0314  0.2749  0.4138
 4988TIP3    H114970   1.004   2.248   2.626 -1.0900  0.3006  1.3916
 4988TIP3    H214971   1.103   2.362   2.608 -0.7424 -0.2689 -0.5261
 4989TIP3   OH214972   2.509   4.488   2.198 -0.1918 -0.3804 -0.1284
 4989TIP3    H114973   2.558   4.430   2.139 -0.3463  0.6454 -1.3257
 4989TIP3    H214974   2.572   4.556   2.222  0.0081 -1.0478  1.3119
 4990TIP3   OH214975   1.524   2.029   1.036  0.2165  0.1831 -0.1062
 4990TIP3    H114976   1.555   2.058   1.122 -0.2811  2.4753 -0.6603
 4990TIP3    H214977   1.444   2.079   1.021 -0.1988 -0.8593 -1.5330
 4991TIP3   OH214978   5.990   3.407   4.829 -0.2535  0.0950  0.3820
 4991TIP3    H114979   6.051   3.469   4.868 -0.5877  0.9109 -0.3518
 4991TIP3    H214980   6.035   3.376   4.750 -0.1469 -0.4906  0.6708
 4992TIP3   OH214981   1.621   0.505   2.466  0.5494 -0.2677  0.1177
 4992TIP3    H114982   1.611   0.572   2.398  1.3053 -0.9629 -0.7022
 4992TIP3    H214983   1.659   0.430   2.420  1.2061 -0.7076  1.3392
 4993TIP3   OH214984   5.528   2.717   0.614  0.4007  0.3568  0.1631
 4993TIP3    H114985   5.490   2.805   0.611 -1.3706 -0.3431  0.8617
 4993TIP3    H214986   5.595   2.722   0.682 -2.0781  0.3377  2.7628
 4994TIP3   OH214987   1.186   1.794   1.566  0.2905 -0.0029 -0.4044
 4994TIP3    H114988   1.234   1.830   1.640 -0.0108 -1.3655  0.4999
 4994TIP3    H214989   1.096   1.785   1.597 -0.1155  0.5216 -1.3580
 4995TIP3   OH214990   5.919   0.417   0.806 -0.0202  0.2507 -0.0837
 4995TIP3    H114991   5.842   0.473   0.797 -1.1664 -1.0458  1.1926
 4995TIP3    H214992   5.887   0.329   0.788  1.3241 -0.2351 -0.2021
 4996TIP3   OH214993   4.468   5.257   2.815  0.1766 -0.1159  0.4903
 4996TIP3    H114994   4.534   5.269   2.747  0.9476 -1.1893  1.0314
 4996TIP3    H214995   4.494   5.318   2.885  0.5080 -0.4343  0.6433
 4997TIP3   OH214996   1.810   5.190   2.103  0.2021  0.2630 -0.1551
 4997TIP3    H114997   1.780   5.114   2.153  0.7139 -0.2425 -0.5905
 4997TIP3    H214998   1.763   5.264   2.140  0.0383 -0.2059  0.5910
 4998TIP3   OH214999   5.876   2.961   0.548  0.2117 -0.7120  0.3502
 4998TIP3    H115000   5.853   3.020   0.476 -4.9484 -2.8104 -0.1069
 4998TIP3    H215001   5.850   3.008   0.627 -2.3297 -1.5667  0.0980
 4999TIP3   OH215002   2.247   0.396   1.466  0.3867 -0.1007 -0.1440
 4999TIP3    H115003   2.226   0.332   1.533 -1.7412  0.2984 -0.3669
 4999TIP3    H215004   2.205   0.477   1.495 -0.8253  0.0198 -2.0289
 5000TIP3   OH215005   0.030   4.969   4.957  0.6517  0.2592 -0.0654
 5000TIP3    H115006  -0.001   4.958   5.047  1.5135 -1.2801  0.0635
 5000TIP3    H215007   0.110   5.021   4.966 -0.1451  1.5362 -0.1188
 5001TIP3   OH215008   4.777   0.116   0.289 -0.4260 -0.2666  0.7557
 5001TIP3    H115009   4.786   0.054   0.217 -1.6699 -0.1310  0.4673
 5001TIP3    H215010   4.754   0.062   0.364  1.4047 -0.4744  1.2184
 5002TIP3   OH215011   0.808   2.043   3.531  0.0756  0.1514  0.0453
 5002TIP3    H115012   0.723   2.086   3.541 -0.3302 -0.7297  0.4467
 5002TIP3    H215013   0.804   2.001   3.445 -0.3905 -0.9596  0.5994
 5003TIP3   OH215014   3.596   0.024   4.074  0.8298 -0.2586 -0.5583
 5003TIP3    H115015   3.606  -0.004   4.165  1.5347 -0.0767 -0.5712
 5003TIP3    H215016   3.556   0.110   4.079  1.3365 -0.0287 -0.3943
 5004TIP3   OH215017   3.296   2.148   1.345  0.3798  0.7468  0.2347
 5004TIP3    H115018   3.219   2.108   1.305  0.9329  1.6544 -1.8778
 5004TIP3    H215019   3.370   2.115   1.292  1.2264  1.4814  0.9344
 5005TIP3   OH215020   6.241   4.628   2.037 -0.2527  0.3908 -0.1225
 5005TIP3    H115021   6.282   4.712   2.022  0.1454  0.1956 -0.1367
 5005TIP3    H215022   6.312   4.572   2.069 -0.7082  0.3256  0.8105
 5006TIP3   OH215023   3.961   3.156   4.838  0.8666 -0.0252 -0.8595
 5006TIP3    H115024   4.052   3.129   4.832  0.9833  0.5034 -1.5274
 5006TIP3    H215025   3.921   3.128   4.756  0.9773  1.7353 -1.5523
 5007TIP3   OH215026   5.309   4.748   3.132  0.2489 -0.4040 -0.0971
 5007TIP3    H115027   5.395   4.775   3.162  0.3849 -0.3894 -0.4873
 5007TIP3    H215028   5.312   4.762   3.037  0.4775 -2.2170 -0.3868
 5008TIP3   OH215029   6.272   0.062   0.222 -0.6117 -0.0429 -0.7731
 5008TIP3    H115030   6.337   0.010   0.175 -2.0333 -1.5174 -1.1914
 5008TIP3    H215031   6.288   0.044   0.314  0.8358  1.2223 -0.7189
 5009TIP3   OH215032   3.038   1.634   4.399  0.1415 -0.0924 -0.2150
 5009TIP3    H115033   3.050   1.564   4.334  0.5665  0.2096 -0.4681
 5009TIP3    H215034   3.089   1.707   4.365  0.6402 -0.0380  0.6267
 5010TIP3   OH215035   1.262   4.660   2.480 -0.2308  0.0265 -0.3301
 5010TIP3    H115036   1.234   4.588   2.536 -1.9297 -0.7796 -2.1030
 5010TIP3    H215037   1.351   4.679   2.509 -0.3946 -1.5492  1.4050
 5011TIP3   OH215038   5.996   0.762   2.326  0.0831 -0.1576 -0.0786
 5011TIP3    H115039   5.977   0.835   2.384 -1.0831 -0.2093 -0.3651
 5011TIP3    H215040   5.930   0.769   2.257  0.7067 -0.7837 -0.7536
 5012TIP3   OH215041   4.230   1.337   1.487  0.2142 -0.3801 -0.2820
 5012TIP3    H115042   4.310   1.371   1.448  0.1383  0.0751 -0.0569
 5012TIP3    H215043   4.254   1.314   1.577 -0.1485  0.8254  0.1560
 5013TIP3   OH215044   4.094   2.190   4.615 -0.0078 -0.2555  0.2875
 5013TIP3    H115045   4.043   2.246   4.673  0.5081 -1.0558  1.5591
 5013TIP3    H215046   4.181   2.230   4.614 -0.2165  0.2245 -0.6377
 5014TIP3   OH215047   1.069   2.074   4.736 -0.3240 -0.1981  0.0315
 5014TIP3    H115048   1.009   2.011   4.696  0.7163  0.1668 -2.2527
 5014TIP3    H215049   1.058   2.153   4.684  0.1673  0.7403  1.3156
 5015TIP3   OH215050   0.441   3.916   3.603 -0.3246 -0.1257 -0.5115
 5015TIP3    H115051   0.534   3.900   3.584  0.0013 -0.1722  1.0133
 5015TIP3    H215052   0.395   3.887   3.524  0.9782  0.2470 -1.4420
 5016TIP3   OH215053   4.108   1.585   4.196  0.2531 -0.3207  0.3462
 5016TIP3    H115054   4.032   1.622   4.240 -0.0854 -0.4764 -0.0960
 5016TIP3    H215055   4.147   1.526   4.260 -0.3637 -0.7181  0.3665
 5017TIP3   OH215056   0.744   4.893   3.808 -0.1304 -0.3766 -0.0540
 5017TIP3    H115057   0.815   4.832   3.788 -0.3054 -0.8774  0.8457
 5017TIP3    H215058   0.731   4.886   3.902  0.6405  1.9062  0.3005
 5018TIP3   OH215059   2.805   0.333   1.207 -0.3968 -0.1871 -0.3460
 5018TIP3    H115060   2.864   0.299   1.139 -1.9819 -2.3741 -0.7596
 5018TIP3    H215061   2.853   0.320   1.289  0.7667  0.6538 -0.8747
 5019TIP3   OH215062   1.662   3.729   2.647 -0.5950 -0.3237  0.2296
 5019TIP3    H115063   1.575   3.757   2.617  0.1180  0.6090 -1.1004
 5019TIP3    H215064   1.697   3.805   2.693 -1.6381 -1.7094  3.6228
 5020TIP3   OH215065   2.825   1.584   3.865  0.0839 -0.2598  0.5245
 5020TIP3    H115066   2.921   1.583   3.865  0.1832 -0.3426  3.3993
 5020TIP3    H215067   2.801   1.535   3.944 -2.3287 -0.1190 -0.0512
 5021TIP3   OH215068   3.291   1.070   2.829  0.3128 -0.3565  0.1067
 5021TIP3    H115069   3.195   1.075   2.821  0.1401 -0.1423  1.8650
 5021TIP3    H215070   3.305   1.006   2.899  1.4358  0.2715  0.4685
 5022TIP3   OH215071   4.805   5.842   3.296  0.6202 -0.7395 -0.0271
 5022TIP3    H115072   4.713   5.865   3.306  0.4306 -0.7920 -1.4159
 5022TIP3    H215073   4.805   5.748   3.283  0.6556 -0.5294 -1.8604
 5023TIP3   OH215074   0.545   0.609   4.327  0.3792  0.6973  0.2001
 5023TIP3    H115075   0.450   0.618   4.328  0.1595 -0.8225 -2.2057
 5023TIP3    H215076   0.570   0.623   4.236  1.9809 -2.9184 -0.0666
 5024TIP3   OH215077   2.181   4.035   0.928  0.1051 -0.2530  0.0307
 5024TIP3    H115078   2.208   4.106   0.870 -0.5895  0.6796  0.8097
 5024TIP3    H215079   2.178   4.075   1.015  0.4648 -1.4496  0.6172
 5025TIP3   OH215080   4.378   3.891   2.682 -0.1519 -0.3487 -0.1573
 5025TIP3    H115081   4.389   3.810   2.632  1.2312 -0.0622 -0.3759
 5025TIP3    H215082   4.462   3.937   2.671 -0.2642  0.2982  1.4105
 5026TIP3   OH215083   3.531   5.469   1.116  0.1563  0.1815  0.5890
 5026TIP3    H115084   3.467   5.540   1.123 -0.5447 -0.3685 -0.1629
 5026TIP3    H215085   3.495   5.400   1.172 -0.5690 -0.5990 -0.7929
 5027TIP3   OH215086   0.812   2.588   3.043 -0.2268 -0.3105 -0.0019
 5027TIP3    H115087   0.848   2.640   2.971 -2.1568  0.0580 -0.7668
 5027TIP3    H215088   0.784   2.507   3.001  2.1451 -1.7836  1.0637
 5028TIP3   OH215089   3.836   4.615  -0.003 -0.3472  0.1069 -0.5061
 5028TIP3    H115090   3.845   4.599   0.091 -0.1730  1.0937 -0.3414
 5028TIP3    H215091   3.810   4.530  -0.040 -1.3193 -0.0842  0.5548
 5029TIP3   OH215092   5.363   4.838   0.233 -0.0239  0.3299  0.1229
 5029TIP3    H115093   5.377   4.906   0.298  0.6152 -0.4875  0.8722
 5029TIP3    H215094   5.449   4.823   0.195  0.1665 -1.0350  0.9946
 5030TIP3   OH215095   6.225   5.989   2.123  0.7248 -0.1671 -0.0710
 5030TIP3    H115096   6.167   6.035   2.062  0.6851  1.6921  1.2613
 5030TIP3    H215097   6.195   5.899   2.122 -1.9636  0.6536  0.2921
 5031TIP3   OH215098   1.630   1.269   1.603  0.2724 -0.0401 -0.2586
 5031TIP3    H115099   1.581   1.199   1.647 -0.4806 -0.3927 -1.6172
 5031TIP3    H215100   1.592   1.274   1.516  1.1889  1.2059 -0.6129
 5032TIP3   OH215101   0.975   5.623   3.416 -0.5155 -0.0367 -0.1145
 5032TIP3    H115102   0.985   5.712   3.451 -3.4843  0.7698 -1.0121
 5032TIP3    H215103   0.975   5.567   3.494  0.7224  0.8139  0.5201
 5033TIP3   OH215104   3.666   5.136   0.677 -0.1966  0.4354 -0.0221
 5033TIP3    H115105   3.733   5.145   0.746 -1.4176 -1.8606  1.6035
 5033TIP3    H215106   3.586   5.113   0.724 -2.3071  3.2642 -1.8848
 5034TIP3   OH215107   1.785   0.455   3.225  0.1440  0.4092  0.2986
 5034TIP3    H115108   1.801   0.549   3.234 -1.4537  0.6267  1.2641
 5034TIP3    H215109   1.858   0.414   3.269 -0.6691  1.2956  2.6370
 5035TIP3   OH215110   2.561   5.453   1.365 -0.5049 -0.2223  0.1395
 5035TIP3    H115111   2.517   5.436   1.281 -1.8290  0.4358  0.6663
 5035TIP3    H215112   2.649   5.418   1.353 -0.3727  0.6482 -1.8335
 5036TIP3   OH215113   3.109   3.321   4.718  0.2669 -0.0407 -0.1087
 5036TIP3    H115114   3.137   3.241   4.674 -2.4510 -1.5505  0.6653
 5036TIP3    H215115   3.051   3.291   4.788 -0.5962  2.5878  0.4249
 5037TIP3   OH215116   0.696   5.483   0.692  0.1946 -0.0003  0.5581
 5037TIP3    H115117   0.680   5.560   0.746  1.1252  0.5939  0.0090
 5037TIP3    H215118   0.728   5.517   0.609 -1.1949 -0.9039 -0.3922
 5038TIP3   OH215119   3.755   0.541   3.777  0.4213  0.3709 -0.0489
 5038TIP3    H115120   3.699   0.468   3.803  0.8531 -0.4678 -1.4004
 5038TIP3    H215121   3.738   0.608   3.842 -2.8794  0.5276 -0.9318
 5039TIP3   OH215122   5.247   3.468   3.051 -0.0289 -0.1995 -0.7292
 5039TIP3    H115123   5.198   3.464   3.133  1.4554 -0.6036  0.1760
 5039TIP3    H215124   5.217   3.548   3.009 -2.6255 -1.2050 -1.0074
 5040TIP3   OH215125   2.551   0.831   3.723  0.0786 -0.0808  0.3376
 5040TIP3    H115126   2.506   0.864   3.801 -1.5295  0.5668 -0.7955
 5040TIP3    H215127   2.636   0.802   3.755  0.5884  2.7525  1.8653
 5041TIP3   OH215128   3.523   3.489   1.335  0.2365 -0.6896 -0.0453
 5041TIP3    H115129   3.530   3.487   1.431 -2.1749  0.7890  0.2607
 5041TIP3    H215130   3.549   3.578   1.311 -0.5517 -0.5839 -0.5636
 5042TIP3   OH215131   2.615   2.251   2.976  0.1112 -0.0202  0.5409
 5042TIP3    H115132   2.540   2.287   3.023 -0.9570 -1.4066 -0.0316
 5042TIP3    H215133   2.591   2.257   2.884 -0.2462 -2.4208  0.4354
 5043TIP3   OH215134   1.713   1.066   2.379 -0.1902 -0.2548  0.1772
 5043TIP3    H115135   1.730   1.160   2.389 -2.2750  0.1647  0.2572
 5043TIP3    H215136   1.619   1.056   2.398 -0.3245 -2.1464 -1.1579
 5044TIP3   OH215137   4.387   1.766   1.446 -0.0975  0.0365  0.2931
 5044TIP3    H115138   4.303   1.771   1.492  0.9243 -0.3123  2.2732
 5044TIP3    H215139   4.422   1.855   1.451  1.0436 -0.4719  2.2880
 5045TIP3   OH215140   3.349   5.615   0.780 -0.2694  0.3419 -0.0223
 5045TIP3    H115141   3.388   5.535   0.814  0.5124  1.7419  2.5928
 5045TIP3    H215142   3.415   5.682   0.794 -1.5339  1.7640 -0.6020
 5046TIP3   OH215143   3.240   1.505   3.889  0.0858  0.0392  0.2738
 5046TIP3    H115144   3.271   1.415   3.885 -2.3808 -1.0412  2.5880
 5046TIP3    H215145   3.191   1.517   3.808 -1.4052 -1.5144  0.8850
 5047TIP3   OH215146   6.376   4.246   4.602  0.4289  0.5455  0.1396
 5047TIP3    H115147   6.335   4.313   4.655 -0.4185 -0.7893  1.2329
 5047TIP3    H215148   6.323   4.243   4.522  0.5684  1.2600  0.0119
 5048TIP3   OH215149   0.133   4.443   2.241  0.5083 -0.0156 -0.1550
 5048TIP3    H115150   0.216   4.485   2.260  0.4058  0.4048 -0.6223
 5048TIP3    H215151   0.153   4.349   2.240  0.8923  0.0608  0.1193
 5049TIP3   OH215152   0.487   1.496   1.029  0.2910  0.4385  0.2081
 5049TIP3    H115153   0.523   1.407   1.022 -0.5820  0.0129  1.0229
 5049TIP3    H215154   0.472   1.522   0.938  1.8851  0.3270 -0.1271
 5050TIP3   OH215155   6.190   2.418   1.823 -0.0202 -0.1665  0.4306
 5050TIP3    H115156   6.154   2.391   1.739  0.4352 -3.1335  1.0662
 5050TIP3    H215157   6.114   2.417   1.882 -0.1005  0.5642  0.3442
 5051TIP3   OH215158   5.831   0.159   3.864  0.0583  0.5158 -0.0070
 5051TIP3    H115159   5.925   0.147   3.872  0.4141  3.5720  1.7158
 5051TIP3    H215160   5.793   0.090   3.919  1.3322  0.0399  0.2964
 5052TIP3   OH215161   3.563   5.023   4.264  0.2501 -0.4688 -0.1589
 5052TIP3    H115162   3.560   5.057   4.175  0.7402 -0.9830 -0.3734
 5052TIP3    H215163   3.558   5.101   4.320  1.5575 -0.0008 -0.6464
 5053TIP3   OH215164   5.825   1.353   3.063 -0.3119 -0.0802 -0.0851
 5053TIP3    H115165   5.811   1.444   3.038 -0.4081 -0.3137 -0.9375
 5053TIP3    H215166   5.797   1.303   2.986 -1.5976 -0.9120  0.8869
 5054TIP3   OH215167   4.599   4.987   3.195  0.0036 -0.0591 -0.0727
 5054TIP3    H115168   4.539   5.021   3.128 -0.4096  0.6932  0.6581
 5054TIP3    H215169   4.562   5.019   3.277  1.1200 -0.0430  0.4305
 5055TIP3   OH215170   5.103   1.707   1.972 -0.1537 -0.3208 -0.0040
 5055TIP3    H115171   5.040   1.771   1.938  0.0867 -0.4570 -0.7251
 5055TIP3    H215172   5.180   1.759   1.994 -0.9806  0.0669  2.2412
 5056TIP3   OH215173   2.696   2.919   4.795  0.5208 -0.7213 -0.7351
 5056TIP3    H115174   2.645   2.848   4.757 -1.6763  0.5822 -0.3989
 5056TIP3    H215175   2.643   2.949   4.869  0.8478  1.8951 -1.4535
 5057TIP3   OH215176   5.362   2.175   4.538  0.2218 -0.0226 -0.1708
 5057TIP3    H115177   5.290   2.180   4.475 -0.8504 -0.1209  1.0142
 5057TIP3    H215178   5.390   2.083   4.534  0.0441 -0.0702 -0.3663
 5058TIP3   OH215179   2.226   5.200   2.585 -0.1753  0.1288  0.2246
 5058TIP3    H115180   2.150   5.222   2.639 -0.0110 -0.9815  0.9373
 5058TIP3    H215181   2.294   5.176   2.648 -0.1668 -1.7996 -0.4512
 5059TIP3   OH215182   0.293   3.509   3.976 -0.1102  0.4533  0.7923
 5059TIP3    H115183   0.388   3.516   3.970  0.0181 -0.2595  1.7913
 5059TIP3    H215184   0.260   3.572   3.911  1.0312 -1.4237 -1.7808
 5060TIP3   OH215185   3.531   1.552   2.043  0.7056 -0.3393  0.1460
 5060TIP3    H115186   3.546   1.479   1.982  0.1619 -0.1827 -0.1913
 5060TIP3    H215187   3.468   1.518   2.106  1.1557 -0.4527  0.5400
 5061TIP3   OH215188   1.691   1.598   2.300 -0.1560  0.2013  0.5379
 5061TIP3    H115189   1.784   1.588   2.322 -0.4002 -2.7617  0.5894
 5061TIP3    H215190   1.692   1.644   2.216  1.3161  0.8624  0.8811
 5062TIP3   OH215191   5.338   2.965   4.884  0.3857 -0.4511  0.4196
 5062TIP3    H115192   5.389   2.894   4.922  0.2614 -0.6098  0.2920
 5062TIP3    H215193   5.370   3.044   4.927  1.5460 -0.4076 -0.4700
 5063TIP3   OH215194   2.269   0.853   1.683 -0.4284 -0.7757  0.2708
 5063TIP3    H115195   2.362   0.853   1.663 -0.2459  0.0802  1.0189
 5063TIP3    H215196   2.252   0.941   1.717 -1.2486 -1.2983  1.2896
 5064TIP3   OH215197   0.539   1.568   1.795  0.3145  0.2313 -0.6234
 5064TIP3    H115198   0.528   1.486   1.746 -0.2561  0.6591 -1.2376
 5064TIP3    H215199   0.487   1.555   1.874  2.3847 -1.0103  0.6095
 5065TIP3   OH215200   2.867   5.131   3.806 -0.2628  0.1723  0.0200
 5065TIP3    H115201   2.804   5.199   3.784 -0.1597  0.2044 -0.1734
 5065TIP3    H215202   2.885   5.086   3.724 -0.3673 -0.1199  0.1551
 5066TIP3   OH215203   0.666   0.263   1.452  0.1857  0.4586  0.5648
 5066TIP3    H115204   0.594   0.271   1.389  1.1456  0.7254 -0.5201
 5066TIP3    H215205   0.713   0.185   1.425  0.5419  0.5085  1.0260
 5067TIP3   OH215206   0.341   2.583   2.962  0.5334 -0.0721  0.2449
 5067TIP3    H115207   0.377   2.525   3.028 -1.5907 -1.1395  0.5747
 5067TIP3    H215208   0.349   2.670   2.999 -0.7535 -0.6602  2.0300
 5068TIP3   OH215209   0.751   4.693   2.918 -0.5558  0.1490  0.6603
 5068TIP3    H115210   0.833   4.740   2.930 -0.7127  0.8050 -0.6993
 5068TIP3    H215211   0.775   4.600   2.927  0.3574  0.3309  0.1802
 5069TIP3   OH215212   4.170   5.584   2.214 -0.1654  0.0549 -0.2368
 5069TIP3    H115213   4.134   5.578   2.303 -1.8182  2.1821 -0.6811
 5069TIP3    H215214   4.109   5.534   2.160  0.4766 -0.6848 -0.2936
 5070TIP3   OH215215   0.082   1.667   4.668 -0.3878  0.1867  0.1122
 5070TIP3    H115216   0.044   1.701   4.750  0.3877 -0.6963  0.8616
 5070TIP3    H215217   0.166   1.712   4.662 -0.2986 -0.0039 -0.0318
 5071TIP3   OH215218   3.267   3.721   1.263 -0.4956  0.1544 -0.2282
 5071TIP3    H115219   3.356   3.741   1.293 -0.5846 -1.1119  0.9477
 5071TIP3    H215220   3.269   3.740   1.169  0.2031  2.8511  0.2366
 5072TIP3   OH215221   6.233   4.238   0.761 -0.1764  0.1053 -0.3095
 5072TIP3    H115222   6.163   4.298   0.736 -0.4300  0.3165  0.8437
 5072TIP3    H215223   6.312   4.291   0.763 -0.0347 -0.0572 -1.2733
 5073TIP3   OH215224   1.270   0.324   5.128 -0.1989  0.1645  0.1062
 5073TIP3    H115225   1.231   0.276   5.055  0.7193  0.0410 -0.3121
 5073TIP3    H215226   1.346   0.367   5.090  1.0340 -0.9295  1.2437
 5074TIP3   OH215227   0.325   0.906   0.176 -0.4077 -0.0906 -0.3202
 5074TIP3    H115228   0.312   0.848   0.101  0.2249  1.9454 -2.1398
 5074TIP3    H215229   0.398   0.867   0.224  0.9379 -0.1438 -2.2712
 5075TIP3   OH215230   3.235   1.827   4.256 -0.1556 -0.0909 -0.6880
 5075TIP3    H115231   3.239   1.911   4.302  0.0372  0.1770 -1.1881
 5075TIP3    H215232   3.297   1.772   4.304 -0.0592  0.1409 -0.5381
 5076TIP3   OH215233   5.070   4.981   4.858 -0.0355  0.0587 -0.1192
 5076TIP3    H115234   5.078   5.039   4.782 -1.8814  1.7348  0.8630
 5076TIP3    H215235   5.045   4.896   4.822  1.3609  0.1908 -1.4995
 5077TIP3   OH215236   1.458   2.152   0.098 -0.4804 -0.2271  0.2848
 5077TIP3    H115237   1.366   2.128   0.086 -0.5976 -0.5142  1.5846
 5077TIP3    H215238   1.456   2.246   0.114 -0.5922 -0.3032  0.7212
 5078TIP3   OH215239   1.718   1.551   4.310 -0.2888 -0.1118  0.0414
 5078TIP3    H115240   1.743   1.644   4.311 -0.6346 -0.0115  0.6498
 5078TIP3    H215241   1.669   1.540   4.229 -2.3641  0.8598  1.0726
 5079TIP3   OH215242   3.359   1.416   1.204 -0.3414  0.4422 -0.0017
 5079TIP3    H115243   3.439   1.365   1.190  0.3453  0.6717  2.5658
 5079TIP3    H215244   3.378   1.502   1.165  0.2212  0.1488 -0.3848
 5080TIP3   OH215245   3.568   4.901   3.561 -0.1068 -0.0311  0.1290
 5080TIP3    H115246   3.634   4.943   3.616 -0.7269  1.2473 -0.0529
 5080TIP3    H215247   3.615   4.874   3.482  0.0321  1.9040 -0.5079
 5081TIP3   OH215248   5.255   2.531   4.891 -0.3085 -0.0474 -0.5260
 5081TIP3    H115249   5.264   2.441   4.924 -1.0183  0.1322  0.2005
 5081TIP3    H215250   5.343   2.556   4.865 -0.1512 -1.0663 -1.0278
 5082TIP3   OH215251   1.068   0.652   2.287 -0.2408  0.5820 -0.3302
 5082TIP3    H115252   1.097   0.607   2.367  0.1562  1.7685  0.2156
 5082TIP3    H215253   1.149   0.672   2.240 -0.5088 -0.9000 -1.5073
 5083TIP3   OH215254   3.535   4.984   3.876  0.2699 -0.0143 -0.7118
 5083TIP3    H115255   3.519   5.074   3.904  0.8387  0.1009 -0.7472
 5083TIP3    H215256   3.450   4.953   3.846  0.2387  0.7808 -1.4636
 5084TIP3   OH215257   5.306   1.108   3.271 -0.1013  0.3830 -0.0414
 5084TIP3    H115258   5.230   1.155   3.304  1.1510  1.9871  0.6791
 5084TIP3    H215259   5.342   1.062   3.347  0.6407  1.0559  0.0287
 5085TIP3   OH215260   3.470   5.756   3.822 -1.0077  0.0097 -0.3049
 5085TIP3    H115261   3.559   5.778   3.848 -0.4040 -1.5592 -0.9287
 5085TIP3    H215262   3.423   5.745   3.904 -0.0256 -1.4154  0.0949
 5086TIP3   OH215263   5.339   5.768   0.409 -0.3059  0.4853 -0.1546
 5086TIP3    H115264   5.433   5.781   0.401 -0.6238  3.4964 -0.0768
 5086TIP3    H215265   5.322   5.774   0.503 -0.7598  2.2391 -0.3043
 5087TIP3   OH215266   2.595   2.031   0.678 -0.2149  0.1073 -0.2876
 5087TIP3    H115267   2.512   1.992   0.651 -0.9477  1.4140 -0.0026
 5087TIP3    H215268   2.602   2.009   0.771 -0.6961  0.7520 -0.0927
 5088TIP3   OH215269   5.794   4.753   4.724  0.3840  0.2805  0.3320
 5088TIP3    H115270   5.715   4.778   4.675 -0.1872  0.0134  1.1113
 5088TIP3    H215271   5.815   4.830   4.777  0.5876  0.3068  0.2181
 5089TIP3   OH215272   3.123   1.432   4.965  0.0426  0.0059 -0.3858
 5089TIP3    H115273   3.094   1.345   4.994  2.1816 -0.3981  0.7136
 5089TIP3    H215274   3.215   1.420   4.942  0.3168  1.9382 -0.4303
 5090TIP3   OH215275   2.956   1.811   3.061 -0.6872 -0.4249  0.1416
 5090TIP3    H115276   2.986   1.896   3.093  0.2983 -0.5438 -0.4135
 5090TIP3    H215277   2.975   1.751   3.133 -0.2154 -0.3854  0.0511
 5091TIP3   OH215278   4.856   4.623   5.078 -0.4112  0.1236  0.0272
 5091TIP3    H115279   4.901   4.693   5.125 -0.6227 -0.3171  0.9116
 5091TIP3    H215280   4.812   4.572   5.146  1.3840 -2.0834 -0.3570
 5092TIP3   OH215281   0.470   5.958   5.186 -0.3254 -0.0033 -0.0221
 5092TIP3    H115282   0.396   6.008   5.152 -0.4709  0.2688  0.6720
 5092TIP3    H215283   0.432   5.874   5.211 -0.2676 -0.1076 -0.2760
 5093TIP3   OH215284   5.663   0.372   3.456  0.1414  0.4146 -0.0947
 5093TIP3    H115285   5.753   0.403   3.458  0.8851 -1.5533 -0.5626
 5093TIP3    H215286   5.631   0.395   3.369  1.1862 -1.3432 -0.9948
 5094TIP3   OH215287   0.895   5.338   0.357  0.1091  0.3001  0.3332
 5094TIP3    H115288   0.911   5.243   0.358 -2.0189 -0.1392  3.1384
 5094TIP3    H215289   0.804   5.346   0.329  0.2367  1.5169  0.2386
 5095TIP3   OH215290   0.260   0.922   4.090  0.1805  0.5333  0.1991
 5095TIP3    H115291   0.270   0.832   4.061 -0.4178  1.2917 -2.7803
 5095TIP3    H215292   0.339   0.941   4.141  0.4453 -1.5519  0.6190
 5096TIP3   OH215293   0.146   5.844   1.058  0.4246 -0.0313  0.5215
 5096TIP3    H115294   0.084   5.796   1.003  0.5601  1.4188 -0.9853
 5096TIP3    H215295   0.159   5.788   1.135  0.3708 -2.2568 -1.0014
 5097TIP3   OH215296   6.125   5.516   4.904 -0.3852 -0.7042  0.2239
 5097TIP3    H115297   6.211   5.474   4.912 -0.4888 -0.7820  1.0576
 5097TIP3    H215298   6.078   5.488   4.983 -1.4825 -1.3579 -0.6234
 5098TIP3   OH215299   3.089   2.989   2.094  0.4069 -0.2290 -0.3988
 5098TIP3    H115300   3.110   2.956   2.181  0.6443 -1.1188 -0.7870
 5098TIP3    H215301   3.009   2.941   2.069  0.5303 -0.2278 -0.8037
 5099TIP3   OH215302   5.442   3.209   0.372 -0.5374  0.4743  0.5267
 5099TIP3    H115303   5.447   3.277   0.305  0.3907 -0.0287  0.0745
 5099TIP3    H215304   5.480   3.249   0.450 -2.2359  1.2922  0.9749
 5100TIP3   OH215305   4.342   3.212   1.541 -0.1875 -0.8422 -0.4863
 5100TIP3    H115306   4.311   3.266   1.613  1.6865 -1.6122  0.9614
 5100TIP3    H215307   4.354   3.273   1.468  1.1942  0.6086  0.8978
 5101TIP3   OH215308   6.206   3.829   1.507 -0.0845  0.3574 -0.0874
 5101TIP3    H115309   6.125   3.781   1.523  0.7077 -1.7981 -2.0004
 5101TIP3    H215310   6.230   3.806   1.418  1.9005  2.0777 -0.0608
 5102TIP3   OH215311   2.853   1.320   4.746  1.5016 -0.2042 -0.4625
 5102TIP3    H115312   2.855   1.391   4.682 -1.3662 -1.6622 -2.3875
 5102TIP3    H215313   2.820   1.360   4.826  1.6682  0.9500 -0.9534
 5103TIP3   OH215314   5.436   0.079   3.847  0.2985 -0.6622 -0.5309
 5103TIP3    H115315   5.473  -0.005   3.876 -0.6820 -0.7498  0.5672
 5103TIP3    H215316   5.504   0.119   3.794  2.6012 -0.1645  2.5214
 5104TIP3   OH215317   3.161   3.955   3.188 -0.0974  0.5814 -0.1724
 5104TIP3    H115318   3.144   3.911   3.272  0.8420  0.3885 -0.0693
 5104TIP3    H215319   3.095   3.919   3.129 -0.6571  0.5821  0.4318
 5105TIP3   OH215320   0.962   1.366   2.489  0.0695 -0.8065 -0.0655
 5105TIP3    H115321   0.904   1.399   2.558  0.9380 -0.3707  0.4761
 5105TIP3    H215322   0.904   1.348   2.415 -0.5476  1.3060 -0.1592
 5106TIP3   OH215323   0.888   0.389   2.421  0.4204 -0.2963  0.6968
 5106TIP3    H115324   0.822   0.378   2.489  0.0187 -1.1440  0.1947
 5106TIP3    H215325   0.951   0.450   2.458  0.5767 -1.2716  2.1106
 5107TIP3   OH215326   4.685   1.437   5.118  0.3028 -0.6383  0.2808
 5107TIP3    H115327   4.698   1.363   5.059  0.1279 -0.6419  0.2474
 5107TIP3    H215328   4.700   1.514   5.064  0.3180 -0.6454  0.2747
 5108TIP3   OH215329   1.494   0.383   4.895  0.4563  0.1148  0.1325
 5108TIP3    H115330   1.522   0.369   4.804  0.7732 -0.4582  0.3100
 5108TIP3    H215331   1.575   0.402   4.942  0.4764 -0.8773  0.5267
 5109TIP3   OH215332   0.769   3.036   4.598 -0.0455  0.2934 -0.0299
 5109TIP3    H115333   0.838   2.996   4.650 -0.4721  1.5383  1.5897
 5109TIP3    H215334   0.814   3.100   4.543  0.1162  1.5175  1.4349
 5110TIP3   OH215335   1.687   3.413   1.972 -0.3410 -0.2718  0.0086
 5110TIP3    H115336   1.724   3.348   1.913 -0.9260 -0.7084  0.1160
 5110TIP3    H215337   1.626   3.463   1.917 -0.2632 -0.1376  0.0442
 5111TIP3   OH215338   2.258   0.685   3.084 -0.3698 -0.2443  0.2413
 5111TIP3    H115339   2.249   0.707   2.991 -2.3173 -0.7541  0.2717
 5111TIP3    H215340   2.227   0.595   3.090  0.7642 -0.5881  1.2452
 5112TIP3   OH215341   5.175   3.305   1.193 -0.2367 -0.0470  0.2166
 5112TIP3    H115342   5.224   3.387   1.204 -1.6638  0.7250  1.1661
 5112TIP3    H215343   5.158   3.275   1.283 -1.2605 -0.4366 -0.0892
 5113TIP3   OH215344   4.805   4.454   2.021  0.5449  0.4233  0.2465
 5113TIP3    H115345   4.731   4.487   2.071  0.8649  1.4749  0.0448
 5113TIP3    H215346   4.870   4.524   2.024  1.8955 -0.7987  1.1426
 5114TIP3   OH215347   5.928   2.622   2.662  0.1306 -0.6990 -0.1162
 5114TIP3    H115348   5.990   2.644   2.593 -1.2429  0.8879 -0.9241
 5114TIP3    H215349   5.871   2.555   2.624  0.7619 -1.4876  0.3037
 5115TIP3   OH215350   3.528   4.998   1.418 -0.4292 -0.5399 -0.1312
 5115TIP3    H115351   3.451   5.052   1.438 -0.3450 -0.5598  0.2666
 5115TIP3    H215352   3.493   4.911   1.402 -0.3408 -1.0528  2.1252
 5116TIP3   OH215353   3.853   3.324   3.616  0.2948 -0.1621 -0.0315
 5116TIP3    H115354   3.787   3.279   3.668  0.5683 -0.6195 -0.0702
 5116TIP3    H215355   3.862   3.410   3.657 -1.0305  0.2888 -0.6257
 5117TIP3   OH215356   4.652   0.403   4.987  0.3444  0.6379 -0.0555
 5117TIP3    H115357   4.655   0.345   5.063  0.0357 -1.4321 -1.5277
 5117TIP3    H215358   4.569   0.382   4.944 -0.1187  2.7318 -0.2834
 5118TIP3   OH215359   1.822   4.107   0.287  0.2734 -0.6422  0.2550
 5118TIP3    H115360   1.913   4.092   0.309  0.5536 -1.3731 -1.2627
 5118TIP3    H215361   1.809   4.060   0.204 -0.8292  1.3761 -0.8186
 5119TIP3   OH215362   3.766   3.790   1.873 -0.2439  0.1990  0.0688
 5119TIP3    H115363   3.775   3.735   1.951  0.1519  0.3965  0.1617
 5119TIP3    H215364   3.690   3.753   1.827 -1.3579  0.9391  1.2474
 5120TIP3   OH215365   3.001   3.060   0.268  0.2623 -0.2147 -0.2226
 5120TIP3    H115366   2.981   3.011   0.188  2.0693 -0.3576 -0.6327
 5120TIP3    H215367   2.954   3.143   0.257 -0.1726 -0.5597 -1.0579
 5121TIP3   OH215368   0.950   4.498   2.935 -0.3148 -0.6578  0.0638
 5121TIP3    H115369   1.003   4.576   2.950 -0.1084 -0.9755  1.0673
 5121TIP3    H215370   0.948   4.488   2.840 -0.2073  0.4661 -0.0706
 5122TIP3   OH215371   3.271   3.057   1.105  0.3590 -0.1759 -0.1551
 5122TIP3    H115372   3.332   3.053   1.032 -1.5842  0.0174 -1.8730
 5122TIP3    H215373   3.187   3.030   1.068 -0.3884 -1.8005  2.4168
 5123TIP3   OH215374   5.915   3.531   3.249 -0.0743 -0.2196 -0.1447
 5123TIP3    H115375   5.858   3.473   3.300 -0.1482  0.1258  0.1689
 5123TIP3    H215376   5.878   3.529   3.160  0.3858 -1.2571 -0.3258
 5124TIP3   OH215377   6.321   5.993   3.763 -0.1405 -0.1089 -0.2222
 5124TIP3    H115378   6.371   5.913   3.781 -1.2723 -0.4423  1.8094
 5124TIP3    H215379   6.356   6.026   3.681  2.4384 -1.0684  0.4032
 5125TIP3   OH215380   2.502   0.190   2.815  0.0414 -0.0673 -0.4039
 5125TIP3    H115381   2.539   0.265   2.768 -0.4231 -0.7638 -1.9581
 5125TIP3    H215382   2.445   0.148   2.751  0.3710 -1.8180  0.4015
 5126TIP3   OH215383   0.350   0.314   4.476  0.0482  0.5757  0.4865
 5126TIP3    H115384   0.370   0.287   4.566  0.8631 -0.5869 -0.0224
 5126TIP3    H215385   0.385   0.244   4.422  0.9208  1.9964 -0.8351
 5127TIP3   OH215386   4.965   5.888   1.013 -0.0036 -0.0529  0.1804
 5127TIP3    H115387   4.902   5.939   0.963 -0.5051 -0.3331  0.5095
 5127TIP3    H215388   5.023   5.952   1.053  0.8412  0.1451 -1.3113
 5128TIP3   OH215389   3.997   2.037   0.470 -0.2352 -0.2856  0.4059
 5128TIP3    H115390   3.945   1.957   0.460 -3.1894  1.4347  0.8598
 5128TIP3    H215391   3.946   2.091   0.531  1.5592  2.0092  0.0083
 5129TIP3   OH215392   2.386   0.635   2.268 -0.3216 -0.3679  0.0920
 5129TIP3    H115393   2.305   0.654   2.315 -0.7076 -0.8777 -0.3491
 5129TIP3    H215394   2.409   0.546   2.294 -0.4364 -0.5840 -0.5220
 5130TIP3   OH215395   1.884   1.385   1.871  0.3210  0.3006  0.3263
 5130TIP3    H115396   1.965   1.349   1.908 -0.0416  1.8567  2.8763
 5130TIP3    H215397   1.868   1.465   1.922 -2.7295  0.1462 -0.2055
 5131TIP3   OH215398   6.372   2.585   0.031 -0.3867  0.2544 -0.6575
 5131TIP3    H115399   6.332   2.525   0.094  2.9079 -1.1745  0.3142
 5131TIP3    H215400   6.298   2.628  -0.012 -2.9092 -2.9227  0.1145
 5132TIP3   OH215401   1.472   4.157   0.763  0.0401  0.2789 -0.1250
 5132TIP3    H115402   1.453   4.208   0.841  1.5555  0.2062  0.3297
 5132TIP3    H215403   1.498   4.222   0.697 -0.3112  0.2643 -0.2814
 5133TIP3   OH215404   3.434   1.573   1.629  0.0609  0.1047  0.0760
 5133TIP3    H115405   3.389   1.658   1.625  0.2556  0.2659  1.1391
 5133TIP3    H215406   3.375   1.513   1.584 -0.6389  0.5646  0.3631
 5134TIP3   OH215407   3.352   5.578   5.153 -0.3474  0.0567 -0.2978
 5134TIP3    H115408   3.359   5.671   5.174 -0.0151 -0.1735  0.6423
 5134TIP3    H215409   3.380   5.572   5.061  1.5568  0.6231  0.2030
 5135TIP3   OH215410   3.518   3.684   1.806 -0.6439  0.2901  0.1381
 5135TIP3    H115411   3.452   3.741   1.846 -0.3908 -0.0096  1.0080
 5135TIP3    H215412   3.529   3.612   1.868 -1.6654 -1.2537 -1.3692
 5136TIP3   OH215413   0.887   4.522   4.524  0.0249  0.1531 -0.1204
 5136TIP3    H115414   0.826   4.478   4.583 -1.2006  1.1920 -0.5784
 5136TIP3    H215415   0.921   4.596   4.574 -0.2400  0.4412 -0.3600
 5137TIP3   OH215416   1.240   1.863   1.077  0.5353 -0.0234 -0.3569
 5137TIP3    H115417   1.237   1.917   1.155  0.1776 -0.4731 -0.0553
 5137TIP3    H215418   1.262   1.775   1.109  3.3857  0.3351 -1.0455
 5138TIP3   OH215419   5.504   4.549   2.880  0.1634 -0.2155 -0.3048
 5138TIP3    H115420   5.429   4.604   2.903 -0.2598 -0.5567 -0.8299
 5138TIP3    H215421   5.579   4.591   2.922 -0.3469  0.0313  0.3859
 5139TIP3   OH215422   1.506   1.976   3.483 -0.2866  0.4339 -0.1123
 5139TIP3    H115423   1.538   1.922   3.411  0.0854  1.6615 -0.9035
 5139TIP3    H215424   1.411   1.979   3.472 -0.2564  0.3908 -0.3800
 5140TIP3   OH215425   4.550   1.751   2.204 -0.1181  0.1942 -0.4058
 5140TIP3    H115426   4.468   1.791   2.172  0.6334  0.0308 -2.7024
 5140TIP3    H215427   4.567   1.796   2.287 -2.2443  0.6207 -0.1329
 5141TIP3   OH215428   5.077   5.453   3.094 -0.2200 -0.1176  0.4546
 5141TIP3    H115429   5.158   5.402   3.093  0.2388  0.5843  1.1172
 5141TIP3    H215430   5.105   5.544   3.100 -0.9347  0.4780 -2.9699
 5142TIP3   OH215431   2.761   2.652   1.713 -0.5548 -0.4343 -0.2904
 5142TIP3    H115432   2.669   2.639   1.693 -0.7112 -0.6769  0.5431
 5142TIP3    H215433   2.794   2.706   1.641 -1.8062  1.3844  0.4149
 5143TIP3   OH215434   1.637   4.326   0.585 -0.2986  0.6715 -0.0114
 5143TIP3    H115435   1.623   4.415   0.618 -1.1098  0.2533  0.8141
 5143TIP3    H215436   1.732   4.314   0.589 -0.0278  1.9492 -1.3886
 5144TIP3   OH215437   2.769   4.165   1.682  0.2604 -0.3892 -0.2758
 5144TIP3    H115438   2.724   4.197   1.604  0.6051 -1.4097 -0.9196
 5144TIP3    H215439   2.782   4.242   1.736 -0.1271  0.3115 -1.1622
 5145TIP3   OH215440   5.048   5.814   3.936  0.6188  0.3083  0.8527
 5145TIP3    H115441   5.135   5.849   3.917  0.4628  1.1018  1.5345
 5145TIP3    H215442   5.054   5.722   3.914  1.3516  0.5492 -0.0173
 5146TIP3   OH215443   2.923   2.710   1.185  0.0173  0.5099  0.4481
 5146TIP3    H115444   2.936   2.733   1.277  2.0211 -1.2227  0.6675
 5146TIP3    H215445   2.944   2.790   1.137 -0.4564  1.2612  1.4534
 5147TIP3   OH215446   0.503   2.267   0.930  0.1455  0.2756 -0.3498
 5147TIP3    H115447   0.524   2.194   0.989  1.1059  0.8289  0.0067
 5147TIP3    H215448   0.586   2.313   0.917 -0.3190  0.9441 -1.0839
 5148TIP3   OH215449   2.776   3.058   2.500 -0.3355  0.1410  0.6781
 5148TIP3    H115450   2.766   3.005   2.420  0.3543  0.6922  0.2158
 5148TIP3    H215451   2.732   3.140   2.480 -0.1802  0.2711  0.8726
 5149TIP3   OH215452   1.390   3.087   1.477  0.4770  0.2189 -0.3888
 5149TIP3    H115453   1.459   3.022   1.466  0.5628  0.2733 -0.1722
 5149TIP3    H215454   1.383   3.100   1.571  1.7331  1.8717 -0.4691
 5150TIP3   OH215455   1.133   3.355   1.240 -0.0085 -0.4562 -0.1667
 5150TIP3    H115456   1.131   3.265   1.271 -2.5194  0.3537  2.3972
 5150TIP3    H215457   1.146   3.408   1.318 -1.3084  1.5044 -1.1803
 5151TIP3   OH215458   3.320   0.143   3.256 -0.1273 -0.1153 -0.7712
 5151TIP3    H115459   3.349   0.218   3.308  0.1813  0.3247 -1.5577
 5151TIP3    H215460   3.297   0.181   3.171 -2.8836 -0.4418 -0.2710
 5152TIP3   OH215461   1.901   3.463   1.376 -0.5001  0.4798 -0.4602
 5152TIP3    H115462   1.965   3.426   1.316 -0.1064 -0.0578  0.2730
 5152TIP3    H215463   1.865   3.388   1.424 -0.5681  0.9200  0.2028
 5153TIP3   OH215464   4.844   5.948   4.382 -0.0335  0.0025  0.3026
 5153TIP3    H115465   4.782   5.875   4.385 -0.8659  0.5764 -1.4885
 5153TIP3    H215466   4.896   5.932   4.303 -0.7040  1.6793 -0.5215
 5154TIP3   OH215467   3.297   4.326   2.057 -0.2359 -0.2538  0.1597
 5154TIP3    H115468   3.336   4.312   1.970 -1.3480  1.8102 -0.7440
 5154TIP3    H215469   3.362   4.379   2.104  0.4161 -1.4648  0.6747
 5155TIP3   OH215470   5.039   4.109   4.008 -0.5519 -0.3316  0.0755
 5155TIP3    H115471   5.073   4.148   3.927  1.4336  0.4298  1.2330
 5155TIP3    H215472   4.986   4.035   3.977 -0.7230  0.5599 -1.9625
 5156TIP3   OH215473   4.558   5.765   0.461 -0.2896  0.6215 -0.2522
 5156TIP3    H115474   4.543   5.846   0.509  2.1215  0.7583  0.4237
 5156TIP3    H215475   4.593   5.704   0.527 -1.4521 -0.7847 -0.8798
 5157TIP3   OH215476   0.393   5.545   4.446 -0.0171 -0.3873  0.0185
 5157TIP3    H115477   0.400   5.454   4.419  0.9513 -0.0951 -0.7491
 5157TIP3    H215478   0.333   5.584   4.383 -0.7996 -0.5819  0.6221
 5158TIP3   OH215479   4.075   5.194   1.067  0.0761  0.2697 -0.3977
 5158TIP3    H115480   4.104   5.282   1.044 -0.3610  0.8213  1.0659
 5158TIP3    H215481   4.065   5.196   1.162  0.2979 -1.4354 -0.3080
 5159TIP3   OH215482   4.089   1.434   2.193 -0.3801 -0.4685 -0.5520
 5159TIP3    H115483   4.096   1.522   2.155 -0.8171 -0.7809 -1.3734
 5159TIP3    H215484   4.138   1.378   2.133  0.5837 -0.6707  0.4022
 5160TIP3   OH215485   3.712   4.944   1.054 -0.1484  0.0536 -0.0510
 5160TIP3    H115486   3.741   4.969   1.142  0.9358  0.1666 -0.4264
 5160TIP3    H215487   3.626   4.905   1.068 -1.2451  2.5586  0.7264
 5161TIP3   OH215488   1.032   0.912   1.847 -0.3114 -0.7191 -0.9092
 5161TIP3    H115489   0.995   0.840   1.898  0.1578 -0.5557 -0.3212
 5161TIP3    H215490   1.090   0.870   1.784 -1.4100 -0.9691 -1.7664
 5162TIP3   OH215491   4.823   1.650   2.504 -0.3925  0.2532  0.2849
 5162TIP3    H115492   4.816   1.731   2.453  1.0701  0.3675  0.2334
 5162TIP3    H215493   4.912   1.650   2.538 -0.4361 -1.2271  0.4794
 5163TIP3   OH215494   2.647   0.438   3.006 -0.0180 -0.6491  0.3277
 5163TIP3    H115495   2.596   0.508   3.047  2.3309  0.2778  1.8624
 5163TIP3    H215496   2.602   0.421   2.923 -2.5327  0.3631  1.3719
 5164TIP3   OH215497   3.427   5.506   4.906  1.2153 -0.2336  0.3435
 5164TIP3    H115498   3.469   5.438   4.958 -0.9798 -0.3197  2.1689
 5164TIP3    H215499   3.411   5.465   4.821  1.0528 -1.5744  0.9957
 5165TIP3   OH215500   3.515   3.331   5.078  0.4494 -0.1793  0.3970
 5165TIP3    H115501   3.512   3.284   5.162 -0.9686 -0.8573  0.0056
 5165TIP3    H215502   3.423   3.350   5.058  0.8676  1.1494 -0.3688
 5166TIP3   OH215503   5.995   1.268   3.546  0.2581 -0.2906  0.4956
 5166TIP3    H115504   5.953   1.183   3.551  0.5469 -0.4653 -0.0144
 5166TIP3    H215505   5.925   1.328   3.519  0.1057 -0.4021  0.6406
 5167TIP3   OH215506   5.886   5.867   5.083  0.7949 -0.5566  0.0715
 5167TIP3    H115507   5.884   5.776   5.054  0.9896 -0.4587 -0.2489
 5167TIP3    H215508   5.794   5.894   5.082  0.7065 -0.8326  0.4351
 5168TIP3   OH215509   4.330   4.479   4.855 -0.2337 -0.0885  0.3789
 5168TIP3    H115510   4.242   4.487   4.891 -0.8206 -1.8637 -0.5530
 5168TIP3    H215511   4.355   4.388   4.872  1.8577  0.6406  1.5455
 5169TIP3   OH215512   6.358   1.317   2.233 -0.8293  0.3172 -0.2722
 5169TIP3    H115513   6.323   1.385   2.175 -0.9645  0.4008 -0.0913
 5169TIP3    H215514   6.282   1.265   2.258 -1.1484  1.5992  1.6151
 5170TIP3   OH215515   0.509   4.675   1.507  0.2575  0.1212 -0.4440
 5170TIP3    H115516   0.485   4.706   1.419  1.3320 -1.4862 -1.3623
 5170TIP3    H215517   0.602   4.655   1.500  0.4944  0.4991  1.2642
 5171TIP3   OH215518   5.734   4.824   2.751  0.0253  0.0222  0.0322
 5171TIP3    H115519   5.774   4.738   2.764  1.8462  0.9804  1.2501
 5171TIP3    H215520   5.688   4.842   2.833 -1.0296 -0.0892 -0.5130
 5172TIP3   OH215521   3.512   2.578   5.158  0.1575 -0.4671  0.0780
 5172TIP3    H115522   3.513   2.664   5.116  0.5783  0.1822  1.3780
 5172TIP3    H215523   3.421   2.549   5.150 -0.1133  0.3487  0.1386
 5173TIP3   OH215524   3.049   2.784   3.219 -0.2683 -0.5228 -0.0377
 5173TIP3    H115525   3.064   2.776   3.314  0.2924  0.8724  0.0065
 5173TIP3    H215526   3.040   2.693   3.189 -0.4438 -0.9899  1.3436
 5174TIP3   OH215527   5.563   4.527   4.852 -0.0294  0.8640  0.7413
 5174TIP3    H115528   5.594   4.445   4.813  3.4323  1.9192  0.9574
 5174TIP3    H215529   5.534   4.579   4.778 -0.2562  0.2260  0.3698
 5175TIP3   OH215530   0.228   0.193   3.452  0.1279 -0.4969 -0.8005
 5175TIP3    H115531   0.310   0.242   3.448  1.6086 -2.8270 -0.6333
 5175TIP3    H215532   0.188   0.220   3.535  0.6852  0.7012 -0.9033
 5176TIP3   OH215533   5.033   2.772   4.461  0.8883  0.1573 -0.4277
 5176TIP3    H115534   4.988   2.855   4.475 -3.1893 -1.1492 -3.8246
 5176TIP3    H215535   5.049   2.738   4.549 -3.0168  1.8017  1.1094
 5177TIP3   OH215536   4.138   5.548   2.934  0.4337  0.1192  0.2216
 5177TIP3    H115537   4.156   5.568   2.842  3.4248 -1.3422  0.3777
 5177TIP3    H215538   4.099   5.628   2.968 -0.4043  0.8414 -2.1999
 5178TIP3   OH215539   2.513   4.604   0.738 -0.0965 -0.7377 -0.1780
 5178TIP3    H115540   2.590   4.552   0.763 -0.3922 -0.6018  1.0715
 5178TIP3    H215541   2.478   4.635   0.820 -1.3382 -0.5519 -0.7621
 5179TIP3   OH215542   4.944   0.539   3.237 -0.2702 -0.0840 -0.2684
 5179TIP3    H115543   4.899   0.576   3.160 -1.9745 -0.8753  0.2819
 5179TIP3    H215544   4.935   0.444   3.226 -0.4544 -0.2065  0.8417
 5180TIP3   OH215545   0.510   2.578   2.277 -0.2233  0.4459 -0.1502
 5180TIP3    H115546   0.508   2.504   2.217 -1.7122 -1.2294  1.8106
 5180TIP3    H215547   0.602   2.605   2.278 -0.0923  0.4139 -2.8963
 5181TIP3   OH215548   2.375   0.302   4.539  0.6664  0.6102 -0.4693
 5181TIP3    H115549   2.293   0.345   4.560 -0.7775 -0.8416 -2.6884
 5181TIP3    H215550   2.441   0.371   4.544 -0.7756  1.9631  0.7084
 5182TIP3   OH215551   5.417   2.105   2.476  0.1972  0.3067  0.3236
 5182TIP3    H115552   5.327   2.106   2.444  0.2335 -0.0384  0.2046
 5182TIP3    H215553   5.411   2.062   2.562  0.0604  1.4693  0.9091
 5183TIP3   OH215554   1.969   1.526   4.575  0.6811 -0.5184  0.6165
 5183TIP3    H115555   1.973   1.454   4.511  0.9377 -0.4636  0.5710
 5183TIP3    H215556   2.060   1.542   4.598  0.5631 -0.8024  1.2941
 5184TIP3   OH215557   2.882   5.639   4.618 -0.7151  0.0501 -0.0692
 5184TIP3    H115558   2.870   5.563   4.562  0.6582  1.5604 -2.6415
 5184TIP3    H215559   2.794   5.669   4.637 -1.2545 -0.6867 -1.2522
 5185TIP3   OH215560   3.421   2.373   3.218  0.2428 -0.4501 -0.4306
 5185TIP3    H115561   3.451   2.363   3.128  0.1163  0.3223 -0.5665
 5185TIP3    H215562   3.501   2.384   3.270  0.3097 -0.7894 -0.4590
 5186TIP3   OH215563   4.224   0.996   1.588  0.2635 -0.6052 -0.3091
 5186TIP3    H115564   4.167   0.938   1.637  0.6636 -1.5840 -0.9846
 5186TIP3    H215565   4.198   0.985   1.497 -0.3882  1.1001 -0.3658
 5187TIP3   OH215566   2.028   3.001   3.521  0.7389 -0.4669  0.3185
 5187TIP3    H115567   2.064   3.009   3.432 -2.1234 -1.1051 -1.0214
 5187TIP3    H215568   2.036   3.088   3.558  2.0831 -0.2071 -0.5114
 5188TIP3   OH215569   5.416   0.239   1.541  0.6850 -0.0055  0.2965
 5188TIP3    H115570   5.392   0.331   1.535 -0.0594 -0.2574 -1.2747
 5188TIP3    H215571   5.337   0.196   1.575  0.6967 -0.1787  0.1095
 5189TIP3   OH215572   4.900   6.007   4.660  0.1947 -0.4042  0.4806
 5189TIP3    H115573   4.915   5.919   4.695 -1.1635 -0.6943  0.3889
 5189TIP3    H215574   4.894   5.995   4.566 -0.3844 -0.2909  0.4967
 5190TIP3   OH215575   1.850   2.654   3.039 -0.1588 -0.5058  0.1450
 5190TIP3    H115576   1.786   2.692   2.980  0.2789 -0.6893 -0.4591
 5190TIP3    H215577   1.831   2.694   3.124  0.4183  1.2540 -0.4940
 5191TIP3   OH215578   5.258   4.701   2.846 -0.9068 -0.0714 -0.1247
 5191TIP3    H115579   5.266   4.792   2.815  0.0006 -0.3363 -0.7246
 5191TIP3    H215580   5.165   4.682   2.839 -1.3628  1.3374  1.5801
 5192TIP3   OH215581   5.998   5.984   1.423  0.0271  0.2360 -0.5702
 5192TIP3    H115582   6.062   5.936   1.371 -1.6887 -0.6410 -1.9638
 5192TIP3    H215583   5.946   6.032   1.359 -1.1011  0.4575  0.4855
 5193TIP3   OH215584   5.481   0.811   4.754  0.0830  0.1852  0.3294
 5193TIP3    H115585   5.443   0.727   4.728 -1.7144  0.6745  1.1925
 5193TIP3    H215586   5.435   0.876   4.700 -0.5220  0.8263  1.5785
 5194TIP3   OH215587   3.021   5.092   2.728  0.3692 -0.7661  0.4131
 5194TIP3    H115588   3.055   5.025   2.670 -0.8462  0.1209 -1.3986
 5194TIP3    H215589   3.097   5.148   2.748  0.8523 -1.2425 -0.0814
 5195TIP3   OH215590   2.334   4.952   4.075 -0.6411  0.2180  0.1577
 5195TIP3    H115591   2.337   4.874   4.020  0.9199  0.2618  0.1363
 5195TIP3    H215592   2.389   4.931   4.150 -0.6735  1.0827  0.4429
 5196TIP3   OH215593   1.118   2.228   0.204  0.2045 -0.4944 -0.1918
 5196TIP3    H115594   1.114   2.149   0.258 -0.6181  0.1441  0.7245
 5196TIP3    H215595   1.118   2.196   0.114  0.5643 -1.5496  0.1670
 5197TIP3   OH215596   1.487   5.864   3.855 -0.3048  0.5856  0.8402
 5197TIP3    H115597   1.489   5.915   3.936  2.5831 -0.4029  1.5438
 5197TIP3    H215598   1.493   5.929   3.785  0.7896  1.3572  1.6109
 5198TIP3   OH215599   4.043   3.811   1.845 -0.2414  0.3340  0.2851
 5198TIP3    H115600   3.956   3.789   1.812 -0.6626  0.3242  1.3582
 5198TIP3    H215601   4.042   3.784   1.936  1.1044 -0.2261  0.1609
 5199TIP3   OH215602   5.329   0.482   3.592  0.1399 -0.0762  0.1827
 5199TIP3    H115603   5.272   0.516   3.523  0.3076  0.3204  0.2395
 5199TIP3    H215604   5.345   0.391   3.567 -0.2149 -0.0790 -0.0313
 5200TIP3   OH215605   0.098   5.422   3.012 -0.1843 -0.2350 -0.1259
 5200TIP3    H115606   0.178   5.369   3.007  0.9070  1.2471  0.8938
 5200TIP3    H215607   0.078   5.425   3.106  0.3594  1.9178 -0.0228
 5201TIP3   OH215608   3.210   0.518   3.071  0.4164  0.2462 -0.2790
 5201TIP3    H115609   3.249   0.430   3.072 -0.8624 -0.3657  2.1059
 5201TIP3    H215610   3.116   0.503   3.072  0.1704  1.6554 -0.0000
 5202TIP3   OH215611   0.149   5.160   3.859  0.1466 -0.0415 -0.4766
 5202TIP3    H115612   0.065   5.152   3.816  0.6107  1.5940 -1.7779
 5202TIP3    H215613   0.187   5.072   3.855 -0.5533 -0.2963 -1.8537
 5203TIP3   OH215614   1.452   0.143   1.595  0.8166 -0.2155 -0.8810
 5203TIP3    H115615   1.517   0.139   1.665  0.5687  0.3533 -0.6096
 5203TIP3    H215616   1.417   0.232   1.601 -0.4729 -0.7274 -0.5956
 5204TIP3   OH215617   2.309   0.900   0.033  0.1436  0.0639  0.6420
 5204TIP3    H115618   2.353   0.957  -0.030  0.2742 -1.6746 -0.8903
 5204TIP3    H215619   2.352   0.920   0.116  2.0981  0.2320 -0.3510
 5205TIP3   OH215620   3.850   3.666   0.945 -0.0233 -0.0545 -0.0355
 5205TIP3    H115621   3.887   3.734   0.888 -2.0760  1.2696  0.1125
 5205TIP3    H215622   3.905   3.669   1.024  0.0911  1.2377 -0.1445
 5206TIP3   OH215623   2.460   4.792   4.261  0.1146 -0.4963 -0.1021
 5206TIP3    H115624   2.422   4.772   4.346 -0.4057  0.0472 -0.2046
 5206TIP3    H215625   2.460   4.708   4.215 -0.4658 -0.6066  0.0948
 5207TIP3   OH215626   5.461   3.017   1.939 -0.1511  0.1855 -0.1331
 5207TIP3    H115627   5.451   3.112   1.942 -0.3537  0.1499  0.3114
 5207TIP3    H215628   5.544   3.000   1.985 -0.6415  0.0645  0.7167
 5208TIP3   OH215629   1.477   3.445   3.880  0.6143 -0.5486  0.0112
 5208TIP3    H115630   1.390   3.425   3.914  0.9944 -0.8422  0.8311
 5208TIP3    H215631   1.522   3.490   3.951  1.3221 -0.9007 -0.1979
 5209TIP3   OH215632   1.615   0.097   1.200  0.4501  0.5325  0.1659
 5209TIP3    H115633   1.574   0.176   1.164 -0.6902 -0.5233 -0.9290
 5209TIP3    H215634   1.689   0.079   1.141 -0.2084 -0.0614 -0.4931
 5210TIP3   OH215635   4.207   2.328   2.411 -0.7334 -0.1781 -0.4229
 5210TIP3    H115636   4.117   2.325   2.445 -0.6648 -1.5051 -0.3176
 5210TIP3    H215637   4.233   2.237   2.404 -0.0584  0.1160 -2.2543
 5211TIP3   OH215638   1.346   2.373   3.225  0.5481 -0.2647  0.3698
 5211TIP3    H115639   1.383   2.411   3.305 -1.3980  0.3069  1.0547
 5211TIP3    H215640   1.333   2.447   3.167 -1.2498 -0.1266  0.8861
 5212TIP3   OH215641   0.233   5.959   4.325  0.1887 -0.1365  0.8415
 5212TIP3    H115642   0.139   5.971   4.324  0.1898  0.3307 -1.8091
 5212TIP3    H215643   0.266   6.023   4.261  2.4504  0.6270  2.6332
 5213TIP3   OH215644   1.719   4.800   2.776 -0.1142  0.3073 -0.2038
 5213TIP3    H115645   1.812   4.799   2.754  0.0444 -2.4304  0.2772
 5213TIP3    H215646   1.674   4.793   2.692  0.2151 -0.8156 -0.3002
 5214TIP3   OH215647   3.221   5.514   4.336  0.5589 -0.6391  0.2713
 5214TIP3    H115648   3.204   5.487   4.246 -0.8523  0.5089  0.1621
 5214TIP3    H215649   3.316   5.528   4.339  0.6613 -0.9600 -0.9494
 5215TIP3   OH215650   3.475   1.961   2.594 -0.2404 -0.4293  1.1524
 5215TIP3    H115651   3.551   1.930   2.544 -0.6429 -0.5667  0.6143
 5215TIP3    H215652   3.416   1.886   2.597 -1.0388  0.1271  0.2070
 5216TIP3   OH215653   4.266   0.704   2.399 -0.0512  0.3511 -0.2485
 5216TIP3    H115654   4.215   0.745   2.470 -0.5886  0.9502 -0.9681
 5216TIP3    H215655   4.357   0.722   2.422 -0.0031 -1.8512  1.7591
 5217TIP3   OH215656   3.851   1.837   4.627 -0.3132 -0.2584  0.5445
 5217TIP3    H115657   3.759   1.862   4.630 -0.7945 -1.3823 -1.9440
 5217TIP3    H215658   3.893   1.905   4.574  0.2217  0.0408  1.3403
 5218TIP3   OH215659   2.269   2.574   0.591  0.2165 -0.3906  0.1956
 5218TIP3    H115660   2.195   2.600   0.647  0.3806 -1.0607  0.7400
 5218TIP3    H215661   2.231   2.512   0.529  0.2249 -0.3727  0.1727
 5219TIP3   OH215662   0.436   4.179   2.971 -0.2559  0.4967  0.5731
 5219TIP3    H115663   0.398   4.227   3.045  0.2389  1.1412  0.4103
 5219TIP3    H215664   0.384   4.206   2.896 -0.0600  0.6745  0.5022
 5220TIP3   OH215665   2.973   0.965   2.637 -0.4383  0.6690  0.2776
 5220TIP3    H115666   3.009   0.888   2.681 -0.2792  0.7410  0.2737
 5220TIP3    H215667   3.004   1.039   2.689 -1.6151  0.6718  1.0105
 5221TIP3   OH215668   3.729   0.714   1.666 -0.0521  0.2400 -0.5846
 5221TIP3    H115669   3.712   0.736   1.757 -1.2651 -2.2279 -0.1347
 5221TIP3    H215670   3.818   0.678   1.666 -0.3238 -0.4469 -0.2165
 5222TIP3   OH215671   2.277   3.792   1.702  0.7654 -0.1044  0.1672
 5222TIP3    H115672   2.237   3.745   1.775  0.3241  1.3898  0.9276
 5222TIP3    H215673   2.205   3.843   1.664  1.3130  0.2849 -0.3703
 5223TIP3   OH215674   2.395   1.780   3.183  0.1868  0.1767  0.3682
 5223TIP3    H115675   2.340   1.858   3.172  0.0614 -0.1679 -1.8980
 5223TIP3    H215676   2.364   1.719   3.116  0.2515 -1.8768  2.1068
 5224TIP3   OH215677   6.260   5.238   0.016  0.1127  0.7953  0.3346
 5224TIP3    H115678   6.257   5.332  -0.005  0.4216  0.7405  0.0415
 5224TIP3    H215679   6.354   5.217   0.020  0.1566  1.1133  3.2043
 5225TIP3   OH215680   5.243   4.248   4.837 -0.5029  0.4615 -0.0529
 5225TIP3    H115681   5.316   4.231   4.898 -2.0018  0.4487  1.8300
 5225TIP3    H215682   5.281   4.305   4.770  1.6672 -0.8970 -0.1037
 5226TIP3   OH215683   1.797   5.008   0.727 -0.3555  0.4394 -0.3426
 5226TIP3    H115684   1.812   4.963   0.644  1.5674  0.8877 -0.2793
 5226TIP3    H215685   1.853   4.963   0.789  0.6762  2.0817 -0.0127
 5227TIP3   OH215686   2.561   5.749   1.400 -0.1047  0.0046 -0.2160
 5227TIP3    H115687   2.642   5.776   1.444 -0.7919  0.6286  0.6941
 5227TIP3    H215688   2.568   5.653   1.393  0.2144 -0.0663  0.8815
 5228TIP3   OH215689   2.162   5.323   0.202 -0.0236 -0.3775  0.5498
 5228TIP3    H115690   2.202   5.408   0.218 -1.2781  0.0405  1.6286
 5228TIP3    H215691   2.184   5.271   0.279 -1.1011 -0.3013  0.9255
 5229TIP3   OH215692   4.641   5.550   0.615 -0.1632 -0.3888 -0.3992
 5229TIP3    H115693   4.653   5.542   0.710  1.4777  1.3321 -0.3916
 5229TIP3    H215694   4.695   5.480   0.578  1.6744  0.7839 -0.0749
 5230TIP3   OH215695   0.096   3.581   3.704 -0.2492 -0.2696 -0.1850
 5230TIP3    H115696   0.117   3.491   3.727 -0.2437 -0.6018 -1.3916
 5230TIP3    H215697   0.175   3.630   3.725 -0.4294 -0.4382  0.9635
 5231TIP3   OH215698   2.807   1.366   4.037  0.5597 -0.0480 -0.0233
 5231TIP3    H115699   2.744   1.309   3.993  1.0936 -0.6144 -0.0588
 5231TIP3    H215700   2.783   1.362   4.130  1.9305 -2.1165  0.3200
 5232TIP3   OH215701   5.581   5.116   0.993  0.0637 -0.0491 -0.2781
 5232TIP3    H115702   5.614   5.180   1.056  0.1128 -1.5430  1.2784
 5232TIP3    H215703   5.495   5.091   1.026 -0.3051 -0.1768 -1.3141
 5233TIP3   OH215704   2.396   3.382   2.267 -0.1897 -0.1461 -0.3368
 5233TIP3    H115705   2.344   3.453   2.303 -1.6555 -1.4225  0.1717
 5233TIP3    H215706   2.353   3.359   2.185 -0.0940 -0.8425 -0.2024
 5234TIP3   OH215707   0.993   4.158   2.959 -0.3078 -0.2990  0.3777
 5234TIP3    H115708   0.925   4.182   3.021 -0.2122 -0.8468  0.7074
 5234TIP3    H215709   0.969   4.201   2.877 -0.9438 -0.3354  0.5463
 5235TIP3   OH215710   5.613   0.544   1.622  0.2751 -0.2177 -0.4616
 5235TIP3    H115711   5.686   0.483   1.624 -0.2377 -0.8506 -0.7047
 5235TIP3    H215712   5.650   0.627   1.654  0.8773 -0.7549  0.2721
 5236TIP3   OH215713   0.285   3.034   1.692 -0.1256  1.1166  0.6279
 5236TIP3    H115714   0.356   3.022   1.755 -0.5035 -0.9875  0.7411
 5236TIP3    H215715   0.208   2.997   1.736 -0.5883  0.4074 -0.7086
 5237TIP3   OH215716   6.192   2.071   2.179 -0.4839  0.4202 -0.6409
 5237TIP3    H115717   6.173   2.025   2.261  1.5910 -1.0425 -0.8905
 5237TIP3    H215718   6.151   2.157   2.189  0.4797  0.6425  2.3481
 5238TIP3   OH215719   0.239   4.799   2.546  0.3727  0.0452  0.3922
 5238TIP3    H115720   0.198   4.863   2.603 -0.0382 -0.2088  0.3888
 5238TIP3    H215721   0.175   4.784   2.476  1.1445  0.8488 -0.5099
 5239TIP3   OH215722   5.214   0.736   0.110 -0.4223 -0.3061 -0.0325
 5239TIP3    H115723   5.182   0.816   0.069  0.0928 -0.0752  0.0118
 5239TIP3    H215724   5.288   0.764   0.163  0.8502 -1.0586 -1.3529
 5240TIP3   OH215725   3.625   2.446   0.346  0.2875 -0.2069  0.0410
 5240TIP3    H115726   3.627   2.413   0.256  1.0096 -0.5375  0.1654
 5240TIP3    H215727   3.704   2.409   0.386  1.1441  1.6617  0.2039
 5241TIP3   OH215728   5.570   3.090   1.250  0.0599  0.1676 -0.0028
 5241TIP3    H115729   5.486   3.073   1.208 -0.4302  1.8521  0.2089
 5241TIP3    H215730   5.626   3.018   1.221 -1.0912 -0.3255 -1.1329
 5242TIP3   OH215731   3.079   3.120   2.510  0.4304  0.0371 -0.0430
 5242TIP3    H115732   3.163   3.139   2.469  0.6613 -0.9401 -0.0481
 5242TIP3    H215733   3.019   3.186   2.475  0.9802  0.1712 -0.7449
 5243TIP3   OH215734   1.078   1.511   1.538 -0.4922 -0.4917  0.1522
 5243TIP3    H115735   1.034   1.584   1.493 -1.8294 -0.2187  1.7913
 5243TIP3    H215736   1.152   1.552   1.583 -0.4418 -0.3790 -0.0320
 5244TIP3   OH215737   5.253   1.983   1.748 -0.5172 -0.6320 -0.1389
 5244TIP3    H115738   5.255   2.067   1.794  0.4567 -0.2199 -0.9050
 5244TIP3    H215739   5.291   1.920   1.809 -0.6975 -0.4037  0.2104
 5245TIP3   OH215740   3.368   0.226   0.211 -0.6419 -0.3090  0.3730
 5245TIP3    H115741   3.405   0.144   0.178  0.1306  0.2478 -0.1836
 5245TIP3    H215742   3.273   0.215   0.203 -0.5155 -0.8140 -0.5087
 5246TIP3   OH215743   1.220   3.758   3.579 -0.8118  0.3220 -0.0327
 5246TIP3    H115744   1.200   3.850   3.596 -0.8496  0.0653  1.4578
 5246TIP3    H215745   1.156   3.731   3.514  0.1302  1.7172 -1.6374
 5247TIP3   OH215746   5.534   5.420   0.269 -0.4245 -0.8939 -0.0355
 5247TIP3    H115747   5.512   5.361   0.197  0.6420 -0.8545 -0.4114
 5247TIP3    H215748   5.630   5.426   0.267 -0.2633 -1.7429  2.0589
 5248TIP3   OH215749   4.177   2.598   2.350 -0.1142 -0.2028 -0.2289
 5248TIP3    H115750   4.173   2.503   2.352 -0.6871 -0.2511  3.2731
 5248TIP3    H215751   4.180   2.624   2.442  1.3836  3.1408 -1.0424
 5249TIP3   OH215752   1.122   4.152   3.430 -0.4551 -0.9110 -0.1809
 5249TIP3    H115753   1.132   4.245   3.410 -2.0881 -0.5321  0.6101
 5249TIP3    H215754   1.029   4.134   3.414 -0.0699 -2.5307 -0.7617
 5250TIP3   OH215755   3.102   0.291   2.837 -0.0831 -0.2567  0.2739
 5250TIP3    H115756   3.042   0.234   2.790  0.3250  0.0783 -0.6729
 5250TIP3    H215757   3.048   0.334   2.902 -0.3719 -1.8247  1.1263
 5251TIP3   OH215758   5.331   1.955   3.509  0.4219 -0.4866 -0.0965
 5251TIP3    H115759   5.247   1.927   3.474  0.2760 -1.1347  0.7677
 5251TIP3    H215760   5.319   2.048   3.528 -0.0735 -0.5598 -0.0432
 5252TIP3   OH215761   2.843   4.890   2.533  0.4693  0.4720  0.1232
 5252TIP3    H115762   2.777   4.887   2.602  0.8953  1.9812  0.6264
 5252TIP3    H215763   2.923   4.858   2.575  0.2903 -0.4466 -0.2211
 5253TIP3   OH215764   2.040   1.141   0.557 -0.0057  1.0789 -0.3532
 5253TIP3    H115765   2.028   1.224   0.510  2.5310  0.0873 -3.0865
 5253TIP3    H215766   2.005   1.075   0.497  1.4053 -0.1033  0.0866
 5254TIP3   OH215767   3.790   4.535   3.752 -0.4701 -0.2393 -0.2320
 5254TIP3    H115768   3.829   4.536   3.840  0.3460 -2.5232 -0.4930
 5254TIP3    H215769   3.848   4.591   3.700  0.6351 -1.0018  0.1264
 5255TIP3   OH215770   4.350   4.879   0.524  0.1127  0.0404  0.3218
 5255TIP3    H115771   4.408   4.955   0.514  0.0008 -0.0017 -0.7212
 5255TIP3    H215772   4.280   4.910   0.582 -0.6515  1.1851 -1.1174
 5256TIP3   OH215773   4.357   0.274   1.735  0.3134  0.1936  0.5575
 5256TIP3    H115774   4.362   0.210   1.806  1.5895  0.5837  0.8535
 5256TIP3    H215775   4.421   0.243   1.670 -1.0095 -0.2933 -0.5621
 5257TIP3   OH215776   0.638   0.931   1.650  0.2897  0.1688 -0.1551
 5257TIP3    H115777   0.665   0.913   1.740  1.4221  0.9523 -0.3168
 5257TIP3    H215778   0.705   0.990   1.616  0.2747 -0.6826 -1.7509
 5258TIP3   OH215779   0.575   0.581   4.055 -0.1947  0.0408 -0.1483
 5258TIP3    H115780   0.650   0.543   4.009  0.2666  0.5784  0.1387
 5258TIP3    H215781   0.500   0.531   4.024  0.5779 -2.3296  1.5535
 5259TIP3   OH215782   3.343   3.968   0.581 -0.3168 -0.7777 -0.4600
 5259TIP3    H115783   3.385   3.912   0.646 -0.2041 -2.3647 -1.8302
 5259TIP3    H215784   3.305   4.040   0.632  0.0831 -1.7508  1.2927
 5260TIP3   OH215785   5.743   3.923   0.792 -0.4488 -0.8071 -0.6107
 5260TIP3    H115786   5.831   3.948   0.822 -0.7876  0.6836 -0.7801
 5260TIP3    H215787   5.753   3.912   0.697 -0.4110 -0.7987 -0.6079
 5261TIP3   OH215788   3.456   1.626   1.061  0.1287 -0.8974  0.0300
 5261TIP3    H115789   3.402   1.599   0.987 -0.7760 -0.1824  0.4093
 5261TIP3    H215790   3.505   1.701   1.029 -0.7748 -0.1523  0.3335
 5262TIP3   OH215791   0.627   2.752   1.471  0.5541 -0.2919  0.6393
 5262TIP3    H115792   0.597   2.739   1.561  0.5253  0.1415  0.6933
 5262TIP3    H215793   0.688   2.826   1.477  1.9015 -1.3665  0.5922
 5263TIP3   OH215794   0.614   5.960   1.628 -0.1051  0.2354  0.2853
 5263TIP3    H115795   0.535   6.010   1.609 -0.4545 -0.1562  0.6805
 5263TIP3    H215796   0.587   5.897   1.695  0.5135  0.0235  0.3432
 5264TIP3   OH215797   4.343   1.574   2.426 -0.3834  0.0848  0.3632
 5264TIP3    H115798   4.411   1.578   2.493 -0.3798 -0.5380  0.4018
 5264TIP3    H215799   4.275   1.519   2.464 -0.2725 -0.4740 -0.2421
 5265TIP3   OH215800   5.682   5.265   1.368 -0.3191  0.1648 -0.3004
 5265TIP3    H115801   5.593   5.252   1.401 -0.0151  1.6505  1.2301
 5265TIP3    H215802   5.684   5.355   1.337  0.5662  0.0387 -0.6497
 5266TIP3   OH215803   3.656   3.952   4.478 -0.0703  0.1381 -0.3484
 5266TIP3    H115804   3.621   4.017   4.537  1.3964 -0.1520  0.9003
 5266TIP3    H215805   3.602   3.874   4.492  0.1685  0.1205  0.5123
 5267TIP3   OH215806   4.225   5.029   4.998  0.1394 -0.1697 -0.4939
 5267TIP3    H115807   4.198   5.020   5.090  2.5311 -0.1850  0.2824
 5267TIP3    H215808   4.154   5.078   4.957 -1.4314 -0.9513  1.1259
 5268TIP3   OH215809   5.313   5.441   0.434 -0.1781 -0.4278 -0.6566
 5268TIP3    H115810   5.304   5.526   0.478 -1.8221 -0.4596 -0.8726
 5268TIP3    H215811   5.392   5.449   0.381 -0.3099  0.9741 -0.6658
 5269TIP3   OH215812   3.369   0.672   0.803  0.1252  0.1675 -0.2694
 5269TIP3    H115813   3.346   0.709   0.718  0.3209  0.2569 -0.2833
 5269TIP3    H215814   3.444   0.615   0.784  0.1800  0.2022 -0.1540
 5270TIP3   OH215815   6.023   0.032   4.584  0.5353 -0.4225 -0.1608
 5270TIP3    H115816   5.986  -0.052   4.610 -2.6719  0.9834  0.3821
 5270TIP3    H215817   6.033   0.081   4.666 -0.4428  0.6960 -0.6730
 5271TIP3   OH215818   2.366   4.905   5.176 -0.3338 -0.0075 -0.3972
 5271TIP3    H115819   2.394   4.859   5.097  1.2597 -2.4854  1.4453
 5271TIP3    H215820   2.433   4.883   5.240 -1.0025  2.7710  1.3935
 5272TIP3   OH215821   2.429   3.000   3.453 -0.0058  0.3992  0.0752
 5272TIP3    H115822   2.350   3.031   3.497  0.8076  2.0629  0.4340
 5272TIP3    H215823   2.501   3.031   3.507  0.9583  0.6016 -1.2625
 5273TIP3   OH215824   2.455   5.841   3.190  0.2229 -0.5319 -0.5112
 5273TIP3    H115825   2.542   5.824   3.154 -0.1220 -0.8972 -1.1934
 5273TIP3    H215826   2.435   5.931   3.165  0.9299  0.0125  0.7731
 5274TIP3   OH215827   4.572   4.574   1.351  0.6821  0.5794  0.2767
 5274TIP3    H115828   4.576   4.479   1.364  0.1110  0.7154  1.5970
 5274TIP3    H215829   4.517   4.586   1.274  2.4725 -0.2184 -1.1939
 5275TIP3   OH215830   2.281   1.850   1.957 -0.0552  0.5369 -0.0411
 5275TIP3    H115831   2.249   1.768   1.995 -0.9743  0.8476 -0.1186
 5275TIP3    H215832   2.239   1.855   1.871 -3.2053  2.9583  1.4617
 5276TIP3   OH215833   5.486   5.198   2.416  0.4489 -0.5484  0.1342
 5276TIP3    H115834   5.506   5.126   2.476 -0.4588 -2.4950 -1.7455
 5276TIP3    H215835   5.496   5.160   2.329  0.5963  1.8427 -0.9666
 5277TIP3   OH215836   1.265   0.267   4.621  0.4667 -0.0757 -0.0323
 5277TIP3    H115837   1.229   0.261   4.532 -0.9798 -0.8161  0.5728
 5277TIP3    H215838   1.335   0.331   4.613 -0.0559  0.3687 -1.5811
 5278TIP3   OH215839   3.007   3.857   0.066 -0.5523 -0.0655  0.2486
 5278TIP3    H115840   3.039   3.778   0.109 -0.4644  0.8432  1.9548
 5278TIP3    H215841   3.063   3.867  -0.012  5.0999  2.4991  3.9568
 5279TIP3   OH215842   1.920   0.983   3.920 -0.3960  0.1150 -0.1512
 5279TIP3    H115843   1.853   1.050   3.933  0.7228  1.1200  0.5737
 5279TIP3    H215844   1.893   0.937   3.840 -0.2471  2.6008 -1.7289
 5280TIP3   OH215845   1.802   5.935   3.368 -0.2433  0.2756 -0.5140
 5280TIP3    H115846   1.740   5.994   3.325  2.8024  3.4117 -1.0588
 5280TIP3    H215847   1.843   5.887   3.296 -0.7896 -0.5330 -0.3014
 5281TIP3   OH215848   2.295   2.403   5.109 -0.0840  0.3428  0.5124
 5281TIP3    H115849   2.257   2.488   5.084  1.0690  0.5333 -0.6670
 5281TIP3    H215850   2.304   2.409   5.204  0.2471  1.6648  0.4229
 5282TIP3   OH215851   3.311   0.776   1.754  0.2001  0.2206 -0.3699
 5282TIP3    H115852   3.230   0.827   1.750  0.3509  0.4433 -0.5472
 5282TIP3    H215853   3.380   0.837   1.730  0.2061 -0.4475 -2.1969
 5283TIP3   OH215854   1.898   5.557   4.617  0.3689 -0.2132 -0.4289
 5283TIP3    H115855   1.875   5.605   4.537  2.6109  0.2472 -0.8803
 5283TIP3    H215856   1.851   5.603   4.687  0.5650  1.1704 -1.1610
 5284TIP3   OH215857   3.904   0.761   2.627  0.6209  0.4516 -0.0651
 5284TIP3    H115858   3.914   0.699   2.555  0.7283  0.0149  0.3198
 5284TIP3    H215859   3.993   0.783   2.653  0.5967 -0.6222  0.9722
 5285TIP3   OH215860   0.404   2.492   4.501  0.2846 -0.0402  0.0158
 5285TIP3    H115861   0.412   2.416   4.559  1.7687  0.7721  0.9469
 5285TIP3    H215862   0.473   2.552   4.530  0.1633  1.0078 -1.7019
 5286TIP3   OH215863   0.878   5.201   2.582 -0.0345  0.7022 -0.2507
 5286TIP3    H115864   0.931   5.209   2.502  0.4091 -0.2500 -0.0699
 5286TIP3    H215865   0.846   5.110   2.580  0.6095  0.4288  1.0338
 5287TIP3   OH215866   1.903   0.145   3.036 -0.2842  0.0246  0.1559
 5287TIP3    H115867   1.821   0.139   2.988 -1.0034  1.4625  1.1116
 5287TIP3    H215868   1.902   0.069   3.095 -1.4687  0.5890  0.9039
 5288TIP3   OH215869   5.935   5.334   2.850  0.4197 -0.3655  0.7544
 5288TIP3    H115870   5.987   5.414   2.837  0.1892 -0.0783  1.5277
 5288TIP3    H215871   5.992   5.264   2.821  1.4895 -0.1045  2.1166
 5289TIP3   OH215872   0.831   3.456   2.785 -0.3783 -0.6853  0.2350
 5289TIP3    H115873   0.895   3.480   2.852  0.9355  2.8132 -1.9992
 5289TIP3    H215874   0.754   3.509   2.806 -0.7972 -1.2753  0.2090
 5290TIP3   OH215875   3.232   1.776   1.293  0.1618  0.7562  0.1550
 5290TIP3    H115876   3.177   1.755   1.218  0.8530  0.7966 -0.3721
 5290TIP3    H215877   3.321   1.771   1.260  0.6466 -1.7401  1.5751
 5291TIP3   OH215878   3.193   2.016   5.083  0.2257  0.3061  0.0982
 5291TIP3    H115879   3.277   1.988   5.119 -0.9081 -2.4857  0.8188
 5291TIP3    H215880   3.172   1.949   5.017 -0.8595  1.6723 -1.0148
 5292TIP3   OH215881   0.817   4.628   3.338  0.3852 -0.0757  0.1857
 5292TIP3    H115882   0.820   4.721   3.362  0.5227  0.0840 -0.4237
 5292TIP3    H215883   0.728   4.616   3.304  0.2281 -0.2719  0.6616
 5293TIP3   OH215884   0.518   0.933   3.671 -0.4736 -0.5426  0.6294
 5293TIP3    H115885   0.515   0.939   3.576 -0.8774 -2.5144  0.4772
 5293TIP3    H215886   0.433   0.898   3.696 -0.0636 -0.8447  1.6502
 5294TIP3   OH215887   2.096   1.078   1.622 -0.1088 -0.1920 -0.2305
 5294TIP3    H115888   2.024   1.141   1.628  1.8481  2.1496  0.2492
 5294TIP3    H215889   2.174   1.129   1.643  1.5303 -3.0331  1.1788
 5295TIP3   OH215890   1.596   3.657   4.653  0.1951 -0.7140  0.2810
 5295TIP3    H115891   1.544   3.671   4.574  2.5129 -1.6675 -1.4991
 5295TIP3    H215892   1.687   3.660   4.624  1.2188  0.6447  3.2273
 5296TIP3   OH215893   1.040   4.689   5.199  0.5448  0.2491 -0.5617
 5296TIP3    H115894   1.064   4.734   5.118  2.1188  1.4084  0.4926
 5296TIP3    H215895   1.121   4.645   5.226 -0.0283 -0.3169  0.2667
 5297TIP3   OH215896   5.853   0.417   1.329 -0.9856  0.6151  0.2764
 5297TIP3    H115897   5.905   0.358   1.275 -0.6282 -0.0024  1.2734
 5297TIP3    H215898   5.846   0.497   1.276 -1.6333 -0.3509 -1.1673
 5298TIP3   OH215899   3.855   2.285   2.241 -0.0272 -0.8401 -0.4293
 5298TIP3    H115900   3.912   2.306   2.166 -0.3625  1.9700 -0.0019
 5298TIP3    H215901   3.886   2.199   2.270  1.5431 -1.0607 -2.4598
 5299TIP3   OH215902   1.786   2.952   4.726  0.2520  0.1298  0.1123
 5299TIP3    H115903   1.841   2.874   4.725 -0.4216 -0.3605 -0.0094
 5299TIP3    H215904   1.841   3.022   4.691 -0.0303 -0.9228 -2.7045
 5300TIP3   OH215905   1.558   5.156   1.538  0.3182  0.5819 -0.0964
 5300TIP3    H115906   1.620   5.228   1.545 -0.0193  0.8642  0.0150
 5300TIP3    H215907   1.542   5.129   1.629  2.8051 -1.6909 -0.2121
 5301TIP3   OH215908   4.505   0.803   0.279  0.0109  0.0641 -0.1519
 5301TIP3    H115909   4.499   0.849   0.195 -0.8744 -1.0561 -0.7304
 5301TIP3    H215910   4.535   0.715   0.257 -0.6075 -0.3654  0.6512
 5302TIP3   OH215911   4.618   1.095   1.326  0.4413 -0.2185  0.2781
 5302TIP3    H115912   4.683   1.115   1.393  1.6436  0.8585 -1.1289
 5302TIP3    H215913   4.601   1.001   1.337  0.6285 -0.0869  2.0222
 5303TIP3   OH215914   6.079   4.044   2.354  0.4974  0.5945  0.0195
 5303TIP3    H115915   6.144   4.082   2.413 -1.8235  2.1442  1.7737
 5303TIP3    H215916   6.033   4.119   2.317 -0.4992 -0.4535 -0.9783
 5304TIP3   OH215917   2.180   5.594   4.612  0.2325 -0.5093 -0.6773
 5304TIP3    H115918   2.197   5.529   4.543 -0.7002 -1.0189 -0.4488
 5304TIP3    H215919   2.089   5.578   4.638  1.1743 -1.8006  2.2102
 5305TIP3   OH215920   4.541   0.478   3.812 -0.2137  0.3474  0.0896
 5305TIP3    H115921   4.534   0.385   3.832 -0.6312  0.0953 -1.1482
 5305TIP3    H215922   4.452   0.504   3.788  0.3070  0.4710 -1.9129
 5306TIP3   OH215923   2.250   5.875   1.160 -0.1251  0.5816  0.2037
 5306TIP3    H115924   2.271   5.798   1.212  1.3549  0.0764 -1.0732
 5306TIP3    H215925   2.205   5.933   1.221  0.6473 -0.3927  1.7729
 5307TIP3   OH215926   5.383   4.937   2.175  0.6275  0.1352 -0.0450
 5307TIP3    H115927   5.388   4.896   2.261  0.0116 -1.7573 -0.8480
 5307TIP3    H215928   5.319   5.007   2.186 -1.4556 -1.6983  0.5180
 5308TIP3   OH215929   3.111   5.359   2.198 -0.3139  0.5407  0.1121
 5308TIP3    H115930   3.065   5.286   2.239 -2.1244  1.6767  0.2213
 5308TIP3    H215931   3.060   5.436   2.223  2.2852  2.0462  1.1326
 5309TIP3   OH215932   1.869   4.541   5.076  0.2274  0.2227 -0.0881
 5309TIP3    H115933   1.806   4.544   5.148  0.8873  0.0416  0.5006
 5309TIP3    H215934   1.947   4.585   5.110 -0.0071  1.6491 -1.2563
 5310TIP3   OH215935   0.032   5.208   1.291  0.4088 -0.0756 -0.8045
 5310TIP3    H115936   0.058   5.176   1.204 -0.5643 -0.6386 -0.8994
 5310TIP3    H215937  -0.036   5.273   1.273 -1.6102 -1.9686 -0.4057
 5311TIP3   OH215938   4.931   5.263   2.933 -0.3757  0.3799 -0.4356
 5311TIP3    H115939   4.976   5.246   2.850  2.5556  0.2481  1.0450
 5311TIP3    H215940   4.977   5.339   2.970 -2.5295  1.3256  0.5002
 5312TIP3   OH215941   2.381   2.351   4.596 -0.0424  0.0699  0.1210
 5312TIP3    H115942   2.473   2.367   4.573 -0.6605  0.8528 -2.1175
 5312TIP3    H215943   2.379   2.261   4.627  1.3806 -0.2242 -0.5516
 5313TIP3   OH215944   1.061   0.438   3.799 -0.3077 -0.9031  0.3073
 5313TIP3    H115945   1.147   0.465   3.766 -1.1598  1.0781 -0.4311
 5313TIP3    H215946   1.038   0.363   3.744 -0.1568  0.1657 -1.2827
 5314TIP3   OH215947   5.621   3.615   2.628 -1.2404  0.1430 -0.4019
 5314TIP3    H115948   5.555   3.611   2.696  1.0650 -0.1605  1.9620
 5314TIP3    H215949   5.651   3.525   2.617 -1.8296  0.1074 -2.1976
 5315TIP3   OH215950   3.214   4.579   3.308  0.5849 -0.4217 -0.3329
 5315TIP3    H115951   3.280   4.535   3.256  0.6261 -2.1505  1.0983
 5315TIP3    H215952   3.184   4.513   3.371 -1.1055  0.8859  0.3247
 5316TIP3   OH215953   1.827   0.247   0.641 -0.7628 -0.2480 -0.1433
 5316TIP3    H115954   1.794   0.161   0.615 -1.0692  0.0848 -0.9027
 5316TIP3    H215955   1.874   0.231   0.723  1.2363 -1.5455 -1.4722
 5317TIP3   OH215956   3.184   5.321   0.686 -0.4067 -0.2807  0.2864
 5317TIP3    H115957   3.256   5.353   0.631 -2.3603  1.8989 -1.1906
 5317TIP3    H215958   3.223   5.308   0.772  1.3107  3.2571  0.2086
 5318TIP3   OH215959   3.772   4.437   4.279  0.3916  0.8557 -0.1485
 5318TIP3    H115960   3.861   4.449   4.311  0.1021 -0.4430  1.2812
 5318TIP3    H215961   3.720   4.420   4.358 -0.3173 -2.9061 -1.2406
 5319TIP3   OH215962   4.105   1.235   4.519  0.0302  0.4729  1.3835
 5319TIP3    H115963   4.173   1.171   4.535 -0.3498 -1.2675 -2.7405
 5319TIP3    H215964   4.145   1.299   4.459 -1.3798  0.4295  0.3310
 5320TIP3   OH215965   4.607   1.847   0.396  0.3491 -0.2054 -0.0426
 5320TIP3    H115966   4.518   1.853   0.361  0.7158  0.6601 -0.8593
 5320TIP3    H215967   4.595   1.815   0.485 -0.9729  1.9868  0.6370
 5321TIP3   OH215968   4.353   1.778   4.497 -0.4787  0.0776 -0.5367
 5321TIP3    H115969   4.273   1.776   4.550 -0.5446  2.5902 -0.4138
 5321TIP3    H215970   4.421   1.809   4.557  0.3462 -0.8662 -0.9507
 5322TIP3   OH215971   1.931   5.937   1.983  0.8316 -0.3256  0.2659
 5322TIP3    H115972   1.992   5.985   2.041  0.0118 -1.4875  2.1949
 5322TIP3    H215973   1.845   5.973   2.004  0.5011 -0.8719 -0.1270
 5323TIP3   OH215974   3.990   2.142   3.334 -0.0387  0.0009 -0.0497
 5323TIP3    H115975   4.055   2.089   3.381 -1.1150 -2.1435 -0.8627
 5323TIP3    H215976   3.921   2.080   3.312 -1.0816  1.6588 -1.5953
 5324TIP3   OH215977   4.982   2.062   3.664 -0.2001 -0.7345 -0.7415
 5324TIP3    H115978   4.992   2.046   3.758 -0.3601 -1.9269 -0.9110
 5324TIP3    H215979   5.061   2.111   3.640  0.2136 -1.0712 -0.1200
 5325TIP3   OH215980   3.816   0.848   4.478 -0.0165  0.0549  0.3668
 5325TIP3    H115981   3.879   0.897   4.425 -1.5055  0.7754 -0.8000
 5325TIP3    H215982   3.731   0.885   4.455 -0.9468 -1.3360  1.4092
 5326TIP3   OH215983   2.818   4.942   3.301  0.2017 -0.0602  0.4305
 5326TIP3    H115984   2.882   4.924   3.232  1.2453  0.0682  1.3377
 5326TIP3    H215985   2.784   4.856   3.324  0.4731 -0.1975  0.3309
 5327TIP3   OH215986   4.759   1.705   4.228  0.4651  0.1548 -0.4371
 5327TIP3    H115987   4.853   1.694   4.222  0.2459 -1.6583 -1.3513
 5327TIP3    H215988   4.726   1.675   4.143 -1.1227 -2.1694  0.8792
 5328TIP3   OH215989   1.030   0.593   3.496  0.0543  0.4508  0.2098
 5328TIP3    H115990   0.961   0.625   3.554 -0.4951 -1.4722  0.6782
 5328TIP3    H215991   1.027   0.498   3.505  1.9091  0.2543 -0.7618
 5329TIP3   OH215992   3.290   3.713   0.475  0.2190 -0.0560 -0.4183
 5329TIP3    H115993   3.206   3.696   0.433 -0.2970  0.5681  0.3328
 5329TIP3    H215994   3.282   3.802   0.509  0.6792 -0.4765  0.8402
 5330TIP3   OH215995   1.900   3.225   4.873 -0.4344  0.5902 -0.2636
 5330TIP3    H115996   1.934   3.182   4.951  0.0948 -1.4672 -1.5504
 5330TIP3    H215997   1.805   3.217   4.881 -0.3508 -1.2419 -0.6385
 5331TIP3   OH215998   2.745   0.068   4.439 -0.4056 -0.3476 -0.3451
 5331TIP3    H115999   2.742  -0.024   4.414 -0.5303 -0.3743 -0.2311
 5331TIP3    H216000   2.722   0.115   4.358  1.8840 -0.3132 -1.0346
 5332TIP3   OH216001   3.967   5.568   1.569 -0.0704  0.2811  0.6259
 5332TIP3    H116002   4.036   5.504   1.588 -0.4125 -0.2070  0.2681
 5332TIP3    H216003   3.996   5.649   1.610  1.5467  0.5513 -0.9465
 5333TIP3   OH216004   3.868   2.191   0.685  0.0712 -0.1466 -0.2198
 5333TIP3    H116005   3.775   2.178   0.706 -0.5867  0.7437 -2.3360
 5333TIP3    H216006   3.914   2.169   0.766 -2.0194 -0.0649  1.0629
 5334TIP3   OH216007   4.510   0.409   2.446  0.0717  0.7079  0.0775
 5334TIP3    H116008   4.450   0.482   2.428 -0.7120 -0.2072 -1.2292
 5334TIP3    H216009   4.566   0.406   2.368  0.6926  0.4921  0.5334
 5335TIP3   OH216010   1.283   0.992   1.496 -0.2364  0.1287 -0.0624
 5335TIP3    H116011   1.303   0.975   1.588  0.1367  3.0501  0.5015
 5335TIP3    H216012   1.224   0.921   1.471  2.3220 -2.6934  1.3567
 5336TIP3   OH216013   3.616   1.732   1.791  0.2839  0.5746  0.2739
 5336TIP3    H116014   3.579   1.654   1.751  3.2039 -1.0171  0.3613
 5336TIP3    H216015   3.628   1.793   1.717 -0.7315  0.4233 -0.0334
 5337TIP3   OH216016   3.233   3.821   4.660 -0.1546  0.4528  0.1350
 5337TIP3    H116017   3.288   3.759   4.611  0.4969  1.2865 -0.2023
 5337TIP3    H216018   3.146   3.781   4.660  0.2330 -0.4068 -0.1760
 5338TIP3   OH216019   3.946   5.482   3.578 -0.1206 -0.2647 -0.2332
 5338TIP3    H116020   4.009   5.521   3.639 -0.7124 -1.5412  1.2551
 5338TIP3    H216021   3.860   5.501   3.616 -0.7094  1.1686 -2.0716
 5339TIP3   OH216022   1.949   5.880   1.479  0.0786 -0.4260  0.0304
 5339TIP3    H116023   1.882   5.913   1.419  0.2530 -1.9825 -1.1009
 5339TIP3    H216024   1.911   5.799   1.514  0.5475 -0.2535  0.9644
 5340TIP3   OH216025   2.149   2.326   1.464 -0.0356 -1.3177  0.3222
 5340TIP3    H116026   2.175   2.234   1.462  1.7327 -0.9262  2.1619
 5340TIP3    H216027   2.054   2.325   1.475 -0.2302 -2.8775 -1.0938
 5341TIP3   OH216028   0.525   1.200   0.973  0.6838 -0.1359 -0.2069
 5341TIP3    H116029   0.485   1.191   0.886 -0.4334  0.8236  0.1841
 5341TIP3    H216030   0.617   1.220   0.955  0.7543 -1.2005 -1.1460
 5342TIP3   OH216031   0.734   0.849   3.791  0.1129 -1.0201 -0.0807
 5342TIP3    H116032   0.710   0.820   3.879 -0.1927 -0.1713  0.1241
 5342TIP3    H216033   0.652   0.882   3.754  0.3511 -0.8780 -0.4823
 5343TIP3   OH216034   0.971   3.100   4.366 -0.0508 -0.0551  0.4010
 5343TIP3    H116035   0.985   3.006   4.361  0.5327 -0.0119  1.0573
 5343TIP3    H216036   1.059   3.137   4.363 -0.1991  0.4017  1.3502
 5344TIP3   OH216037   1.673   2.378  -0.007  0.2733  0.0572 -0.4018
 5344TIP3    H116038   1.681   2.417   0.080 -1.7747 -0.4624  0.0628
 5344TIP3    H216039   1.728   2.432  -0.063 -0.5160  2.0825  0.6896
 5345TIP3   OH216040   5.575   1.115   1.504  0.4330  0.1670 -0.0977
 5345TIP3    H116041   5.622   1.162   1.573  0.0645  0.5469 -0.1013
 5345TIP3    H216042   5.491   1.161   1.496  0.5653  0.2863 -0.9674
 5346TIP3   OH216043   6.056   2.615   3.245 -0.6445  0.3546  0.2824
 5346TIP3    H116044   6.074   2.568   3.327 -1.7273 -1.4662 -0.4557
 5346TIP3    H216045   6.109   2.571   3.179 -2.2030 -0.3552 -0.5617
 5347TIP3   OH216046   0.140   0.012   1.685  0.3732 -0.2373 -0.6858
 5347TIP3    H116047   0.185   0.089   1.720 -0.3407 -0.0838 -0.0860
 5347TIP3    H216048   0.146   0.022   1.590 -1.0412  1.3661 -0.6543
 5348TIP3   OH216049   0.686   3.862   2.279 -0.1230 -0.7002 -0.5371
 5348TIP3    H116050   0.697   3.841   2.372  0.0339  0.7648 -0.2064
 5348TIP3    H216051   0.775   3.860   2.244 -0.1953 -1.3803 -0.6976
 5349TIP3   OH216052   1.748   4.366   0.328  0.1309  0.4549  0.7365
 5349TIP3    H116053   1.773   4.273   0.323  1.7226  0.8514  0.7383
 5349TIP3    H216054   1.697   4.372   0.408  1.1760 -0.2001  1.4875
 5350TIP3   OH216055   6.227   1.761   2.733 -0.2535  0.1693 -0.6705
 5350TIP3    H116056   6.266   1.834   2.685  0.3964  0.1179 -0.2293
 5350TIP3    H216057   6.244   1.684   2.678  1.6823 -0.1067  0.2320
 5351TIP3   OH216058   5.800   5.234   0.173  0.2694  0.3511 -0.9276
 5351TIP3    H116059   5.892   5.257   0.189  0.0440  0.7346 -0.1139
 5351TIP3    H216060   5.767   5.206   0.259 -0.2481 -0.2338 -1.3125
 5352TIP3   OH216061   0.626   1.243   3.636 -0.0896 -0.1111 -0.2051
 5352TIP3    H116062   0.578   1.166   3.606  0.4789 -1.1273  1.3865
 5352TIP3    H216063   0.698   1.209   3.689  0.7865  1.4838 -0.2815
 5353TIP3   OH216064   5.767   0.870   3.828  0.0296 -0.1552 -0.0516
 5353TIP3    H116065   5.789   0.826   3.910  1.7449  1.1407  0.2393
 5353TIP3    H216066   5.772   0.964   3.849  1.9788  0.2309 -1.9366
 5354TIP3   OH216067   5.014   2.260   2.918 -0.4596 -0.0606  0.5796
 5354TIP3    H116068   4.925   2.226   2.928  0.7778 -3.4139  1.4210
 5354TIP3    H216069   5.008   2.350   2.952 -3.5127 -0.0864  0.4602
 5355TIP3   OH216070   0.293   3.291   2.663 -0.3078 -0.1044  0.3507
 5355TIP3    H116071   0.230   3.246   2.608 -0.8943  0.6577  0.3761
 5355TIP3    H216072   0.242   3.322   2.738  0.3835 -0.7028  1.0907
 5356TIP3   OH216073   0.738   2.547   0.203 -0.0161 -0.0402 -0.1912
 5356TIP3    H116074   0.751   2.626   0.254 -0.6628  0.6288 -1.0185
 5356TIP3    H216075   0.818   2.495   0.215  0.3721  0.6992  0.4228
 5357TIP3   OH216076   3.299   5.778   0.118  0.2207 -0.0491 -0.0487
 5357TIP3    H116077   3.262   5.750   0.034  2.4405 -2.1889 -0.4168
 5357TIP3    H216078   3.362   5.846   0.095  1.7243 -1.4803 -0.3458
 5358TIP3   OH216079   3.513   1.290   2.938  0.4247  0.2391  0.1443
 5358TIP3    H116080   3.504   1.238   2.859  0.4655 -0.0082  0.3024
 5358TIP3    H216081   3.469   1.373   2.918  2.0898  0.9276 -0.8184
 5359TIP3   OH216082   2.080   1.142   0.936 -0.8154 -0.1226  0.1740
 5359TIP3    H116083   2.124   1.194   0.870 -0.8071 -1.8873 -1.2934
 5359TIP3    H216084   2.023   1.204   0.982  0.1036  1.3831 -0.6402
 5360TIP3   OH216085   3.633   3.652   4.663 -0.1923  0.6138 -0.0802
 5360TIP3    H116086   3.690   3.683   4.593  0.8454 -1.6101 -0.2983
 5360TIP3    H216087   3.554   3.621   4.618  0.5365 -0.9563 -0.3221
 5361TIP3   OH216088   1.503   0.993   4.053  0.3185  0.1833  0.2139
 5361TIP3    H116089   1.484   1.082   4.081  0.9258  0.6924 -0.9525
 5361TIP3    H216090   1.482   0.991   3.960 -1.2473 -1.3622  0.5576
 5362TIP3   OH216091   2.720   1.078   1.536 -0.2651 -0.2236  0.4689
 5362TIP3    H116092   2.789   1.074   1.470  0.2037 -0.9709  0.9990
 5362TIP3    H216093   2.761   1.122   1.611 -0.4635 -0.3623  0.6611
 5363TIP3   OH216094   1.649   2.780   2.292 -0.5944 -0.3298 -0.3541
 5363TIP3    H116095   1.743   2.785   2.274 -0.2060 -0.4157  1.4755
 5363TIP3    H216096   1.613   2.857   2.249  0.2405 -0.4974 -1.4046
 5364TIP3   OH216097   0.359   1.117   1.195  0.0176  0.0730 -0.4063
 5364TIP3    H116098   0.267   1.100   1.175 -0.5536  0.7504  1.4148
 5364TIP3    H216099   0.402   1.120   1.110 -1.9501  1.4877 -1.4470
 5365TIP3   OH216100   2.010   1.280   5.061  0.7434 -0.3710 -0.5302
 5365TIP3    H116101   1.973   1.193   5.081 -0.6232  0.3193  0.0563
 5365TIP3    H216102   2.010   1.325   5.145 -0.4312  0.8718 -1.1583
 5366TIP3   OH216103   1.645   3.567   1.515 -0.0524  0.6225 -0.4579
 5366TIP3    H116104   1.571   3.505   1.515 -0.5365  1.0855  2.1464
 5366TIP3    H216105   1.722   3.513   1.498 -0.4428 -0.8061  1.9403
 5367TIP3   OH216106   1.095   2.740   0.717  0.1958  0.3076  0.0587
 5367TIP3    H116107   1.027   2.771   0.777  0.4180 -0.3983  0.6951
 5367TIP3    H216108   1.164   2.806   0.723  0.4316 -0.0031  0.9839
 5368TIP3   OH216109   4.671   4.779   2.542 -0.1495  0.2494 -0.4028
 5368TIP3    H116110   4.716   4.706   2.500 -3.7552 -1.4940 -1.7179
 5368TIP3    H216111   4.628   4.740   2.618 -2.3858  0.8088 -1.2963
 5369TIP3   OH216112   6.154   0.587   1.150  0.4811  0.4411 -0.3469
 5369TIP3    H116113   6.187   0.635   1.226  1.8004  0.8063 -1.1339
 5369TIP3    H216114   6.232   0.552   1.107 -0.3783 -1.5035 -0.4131
 5370TIP3   OH216115   1.148   2.429   3.915  0.3372 -0.2895 -0.2755
 5370TIP3    H116116   1.153   2.512   3.963  1.1364  0.4019 -1.5125
 5370TIP3    H216117   1.098   2.372   3.973  1.0033  0.5972  1.2625
 5371TIP3   OH216118   3.354   5.721   4.091 -0.0227 -0.0266  0.6516
 5371TIP3    H116119   3.354   5.735   4.186 -1.1140  0.3181  0.6201
 5371TIP3    H216120   3.278   5.664   4.076  0.8942 -1.1325  0.1150
 5372TIP3   OH216121   1.717   2.867   2.725  0.1252  0.6019  0.2959
 5372TIP3    H116122   1.699   2.797   2.663  0.2659  0.3484  0.5357
 5372TIP3    H216123   1.694   2.830   2.810 -0.5882  1.1301  0.3441
 5373TIP3   OH216124   1.335   2.399   0.159 -0.0968  0.4785  0.3009
 5373TIP3    H116125   1.263   2.337   0.168 -0.1504  0.6163  0.8768
 5373TIP3    H216126   1.312   2.452   0.083  1.8003 -2.6359 -2.7295
 5374TIP3   OH216127   3.319   4.902   3.262 -0.0142 -0.3271 -0.2111
 5374TIP3    H116128   3.252   4.885   3.195 -0.3484 -2.6114  0.5962
 5374TIP3    H216129   3.401   4.875   3.220 -0.2238 -1.7610  0.2191
 5375TIP3   OH216130   0.185   1.090   2.087  0.3834 -0.4579 -0.1399
 5375TIP3    H116131   0.184   1.008   2.038  0.8410 -0.3093 -0.4068
 5375TIP3    H216132   0.167   1.064   2.178 -2.4351 -0.5297 -0.6454
 5376TIP3   OH216133   5.835   0.195   2.424  0.2261 -0.1174  0.3235
 5376TIP3    H116134   5.889   0.249   2.368 -1.3674  1.7626  0.4981
 5376TIP3    H216135   5.880   0.195   2.508 -0.7367  2.8189  0.9598
 5377TIP3   OH216136   0.311   1.473   3.075  0.8084 -0.0236 -0.6334
 5377TIP3    H116137   0.360   1.407   3.026  0.2552 -1.1115  0.2297
 5377TIP3    H216138   0.222   1.439   3.078  0.1674  1.5184 -1.4648
 5378TIP3   OH216139   0.802   1.392   2.721  0.1089  0.7672  0.5610
 5378TIP3    H116140   0.729   1.337   2.691  1.8974 -0.9822 -0.8342
 5378TIP3    H216141   0.849   1.338   2.785  1.0014  1.3036  0.3815
 5379TIP3   OH216142   5.680   4.973   2.333  0.3482 -0.3559  0.5126
 5379TIP3    H116143   5.736   4.916   2.282  1.3574  0.4429  0.7038
 5379TIP3    H216144   5.593   4.934   2.325  0.8373 -1.3529 -0.1620
 5380TIP3   OH216145   0.681   3.888   0.855  0.4758 -0.5664  0.3010
 5380TIP3    H116146   0.706   3.918   0.768  1.8590 -0.1541  0.8166
 5380TIP3    H216147   0.751   3.828   0.881 -0.1945 -1.1121  0.9179
 5381TIP3   OH216148   0.381   1.432   0.397 -0.3485  0.0314  0.3306
 5381TIP3    H116149   0.394   1.523   0.423  0.3910  0.1742 -0.4680
 5381TIP3    H216150   0.414   1.380   0.471 -0.1817  0.4150  0.5268
 5382TIP3   OH216151   5.299   1.180   4.479 -0.5181 -0.3571 -0.5342
 5382TIP3    H116152   5.213   1.139   4.472 -1.0316  0.8599 -2.2977
 5382TIP3    H216153   5.285   1.259   4.531 -0.3149 -0.4953 -0.2641
 5383TIP3   OH216154   4.545   3.417   4.740  0.0503 -1.1980  0.4229
 5383TIP3    H116155   4.574   3.488   4.797 -3.4629  0.7609  0.0427
 5383TIP3    H216156   4.609   3.416   4.669 -0.5354  2.8231 -0.4141
 5384TIP3   OH216157   4.619   4.182   0.464  0.0981  0.3021 -0.5586
 5384TIP3    H116158   4.611   4.086   0.466 -2.4808  0.3691 -2.1291
 5384TIP3    H216159   4.606   4.205   0.372  0.5621  2.1836 -0.1972
 5385TIP3   OH216160   3.160   0.517   0.349 -0.1971  0.2729 -0.3918
 5385TIP3    H116161   3.118   0.581   0.407  1.6942 -1.1479  2.7685
 5385TIP3    H216162   3.243   0.559   0.325 -0.6539  0.5460 -1.5712
 5386TIP3   OH216163   1.226   4.180   1.904  0.1315 -0.4749  0.1680
 5386TIP3    H116164   1.267   4.208   1.986  0.7472  0.9433 -0.5824
 5386TIP3    H216165   1.261   4.240   1.839 -0.9067 -1.1211 -1.0194
 5387TIP3   OH216166   2.908   2.430   3.666 -0.3063  0.6073  0.3180
 5387TIP3    H116167   2.918   2.417   3.572 -0.6099  0.2994  0.3255
 5387TIP3    H216168   2.843   2.500   3.673 -1.1972 -0.1889  0.2985
 5388TIP3   OH216169   4.185   4.456   3.506 -0.4004 -0.0948  0.4584
 5388TIP3    H116170   4.239   4.531   3.482 -0.0987 -0.9062 -1.5317
 5388TIP3    H216171   4.200   4.392   3.437 -1.8019 -1.4204  1.3210
 5389TIP3   OH216172   4.963   1.939   0.096 -0.0582 -0.0572 -0.1155
 5389TIP3    H116173   4.937   1.852   0.066  0.0186  0.1625 -0.8461
 5389TIP3    H216174   4.883   1.975   0.136 -0.5797  0.1773 -1.3228
 5390TIP3   OH216175   6.010   1.200   0.126  0.5488  0.3911 -0.0738
 5390TIP3    H116176   6.081   1.214   0.189  1.8341 -0.7357 -1.2181
 5390TIP3    H216177   6.053   1.193   0.041 -1.0034  0.3300 -0.8974
 5391TIP3   OH216178   4.192   3.673   1.504  0.4939  0.1172 -0.1137
 5391TIP3    H116179   4.131   3.738   1.538 -0.1920 -0.4763 -0.1829
 5391TIP3    H216180   4.195   3.605   1.572  1.4683  0.3744  0.1149
 5392TIP3   OH216181   3.085   5.271   4.566 -0.3625  0.4730 -0.4851
 5392TIP3    H116182   3.166   5.276   4.516 -0.7483 -1.0467 -1.3382
 5392TIP3    H216183   3.111   5.237   4.652 -0.1494 -0.5090 -0.9324
 5393TIP3   OH216184   0.978   4.453   1.054  0.3925 -0.3266  0.4995
 5393TIP3    H116185   1.012   4.370   1.019 -1.1310 -0.6356 -0.3412
 5393TIP3    H216186   0.889   4.459   1.019  0.4822  1.6920  0.5235
 5394TIP3   OH216187   0.773   0.741   2.648 -0.0968  0.1111 -0.2531
 5394TIP3    H116188   0.741   0.655   2.620  0.9462 -0.7176  0.9569
 5394TIP3    H216189   0.839   0.721   2.714 -0.7320  1.8825  0.9950
 5395TIP3   OH216190   6.270   2.192   0.771 -0.1206  0.3516 -0.3857
 5395TIP3    H116191   6.232   2.105   0.765 -0.6890  0.4407  1.3048
 5395TIP3    H216192   6.294   2.214   0.681  0.0632 -1.5401 -0.8466
 5396TIP3   OH216193   1.998   4.569   3.066 -0.6261  0.2499  0.5079
 5396TIP3    H116194   2.027   4.505   3.130 -0.4942 -0.1445  0.0579
 5396TIP3    H216195   1.936   4.522   3.011 -1.8030  0.9579  1.1833
 5397TIP3   OH216196   2.813   0.773   1.013  0.1703 -0.3710 -0.0109
 5397TIP3    H116197   2.730   0.753   1.057 -0.3762 -0.3474 -0.9936
 5397TIP3    H216198   2.880   0.739   1.071 -0.5070  0.1240  1.0861
 5398TIP3   OH216199   1.607   1.505   1.765 -0.0577  0.3922  0.1867
 5398TIP3    H116200   1.664   1.434   1.795  0.7930  0.9159 -0.1788
 5398TIP3    H216201   1.536   1.460   1.718  0.6938 -0.1935 -0.4030
 5399TIP3   OH216202   4.009   4.185   2.442 -0.1240 -0.2056 -0.1132
 5399TIP3    H116203   4.055   4.113   2.484 -0.7249  0.1340  1.2030
 5399TIP3    H216204   4.078   4.250   2.424  0.0515 -0.0007  1.1748
 5400TIP3   OH216205   1.156   3.093   2.135 -0.3525 -0.6409  0.2137
 5400TIP3    H116206   1.066   3.094   2.103 -0.0967 -0.6372 -0.5217
 5400TIP3    H216207   1.162   3.168   2.194 -0.5231  0.0471 -0.6174
 5401TIP3   OH216208   1.184   1.768   4.406  0.3838 -0.2055 -0.8623
 5401TIP3    H116209   1.219   1.774   4.495  1.5566  0.5121 -1.3635
 5401TIP3    H216210   1.159   1.857   4.383 -2.6553 -0.7838 -0.2144
 5402TIP3   OH216211   2.079   5.613   1.739 -0.2056 -0.5151 -0.4276
 5402TIP3    H116212   2.103   5.613   1.832 -0.7187 -1.5458 -0.2798
 5402TIP3    H216213   2.108   5.698   1.707  0.9376 -0.5596  0.4294
 5403TIP3   OH216214   2.486   3.880   4.224  0.0695  0.4402  0.1823
 5403TIP3    H116215   2.581   3.873   4.210  0.1293  1.1599  0.2059
 5403TIP3    H216216   2.468   3.815   4.292  0.5150  0.1803  0.0644
 5404TIP3   OH216217   3.959   3.446   1.710 -0.5694  0.4874 -0.0308
 5404TIP3    H116218   4.036   3.501   1.721  0.9187 -1.1166 -1.7454
 5404TIP3    H216219   3.912   3.483   1.636 -0.0903  0.0577 -0.5610
 5405TIP3   OH216220   4.808   2.903   2.438  0.3792 -0.3038 -0.2989
 5405TIP3    H116221   4.867   2.846   2.389  0.9316 -0.3039  0.3632
 5405TIP3    H216222   4.731   2.848   2.455 -0.5058  0.1449 -2.4628
 5406TIP3   OH216223   0.383   5.001   3.287 -0.5762 -0.3329  0.1469
 5406TIP3    H116224   0.315   4.952   3.334 -0.2396 -0.5417  0.4153
 5406TIP3    H216225   0.365   5.093   3.307  0.0790 -0.4548  1.3929
 5407TIP3   OH216226   2.887   1.538   5.094 -0.2998 -0.3229 -0.2479
 5407TIP3    H116227   2.982   1.547   5.080 -0.0894 -1.5624  0.2434
 5407TIP3    H216228   2.876   1.549   5.189 -0.7858  0.7869 -0.4200
 5408TIP3   OH216229   0.179   4.776   0.653 -0.0254 -0.1154 -0.0980
 5408TIP3    H116230   0.174   4.855   0.600  1.4525  0.4779  0.5796
 5408TIP3    H216231   0.123   4.713   0.608 -1.0995  1.2465 -0.7456
 5409TIP3   OH216232   3.830   3.505   0.365  0.0270 -0.0152 -0.1438
 5409TIP3    H116233   3.863   3.496   0.455  0.1950  2.5399  0.1355
 5409TIP3    H216234   3.907   3.534   0.315 -0.1726 -0.9814 -1.0300
 5410TIP3   OH216235   3.120   3.636   0.206  0.4413  0.3291  0.6791
 5410TIP3    H116236   3.214   3.619   0.198  0.4742  0.6688  0.3307
 5410TIP3    H216237   3.093   3.582   0.280  1.1481  1.1563  1.5656
 5411TIP3   OH216238   4.754   5.695   1.007 -0.7307  0.2199  0.2233
 5411TIP3    H116239   4.684   5.759   1.021 -0.6055  0.1136  1.4835
 5411TIP3    H216240   4.833   5.748   0.997 -0.5921  0.2856  1.4837
 5412TIP3   OH216241   5.314   4.140   1.362 -0.4193 -0.4708  0.3569
 5412TIP3    H116242   5.375   4.207   1.393  2.5907 -2.4301 -0.9083
 5412TIP3    H216243   5.266   4.182   1.291  0.8077  0.5893  0.1285
 5413TIP3   OH216244   0.248   2.546   4.028 -0.1664  0.2955 -0.6390
 5413TIP3    H116245   0.261   2.641   4.037 -2.5330  0.5514  0.8027
 5413TIP3    H216246   0.297   2.523   3.948  2.8674  2.1607  0.5091
 5414TIP3   OH216247   2.907   0.534   1.711 -0.8192 -0.4443  0.2313
 5414TIP3    H116248   2.892   0.551   1.804 -2.0485  0.1087 -0.0464
 5414TIP3    H216249   2.838   0.473   1.686 -0.2657 -0.8873 -0.2399
 5415TIP3   OH216250   2.971   0.259   1.422 -0.5516  0.6036 -0.4667
 5415TIP3    H116251   2.983   0.213   1.505 -1.7376 -0.3850 -0.8055
 5415TIP3    H216252   3.037   0.220   1.364  0.3418  1.3622  0.0139
 5416TIP3   OH216253   2.870   4.387   1.819 -0.4295 -0.0663 -0.0757
 5416TIP3    H116254   2.820   4.444   1.761  1.8763  0.8371 -1.3315
 5416TIP3    H216255   2.868   4.431   1.904 -0.1190  1.0056 -0.6069
 5417TIP3   OH216256   3.599   1.135   1.331  0.9012  0.0963 -0.3612
 5417TIP3    H116257   3.639   1.165   1.413 -0.2852 -1.1392  0.7093
 5417TIP3    H216258   3.674   1.115   1.274  1.8068 -0.7933  1.0808
 5418TIP3   OH216259   4.196   5.878   3.877 -0.1199  0.1238  0.4384
 5418TIP3    H116260   4.164   5.792   3.849  0.7784 -0.6330  1.6421
 5418TIP3    H216261   4.267   5.858   3.939  0.1182  1.7370  0.7187
 5419TIP3   OH216262   3.672   5.564   3.681 -0.1755  0.0730  0.1773
 5419TIP3    H116263   3.642   5.580   3.591  2.0809  3.3262 -0.2018
 5419TIP3    H216264   3.612   5.615   3.736 -1.6786 -2.0784  0.6370
 5420TIP3   OH216265   1.614   2.609   3.916 -0.2155  0.1107 -0.1776
 5420TIP3    H116266   1.665   2.562   3.850 -0.0089  0.7591 -0.4911
 5420TIP3    H216267   1.602   2.696   3.879 -1.3053  0.0633  0.0240
 5421TIP3   OH216268   5.786   1.207   2.818  0.3484  0.1005 -0.0000
 5421TIP3    H116269   5.717   1.158   2.774  0.8216 -0.8596  0.2904
 5421TIP3    H216270   5.863   1.149   2.814  1.6090  1.7540 -1.6892
 5422TIP3   OH216271   5.242   4.269   1.130 -0.1280  0.2706  0.3024
 5422TIP3    H116272   5.304   4.330   1.169  0.4105  0.9203 -1.4458
 5422TIP3    H216273   5.191   4.323   1.069  1.2058 -1.1277 -2.2608
 5423TIP3   OH216274   1.709   5.777   0.962 -0.1355  0.2361 -0.1300
 5423TIP3    H116275   1.800   5.805   0.972  0.6661 -2.1972  0.0355
 5423TIP3    H216276   1.682   5.755   1.051 -0.6430  0.2493 -0.2826
 5424TIP3   OH216277   4.113   4.673   1.532  0.2000 -0.5850  0.5819
 5424TIP3    H116278   4.052   4.707   1.598 -0.6463  2.8177 -1.7213
 5424TIP3    H216279   4.199   4.704   1.561 -0.0940  0.4472  0.3741
 5425TIP3   OH216280   4.267   0.573   5.000  0.1787  0.6838  0.6006
 5425TIP3    H116281   4.290   0.495   5.051  0.4236 -1.3508 -2.3169
 5425TIP3    H216282   4.179   0.555   4.966  0.8692  0.8526 -1.4290
 5426TIP3   OH216283   3.552   5.803   2.766 -0.0227 -0.2990 -0.0224
 5426TIP3    H116284   3.582   5.742   2.834  1.3399 -0.8798 -1.0823
 5426TIP3    H216285   3.489   5.753   2.715  0.2107 -0.4269 -0.1859
 5427TIP3   OH216286   1.548   0.975   3.490  0.0584 -0.0889 -0.2680
 5427TIP3    H116287   1.621   1.005   3.436 -0.5531  3.4349  0.6127
 5427TIP3    H216288   1.471   1.012   3.448 -0.7102  0.3348  1.4337
 5428TIP3   OH216289   2.291   0.322   3.713 -0.4981 -0.6796 -0.1278
 5428TIP3    H116290   2.350   0.396   3.731 -0.6732 -0.3569 -0.8272
 5428TIP3    H216291   2.345   0.260   3.663 -0.1814 -1.3028  0.9630
 5429TIP3   OH216292   1.271   2.633   4.082  0.0834  0.2935 -0.1416
 5429TIP3    H116293   1.361   2.601   4.079  0.5134  1.4192  0.1339
 5429TIP3    H216294   1.241   2.613   4.170 -0.3537 -1.1246 -0.5892
 5430TIP3   OH216295   2.247   1.331   3.065 -0.1221 -0.0217  0.0740
 5430TIP3    H116296   2.287   1.418   3.065 -0.4562  0.1330  0.1239
 5430TIP3    H216297   2.218   1.318   3.155 -0.9528  0.2238 -0.1509
 5431TIP3   OH216298   2.790   3.743   1.072  0.5400 -0.3472 -0.2464
 5431TIP3    H116299   2.788   3.781   1.159  0.8956 -2.5833  0.7981
 5431TIP3    H216300   2.846   3.802   1.021  0.3430  0.9760  1.0148
 5432TIP3   OH216301   3.004   3.345   3.692  0.2167 -0.7816 -0.3787
 5432TIP3    H116302   2.984   3.421   3.638  0.3267 -0.6285 -0.2022
 5432TIP3    H216303   3.088   3.314   3.660  0.2768 -0.6973 -0.3017
 5433TIP3   OH216304   1.198   5.406   0.881  0.3848 -0.3173 -0.1284
 5433TIP3    H116305   1.225   5.321   0.918 -0.1706 -1.0481 -1.3312
 5433TIP3    H216306   1.123   5.385   0.826 -0.4406  1.1492  0.4034
 5434TIP3   OH216307   1.154   1.697   0.079  0.4177 -0.0104  0.2294
 5434TIP3    H116308   1.210   1.620   0.067 -2.0039 -1.9777  0.6905
 5434TIP3    H216309   1.069   1.670   0.045 -1.0487  1.7768  2.2044
 5435TIP3   OH216310   4.653   4.518   0.230 -0.7670 -1.0416  0.5097
 5435TIP3    H116311   4.637   4.562   0.147  0.9930  0.6121  0.9802
 5435TIP3    H216312   4.604   4.568   0.294  0.2414 -0.4908  0.8701
 5436TIP3   OH216313   1.722   3.022   4.016  0.2165  0.5278 -0.2817
 5436TIP3    H116314   1.802   2.971   4.002  0.1619  0.2642  0.3035
 5436TIP3    H216315   1.656   2.978   3.963  0.1592 -0.0518  0.2527
 5437TIP3   OH216316   3.936   4.222   4.581  0.1368 -0.4387  0.0876
 5437TIP3    H116317   3.942   4.136   4.540  1.1919  0.3885 -1.6164
 5437TIP3    H216318   3.843   4.243   4.580  0.0779 -0.6245 -1.6202
 5438TIP3   OH216319   5.582   1.782   0.594  0.0173  0.4822 -0.0202
 5438TIP3    H116320   5.676   1.765   0.597 -0.2606 -1.0916  0.5523
 5438TIP3    H216321   5.541   1.700   0.623 -1.4920  1.7663  1.7021
 5439TIP3   OH216322   2.191   1.607   2.389 -0.1281  0.4234  0.0350
 5439TIP3    H116323   2.248   1.558   2.447  1.2017  3.1253  1.1763
 5439TIP3    H216324   2.250   1.648   2.326 -0.9323  1.9572  0.2313
 5440TIP3   OH216325   4.424   4.393   3.181 -0.3862 -0.3624  0.0441
 5440TIP3    H116326   4.447   4.386   3.088  0.5597  1.5576  0.0848
 5440TIP3    H216327   4.412   4.303   3.209 -1.3667 -0.9644 -2.0917
 5441TIP3   OH216328   1.851   2.271   2.195  0.2513 -0.1308  0.5756
 5441TIP3    H116329   1.827   2.348   2.144 -0.1209 -0.3088  0.4774
 5441TIP3    H216330   1.815   2.197   2.146  2.1851 -0.5439 -0.3046
 5442TIP3   OH216331   4.854   3.139   1.760  0.1378 -0.2960  0.3197
 5442TIP3    H116332   4.803   3.080   1.815 -1.3100 -0.1162 -0.7664
 5442TIP3    H216333   4.827   3.227   1.787  0.8024 -0.1735  0.5863
 5443TIP3   OH216334   2.231   4.488   3.437  0.4768 -0.1177 -0.0499
 5443TIP3    H116335   2.206   4.509   3.527  1.8438 -0.8013  0.5077
 5443TIP3    H216336   2.302   4.425   3.445 -0.8133 -1.9067 -1.6366
 5444TIP3   OH216337   1.630   2.132   1.277 -0.0130  0.3796  0.3202
 5444TIP3    H116338   1.667   2.056   1.322  0.2713  1.0064  1.1701
 5444TIP3    H216339   1.706   2.182   1.248 -0.1336  1.6723  2.0758
 5445TIP3   OH216340   3.222   0.033   5.050 -0.0973  0.3282  0.1647
 5445TIP3    H116341   3.244   0.068   5.136 -0.4210 -0.1962  0.4732
 5445TIP3    H216342   3.234   0.106   4.990 -2.4436  1.5293  0.9882
 5446TIP3   OH216343   3.892   4.410   2.706 -0.0653  0.0183 -0.9963
 5446TIP3    H116344   3.968   4.440   2.757  1.9353 -1.0006 -3.2086
 5446TIP3    H216345   3.820   4.466   2.736  1.2046  0.2076  2.1026
 5447TIP3   OH216346   2.703   1.728   1.623 -0.0011 -0.7607  0.2248
 5447TIP3    H116347   2.743   1.766   1.544 -2.6466  0.6544 -0.5504
 5447TIP3    H216348   2.628   1.678   1.591 -0.1760 -1.5164  1.7350
 5448TIP3   OH216349   5.867   0.163   0.794 -0.0872 -0.0639 -0.2046
 5448TIP3    H116350   5.812   0.117   0.731 -0.6082 -0.7318  0.7190
 5448TIP3    H216351   5.845   0.125   0.878  1.4046  0.0257  0.2625
 5449TIP3   OH216352   5.352   2.860   4.611 -0.2969 -0.1639  0.1713
 5449TIP3    H116353   5.281   2.894   4.556 -1.9116 -1.5556  1.2587
 5449TIP3    H216354   5.310   2.841   4.695  1.4835 -0.6319  1.0065
 5450TIP3   OH216355   1.406   5.325   4.521 -0.3201 -0.6632 -0.8532
 5450TIP3    H116356   1.420   5.340   4.428  0.5281 -1.4385 -0.8683
 5450TIP3    H216357   1.313   5.301   4.528 -0.8173  0.9689 -1.2591
 5451TIP3   OH216358   0.832   4.699   1.807  1.3959 -0.3236 -0.1360
 5451TIP3    H116359   0.822   4.660   1.721 -1.7794  1.2689 -0.6444
 5451TIP3    H216360   0.880   4.780   1.792  0.4767  0.1649 -0.5441
 5452TIP3   OH216361   5.500   3.225   2.656 -0.2990  0.3798  0.6653
 5452TIP3    H116362   5.460   3.239   2.742  2.1087  1.7883  1.6681
 5452TIP3    H216363   5.568   3.292   2.650 -0.6481  0.6072 -2.5587
 5453TIP3   OH216364   4.102   0.124   0.180  0.2910  0.6438 -0.4399
 5453TIP3    H116365   4.073   0.200   0.131 -1.0467  1.1653  1.0829
 5453TIP3    H216366   4.133   0.159   0.263 -2.2657 -0.5553  1.1294
 5454TIP3   OH216367   3.061   4.872   4.125 -0.3809  0.1849  0.2950
 5454TIP3    H116368   3.021   4.937   4.183 -0.1742  0.9927 -0.4470
 5454TIP3    H216369   3.104   4.924   4.057 -1.6791 -0.7302 -1.3180
 5455TIP3   OH216370   0.046   5.012   4.381  0.0052  0.5033  0.1825
 5455TIP3    H116371   0.121   5.032   4.324 -0.2983  2.3978  0.3959
 5455TIP3    H216372  -0.029   5.010   4.322  0.1220 -1.0599  0.0239
 5456TIP3   OH216373   5.031   5.884   1.588  0.5667 -0.8497 -0.0673
 5456TIP3    H116374   5.070   5.863   1.503  1.7499  1.0282 -0.0350
 5456TIP3    H216375   5.087   5.839   1.652  2.2396  1.1081 -0.0763
 5457TIP3   OH216376   4.075   0.067   4.553 -0.3427 -0.3737  0.0100
 5457TIP3    H116377   4.147   0.130   4.555  0.7865 -1.5433 -1.2028
 5457TIP3    H216378   4.054   0.051   4.645  0.5551  0.4217  0.3714
 5458TIP3   OH216379   2.496   2.374   4.884  0.3698 -0.3243  0.2889
 5458TIP3    H116380   2.578   2.330   4.907 -0.6833 -1.6983  1.5963
 5458TIP3    H216381   2.448   2.382   4.967 -0.3766  1.4585 -0.2612
 5459TIP3   OH216382   3.309   0.729   3.588 -0.1676 -0.3418  0.4069
 5459TIP3    H116383   3.306   0.807   3.532  0.5889 -1.5496 -1.4038
 5459TIP3    H216384   3.222   0.690   3.579  0.5718 -1.6503 -1.6864
 5460TIP3   OH216385   1.105   1.749   1.893 -0.4003 -0.2217  0.8263
 5460TIP3    H116386   1.019   1.729   1.855 -0.3007  0.6604  0.1097
 5460TIP3    H216387   1.164   1.685   1.854 -0.0963  1.3181 -1.4001
 5461TIP3   OH216388   1.062   3.459   0.162 -0.4012  0.1631 -0.4714
 5461TIP3    H116389   1.085   3.549   0.138  0.7108  0.6044  1.9961
 5461TIP3    H216390   1.112   3.405   0.102  0.6202  1.1994 -0.6001
 5462TIP3   OH216391   0.575   1.942   2.882  0.1029  0.0292 -0.2282
 5462TIP3    H116392   0.563   1.862   2.932  0.9325  0.1466  0.1766
 5462TIP3    H216393   0.489   1.960   2.844  0.0915 -1.4812 -1.0026
 5463TIP3   OH216394   3.845   0.936   3.162 -0.8974 -0.2660 -0.3199
 5463TIP3    H116395   3.907   0.873   3.126 -1.1462 -0.5433 -0.2675
 5463TIP3    H216396   3.769   0.931   3.103 -1.1187 -0.3794 -0.0273
 5464TIP3   OH216397   3.559   3.539   3.674  0.8423  0.5272 -0.3608
 5464TIP3    H116398   3.537   3.632   3.682 -0.8977  0.1420 -0.1899
 5464TIP3    H216399   3.530   3.515   3.587 -0.0358 -0.1672  0.1077
 5465TIP3   OH216400   6.126   2.760   1.021 -0.0660 -0.0792 -0.1565
 5465TIP3    H116401   6.136   2.709   1.101  0.6090  0.8000  0.3357
 5465TIP3    H216402   6.067   2.832   1.045  1.1185  0.8942 -0.0891
 5466TIP3   OH216403   5.761   0.567   4.726 -0.5201 -0.5911  0.0230
 5466TIP3    H116404   5.810   0.561   4.808 -0.1593  1.9214  0.0683
 5466TIP3    H216405   5.774   0.658   4.697 -2.7760 -0.6682 -1.4645
 5467TIP3   OH216406   2.497   5.304   0.215  0.4953 -0.1311  0.1634
 5467TIP3    H116407   2.520   5.389   0.252  1.1603  1.2990 -3.1336
 5467TIP3    H216408   2.412   5.282   0.255  0.5342  1.8349  1.4413
 5468TIP3   OH216409   5.711   5.610   2.909  0.1017  0.2482 -0.5880
 5468TIP3    H116410   5.764   5.658   2.846 -0.3267 -0.7276 -1.7131
 5468TIP3    H216411   5.621   5.641   2.892  0.2834  2.4581  1.7961
 5469TIP3   OH216412   4.864   2.428   4.125 -0.3133  0.4988  0.7951
 5469TIP3    H116413   4.872   2.474   4.208 -0.7966 -0.7011  1.5378
 5469TIP3    H216414   4.952   2.431   4.087 -0.1773  1.3924  1.1496
 5470TIP3   OH216415   3.130   3.902   2.811  0.0417  0.2121 -0.0622
 5470TIP3    H116416   3.077   3.825   2.834  0.7063  0.1596  1.4047
 5470TIP3    H216417   3.069   3.976   2.817  0.0627  0.1339  1.4498
 5471TIP3   OH216418   2.266   4.021   4.243  0.0887 -0.1055  0.0304
 5471TIP3    H116419   2.338   3.962   4.219  0.8318  1.1037 -0.8585
 5471TIP3    H216420   2.309   4.105   4.258 -1.2475  0.9724 -1.7688
 5472TIP3   OH216421   6.305   1.225   0.912  0.0294 -0.4507  0.2272
 5472TIP3    H116422   6.279   1.308   0.951  0.6411 -0.2030  0.1335
 5472TIP3    H216423   6.400   1.223   0.923  0.2842 -0.2079 -1.5123
 5473TIP3   OH216424   2.847   4.828   4.932  0.3617 -0.1159 -0.1871
 5473TIP3    H116425   2.901   4.905   4.915 -0.0189 -0.0397 -1.0903
 5473TIP3    H216426   2.885   4.760   4.877 -0.6194  0.0141 -1.0488
 5474TIP3   OH216427   5.868   1.558   0.062  0.2709 -0.0630  0.0944
 5474TIP3    H116428   5.838   1.630   0.118  0.0357  1.5222 -1.9474
 5474TIP3    H216429   5.816   1.483   0.089 -0.7638  0.9771  1.0854
 5475TIP3   OH216430   4.984   2.655   0.360 -0.2487  0.4132  0.5671
 5475TIP3    H116431   4.964   2.742   0.394 -3.5899 -0.4645  1.2750
 5475TIP3    H216432   4.997   2.601   0.438 -2.2320 -0.4426  0.3803
 5476TIP3   OH216433   3.117   0.891   3.432 -0.5182  0.2483 -0.2180
 5476TIP3    H116434   3.183   0.956   3.453 -1.0247  0.8153 -0.3605
 5476TIP3    H216435   3.055   0.937   3.376 -0.6795 -0.4631 -0.6291
 5477TIP3   OH216436   2.828   3.339   0.751  0.0956  0.2727 -0.0645
 5477TIP3    H116437   2.814   3.426   0.786 -0.8331  0.0337  0.1823
 5477TIP3    H216438   2.922   3.335   0.732  0.1629  1.2698  0.0428
 5478TIP3   OH216439   0.876   4.334   5.070  0.0654 -0.6255 -0.3791
 5478TIP3    H116440   0.793   4.291   5.085  0.4298 -1.3224 -0.3064
 5478TIP3    H216441   0.859   4.395   4.998 -0.4517 -0.9185 -0.5075
 5479TIP3   OH216442   4.066   0.292   1.689  0.5362  0.3058 -0.2116
 5479TIP3    H116443   3.999   0.314   1.754 -0.2400 -0.5989 -0.6757
 5479TIP3    H216444   4.149   0.304   1.735  0.0045 -0.1173  0.8868
 5480TIP3   OH216445   3.047   3.896   4.112 -0.2468 -0.0381  0.3156
 5480TIP3    H116446   3.089   3.829   4.059 -2.3803  0.1452 -1.8046
 5480TIP3    H216447   2.956   3.866   4.122 -0.8974  1.8358  0.4920
 5481TIP3   OH216448   6.348   4.131   2.974 -0.2559  0.4747 -0.2526
 5481TIP3    H116449   6.414   4.174   3.028 -0.8892  1.0575  0.0618
 5481TIP3    H216450   6.266   4.141   3.023 -0.4456 -1.0146 -0.1996
 5482TIP3   OH216451   6.345   1.440   4.465  0.7629  0.3409 -0.4121
 5482TIP3    H116452   6.287   1.501   4.419 -1.9852 -0.9663  1.0897
 5482TIP3    H216453   6.317   1.353   4.435  3.6424 -0.3396 -1.4470
 5483TIP3   OH216454   1.357   0.706   2.752 -0.1207  0.3774  0.6812
 5483TIP3    H116455   1.402   0.782   2.714  0.8167  0.5401  2.0258
 5483TIP3    H216456   1.271   0.739   2.776 -1.1167  0.0322 -2.0489
 5484TIP3   OH216457   3.972   0.320   0.036 -0.1469 -0.1830 -0.1646
 5484TIP3    H116458   3.879   0.298   0.042  0.0036 -0.6522  0.6383
 5484TIP3    H216459   3.974   0.406  -0.006 -0.9962  0.2165  0.5773
 5485TIP3   OH216460   6.211   5.581   2.530  0.3427 -0.2632 -0.2407
 5485TIP3    H116461   6.161   5.629   2.465  1.5841  0.1485 -0.9351
 5485TIP3    H216462   6.303   5.598   2.507  0.8229 -0.1029  1.6008
 5486TIP3   OH216463   3.766   0.533   0.106  0.0815  0.6269 -0.0837
 5486TIP3    H116464   3.699   0.537   0.038 -0.1173  3.7622  0.1755
 5486TIP3    H216465   3.843   0.574   0.067 -0.4190  3.7694  1.8141
 5487TIP3   OH216466   4.945   0.112   1.677 -0.0594  0.4890 -0.1653
 5487TIP3    H116467   4.962   0.024   1.642 -0.2927  1.2918 -2.4850
 5487TIP3    H216468   5.031   0.144   1.703  0.2526  0.0970 -0.6860
 5488TIP3   OH216469   2.692   4.469   4.629  0.4167 -0.0079 -0.4689
 5488TIP3    H116470   2.717   4.378   4.612  0.3735 -0.2562  0.7297
 5488TIP3    H216471   2.772   4.511   4.661  0.7882  0.7478 -2.2136
 5489TIP3   OH216472   0.101   1.979   5.064  0.1724  0.0936 -0.5287
 5489TIP3    H116473   0.168   2.001   5.129 -0.7156  0.7180  0.1967
 5489TIP3    H216474   0.024   2.030   5.091 -0.4612 -0.2794 -1.5953
 5490TIP3   OH216475   1.570   0.768   4.406  0.5716 -0.1376  0.3746
 5490TIP3    H116476   1.557   0.791   4.498 -0.9156  1.9250 -0.2634
 5490TIP3    H216477   1.600   0.849   4.365 -0.7992 -0.4206 -1.3011
 5491TIP3   OH216478   5.921   3.943   5.151 -0.7459  0.2367  0.5142
 5491TIP3    H116479   5.904   3.899   5.068 -0.8425 -0.1441  0.7319
 5491TIP3    H216480   5.964   4.025   5.127 -1.2751  0.3861  0.0567
 5492TIP3   OH216481   2.611   1.200   2.497  0.5708 -0.2668  0.5760
 5492TIP3    H116482   2.549   1.157   2.557  1.7923 -2.3687  0.4308
 5492TIP3    H216483   2.678   1.237   2.554  0.5917 -0.3532  0.6071
 5493TIP3   OH216484   6.019   4.796   4.298  0.6415  0.1160 -0.1807
 5493TIP3    H116485   6.026   4.789   4.393 -0.2164 -0.1178 -0.1194
 5493TIP3    H216486   6.010   4.705   4.268 -0.6965  0.2718 -0.3225
 5494TIP3   OH216487   2.034   3.244   1.232  0.2083 -0.3983  0.0610
 5494TIP3    H116488   2.069   3.190   1.162  2.3523  0.4294  0.4005
 5494TIP3    H216489   2.079   3.213   1.311  0.1421  0.6631  0.5388
 5495TIP3   OH216490   5.415   4.632   2.591 -0.4738 -0.3707  0.4451
 5495TIP3    H116491   5.439   4.639   2.683 -0.4595  0.8922  0.3672
 5495TIP3    H216492   5.459   4.553   2.560 -0.2128 -0.6243  1.4353
 5496TIP3   OH216493   4.249   4.076   1.805 -0.5939  0.3399 -0.5007
 5496TIP3    H116494   4.186   4.126   1.856  0.1798  1.7967 -0.9135
 5496TIP3    H216495   4.210   3.989   1.796 -1.0255  0.2154  2.0129
 5497TIP3   OH216496   4.642   1.593   0.215  0.0860 -0.4277 -0.2926
 5497TIP3    H116497   4.576   1.588   0.146  0.2587 -0.6800 -0.4419
 5497TIP3    H216498   4.634   1.682   0.250  0.6405  0.0124 -1.2730
 5498TIP3   OH216499   5.836   1.716   0.577  0.1189  0.0865  0.6332
 5498TIP3    H116500   5.909   1.770   0.549 -0.5827  1.3910  1.2128
 5498TIP3    H216501   5.872   1.628   0.586  1.2979  0.4515 -0.3156
 5499TIP3   OH216502   5.266   1.463   1.162 -0.4008  0.2083  0.2744
 5499TIP3    H116503   5.184   1.418   1.178 -0.6695  0.5598 -0.0931
 5499TIP3    H216504   5.334   1.401   1.190 -0.7968  0.0627  0.9317
 5500TIP3   OH216505   2.207   1.422   0.008 -0.6642 -0.0909  0.7010
 5500TIP3    H116506   2.210   1.506   0.055  1.4615 -0.4466  1.3097
 5500TIP3    H216507   2.299   1.395   0.002 -0.8725 -0.5041 -2.9239
 5501TIP3   OH216508   1.983   4.539   1.567  0.1111 -0.0346  0.2919
 5501TIP3    H116509   1.915   4.477   1.594 -1.3827  0.9692 -0.9816
 5501TIP3    H216510   1.983   4.605   1.636 -0.7422  0.3451 -0.0611
 5502TIP3   OH216511   6.310   2.939   1.310 -0.0219 -0.1766 -0.0614
 5502TIP3    H116512   6.255   3.017   1.303 -1.0959 -0.8781  0.4228
 5502TIP3    H216513   6.345   2.927   1.222  1.6591  1.8876  0.2165
 5503TIP3   OH216514   3.032   1.294   0.039  0.1360  0.5901 -0.1167
 5503TIP3    H116515   2.967   1.236  -0.000 -0.9439  2.1507 -0.6995
 5503TIP3    H216516   3.051   1.358  -0.029  0.4000  1.6396  0.9230
 5504TIP3   OH216517   5.520   0.868   3.711  0.3437 -0.5067 -0.4099
 5504TIP3    H116518   5.496   0.960   3.726  1.6302 -0.1624 -0.3272
 5504TIP3    H216519   5.607   0.860   3.751  1.7811 -0.8524 -3.3357
 5505TIP3   OH216520   5.120   2.707   4.714  0.0192  0.1518  0.0427
 5505TIP3    H116521   5.129   2.623   4.759 -1.4365 -0.0297  0.0358
 5505TIP3    H216522   5.072   2.762   4.776  0.4644  0.8049 -0.1799
 5506TIP3   OH216523   4.403   1.681   2.983 -0.2763 -0.6265  0.0965
 5506TIP3    H116524   4.413   1.656   2.891 -0.2499 -0.7624  0.1355
 5506TIP3    H216525   4.397   1.776   2.982  0.0778 -0.6055 -0.0137
 5507TIP3   OH216526   5.680   2.078   0.006 -0.3129  0.0049 -0.0364
 5507TIP3    H116527   5.749   2.017  -0.018 -0.3100  0.6614 -1.7892
 5507TIP3    H216528   5.646   2.044   0.089  0.2619 -1.8709 -0.5341
 5508TIP3   OH216529   5.647   3.228   4.977  0.0894  0.0858  0.1880
 5508TIP3    H116530   5.657   3.292   5.048  0.2329  0.7182 -0.3939
 5508TIP3    H216531   5.553   3.210   4.975  0.2683 -1.1453  1.5716
 5509TIP3   OH216532   5.187   0.898   4.250  0.2987 -0.1602 -0.2261
 5509TIP3    H116533   5.104   0.909   4.297  0.4586 -3.4087  1.0804
 5509TIP3    H216534   5.164   0.843   4.175  1.1516 -0.4684 -0.2633
 5510TIP3   OH216535   3.270   3.376   3.277  1.0361 -0.0846 -0.0935
 5510TIP3    H116536   3.351   3.415   3.310  0.7981  0.0871  0.2948
 5510TIP3    H216537   3.298   3.294   3.237  1.7124  1.0303 -2.0425
 5511TIP3   OH216538   3.581   5.902   4.050  0.1489  0.1271 -0.1687
 5511TIP3    H116539   3.593   5.981   4.104  1.9947 -0.2855  0.0862
 5511TIP3    H216540   3.500   5.863   4.084 -0.4846  1.5819  0.0994
 5512TIP3   OH216541   5.733   4.624   3.649 -0.1009  0.0832 -0.5181
 5512TIP3    H116542   5.684   4.578   3.717  2.2422 -0.3380  0.9674
 5512TIP3    H216543   5.682   4.704   3.633 -0.5148  0.4133  2.0538
 5513TIP3   OH216544   4.495   4.726   0.346 -0.1051 -1.0001  0.0135
 5513TIP3    H116545   4.480   4.785   0.272 -0.7881 -0.8983  0.2228
 5513TIP3    H216546   4.451   4.768   0.420  0.3776 -1.2098  0.4340
 5514TIP3   OH216547   2.903   1.528   1.710  0.0784  0.2706  0.0228
 5514TIP3    H116548   2.819   1.548   1.667  1.4855 -0.5832 -3.4385
 5514TIP3    H216549   2.969   1.550   1.644  2.5015 -0.9599  1.9044
 5515TIP3   OH216550   6.190   1.190   2.973  0.2584 -0.5856 -0.4228
 5515TIP3    H116551   6.274   1.176   3.017  0.0757 -1.4527 -0.3178
 5515TIP3    H216552   6.148   1.261   3.021 -0.4452 -2.2599  1.6062
 5516TIP3   OH216553   3.022   1.298   1.483  0.1302 -0.2513  0.1891
 5516TIP3    H116554   3.055   1.223   1.532  0.8561  0.0268  0.1412
 5516TIP3    H216555   3.015   1.266   1.393  1.0784 -0.0745  0.0457
 5517TIP3   OH216556   6.090   4.860   3.787  0.1387  0.0462  0.2944
 5517TIP3    H116557   6.005   4.901   3.772 -1.0608 -2.1039  0.7550
 5517TIP3    H216558   6.116   4.890   3.875 -0.3427  0.3786  0.3262
 5518TIP3   OH216559   4.477   2.927   2.150  0.0734 -0.1565  0.2061
 5518TIP3    H116560   4.558   2.974   2.132 -0.1163  0.1511  0.1462
 5518TIP3    H216561   4.499   2.865   2.220  0.6005 -0.7494 -0.4622
 5519TIP3   OH216562   4.244   5.343   1.289  0.3146  0.0639 -0.0394
 5519TIP3    H116563   4.191   5.385   1.357 -2.5548 -0.4373 -1.7760
 5519TIP3    H216564   4.294   5.276   1.335 -2.7976 -1.4407  1.4701
 5520TIP3   OH216565   2.862   4.392   3.112  0.0561 -0.2006  0.1600
 5520TIP3    H116566   2.851   4.355   3.200  0.7424 -2.4346 -0.6073
 5520TIP3    H216567   2.805   4.338   3.057  0.3952  0.5081 -0.9079
 5521TIP3   OH216568   5.543   3.412   2.215 -0.2893 -0.5572 -0.0372
 5521TIP3    H116569   5.458   3.430   2.255  0.0177  2.4579 -0.4842
 5521TIP3    H216570   5.528   3.422   2.121  0.9385  2.6448 -0.0225
 5522TIP3   OH216571   3.138   5.543   1.045 -0.0684 -0.7895 -0.0300
 5522TIP3    H116572   3.110   5.519   0.957 -1.8052  0.9437 -0.0194
 5522TIP3    H216573   3.188   5.624   1.033  2.2564 -2.0926  0.3257
 5523TIP3   OH216574   4.593   3.806   4.026  0.0517  0.3237 -0.0449
 5523TIP3    H116575   4.594   3.832   3.934 -1.0280 -0.1002 -0.1903
 5523TIP3    H216576   4.675   3.839   4.061 -0.5161  2.4684 -0.6159
 5524TIP3   OH216577   1.108   5.084   2.771  0.7444  0.8945  0.5979
 5524TIP3    H116578   1.078   5.060   2.684  1.0679  0.0582  0.7051
 5524TIP3    H216579   1.185   5.138   2.756  1.0967  0.3411  0.3572
 5525TIP3   OH216580   2.140   0.758   2.361 -0.3403 -0.6718  0.1766
 5525TIP3    H116581   2.168   0.795   2.444 -2.0477  0.6982  0.2015
 5525TIP3    H216582   2.074   0.819   2.328  1.5140 -0.1813 -3.0927
 5526TIP3   OH216583   3.662   0.200   2.394  0.2451  0.4238  0.1017
 5526TIP3    H116584   3.584   0.144   2.392  0.6971 -0.1976 -1.0036
 5526TIP3    H216585   3.633   0.280   2.438 -0.6862 -0.2645  0.7908
 5527TIP3   OH216586   3.196   4.614   4.325  0.6915  0.4909  0.2679
 5527TIP3    H116587   3.144   4.671   4.381 -1.0688  0.3551 -1.1159
 5527TIP3    H216588   3.272   4.666   4.301  0.9996  0.8736  1.9749
 5528TIP3   OH216589   0.633   3.644   1.827 -0.3223 -0.7355  0.5648
 5528TIP3    H116590   0.547   3.613   1.796 -1.0261  1.5165  0.1041
 5528TIP3    H216591   0.618   3.735   1.850  2.3933  0.2957 -1.3285
 5529TIP3   OH216592   4.735   3.176   3.697  0.3755  0.2424 -0.7502
 5529TIP3    H116593   4.728   3.258   3.745  0.7686 -0.7087  1.0356
 5529TIP3    H216594   4.793   3.122   3.751  0.1222 -1.2110 -1.8674
 5530TIP3   OH216595   3.923   4.013   2.098  0.0481 -0.0947 -0.0716
 5530TIP3    H116596   3.890   4.028   2.187  0.9617  0.7961  0.1230
 5530TIP3    H216597   3.955   3.923   2.100 -0.5435 -0.3067  0.3002
 5531TIP3   OH216598   1.525   0.215   5.221  0.7372  0.2267 -0.1123
 5531TIP3    H116599   1.441   0.210   5.175 -0.0607  0.2459  1.2947
 5531TIP3    H216600   1.588   0.238   5.152 -0.0517 -1.6545 -1.5637
 5532TIP3   OH216601   2.356   5.751   0.830 -0.1020 -0.1075 -0.0934
 5532TIP3    H116602   2.416   5.732   0.902  0.7043 -2.5114 -1.2832
 5532TIP3    H216603   2.376   5.841   0.805  0.3909  0.3937  1.8822
 5533TIP3   OH216604   2.763   4.391   3.919  0.0812 -0.2058 -0.2730
 5533TIP3    H116605   2.814   4.321   3.961  0.0701 -0.2031 -0.2553
 5533TIP3    H216606   2.740   4.355   3.833  0.4202 -0.0676 -0.4233
 5534TIP3   OH216607   1.500   1.193   3.792  0.0741  0.1448  0.1670
 5534TIP3    H116608   1.435   1.180   3.724 -0.0172 -0.4726  0.3638
 5534TIP3    H216609   1.456   1.247   3.858 -0.6261 -1.1589  0.8091
 5535TIP3   OH216610   3.635   2.369   3.663 -0.2813 -0.0257  0.2562
 5535TIP3    H116611   3.677   2.298   3.614  0.3825  0.4924  0.0569
 5535TIP3    H216612   3.599   2.427   3.596 -1.2643 -0.4190  0.4256
 5536TIP3   OH216613   4.168   2.789   3.918 -0.0160 -0.3802  0.0157
 5536TIP3    H116614   4.118   2.720   3.961 -0.8917  0.6291  0.6847
 5536TIP3    H216615   4.117   2.810   3.840  1.1043 -1.5881 -1.0880
 5537TIP3   OH216616   0.137   0.729   2.500  0.0604 -0.0453 -0.0319
 5537TIP3    H116617   0.191   0.666   2.453  0.4583  0.1529  0.1535
 5537TIP3    H216618   0.063   0.746   2.442 -0.9673 -1.9718  0.6056
 5538TIP3   OH216619   1.917   2.998   1.471 -0.1323 -0.4638  0.6289
 5538TIP3    H116620   1.915   2.988   1.376 -0.6500 -0.4169  0.6307
 5538TIP3    H216621   1.834   2.961   1.500 -0.6212  0.7980  0.9298
 5539TIP3   OH216622   1.949   0.678   0.688  0.1469 -0.2599 -0.0427
 5539TIP3    H116623   1.973   0.585   0.690  0.5017 -0.1572  1.1743
 5539TIP3    H216624   1.986   0.714   0.769 -0.2432  0.8816 -0.3571
 5540TIP3   OH216625   2.848   4.237   4.655  0.4107 -0.1382 -0.2732
 5540TIP3    H116626   2.815   4.238   4.744  1.0340 -0.1530 -0.0344
 5540TIP3    H216627   2.878   4.148   4.641 -0.3263 -0.3201 -0.7481
 5541TIP3   OH216628   2.927   0.028   2.073 -0.2818  0.1548  0.3428
 5541TIP3    H116629   2.865  -0.045   2.083  0.7523 -1.0818 -1.6738
 5541TIP3    H216630   2.889   0.082   2.004  0.0150  0.3739  0.3503
 5542TIP3   OH216631   1.597   0.972   0.237  0.1034 -0.1197  0.7949
 5542TIP3    H116632   1.648   0.896   0.264  0.2851 -0.1925  0.2650
 5542TIP3    H216633   1.598   0.968   0.141 -1.2633 -0.3705  0.7660
 5543TIP3   OH216634   3.547   3.113   0.978  0.4460 -0.2975 -0.4001
 5543TIP3    H116635   3.586   3.025   0.980 -0.6981 -0.8238  1.0218
 5543TIP3    H216636   3.569   3.150   1.064  0.6008  0.6636 -0.8479
 5544TIP3   OH216637   5.001   1.839   0.622  0.0474  0.1692 -0.0993
 5544TIP3    H116638   5.007   1.744   0.631  4.3408  0.0019 -2.1665
 5544TIP3    H216639   5.019   1.856   0.530 -1.1177  3.0482  0.0702
 5545TIP3   OH216640   3.693   4.543   4.039 -0.5909 -0.8371 -0.6938
 5545TIP3    H116641   3.743   4.519   4.117  1.9608 -0.6500 -2.1862
 5545TIP3    H216642   3.627   4.474   4.032  0.5051 -2.0615  0.4232
 5546TIP3   OH216643   2.298   0.397   3.135 -0.4142 -0.0648  0.5446
 5546TIP3    H116644   2.315   0.411   3.228 -0.2749 -0.8317  0.6381
 5546TIP3    H216645   2.203   0.390   3.129 -0.7308  2.9278  0.1986
 5547TIP3   OH216646   3.483   4.981   0.788 -0.7344  0.3972  0.2392
 5547TIP3    H116647   3.417   4.952   0.851 -0.5872  0.4526  0.4170
 5547TIP3    H216648   3.463   4.931   0.709 -1.8509  1.3941 -0.1551
 5548TIP3   OH216649   1.247   5.628   2.816  0.2205  0.1952  0.2593
 5548TIP3    H116650   1.202   5.643   2.733  0.7439 -1.4764 -0.3688
 5548TIP3    H216651   1.293   5.711   2.834 -0.3009  0.7468 -0.8487
 5549TIP3   OH216652   4.405   1.596   0.528 -0.0483  0.1663 -0.1477
 5549TIP3    H116653   4.467   1.536   0.488  1.5435  2.1150 -0.7656
 5549TIP3    H216654   4.427   1.596   0.621 -0.1327 -0.2861 -0.1281
 5550TIP3   OH216655   3.159   2.967   0.538  1.0374  0.3156 -0.0174
 5550TIP3    H116656   3.167   2.951   0.444  0.4819  2.0802 -0.3903
 5550TIP3    H216657   3.245   2.942   0.573  1.3180 -0.1765 -1.0129
 5551TIP3   OH216658   3.476   2.806   0.649  0.1549  0.5202  0.0840
 5551TIP3    H116659   3.493   2.788   0.557  4.0895  2.2908  0.2579
 5551TIP3    H216660   3.528   2.741   0.697 -0.1584  0.9272  1.0126
 5552TIP3   OH216661   1.587   4.282   2.023  0.3967 -0.5971  0.3001
 5552TIP3    H116662   1.616   4.344   1.957  1.0604  0.5283  1.6052
 5552TIP3    H216663   1.661   4.221   2.033 -0.3194 -1.7685 -1.1029
 5553TIP3   OH216664   1.121   3.283   1.886  0.1710  0.2417 -0.1547
 5553TIP3    H116665   1.043   3.270   1.939 -0.5394  2.6837 -0.4736
 5553TIP3    H216666   1.146   3.374   1.901 -0.0381  1.0972 -3.8489
 5554TIP3   OH216667   2.367   3.164   1.147  0.1948 -0.3878  0.1887
 5554TIP3    H116668   2.371   3.260   1.138 -1.9165 -0.3167 -0.5415
 5554TIP3    H216669   2.456   3.135   1.132  0.9235  1.4834  0.5753
 5555TIP3   OH216670   3.366   4.439   3.117  0.4855 -0.4364  0.1667
 5555TIP3    H116671   3.393   4.524   3.081 -0.8887  0.7788  1.8690
 5555TIP3    H216672   3.326   4.393   3.043  0.9796  0.4957 -0.7044
 5556TIP3   OH216673   1.900   2.849   3.910 -0.1272  0.0276  0.3104
 5556TIP3    H116674   1.893   2.754   3.925  0.7001 -0.3774 -1.5654
 5556TIP3    H216675   1.992   2.862   3.887 -0.8777  0.7216 -2.6690
 5557TIP3   OH216676   4.868   1.449   0.286 -0.3875  0.1705 -0.6326
 5557TIP3    H116677   4.940   1.502   0.250 -0.7446  0.9722 -0.1916
 5557TIP3    H216678   4.794   1.509   0.290 -0.9575 -0.5246 -0.6432
 5558TIP3   OH216679   0.260   2.458   2.728 -0.0601  0.0698  0.3757
 5558TIP3    H116680   0.271   2.519   2.654 -1.7161  1.5530  1.2600
 5558TIP3    H216681   0.308   2.499   2.800  1.5584 -1.3770  0.1794
 5559TIP3   OH216682   0.713   2.025   3.267 -0.0391 -0.0837 -0.0926
 5559TIP3    H116683   0.720   1.984   3.180  0.0237 -1.2034  0.4300
 5559TIP3    H216684   0.650   1.971   3.314 -1.2330  1.3884  0.0957
 5560TIP3   OH216685   1.422   1.190   2.347 -0.2484 -0.3246 -0.1424
 5560TIP3    H116686   1.461   1.267   2.306 -0.2303  1.0542  2.3043
 5560TIP3    H216687   1.338   1.220   2.381 -0.4021 -1.4648  0.5349
 5561TIP3   OH216688   0.183   3.318   0.922 -0.1785 -0.2850  0.1301
 5561TIP3    H116689   0.196   3.332   1.016 -1.8435 -0.4141  0.4126
 5561TIP3    H216690   0.271   3.319   0.885  0.7991 -2.9693  2.0664
 5562TIP3   OH216691   6.281   1.209   2.704 -0.3825 -0.5443 -0.1853
 5562TIP3    H116692   6.267   1.185   2.796  1.3196  0.7631  0.4641
 5562TIP3    H216693   6.307   1.128   2.662  2.4496 -0.5625  1.3420
 5563TIP3   OH216694   0.507   0.622   3.684 -0.5753  0.0095 -0.2576
 5563TIP3    H116695   0.433   0.682   3.679  0.4825  1.5457  1.3183
 5563TIP3    H216696   0.485   0.562   3.754 -0.6634 -0.0109 -0.3032
 5564TIP3   OH216697   1.039   2.878   3.612 -0.1658 -0.7558 -0.0456
 5564TIP3    H116698   1.030   2.813   3.543 -1.3467 -0.6129 -0.0491
 5564TIP3    H216699   1.052   2.826   3.692 -0.4496 -0.9816 -0.1432
 5565TIP3   OH216700   2.376   0.163   0.855  0.1344 -0.4044 -0.1873
 5565TIP3    H116701   2.393   0.244   0.806 -1.9677  1.6693  2.2142
 5565TIP3    H216702   2.291   0.134   0.824 -0.6877  0.2935  1.2938
 5566TIP3   OH216703   4.951   2.126   1.723  0.3895 -0.3602  0.6685
 5566TIP3    H116704   4.859   2.149   1.711  0.6564  0.6360  0.3923
 5566TIP3    H216705   4.997   2.210   1.716  1.3664 -0.9176  0.2939
 5567TIP3   OH216706   0.475   1.278   4.823  0.3973  0.0372  0.0143
 5567TIP3    H116707   0.465   1.218   4.749  0.8409  1.1146 -0.9459
 5567TIP3    H216708   0.504   1.222   4.895  1.5413 -0.8030 -1.0610
 5568TIP3   OH216709   4.131   4.057   1.142  0.8664  0.3707 -0.0356
 5568TIP3    H116710   4.077   4.089   1.069 -0.2781 -0.1171  0.5839
 5568TIP3    H216711   4.219   4.049   1.104  0.4220  0.7160 -1.1956
 5569TIP3   OH216712   0.914   2.086   3.784  0.2966  0.3592  0.0006
 5569TIP3    H116713   0.870   2.015   3.831  1.5136  0.1294  0.8519
 5569TIP3    H216714   0.879   2.081   3.695 -1.2640  0.1132  0.5989
 5570TIP3   OH216715   1.451   3.182   0.692 -0.2012  0.3271 -0.1445
 5570TIP3    H116716   1.415   3.243   0.756  0.5914 -0.7950  1.4376
 5570TIP3    H216717   1.380   3.167   0.630 -1.9923 -0.6243  1.9974
 5571TIP3   OH216718   3.543   0.739   3.906 -0.2722  0.1781 -0.3824
 5571TIP3    H116719   3.474   0.730   3.972 -0.1851 -1.8024 -0.4986
 5571TIP3    H216720   3.526   0.667   3.844  0.1732  1.4315 -2.0441
 5572TIP3   OH216721   5.350   0.533   0.284  0.0678  0.0189  0.0834
 5572TIP3    H116722   5.373   0.625   0.270 -0.3905  0.0813 -0.2679
 5572TIP3    H216723   5.260   0.535   0.315  0.0215 -0.3193 -0.0287
 5573TIP3   OH216724   1.768   5.683   0.676 -0.0297  0.1527 -0.0644
 5573TIP3    H116725   1.755   5.712   0.766  0.7885  0.6155 -0.0915
 5573TIP3    H216726   1.841   5.736   0.643 -1.2949  1.1047 -1.5091
 5574TIP3   OH216727   5.015   3.218   0.051 -0.4612  0.3745 -0.0101
 5574TIP3    H116728   5.094   3.266   0.026 -0.4961  0.3123 -0.2402
 5574TIP3    H216729   4.953   3.236  -0.019  0.0019 -1.1814 -0.8771
 5575TIP3   OH216730   4.947   2.215   4.376  0.0082  0.0847 -0.0876
 5575TIP3    H116731   4.948   2.260   4.460  0.6353 -0.6892  0.3272
 5575TIP3    H216732   4.982   2.279   4.314 -1.5395  1.0724 -0.0021
 5576TIP3   OH216733   1.894   2.842   2.205 -0.3804 -0.5206 -0.0541
 5576TIP3    H116734   1.891   2.931   2.241  2.5291 -0.4427  0.2157
 5576TIP3    H216735   1.960   2.846   2.136  0.6612 -2.6671  0.7158
 5577TIP3   OH216736   3.250   1.781   3.702 -0.1061 -0.5288 -0.2267
 5577TIP3    H116737   3.234   1.802   3.794  2.1687  0.4471  0.0040
 5577TIP3    H216738   3.332   1.733   3.702 -0.7451 -1.7023 -1.6690
 5578TIP3   OH216739   2.515   3.173   3.257 -0.3623  0.2225 -0.0740
 5578TIP3    H116740   2.523   3.094   3.311 -0.2341  0.1277 -0.2317
 5578TIP3    H216741   2.597   3.220   3.270 -1.3919  1.6186  2.0296
 5579TIP3   OH216742   3.169   2.040   1.955 -0.2931 -0.4014 -0.2001
 5579TIP3    H116743   3.076   2.043   1.933  0.0191 -0.0661 -1.5553
 5579TIP3    H216744   3.201   2.128   1.939  0.0284 -0.1852  1.4557
 5580TIP3   OH216745   6.360   2.526   3.496 -0.5721 -0.6200  0.3087
 5580TIP3    H116746   6.295   2.456   3.487 -0.5997 -0.4676 -0.7354
 5580TIP3    H216747   6.308   2.606   3.495 -0.4953 -0.5553  1.0166
 5581TIP3   OH216748   4.037   2.148   4.875 -0.1227  0.3447 -0.5449
 5581TIP3    H116749   4.106   2.157   4.941  0.5210  1.3011 -1.3127
 5581TIP3    H216750   4.084   2.134   4.793 -0.8605  0.4538 -0.9966
 5582TIP3   OH216751   0.523   3.600   2.208 -0.1731  0.5181 -0.0036
 5582TIP3    H116752   0.448   3.638   2.163 -1.2364  1.2339  2.2539
 5582TIP3    H216753   0.570   3.675   2.244  0.4931 -0.0558  0.3448
 5583TIP3   OH216754   3.541   1.764   2.266 -0.1391  0.0506  0.7741
 5583TIP3    H116755   3.558   1.745   2.174 -0.1823  2.3677  0.2500
 5583TIP3    H216756   3.620   1.733   2.311  0.9910  1.1574 -0.3667
 5584TIP3   OH216757   4.638   3.987   2.664 -0.3436 -0.1794  0.0970
 5584TIP3    H116758   4.704   3.949   2.607 -0.6106  0.7043 -0.8316
 5584TIP3    H216759   4.671   3.973   2.753  0.9208 -0.0394 -0.3374
 5585TIP3   OH216760   4.053   2.808   4.408  0.1302  0.2946  0.4540
 5585TIP3    H116761   4.109   2.840   4.336 -1.1838 -0.3631 -0.9239
 5585TIP3    H216762   4.036   2.717   4.385  0.2357 -0.1277  2.0032
 5586TIP3   OH216763   2.088   0.326   1.257 -0.6355  0.2206  0.1123
 5586TIP3    H116764   2.103   0.231   1.263 -1.8951  0.0239  0.3821
 5586TIP3    H216765   2.161   0.365   1.306  1.5824 -0.4401 -2.4027
 5587TIP3   OH216766   2.662   0.383   2.084  0.4966  0.4531  0.2147
 5587TIP3    H116767   2.718   0.333   2.143 -1.4249 -0.7436  1.1079
 5587TIP3    H216768   2.576   0.341   2.090 -0.6216  2.4367 -0.8046
 5588TIP3   OH216769   4.133   4.234   5.106 -0.3695 -0.1207  0.4794
 5588TIP3    H116770   4.209   4.284   5.136 -0.2232 -0.2029  0.2522
 5588TIP3    H216771   4.132   4.157   5.162  1.4779 -1.6250 -1.3516
 5589TIP3   OH216772   3.716   4.821   3.991  0.0457 -0.4546  0.6893
 5589TIP3    H116773   3.633   4.860   3.965 -0.1623 -0.8970  0.6881
 5589TIP3    H216774   3.698   4.728   3.999  0.3224 -0.4390  1.5817
 5590TIP3   OH216775   3.313   2.574   3.699  0.2372 -0.4377 -0.0152
 5590TIP3    H116776   3.257   2.625   3.757 -0.3653  0.7954 -1.5770
 5590TIP3    H216777   3.398   2.571   3.743 -0.1406  0.6295  0.8393
 5591TIP3   OH216778   2.016   3.110   2.990 -0.0132 -0.5977  0.3902
 5591TIP3    H116779   1.931   3.070   3.008  0.0417 -0.5724  0.7263
 5591TIP3    H216780   2.047   3.067   2.911 -0.8240  0.1535 -0.3509
 5592TIP3   OH216781   3.229   4.162   4.886 -0.1398  0.1877 -0.2177
 5592TIP3    H116782   3.215   4.160   4.792  2.1415  0.4625 -0.6045
 5592TIP3    H216783   3.252   4.253   4.905  0.4747 -0.0876  0.4183
 5593TIP3   OH216784   5.626   5.043   2.593 -0.3746  0.2228 -0.0218
 5593TIP3    H116785   5.653   4.988   2.667  1.5724 -0.5233 -1.1990
 5593TIP3    H216786   5.660   4.998   2.516 -2.7270  0.7536 -1.4596
 5594TIP3   OH216787   1.219   2.397   1.191 -0.3361 -0.0054  0.2766
 5594TIP3    H116788   1.279   2.407   1.265  0.1923 -0.7188 -0.0533
 5594TIP3    H216789   1.205   2.487   1.160  0.9306  0.1324  0.0627
 5595TIP3   OH216790   2.477   3.422   1.764 -0.4314 -0.4741 -0.4822
 5595TIP3    H116791   2.524   3.401   1.845 -2.4876 -0.4244  0.7908
 5595TIP3    H216792   2.544   3.419   1.696  1.1834 -1.5017  1.0679
 5596TIP3   OH216793   3.601   2.565   1.470  0.1715  0.2770 -0.7980
 5596TIP3    H116794   3.614   2.481   1.425  2.4358  0.3158 -0.3789
 5596TIP3    H216795   3.681   2.615   1.450 -0.2828  1.5906  0.5021
 5597TIP3   OH216796   4.258   0.034   1.344 -0.4031 -0.2145 -0.1088
 5597TIP3    H116797   4.308   0.089   1.404  0.3305 -0.6508 -0.3029
 5597TIP3    H216798   4.199  -0.016   1.400  2.1404 -2.6324  0.6209
 5598TIP3   OH216799   5.272   4.769   4.245  0.4935 -0.2602 -0.2660
 5598TIP3    H116800   5.363   4.743   4.260  1.2718  1.0450 -2.3188
 5598TIP3    H216801   5.260   4.759   4.150 -1.4939 -0.3368 -0.0396
 5599TIP3   OH216802   1.047   1.468   4.925  0.4768  0.2924  0.6518
 5599TIP3    H116803   1.118   1.407   4.904 -0.4979 -0.5212 -0.4388
 5599TIP3    H216804   1.016   1.499   4.840  0.3839  1.6640  1.1636
 5600TIP3   OH216805   2.249   1.545   5.100 -0.5664 -0.0678  0.3279
 5600TIP3    H116806   2.337   1.555   5.063 -1.5805 -0.5658 -2.5043
 5600TIP3    H216807   2.249   1.457   5.136 -0.0137 -0.1982  0.0326
 5601TIP3   OH216808   4.847   3.732   4.943 -0.0240 -0.6930  0.0365
 5601TIP3    H116809   4.810   3.762   5.026 -1.5218  0.2328 -0.9284
 5601TIP3    H216810   4.924   3.787   4.930  0.3320 -0.9705  0.8869
 5602TIP3   OH216811   1.147   4.656   4.281 -0.1307 -0.0831 -0.1267
 5602TIP3    H116812   1.242   4.668   4.279 -0.0470 -0.2953  1.4065
 5602TIP3    H216813   1.115   4.727   4.337 -0.9924  0.4857 -1.2814
 5603TIP3   OH216814   1.272   0.741   2.126  0.0126 -0.3533 -0.1241
 5603TIP3    H116815   1.351   0.746   2.072  0.9841  1.4876  1.3311
 5603TIP3    H216816   1.266   0.827   2.167 -0.9081 -1.5084  2.3497
 5604TIP3   OH216817   1.534   3.316   1.423  0.3539 -0.0218 -0.2028
 5604TIP3    H116818   1.482   3.236   1.424 -1.5347  1.1138 -1.0601
 5604TIP3    H216819   1.621   3.289   1.393 -0.5703 -1.5780 -1.6247
 5605TIP3   OH216820   4.239   2.881   3.325  0.1865  0.0003 -0.3196
 5605TIP3    H116821   4.273   2.971   3.327 -1.4021  0.6157 -0.0765
 5605TIP3    H216822   4.256   2.852   3.236 -1.5386  1.4894 -1.2086
 5606TIP3   OH216823   5.766   3.396   0.083  0.1599 -0.1827 -0.3815
 5606TIP3    H116824   5.714   3.470   0.114 -1.2404 -0.1542 -2.5966
 5606TIP3    H216825   5.778   3.413  -0.011  0.0611 -2.5884 -0.8899
 5607TIP3   OH216826   4.408   3.404   1.368  0.5530  0.1408  0.2193
 5607TIP3    H116827   4.503   3.396   1.375  0.6905  1.4456  0.0634
 5607TIP3    H216828   4.387   3.373   1.280  0.9862  0.9804 -0.1875
 5608TIP3   OH216829   4.145   5.897   2.759  0.5260  0.3859  0.2322
 5608TIP3    H116830   4.229   5.907   2.714  1.2334  0.5378  1.5427
 5608TIP3    H216831   4.084   5.950   2.707  1.4185  0.9587 -0.2593
 5609TIP3   OH216832   1.926   3.620   0.286  0.2827  0.3099 -0.5785
 5609TIP3    H116833   2.005   3.673   0.279  0.1777  0.3207 -1.9929
 5609TIP3    H216834   1.857   3.673   0.245 -0.2159 -0.1590 -0.3644
 5610TIP3   OH216835   0.434   3.295   1.704 -0.1552  0.1580  0.2161
 5610TIP3    H116836   0.452   3.322   1.794  0.9473 -2.5004  0.8865
 5610TIP3    H216837   0.411   3.203   1.710 -2.7489  0.5317 -1.9914
 5611TIP3   OH216838   1.871   4.862   0.510  0.2761  0.5547  0.1487
 5611TIP3    H116839   1.885   4.768   0.523  0.4986  0.6232  0.4275
 5611TIP3    H216840   1.913   4.881   0.426  2.3046  0.8286  1.1402
 5612TIP3   OH216841   2.009   5.610   3.914 -0.4040  0.0479 -0.0089
 5612TIP3    H116842   2.078   5.640   3.855  1.6015 -0.4438  1.9583
 5612TIP3    H216843   1.995   5.683   3.973 -0.5266 -0.3916  0.5098
 5613TIP3   OH216844   4.241   0.908   0.206  0.2449 -0.1684  0.0824
 5613TIP3    H116845   4.314   0.853   0.234  1.0615  0.1465 -1.2863
 5613TIP3    H216846   4.235   0.893   0.111 -0.8848  0.4999  0.0311
 5614TIP3   OH216847   6.347   5.581   3.400  0.4062  0.0640 -0.3132
 5614TIP3    H116848   6.410   5.572   3.329  0.7252  0.1424 -0.0421
 5614TIP3    H216849   6.261   5.575   3.357  0.5381  2.6002 -1.0619
 5615TIP3   OH216850   5.376   4.861   3.429 -0.4872 -0.3587  0.3220
 5615TIP3    H116851   5.315   4.934   3.419 -2.1065 -1.7944 -0.8576
 5615TIP3    H216852   5.335   4.805   3.495  1.9058  0.8370  3.0389
 5616TIP3   OH216853   5.951   3.346   1.259  0.3950 -0.2559 -0.0607
 5616TIP3    H116854   5.919   3.389   1.338 -2.2842  1.7183 -2.0054
 5616TIP3    H216855   6.019   3.404   1.226 -0.0510  0.1356 -0.3153
 5617TIP3   OH216856   2.458   1.482   4.903  0.1208  0.3734 -0.3286
 5617TIP3    H116857   2.542   1.444   4.926  0.1357  0.1304 -0.7786
 5617TIP3    H216858   2.445   1.460   4.810 -1.6301 -1.8737  0.3688
 5618TIP3   OH216859   2.633   4.296   0.591  0.3467 -0.0111 -0.6417
 5618TIP3    H116860   2.646   4.377   0.543  2.0512 -0.6654 -1.3710
 5618TIP3    H216861   2.619   4.323   0.681 -0.1483  1.1233 -1.0444
 5619TIP3   OH216862   0.327   1.031   2.805  0.0524  0.1639  0.4840
 5619TIP3    H116863   0.386   0.963   2.771  0.7629  0.4667  1.0944
 5619TIP3    H216864   0.347   1.109   2.754  0.7652  0.4839  1.2298
 5620TIP3   OH216865   0.556   1.543   1.390  0.8497 -0.8068 -0.5776
 5620TIP3    H116866   0.600   1.517   1.309  3.1130 -0.7068  0.5414
 5620TIP3    H216867   0.469   1.571   1.363  1.7674 -0.1591 -3.0363
 5621TIP3   OH216868   2.170   5.605   3.443 -0.0868  0.1100  0.3758
 5621TIP3    H116869   2.136   5.518   3.464 -1.3857  0.5493  0.1939
 5621TIP3    H216870   2.156   5.656   3.522 -2.8139  1.1289 -0.6506
 5622TIP3   OH216871   1.844   1.553   0.692  0.2330  0.5045 -0.1187
 5622TIP3    H116872   1.806   1.617   0.631  0.2160  0.4542 -0.1610
 5622TIP3    H216873   1.863   1.477   0.638 -1.6613 -0.3137  0.2901
 5623TIP3   OH216874   5.752   1.499   1.961 -0.2257  0.1965 -0.0503
 5623TIP3    H116875   5.677   1.452   1.925 -0.5893 -0.6335  1.6796
 5623TIP3    H216876   5.779   1.558   1.890 -1.7325 -0.3491 -1.1522
 5624TIP3   OH216877   1.783   0.642   1.004  0.2304 -0.3123  0.0178
 5624TIP3    H116878   1.763   0.624   1.096 -0.9520 -2.0922 -0.5399
 5624TIP3    H216879   1.871   0.682   1.006  0.4129 -0.7192  1.8679
 5625TIP3   OH216880   5.045   3.164   4.479  0.4855 -0.0504  0.1774
 5625TIP3    H116881   5.089   3.163   4.564  0.0899  0.3456  0.3933
 5625TIP3    H216882   4.961   3.122   4.494 -0.1605  1.2212  0.3250
 5626TIP3   OH216883   1.176   2.819   1.586  0.2775 -0.6517 -0.1294
 5626TIP3    H116884   1.188   2.747   1.648  1.3135 -0.3972 -0.0188
 5626TIP3    H216885   1.138   2.890   1.639 -0.4175 -0.9870 -0.1644
 5627TIP3   OH216886   0.682   0.220  -0.030  0.0434 -0.2207 -0.2413
 5627TIP3    H116887   0.607   0.196   0.024  0.0926 -0.8227 -0.4335
 5627TIP3    H216888   0.740   0.267   0.030 -0.5280  0.3476 -0.1205
 5628TIP3   OH216889   5.128   0.575   4.367  0.0480  0.5391  0.3607
 5628TIP3    H116890   5.087   0.500   4.410  1.2192 -0.6577 -0.5341
 5628TIP3    H216891   5.137   0.548   4.275 -0.9299  2.3985 -0.3391
 5629TIP3   OH216892   0.051   3.732   1.344 -0.3436 -0.5801  0.1177
 5629TIP3    H116893   0.071   3.658   1.401 -0.2099 -1.4652 -1.0491
 5629TIP3    H216894   0.086   3.808   1.391  1.2912 -1.4838  0.4326
 5630TIP3   OH216895   5.150   0.889   2.498 -0.3023 -0.1661 -0.0198
 5630TIP3    H116896   5.159   0.971   2.449 -0.0960 -0.2935 -0.1955
 5630TIP3    H216897   5.205   0.900   2.575 -0.8678  0.1551  0.3434
 5631TIP3   OH216898   4.079   0.856   4.174  0.4402 -0.4847 -0.3196
 5631TIP3    H116899   4.093   0.828   4.083  1.2059 -1.3753  0.0571
 5631TIP3    H216900   4.156   0.910   4.194  0.2658 -0.2793 -0.1993
 5632TIP3   OH216901   3.949   4.123   4.196 -0.0737 -0.7250  0.2559
 5632TIP3    H116902   4.014   4.193   4.186 -0.1816 -0.5345  0.8877
 5632TIP3    H216903   3.967   4.064   4.123  0.5612 -0.4752  0.2039
 5633TIP3   OH216904   5.629   3.144   3.312 -0.1503  0.9698 -0.2308
 5633TIP3    H116905   5.561   3.182   3.257 -0.2641  1.3503  0.1563
 5633TIP3    H216906   5.675   3.081   3.256 -2.4786 -1.2732  0.2153
 5634TIP3   OH216907   4.042   2.780   1.934  0.0766  0.5185 -0.4043
 5634TIP3    H116908   4.014   2.814   2.019  0.7657 -2.0418  0.9585
 5634TIP3    H216909   4.128   2.818   1.920  0.0844  0.7428  0.2059
 5635TIP3   OH216910   1.543   6.004   0.877 -0.1168 -0.2186  0.3746
 5635TIP3    H116911   1.591   5.922   0.888 -0.7156 -0.6600 -0.1510
 5635TIP3    H216912   1.454   5.983   0.905 -0.4014  0.0928 -0.2641
 5636TIP3   OH216913   0.161   0.727   1.526 -0.1086  0.5945  0.2077
 5636TIP3    H116914   0.127   0.771   1.604  0.4482  0.4973  0.5089
 5636TIP3    H216915   0.254   0.750   1.525 -0.0926  0.5046 -0.3676
 5637TIP3   OH216916   1.830   5.364   3.965  0.5896 -0.4314  0.2063
 5637TIP3    H116917   1.830   5.331   4.055  1.4487 -0.3957  0.2257
 5637TIP3    H216918   1.850   5.457   3.974  0.3984 -0.3694 -0.0064
 5638TIP3   OH216919   0.796   4.223   1.303 -0.3548  0.1654 -0.1260
 5638TIP3    H116920   0.878   4.175   1.311  0.5861  1.3391 -1.8902
 5638TIP3    H216921   0.820   4.314   1.319 -1.2528  0.5592 -0.8798
 5639TIP3   OH216922   3.692   5.608   3.976 -0.0280  0.1970  0.2111
 5639TIP3    H116923   3.716   5.700   3.986  0.0206  0.1637  0.4032
 5639TIP3    H216924   3.751   5.562   4.035  0.8027 -0.0774 -0.7942
 5640TIP3   OH216925   3.034   3.914   0.817  0.6448 -0.0650  0.1303
 5640TIP3    H116926   3.086   3.989   0.786 -0.3774  0.7309  0.2909
 5640TIP3    H216927   3.011   3.937   0.907 -1.1427  0.2765 -0.3665
 5641TIP3   OH216928   1.649   4.871   4.083 -0.2132  0.1215  0.7645
 5641TIP3    H116929   1.710   4.945   4.076 -1.3480  1.1699  1.5593
 5641TIP3    H216930   1.627   4.868   4.176 -2.7243  0.9097  0.2624
 5642TIP3   OH216931   3.628   2.461   4.174 -0.2445  0.6598 -0.0601
 5642TIP3    H116932   3.620   2.415   4.090  0.1798  1.4928 -0.5685
 5642TIP3    H216933   3.668   2.396   4.233 -1.9521 -0.4507 -0.0403
 5643TIP3   OH216934   0.993   5.497   0.124 -0.2141 -0.3729  0.5761
 5643TIP3    H116935   1.069   5.501   0.182  0.3262  1.2159 -0.1706
 5643TIP3    H216936   0.996   5.409   0.086  0.0719 -1.0282  2.0591
 5644TIP3   OH216937   5.832   5.048   1.210 -0.4269 -0.3191 -0.3250
 5644TIP3    H116938   5.874   5.061   1.125  0.6297  1.1327  0.3869
 5644TIP3    H216939   5.789   5.131   1.229  1.8979  0.4989  1.8939
 5645TIP3   OH216940   1.764   5.240   0.054 -0.3184  0.0473  0.5168
 5645TIP3    H116941   1.809   5.194   0.125 -1.4863 -1.0926  0.5688
 5645TIP3    H216942   1.714   5.309   0.098 -1.1549 -0.7471  0.8429
 5646TIP3   OH216943   3.527   0.912   4.450 -0.5604 -0.3946 -0.2324
 5646TIP3    H116944   3.537   0.828   4.494 -1.2497 -0.4622 -0.1988
 5646TIP3    H216945   3.506   0.974   4.520 -1.8377 -0.5352 -0.4559
 5647TIP3   OH216946   6.116   3.986   0.631  0.1724 -0.0462 -0.2395
 5647TIP3    H116947   6.136   4.077   0.652  0.2933 -0.4164  1.3791
 5647TIP3    H216948   6.085   3.988   0.541  2.3164  1.2977 -1.0269
 5648TIP3   OH216949   1.362   0.267   0.161  0.6745 -0.2463  0.1291
 5648TIP3    H116950   1.281   0.225   0.190 -1.1555  1.9304 -1.3873
 5648TIP3    H216951   1.403   0.299   0.241 -0.3404 -0.8084  0.8963
 5649TIP3   OH216952   4.375   2.967   3.100 -0.0459  0.1576  0.3321
 5649TIP3    H116953   4.361   3.051   3.057 -1.4812  1.2108  2.6777
 5649TIP3    H216954   4.375   2.903   3.028  0.2051  2.0397 -1.4219
 5650TIP3   OH216955   6.093   1.529   0.714 -0.6386 -0.0092  0.5505
 5650TIP3    H116956   6.081   1.619   0.744  0.3023  0.9910 -1.8079
 5650TIP3    H216957   6.188   1.519   0.705 -0.7926 -0.7377 -0.5094
 5651TIP3   OH216958   4.815   3.337   3.485 -0.1636 -0.1038  0.4538
 5651TIP3    H116959   4.773   3.311   3.404 -0.9323  1.2391  0.4017
 5651TIP3    H216960   4.814   3.258   3.539 -0.8464 -0.6467 -0.3334
 5652TIP3   OH216961   1.828   1.427   0.396 -0.0437  0.6915 -0.0308
 5652TIP3    H116962   1.823   1.518   0.366  0.8151  0.2644 -1.5415
 5652TIP3    H216963   1.743   1.411   0.437  0.1179  2.4327  1.0717
 5653TIP3   OH216964   4.439   1.971   4.748  0.0471  0.6696  0.3779
 5653TIP3    H116965   4.394   1.913   4.810 -0.3589 -3.6170 -3.4030
 5653TIP3    H216966   4.532   1.959   4.766 -0.0825  0.0124  0.6357
 5654TIP3   OH216967   2.319   5.225   4.478 -0.5499  0.5238 -0.4993
 5654TIP3    H116968   2.277   5.212   4.393 -0.0202 -0.9819 -0.5659
 5654TIP3    H216969   2.258   5.185   4.540 -0.1388  0.0860 -0.3750
 5655TIP3   OH216970   3.151   2.744   3.883  0.3103 -0.0629  0.4267
 5655TIP3    H116971   3.169   2.828   3.925  3.1958 -0.1415 -0.4310
 5655TIP3    H216972   3.136   2.683   3.956  2.1612  0.4160  1.2595
 5656TIP3   OH216973  -0.002   3.836   4.319  0.1503  0.4967 -0.2700
 5656TIP3    H116974   0.084   3.827   4.278  0.0284  1.6740 -0.8196
 5656TIP3    H216975   0.017   3.847   4.412  0.4782 -1.0654 -0.1146
 5657TIP3   OH216976   6.012   1.173   4.484 -0.0644 -0.6032  0.1568
 5657TIP3    H116977   6.074   1.188   4.413 -1.8055  1.7706 -1.0387
 5657TIP3    H216978   5.964   1.094   4.458 -0.4015  0.0072 -1.1616
 5658TIP3   OH216979   0.937   4.364   0.090  0.4140 -0.0687  0.6375
 5658TIP3    H116980   1.002   4.300   0.061  0.7346  0.9130 -0.9031
 5658TIP3    H216981   0.874   4.369   0.019  0.5741  1.5463  0.5563
 5659TIP3   OH216982   3.418   3.841   4.272  0.4533  0.5772  0.3320
 5659TIP3    H116983   3.492   3.822   4.214  0.0214 -0.2058  0.0221
 5659TIP3    H216984   3.398   3.934   4.257  0.3859  0.4002 -0.7368
 5660TIP3   OH216985   3.511   2.218   4.926 -0.3494  1.2041  0.5204
 5660TIP3    H116986   3.531   2.255   4.840 -0.1852  2.8019  1.2170
 5660TIP3    H216987   3.574   2.259   4.985 -0.9608  0.7127  1.5324
 5661TIP3   OH216988   6.164   0.868   0.263 -0.6904 -0.3776  0.2064
 5661TIP3    H116989   6.246   0.818   0.262 -1.0242 -0.9433 -0.0839
 5661TIP3    H216990   6.189   0.955   0.292 -0.1177 -0.7741  0.9412
 5662TIP3   OH216991   3.986   5.116   4.836 -0.1797 -0.9099 -0.5791
 5662TIP3    H116992   3.992   5.021   4.851  0.2408 -1.0478 -1.5494
 5662TIP3    H216993   4.020   5.128   4.747  3.2994  0.5794  0.7819
 5663TIP3   OH216994   4.485   2.875   1.664 -0.3292 -0.1881 -0.4158
 5663TIP3    H116995   4.565   2.879   1.716 -0.8697  0.4880  0.3812
 5663TIP3    H216996   4.415   2.870   1.729 -1.0097  0.5535 -1.0742
 5664TIP3   OH216997   6.030   2.045   4.165  0.2421  0.0685 -0.1854
 5664TIP3    H116998   6.066   1.956   4.169 -0.0869 -0.0759 -0.3058
 5664TIP3    H216999   6.104   2.102   4.183  0.7875 -0.1658 -1.5445
 5665TIP3   OH217000   0.325   5.368   2.645  0.2066 -0.0201 -0.2443
 5665TIP3    H117001   0.282   5.337   2.566  0.5291 -0.1519 -0.3693
 5665TIP3    H217002   0.347   5.289   2.694  0.0382  0.0590 -0.0363
 5666TIP3   OH217003   4.575   2.097   4.284 -0.2711 -0.4555 -0.0021
 5666TIP3    H117004   4.511   2.046   4.234  1.1860 -1.5275 -0.8254
 5666TIP3    H217005   4.632   2.135   4.218 -1.0418  1.9438  0.6191
 5667TIP3   OH217006   5.376   0.516   4.040 -0.2049 -0.1689 -0.1552
 5667TIP3    H117007   5.343   0.574   3.971 -0.2169 -0.3150 -0.2731
 5667TIP3    H217008   5.438   0.571   4.089  1.1731 -0.5491 -1.3711
 5668TIP3   OH217009   3.756   2.812   3.542 -0.4803 -0.5851 -0.6474
 5668TIP3    H117010   3.825   2.787   3.480 -1.1453 -2.3194 -0.7450
 5668TIP3    H217011   3.730   2.900   3.515  1.3532 -0.0725 -0.8889
 5669TIP3   OH217012   4.547   0.638   3.211 -0.8307 -0.0822 -0.0078
 5669TIP3    H117013   4.618   0.689   3.249 -0.4714 -0.0715 -0.6793
 5669TIP3    H217014   4.486   0.703   3.177  0.0358 -0.0598 -1.6255
 5670TIP3   OH217015   5.377   0.223   3.489 -0.4905 -0.6787 -0.3408
 5670TIP3    H117016   5.464   0.222   3.528 -1.1381 -1.5126  1.1803
 5670TIP3    H217017   5.374   0.146   3.434 -0.2946 -0.6843 -0.3457
 5671TIP3   OH217018   2.507   1.594   1.514 -0.1736  0.1694  0.2639
 5671TIP3    H117019   2.558   1.519   1.485  1.5442  0.8295  1.4322
 5671TIP3    H217020   2.425   1.588   1.465  0.6888 -1.3850 -1.0672
 5672TIP3   OH217021   0.535   5.766   0.060  0.5870  0.4040  0.5060
 5672TIP3    H117022   0.596   5.835   0.032 -0.5297  0.2623 -2.6150
 5672TIP3    H217023   0.449   5.806   0.051 -0.0397 -1.1343 -0.7020
 5673TIP3   OH217024   5.394   4.853   2.435  0.2118 -0.8608 -0.1122
 5673TIP3    H117025   5.390   4.765   2.473  1.0794 -0.6440  0.5098
 5673TIP3    H217026   5.377   4.912   2.509  2.3128 -0.4139  0.0816
 5674TIP3   OH217027   6.076   5.582   2.775  0.1597  0.1585  0.1378
 5674TIP3    H117028   6.142   5.590   2.706 -0.6685  1.6051 -0.5302
 5674TIP3    H217029   5.998   5.623   2.739 -0.5424  0.2270  1.6467
 5675TIP3   OH217030   1.038   1.568   4.669  0.2036  0.3059  0.5265
 5675TIP3    H117031   1.114   1.521   4.637 -0.6141 -1.3216  0.8714
 5675TIP3    H217032   0.964   1.531   4.619 -0.3558  2.0867 -0.0675
 5676TIP3   OH217033   1.426   3.900   0.827 -0.0738  0.2953  0.8675
 5676TIP3    H117034   1.348   3.853   0.797  0.2240 -0.4922  1.3053
 5676TIP3    H217035   1.411   3.991   0.800 -0.0938 -0.2575 -1.1019
 5677TIP3   OH217036   3.407   4.735   1.838  0.1605 -0.0399 -0.2536
 5677TIP3    H117037   3.496   4.702   1.852  0.7046  1.2303 -0.5265
 5677TIP3    H217038   3.387   4.782   1.919  0.0863  0.4167 -0.5355
 5678TIP3   OH217039   2.189   2.161   1.971  0.1891 -0.6428 -0.3007
 5678TIP3    H117040   2.099   2.136   1.949 -0.7465  2.1455  0.0229
 5678TIP3    H217041   2.234   2.164   1.886 -0.3214 -0.9820 -0.5919
 5679TIP3   OH217042   3.947   2.184   3.678  0.2177 -0.4903 -0.3571
 5679TIP3    H117043   4.031   2.219   3.649  1.4708 -1.1624  2.1814
 5679TIP3    H217044   3.900   2.260   3.712  0.3459 -0.3304 -0.5340
 5680TIP3   OH217045   2.285   5.021   3.452  0.5562  0.4699  0.3922
 5680TIP3    H117046   2.296   5.067   3.369  0.1293  0.4140  0.3032
 5680TIP3    H217047   2.283   4.928   3.427 -1.2879  0.5233  0.2689
 5681TIP3   OH217048   1.223   3.593   2.855 -0.0811  0.9763 -0.3261
 5681TIP3    H117049   1.300   3.622   2.903 -0.0535  0.9430 -0.3504
 5681TIP3    H217050   1.256   3.528   2.793 -0.3606 -0.1651  0.7012
 5682TIP3   OH217051   3.284   3.108   4.292  0.5074  0.6074  0.2047
 5682TIP3    H117052   3.365   3.112   4.241  0.3001  1.1692 -0.0906
 5682TIP3    H217053   3.220   3.068   4.233  1.4107 -3.4239  1.6122
 5683TIP3   OH217054   3.539   1.739   0.673 -0.2929 -0.1275 -0.0566
 5683TIP3    H117055   3.496   1.775   0.750 -1.4511 -0.1605 -0.6749
 5683TIP3    H217056   3.598   1.672   0.709 -0.5116  0.1327  0.8268
 5684TIP3   OH217057   0.676   3.517   4.590 -0.5953 -0.2178  0.2654
 5684TIP3    H117058   0.622   3.446   4.623 -1.2103  0.4447  0.7171
 5684TIP3    H217059   0.752   3.474   4.552 -0.6928 -1.0877  1.0280
 5685TIP3   OH217060   1.473   3.774   1.775  0.3029  0.6135 -0.0549
 5685TIP3    H117061   1.400   3.801   1.831  0.2150 -0.3967  0.3428
 5685TIP3    H217062   1.481   3.680   1.790  2.2824  0.8392  0.5981
 5686TIP3   OH217063   4.892   2.792   4.889  1.0812 -0.3606  0.4290
 5686TIP3    H117064   4.875   2.713   4.941  2.5559  0.8591  3.0108
 5686TIP3    H217065   4.929   2.854   4.953  0.9261  2.0661 -1.7006
 5687TIP3   OH217066   3.110   1.737   2.841 -0.4179  0.0033 -0.0123
 5687TIP3    H117067   3.091   1.824   2.806  0.2448  1.1988  2.3707
 5687TIP3    H217068   3.064   1.734   2.925  2.8770 -0.2497  1.9590
 5688TIP3   OH217069   3.065   5.870   3.973 -0.4189  0.0011  0.3027
 5688TIP3    H117070   3.021   5.932   4.032  1.2390  1.6378 -0.0711
 5688TIP3    H217071   3.124   5.924   3.921 -0.8940 -1.5714 -2.0149
 5689TIP3   OH217072   4.626   5.694   2.018 -0.1380  0.0976  0.6219
 5689TIP3    H117073   4.604   5.601   2.011 -0.8116  0.2971 -0.0976
 5689TIP3    H217074   4.547   5.740   1.991  0.9629  0.8442 -1.6550
 5690TIP3   OH217075   3.506   4.589   1.149 -0.0172  0.2212 -0.4084
 5690TIP3    H117076   3.451   4.546   1.214 -0.5627  0.8126 -0.4696
 5690TIP3    H217077   3.483   4.546   1.066 -2.5851  2.3477 -0.9631
 5691TIP3   OH217078   5.548   4.785   3.235  0.2203 -0.0454 -0.0149
 5691TIP3    H117079   5.603   4.730   3.290  1.6845  1.0582 -0.3037
 5691TIP3    H217080   5.490   4.831   3.295 -0.5419 -1.3600  0.2809
 5692TIP3   OH217081   5.922   1.961   4.436  0.0564  0.3611 -0.4614
 5692TIP3    H117082   5.950   1.999   4.352  0.2237 -1.1190 -1.1090
 5692TIP3    H217083   5.829   1.981   4.441  0.0162  0.3593 -1.0624
 5693TIP3   OH217084   3.741   3.206   4.998 -0.1976 -0.0581 -0.0553
 5693TIP3    H117085   3.726   3.126   5.048  0.5313 -0.0386  0.1997
 5693TIP3    H217086   3.820   3.189   4.947 -0.1456  0.4286 -0.1486
 5694TIP3   OH217087   0.887   3.340   4.466 -0.1604 -0.1520  0.3785
 5694TIP3    H117088   0.969   3.359   4.510 -0.2207 -0.4638  0.6266
 5694TIP3    H217089   0.898   3.251   4.432  0.2850  0.4547 -1.1492
 5695TIP3   OH217090   1.094   2.516   1.575  0.0360  0.5510 -0.5968
 5695TIP3    H117091   1.059   2.552   1.657 -0.4975 -0.6193 -0.2879
 5695TIP3    H217092   1.021   2.524   1.513  0.0137  0.3044 -0.6056
 5696TIP3   OH217093   6.018   3.383   3.599 -0.2918  0.3082 -0.2713
 5696TIP3    H117094   6.087   3.397   3.664 -0.4879  0.5039 -0.1066
 5696TIP3    H217095   6.066   3.367   3.517 -0.0432 -0.0927 -0.0524
 5697TIP3   OH217096   1.866   5.559   2.320  0.1845  0.2545 -0.1205
 5697TIP3    H117097   1.862   5.492   2.387  0.5912 -1.0656 -1.3666
 5697TIP3    H217098   1.924   5.627   2.357  1.5430 -1.0884  0.3237
 5698TIP3   OH217099   4.407   1.066   3.925  0.3554  1.0007  0.6512
 5698TIP3    H117100   4.452   1.151   3.922  2.0324  0.1366  0.5294
 5698TIP3    H217101   4.355   1.064   3.845  1.5001  1.2913 -0.1172
 5699TIP3   OH217102   1.856   4.806   4.925 -0.1364 -0.0415 -0.1121
 5699TIP3    H117103   1.932   4.808   4.866  0.7293  0.4629  0.9782
 5699TIP3    H217104   1.871   4.728   4.979  0.4855  0.9642  1.2051
 5700TIP3   OH217105   4.493   2.193   2.704  0.1504 -0.4807  0.4609
 5700TIP3    H117106   4.421   2.158   2.652 -2.4507  2.1898  1.9360
 5700TIP3    H217107   4.566   2.202   2.642 -1.2132 -1.9128 -1.4743
 5701TIP3   OH217108   2.215   1.110   2.888  0.1054 -0.1666 -0.0399
 5701TIP3    H117109   2.195   1.174   2.956 -2.4993 -2.3560  1.4325
 5701TIP3    H217110   2.303   1.133   2.859  1.1163  1.2822  3.6309
 5702TIP3   OH217111   1.702   4.689   2.294 -0.3758  0.3109  0.0414
 5702TIP3    H117112   1.755   4.731   2.362  1.0986  1.5838 -1.8067
 5702TIP3    H217113   1.727   4.597   2.297  0.0421  0.4405  0.8768
 5703TIP3   OH217114   3.406   1.352   2.484  0.3394 -0.6347 -0.6438
 5703TIP3    H117115   3.363   1.402   2.414 -0.5540  0.2534  0.4933
 5703TIP3    H217116   3.496   1.385   2.484  0.4195 -0.8082 -1.5001
 5704TIP3   OH217117   1.071   0.389   1.251 -0.2301 -0.2441 -0.1157
 5704TIP3    H117118   1.009   0.423   1.316 -2.1483 -2.8466 -0.4436
 5704TIP3    H217119   1.155   0.386   1.298 -1.1726 -0.3001  1.6607
 5705TIP3   OH217120   3.910   1.465   1.029  0.4952  0.2018  0.2012
 5705TIP3    H117121   3.907   1.417   0.947  0.7949 -0.5628  0.6226
 5705TIP3    H217122   4.002   1.461   1.055  0.2249 -0.5007  1.1060
 5706TIP3   OH217123   3.183   0.048   2.197  0.0052  0.2880 -0.1932
 5706TIP3    H117124   3.139   0.051   2.282  1.8341  0.5439  0.7786
 5706TIP3    H217125   3.111   0.038   2.134 -1.3248 -0.9202  1.4241
 5707TIP3   OH217126   1.787   5.339   1.588 -0.3410  0.2251  0.1927
 5707TIP3    H117127   1.781   5.423   1.632  1.1939  0.7507 -0.5218
 5707TIP3    H217128   1.818   5.360   1.500  1.3611 -1.1411  0.3868
 5708TIP3   OH217129   3.389   5.677   3.069 -0.0969 -0.2440  0.2829
 5708TIP3    H117130   3.438   5.729   3.133 -0.2450  1.6043 -1.0239
 5708TIP3    H217131   3.452   5.659   2.999 -0.4724 -0.4798 -0.0029
 5709TIP3   OH217132   0.485   3.059   1.891 -0.1896 -0.0837 -0.0141
 5709TIP3    H117133   0.530   2.995   1.946  0.1037 -0.5616 -0.7922
 5709TIP3    H217134   0.425   3.104   1.950  2.1947  1.4971  1.3870
 5710TIP3   OH217135   6.011   3.163   3.316  0.2640 -0.4728  0.0451
 5710TIP3    H117136   5.998   3.131   3.227 -1.9710 -1.5665  0.7066
 5710TIP3    H217137   6.022   3.085   3.369 -1.2423 -0.0124  1.1076
 5711TIP3   OH217138   1.652   3.930   2.109 -0.1372 -0.4957 -0.2050
 5711TIP3    H117139   1.655   3.834   2.108  1.0603 -0.6048  2.9723
 5711TIP3    H217140   1.729   3.956   2.059  1.0006 -1.2963  1.0650
 5712TIP3   OH217141   2.725   3.032   1.402 -0.3594  0.5493  0.0254
 5712TIP3    H117142   2.804   3.083   1.416 -0.6685  1.3539 -1.0294
 5712TIP3    H217143   2.717   3.026   1.307 -0.6492 -0.9804  0.1252
 5713TIP3   OH217144   0.578   5.090   4.087 -0.5626  0.5273  0.3577
 5713TIP3    H117145   0.622   5.142   4.019 -0.6684  1.0345  0.6712
 5713TIP3    H217146   0.506   5.046   4.041  0.6442 -0.8541 -0.3134
 5714TIP3   OH217147   2.542   3.902   4.992  0.1827  0.5021 -0.4307
 5714TIP3    H117148   2.498   3.825   5.027  0.8518 -0.2474 -1.2158
 5714TIP3    H217149   2.486   3.932   4.921  0.0338  0.6132 -0.2669
 5715TIP3   OH217150   5.984   1.540   1.405  0.2641  0.4558  0.1278
 5715TIP3    H117151   6.070   1.506   1.381 -0.7960 -0.4080 -2.9072
 5715TIP3    H217152   5.959   1.489   1.483  1.2375 -1.4985 -0.7677
 5716TIP3   OH217153   1.939   0.762   2.770  0.1362 -0.2298  0.7964
 5716TIP3    H117154   1.886   0.683   2.774  1.8563 -1.4463  0.5682
 5716TIP3    H217155   1.890   0.821   2.712 -1.4939 -0.8464  1.4895
 5717TIP3   OH217156   0.980   0.075   1.481 -0.3004  0.5975  0.1665
 5717TIP3    H117157   1.053   0.092   1.541 -0.0773  0.4555 -0.0616
 5717TIP3    H217158   0.928   0.009   1.525  0.2275  0.0017 -0.0889
 5718TIP3   OH217159   1.149   5.159   5.183 -0.2285 -0.0195  0.0275
 5718TIP3    H117160   1.155   5.079   5.235 -1.5087 -0.8855 -1.0816
 5718TIP3    H217161   1.194   5.138   5.101 -2.1657 -0.2840 -1.0162
 5719TIP3   OH217162   2.365   0.379   3.987  0.0241 -0.2646  0.5665
 5719TIP3    H117163   2.282   0.398   4.031 -0.4225 -1.2843  0.1841
 5719TIP3    H217164   2.342   0.319   3.916  0.8139  0.8964 -0.7315
 5720TIP3   OH217165   5.608   2.338   0.262  0.3871 -0.4895 -0.3200
 5720TIP3    H117166   5.680   2.385   0.221 -0.4229  0.6923 -0.4078
 5720TIP3    H217167   5.638   2.247   0.264  1.5202 -0.1576 -1.1335
 5721TIP3   OH217168   3.182   2.709   4.359  0.1008  0.5911 -0.1068
 5721TIP3    H117169   3.251   2.739   4.417 -0.0197 -0.1208  0.4156
 5721TIP3    H217170   3.228   2.676   4.282  0.2511  1.6941 -0.4964
 5722TIP3   OH217171   5.081   2.004   3.925 -0.0461  0.0639  0.1945
 5722TIP3    H117172   5.013   2.025   3.989  0.1745 -0.9955  0.8043
 5722TIP3    H217173   5.155   2.059   3.950 -0.8011  1.5898 -0.7695
 5723TIP3   OH217174   5.335   2.630   3.543  0.2266 -0.6311  0.3519
 5723TIP3    H117175   5.363   2.544   3.573 -2.3788 -1.3754  0.9293
 5723TIP3    H217176   5.274   2.612   3.471 -0.2743  0.7386  0.4019
 5724TIP3   OH217177   4.762   4.615   4.571  0.3313  0.0430  0.5696
 5724TIP3    H117178   4.833   4.673   4.597  0.4703 -0.0350  0.3661
 5724TIP3    H217179   4.693   4.631   4.635  0.4212  0.3319  0.5928
 5725TIP3   OH217180   6.344   2.515   0.637  0.2604  0.1376  0.0985
 5725TIP3    H117181   6.290   2.575   0.688  0.7582  1.0703 -0.4391
 5725TIP3    H217182   6.399   2.471   0.702 -1.3752 -1.1272  0.7036
 5726TIP3   OH217183   2.407   5.111   2.794  0.8806  0.6561  0.1911
 5726TIP3    H117184   2.368   5.073   2.873  1.6849 -0.2767  0.1538
 5726TIP3    H217185   2.464   5.180   2.827 -0.5611  1.8603  0.2632
 5727TIP3   OH217186   0.630   5.186   4.637 -0.1398  0.4099 -0.1343
 5727TIP3    H117187   0.620   5.145   4.551  2.0221  2.8415 -1.7191
 5727TIP3    H217188   0.696   5.132   4.682  0.1929  0.2468 -0.8109
 5728TIP3   OH217189   5.260   4.456   3.856  0.2348  0.1058  0.6199
 5728TIP3    H117190   5.229   4.467   3.946 -2.6204 -2.0469  0.0525
 5728TIP3    H217191   5.205   4.386   3.821  0.5450  1.5409 -3.1483
 5729TIP3   OH217192   3.614   4.492   0.432  0.3444 -0.3433 -0.3881
 5729TIP3    H117193   3.542   4.481   0.370 -0.4486 -0.5390  0.5358
 5729TIP3    H217194   3.600   4.423   0.497  0.1326  0.9089  0.9584
 5730TIP3   OH217195   1.002   0.167   0.595 -0.4972 -1.3089 -0.2499
 5730TIP3    H117196   1.051   0.241   0.559 -1.9532 -0.6089 -0.8788
 5730TIP3    H217197   0.966   0.200   0.677  0.1980 -1.8763  0.2981
 5731TIP3   OH217198   5.185   5.772   2.178 -0.5423  0.3839  0.2867
 5731TIP3    H117199   5.281   5.769   2.173 -0.6138 -0.7131 -2.7546
 5731TIP3    H217200   5.163   5.863   2.163  0.0695  0.1076 -3.2207
 5732TIP3   OH217201   5.985   2.482   2.023 -0.2616 -0.2230  0.2918
 5732TIP3    H117202   5.953   2.394   2.044 -1.4225  0.1403  0.1309
 5732TIP3    H217203   5.905   2.534   2.012  0.3670  0.4754 -1.2549
 5733TIP3   OH217204   1.082   4.727   1.653  0.1787 -0.5262 -0.1211
 5733TIP3    H117205   1.054   4.810   1.691  0.5938 -0.6069  0.3684
 5733TIP3    H217206   1.114   4.676   1.727 -1.8563 -1.8894 -0.0666
 5734TIP3   OH217207   4.411   0.525   4.141 -0.0010  0.3318 -0.2702
 5734TIP3    H117208   4.397   0.435   4.111 -0.2684  1.0593 -2.5289
 5734TIP3    H217209   4.504   0.541   4.125  0.2099  0.2257  0.8272
 5735TIP3   OH217210   1.667   0.111   2.195 -0.3040 -0.1103 -0.0489
 5735TIP3    H117211   1.631   0.135   2.110 -2.4488  0.7515  1.0111
 5735TIP3    H217212   1.625   0.027   2.216  2.4060 -1.8415 -1.0038
 5736TIP3   OH217213   2.634   1.739   4.915  0.3825 -0.1616  0.5871
 5736TIP3    H117214   2.580   1.663   4.936 -1.5065  0.0895 -2.5678
 5736TIP3    H217215   2.573   1.812   4.913  1.2986  0.6164 -0.6670
 5737TIP3   OH217216   0.044   0.957   4.273 -0.0785 -0.4223  0.0418
 5737TIP3    H117217   0.108   0.927   4.208 -0.9006 -0.7226 -0.6483
 5737TIP3    H217218  -0.026   0.892   4.268 -1.3484  0.9617 -0.6152
 5738TIP3   OH217219   4.561   0.514   1.451 -0.2394  0.2073  0.8194
 5738TIP3    H117220   4.522   0.428   1.470 -0.8889  0.1075 -0.7870
 5738TIP3    H217221   4.506   0.576   1.498 -1.0294 -0.1158  0.3415
 5739TIP3   OH217222   1.159   3.552   4.285  0.6502  0.4019  0.2060
 5739TIP3    H117223   1.167   3.647   4.283 -0.2738  0.4890 -1.0543
 5739TIP3    H217224   1.066   3.535   4.269  0.6695 -0.7110  1.1169
 5740TIP3   OH217225   2.336   1.612   4.262 -0.1670  0.4880  1.1080
 5740TIP3    H117226   2.355   1.673   4.191 -0.4344  0.4455  0.9987
 5740TIP3    H217227   2.260   1.562   4.232  0.3934 -0.2942  0.9450
 5741TIP3   OH217228   4.544   5.020   4.743  0.2656  0.0205 -0.0129
 5741TIP3    H117229   4.549   4.941   4.796 -4.0003 -0.8012 -0.4639
 5741TIP3    H217230   4.532   4.988   4.654 -1.3965  1.1000 -0.2191
 5742TIP3   OH217231   0.023   1.504   1.362 -0.3775 -0.1825  0.3259
 5742TIP3    H117232   0.087   1.433   1.356  0.3123  0.4076  0.5699
 5742TIP3    H217233   0.063   1.568   1.421 -1.9846 -0.6278  1.9961
 5743TIP3   OH217234   0.691   0.624   4.543 -0.0233 -0.5643 -0.6147
 5743TIP3    H117235   0.740   0.697   4.505 -0.3262  1.0886  1.8956
 5743TIP3    H217236   0.632   0.596   4.474  1.8974 -0.1906 -2.5125
 5744TIP3   OH217237   1.146   1.112   4.440  0.0771 -0.4016 -0.6180
 5744TIP3    H117238   1.211   1.097   4.372  0.7661 -0.6090  0.0687
 5744TIP3    H217239   1.071   1.151   4.394  0.9563  0.5168 -1.3099
 5745TIP3   OH217240   0.426   0.773   1.588  0.0109  0.0245 -0.3838
 5745TIP3    H117241   0.503   0.802   1.636 -0.1207  0.7918 -0.6264
 5745TIP3    H217242   0.436   0.812   1.501 -0.9569  0.6539 -0.2281
 5746TIP3   OH217243   0.485   2.484   3.204  0.5087 -0.4399  0.1471
 5746TIP3    H117244   0.540   2.550   3.246 -2.1189  1.4954  0.7954
 5746TIP3    H217245   0.438   2.442   3.276  0.3046 -1.2726 -0.4538
 5747TIP3   OH217246   4.457   4.122   0.917  0.0515 -0.2251  0.0523
 5747TIP3    H117247   4.432   4.214   0.905  2.4852  0.2298 -2.7388
 5747TIP3    H217248   4.444   4.082   0.831  1.8409 -1.6835  0.3857
 5748TIP3   OH217249   0.523   2.879   3.854 -0.0207 -0.3897 -0.5387
 5748TIP3    H117250   0.606   2.850   3.814  1.0340 -0.7186  1.7616
 5748TIP3    H217251   0.524   2.974   3.844  0.0535 -0.4820 -1.5529
 5749TIP3   OH217252   2.580   4.709   2.667 -0.6659 -0.7902  0.2125
 5749TIP3    H117253   2.551   4.671   2.750  1.9352 -1.0633  1.1069
 5749TIP3    H217254   2.663   4.665   2.649 -0.9041 -0.3436 -2.2855
 5750TIP3   OH217255   0.116   4.458   1.509  0.7029  0.3579 -0.2628
 5750TIP3    H117256   0.065   4.529   1.471  0.0896  0.4379  0.6601
 5750TIP3    H217257   0.169   4.500   1.577  0.7735  0.0257 -0.1077
 5751TIP3   OH217258   4.079   4.950   3.554 -0.3526  0.2027  0.3350
 5751TIP3    H117259   4.051   4.932   3.464  0.1117  0.9343  0.0270
 5751TIP3    H217260   4.079   5.046   3.559  0.3097  0.1781  0.8927
 5752TIP3   OH217261   3.210   0.049   3.480 -0.2586 -0.2424 -0.1769
 5752TIP3    H117262   3.267   0.078   3.551  0.0718 -0.5006 -0.3368
 5752TIP3    H217263   3.262   0.060   3.401  0.5892 -2.9688 -0.1096
 5753TIP3   OH217264   2.220   2.377   2.136 -0.2890 -0.2505 -0.2547
 5753TIP3    H117265   2.185   2.343   2.218  0.3456 -0.0471  0.1095
 5753TIP3    H217266   2.199   2.310   2.071 -0.3474 -0.6529  0.1767
 5754TIP3   OH217267   1.985   5.663   2.040  1.1865 -0.0938 -0.4431
 5754TIP3    H117268   1.957   5.747   2.003  0.8010 -0.2430 -0.5005
 5754TIP3    H217269   1.945   5.661   2.127 -0.1862 -0.9146 -1.0472
 5755TIP3   OH217270   2.288   1.317   2.131  0.6201  0.3384 -0.1910
 5755TIP3    H117271   2.329   1.402   2.147 -0.2453  0.5689  0.9347
 5755TIP3    H217272   2.358   1.254   2.145  0.9450  0.7974  0.3117
 5756TIP3   OH217273   2.002   1.390   2.433 -0.6563 -0.3230  0.0125
 5756TIP3    H117274   1.926   1.362   2.484  0.1630 -0.4151  1.2461
 5756TIP3    H217275   2.050   1.449   2.492 -0.1524  0.3191 -1.0072
 5757TIP3   OH217276   5.674   2.415   1.280  0.3372 -0.4707 -0.7137
 5757TIP3    H117277   5.717   2.404   1.196  0.5886  1.2186 -0.8443
 5757TIP3    H217278   5.597   2.358   1.276  0.6838 -0.8798 -1.8233
 5758TIP3   OH217279   3.584   5.772   0.880 -0.4174  0.1757  0.7641
 5758TIP3    H117280   3.666   5.765   0.831 -0.0645  0.8926  1.2372
 5758TIP3    H217281   3.604   5.832   0.952 -1.9774  2.4275 -0.5355
 5759TIP3   OH217282   5.761   5.608   0.213 -0.2252 -0.6434 -0.4116
 5759TIP3    H117283   5.715   5.582   0.133 -0.0019 -1.9388 -0.1338
 5759TIP3    H217284   5.850   5.575   0.202 -0.2362 -0.9864  0.4350
 5760TIP3   OH217285   5.014   3.499   0.540 -0.3612 -0.2295 -0.5939
 5760TIP3    H117286   5.026   3.485   0.446 -0.3842  1.7291 -0.9403
 5760TIP3    H217287   5.095   3.467   0.580  0.7053  1.1354 -1.5658
 5761TIP3   OH217288   4.240   2.964   0.412  0.0441 -0.2835  0.2745
 5761TIP3    H117289   4.201   3.016   0.482  0.6715 -1.1058  1.2746
 5761TIP3    H217290   4.263   2.881   0.454  0.7612 -0.6650 -0.8235
 5762TIP3   OH217291   1.551   1.978   2.421 -0.4499  0.6401 -0.2823
 5762TIP3    H117292   1.520   1.901   2.470  1.6808  1.2102  2.1918
 5762TIP3    H217293   1.524   2.052   2.474  0.1012  1.4330 -1.0827
 5763TIP3   OH217294   4.630   1.220   1.701 -0.4953 -0.4134 -0.1577
 5763TIP3    H117295   4.613   1.137   1.657 -1.8841  0.1358 -0.7361
 5763TIP3    H217296   4.671   1.195   1.784 -2.5676 -1.8393  0.5262
 5764TIP3   OH217297   0.979   3.472   3.867  0.3938  0.0624 -0.0877
 5764TIP3    H117298   1.000   3.410   3.796 -1.7863 -0.0221 -0.7249
 5764TIP3    H217299   1.009   3.428   3.946 -0.7577 -1.6739 -0.5647
 5765TIP3   OH217300   4.458   3.930   1.669 -0.4298 -0.0332 -0.0848
 5765TIP3    H117301   4.400   3.970   1.733 -1.6479 -1.9364  0.1015
 5765TIP3    H217302   4.412   3.940   1.585 -1.3087 -1.8743  0.1148
 5766TIP3   OH217303   1.724   4.401   2.290  0.4021 -0.0333  0.2684
 5766TIP3    H117304   1.699   4.330   2.230 -0.2151 -0.0770  0.5662
 5766TIP3    H217305   1.817   4.414   2.274  0.1807  0.1955 -0.9647
 5767TIP3   OH217306   0.765   0.708   3.557  0.6152 -0.3024  0.6483
 5767TIP3    H117307   0.676   0.675   3.571  0.7795 -1.1633 -0.2016
 5767TIP3    H217308   0.784   0.758   3.636 -0.6549 -0.0231  0.8091
 5768TIP3   OH217309   2.450   4.395   3.026 -0.2607  0.1912  0.3922
 5768TIP3    H117310   2.521   4.344   2.989 -0.1105  1.8436 -1.8260
 5768TIP3    H217311   2.371   4.344   3.006 -0.1272  0.7504 -1.8482
 5769TIP3   OH217312   5.476   2.884   2.569 -0.0365  0.0681  0.3841
 5769TIP3    H117313   5.460   2.856   2.478  1.5680 -1.2456  0.4611
 5769TIP3    H217314   5.484   2.979   2.564  0.2965 -0.0077 -0.8983
 5770TIP3   OH217315   5.252   2.822   1.921 -0.4532  0.2548  0.3891
 5770TIP3    H117316   5.185   2.890   1.922  0.5796  1.4909 -2.5837
 5770TIP3    H217317   5.335   2.870   1.919  0.5048 -1.2068  2.0278
 5771TIP3   OH217318   2.401   0.238   4.237  1.1066 -0.1794  0.3487
 5771TIP3    H117319   2.396   0.306   4.170 -0.0635 -1.6472 -1.1490
 5771TIP3    H217320   2.364   0.278   4.316  0.8813  1.0504 -0.3737
 5772TIP3   OH217321   5.018   0.664   0.881  0.8014 -0.0469 -0.2425
 5772TIP3    H117322   5.098   0.617   0.908 -0.4205 -1.5239  0.9789
 5772TIP3    H217323   4.988   0.616   0.803 -0.1578 -1.0414  0.6978
 5773TIP3   OH217324   0.823   4.617   1.527  0.3359 -0.0767 -0.3986
 5773TIP3    H117325   0.837   4.532   1.567  0.9329  1.2866  2.5513
 5773TIP3    H217326   0.909   4.642   1.493  1.7033  1.5383  3.6463
 5774TIP3   OH217327   5.000   0.616   1.190  0.2829 -0.3334  0.1303
 5774TIP3    H117328   5.083   0.568   1.186  1.4984  1.5893  0.9187
 5774TIP3    H217329   4.983   0.643   1.099 -0.6346 -2.4761 -0.4026
 5775TIP3   OH217330   4.539   1.227   2.724 -0.1928  0.7774  0.2305
 5775TIP3    H117331   4.620   1.258   2.766  0.5804 -0.9889  0.1660
 5775TIP3    H217332   4.562   1.218   2.632 -0.3652  0.0522  0.2480
 5776TIP3   OH217333   1.775   1.747   0.508  0.7838  0.4438 -0.1376
 5776TIP3    H117334   1.682   1.755   0.485  0.7547  0.0596 -0.1605
 5776TIP3    H217335   1.810   1.835   0.495  0.1637  0.8856  1.0132
 5777TIP3   OH217336   1.170   4.136   2.320  0.2857  1.0128  0.2771
 5777TIP3    H117337   1.120   4.217   2.328  0.4284  1.0343  1.0228
 5777TIP3    H217338   1.240   4.157   2.258 -1.9879  0.2889 -2.7588
 5778TIP3   OH217339   4.077   2.570   3.182  0.1576 -0.1420  0.8283
 5778TIP3    H117340   4.154   2.532   3.140  0.1750  0.2755  0.4769
 5778TIP3    H217341   4.042   2.631   3.117  0.8042  1.3293  1.8089
 5779TIP3   OH217342   1.337   2.695   1.113  0.0202 -0.0436 -0.3303
 5779TIP3    H117343   1.361   2.741   1.194  0.8448  1.0866 -1.1915
 5779TIP3    H217344   1.319   2.764   1.050 -1.6944 -0.8975 -0.8560
 5780TIP3   OH217345   0.097   2.533   4.850 -0.4233  0.0311 -0.0702
 5780TIP3    H117346   0.030   2.466   4.861  0.8038 -1.3989 -0.8931
 5780TIP3    H217347   0.114   2.565   4.939 -1.8482  0.0935  0.1937
 5781TIP3   OH217348   3.304   4.991   3.520 -0.0858  0.5828  0.5317
 5781TIP3    H117349   3.398   4.978   3.532  0.3845  2.8528 -0.2599
 5781TIP3    H217350   3.287   4.964   3.430 -0.3399 -0.4475  0.8784
 5782TIP3   OH217351   2.420   3.306   4.927  0.4547 -0.3043  0.0476
 5782TIP3    H117352   2.400   3.244   4.997  0.7018 -0.4892 -0.0412
 5782TIP3    H217353   2.336   3.324   4.885  0.6629 -2.4226 -1.4543
 5783TIP3   OH217354   1.445   0.944   4.948 -0.0500  0.2034 -0.6445
 5783TIP3    H117355   1.437   1.000   5.025 -0.7397 -0.8421  0.0551
 5783TIP3    H217356   1.466   0.858   4.982  1.8261  0.1586 -1.7594
 5784TIP3   OH217357   1.145   0.796   0.172 -0.1502 -0.0813 -0.3107
 5784TIP3    H117358   1.207   0.734   0.132 -0.1983  0.3043 -1.0077
 5784TIP3    H217359   1.099   0.834   0.097  0.8559  1.8313 -0.0143
 5785TIP3   OH217360   5.441   3.128   2.251  0.4621 -0.2472 -0.2651
 5785TIP3    H117361   5.449   3.221   2.229 -1.1947 -0.2990 -1.2772
 5785TIP3    H217362   5.382   3.126   2.326  0.1418 -0.4844 -0.5176
 5786TIP3   OH217363   0.296   5.563   3.853 -0.5118 -0.5669 -0.1466
 5786TIP3    H117364   0.318   5.471   3.867 -0.1328 -0.6137 -1.0085
 5786TIP3    H217365   0.370   5.598   3.803 -1.0760 -0.0156 -0.6094
 5787TIP3   OH217366   1.861   2.071   3.789 -0.0989 -0.3214  0.2135
 5787TIP3    H117367   1.839   2.066   3.696 -1.3887  0.7542  0.4382
 5787TIP3    H217368   1.814   2.147   3.821  2.6077  1.0774  1.1474
 5788TIP3   OH217369   2.748   1.284   4.321  0.3678  0.1125  0.7570
 5788TIP3    H117370   2.665   1.270   4.367 -0.8673 -1.8495 -1.8018
 5788TIP3    H217371   2.815   1.277   4.389 -1.4569  0.0527  2.6459
 5789TIP3   OH217372   3.773   3.581   2.502  0.3955  0.4915 -0.4579
 5789TIP3    H117373   3.816   3.548   2.581 -0.8564  2.1082  0.9856
 5789TIP3    H217374   3.812   3.530   2.430  0.0760 -2.5309  1.3512
 5790TIP3   OH217375   4.639   5.522   0.293 -0.0393 -0.0177  0.0339
 5790TIP3    H117376   4.677   5.591   0.238  2.4655 -0.5308  1.0338
 5790TIP3    H217377   4.590   5.570   0.360 -1.3523  0.6461 -1.3252
 5791TIP3   OH217378   1.458   4.875   3.883 -0.1096  0.7119  0.0747
 5791TIP3    H117379   1.525   4.891   3.950  0.4865 -0.5088 -0.2146
 5791TIP3    H217380   1.498   4.813   3.823 -0.9685  1.1160 -0.9434
 5792TIP3   OH217381   4.672   5.223   0.272 -0.0526  0.8029  0.1557
 5792TIP3    H117382   4.749   5.169   0.256  0.7598  2.3485 -1.4716
 5792TIP3    H217383   4.705   5.313   0.270 -1.5482  1.4416  1.6403
 5793TIP3   OH217384   4.851   5.289   1.362 -0.1403 -0.5595 -0.0360
 5793TIP3    H117385   4.816   5.261   1.446 -0.1846 -1.1557 -0.2442
 5793TIP3    H217386   4.921   5.351   1.384 -0.3261 -0.5148  0.4285
 5794TIP3   OH217387   2.164   0.955   2.078  0.8021 -0.1489 -0.1114
 5794TIP3    H117388   2.098   0.980   2.142 -2.0453 -0.2997 -2.7438
 5794TIP3    H217389   2.174   0.861   2.090 -0.1518 -0.2784 -0.2385
 5795TIP3   OH217390   5.533   0.463   2.870  0.1204  0.2857 -0.1142
 5795TIP3    H117391   5.524   0.462   2.774  1.0069 -0.9295 -0.2017
 5795TIP3    H217392   5.444   0.448   2.902 -0.0670 -0.0407 -0.7609
 5796TIP3   OH217393   3.606   2.083   2.178  0.3033  0.0149  0.1726
 5796TIP3    H117394   3.523   2.050   2.212  0.2833 -1.3375 -1.0706
 5796TIP3    H217395   3.648   2.007   2.139  2.2568  0.6320  0.9742
 5797TIP3   OH217396   2.333   1.593   3.015  0.3745 -0.6255 -0.3601
 5797TIP3    H117397   2.385   1.575   2.937 -0.5979 -0.9117 -0.9589
 5797TIP3    H217398   2.249   1.625   2.981  0.0056 -0.5782  0.5709
 5798TIP3   OH217399   3.002   0.043   3.159  0.4817 -0.2513  0.7709
 5798TIP3    H117400   3.066  -0.023   3.188 -1.1708 -1.8222  1.0383
 5798TIP3    H217401   3.007   0.039   3.063  3.3049  2.2971  0.6606
 5799TIP3   OH217402   1.707   3.043   0.302 -0.6015 -0.0872  0.8659
 5799TIP3    H117403   1.716   3.075   0.391  1.9131  0.9410  0.3407
 5799TIP3    H217404   1.673   3.118   0.253 -1.8128 -0.5964  0.8753
 5800TIP3   OH217405   3.374   3.568   0.177  0.0359  0.1818  0.6489
 5800TIP3    H117406   3.443   3.585   0.113  1.0571  0.3428  1.7543
 5800TIP3    H217407   3.392   3.481   0.210 -3.1744 -1.9511 -2.4888
 5801TIP3   OH217408   3.981   0.211   3.512  0.2744 -0.1368 -0.6036
 5801TIP3    H117409   4.020   0.162   3.585 -0.1386 -0.2494 -0.4578
 5801TIP3    H217410   3.918   0.151   3.474 -0.2336  0.2834 -0.4288
 5802TIP3   OH217411   6.240   4.738   3.529 -0.2546 -0.3835 -0.1388
 5802TIP3    H117412   6.221   4.765   3.439  4.4974  1.7535 -0.8486
 5802TIP3    H217413   6.199   4.805   3.584 -0.2453  0.3699 -1.0229
 5803TIP3   OH217414   3.498   1.356   4.468  0.2747  0.1842 -0.2671
 5803TIP3    H117415   3.425   1.412   4.444  1.4763  2.4163  0.9686
 5803TIP3    H217416   3.576   1.400   4.433  1.4000  0.0794  1.8915
 5804TIP3   OH217417   1.873   0.634   3.831  0.6548  0.5778 -0.0568
 5804TIP3    H117418   1.806   0.593   3.885 -0.4916 -0.3420 -2.0427
 5804TIP3    H217419   1.826   0.703   3.784  1.2032  0.2875 -1.0570
 5805TIP3   OH217420   1.660   4.574   0.687  0.0856 -0.2537  0.0619
 5805TIP3    H117421   1.740   4.545   0.730  0.1498  0.6361  0.5709
 5805TIP3    H217422   1.621   4.636   0.749  0.0610  0.8975 -1.0804
 5806TIP3   OH217423   0.303   3.749   2.222  0.2908 -0.3570  0.4391
 5806TIP3    H117424   0.246   3.712   2.290  1.0375  0.3858  1.5022
 5806TIP3    H217425   0.247   3.808   2.173  0.1893  0.6115  1.6793
 5807TIP3   OH217426   0.368   2.608   2.498  0.0033 -0.2530  0.4061
 5807TIP3    H117427   0.391   2.688   2.544 -1.8000  0.3666  0.2923
 5807TIP3    H217428   0.422   2.608   2.419 -0.0445  0.9088  0.3634
 5808TIP3   OH217429   3.667   1.303   0.846  0.2384  0.0151  0.5156
 5808TIP3    H117430   3.576   1.296   0.816 -0.8212  1.8969  2.9263
 5808TIP3    H217431   3.696   1.212   0.857 -1.7207 -0.6345  0.7067
 5809TIP3   OH217432   1.331   4.872   4.511 -1.3879 -0.0460  0.1046
 5809TIP3    H117433   1.324   4.844   4.602  1.4034 -2.2112 -0.2119
 5809TIP3    H217434   1.367   4.960   4.516  0.5874 -0.8434  1.1771
 5810TIP3   OH217435   0.210   0.671   1.253  0.0765 -0.0389  0.0985
 5810TIP3    H117436   0.171   0.679   1.340  0.1579 -2.9797  0.5149
 5810TIP3    H217437   0.195   0.757   1.212  2.3960  2.4532  3.8718
 5811TIP3   OH217438   4.051   0.549   4.644  0.3565  0.6554 -0.5828
 5811TIP3    H117439   4.070   0.641   4.665 -1.1936  1.1856 -1.3789
 5811TIP3    H217440   3.965   0.533   4.683  1.8317 -1.4236  2.2220
 5812TIP3   OH217441   3.499   0.992   3.809  0.2906 -0.5869 -0.4425
 5812TIP3    H117442   3.548   0.919   3.847 -2.1029 -1.4095  1.3038
 5812TIP3    H217443   3.531   0.997   3.719  2.6330 -1.8334  0.2354
 5813TIP3   OH217444   0.633   1.619   4.354  0.0863 -0.7396 -0.1652
 5813TIP3    H117445   0.539   1.618   4.339 -0.0518 -0.8101  0.6538
 5813TIP3    H217446   0.644   1.669   4.435  0.6703 -1.4982  0.2345
 5814TIP3   OH217447   1.662   2.770   0.881  0.0449 -0.0947  0.2187
 5814TIP3    H117448   1.581   2.811   0.851 -1.1960 -2.1493  0.6175
 5814TIP3    H217449   1.722   2.780   0.806 -1.1711 -0.1862 -0.8012
 5815TIP3   OH217450   5.044   1.076   4.535 -0.1589  0.2750 -0.7497
 5815TIP3    H117451   5.061   1.035   4.620 -2.6608 -1.4431 -0.9633
 5815TIP3    H217452   4.994   1.010   4.487 -0.3891  1.9106 -2.8740
 5816TIP3   OH217453   3.165   2.448   0.610  0.4664  0.5033  0.0884
 5816TIP3    H117454   3.241   2.429   0.555  0.5571 -0.8510  0.6483
 5816TIP3    H217455   3.096   2.389   0.578 -0.6332  2.2768 -0.9443
 5817TIP3   OH217456   4.926   3.514   1.218 -0.5990  0.3562  0.0244
 5817TIP3    H117457   4.904   3.539   1.128  1.4904 -0.7479 -0.8436
 5817TIP3    H217458   4.931   3.597   1.265 -0.4782  1.0598 -1.1789
 5818TIP3   OH217459   6.072   3.205   0.332 -0.3867  0.4358 -0.0322
 5818TIP3    H117460   6.059   3.185   0.239  0.9350  0.4224 -0.2464
 5818TIP3    H217461   6.144   3.268   0.333 -2.1083  2.4866  0.8578
 5819TIP3   OH217462   2.512   1.970   0.131  0.1744  0.1608 -0.6971
 5819TIP3    H117463   2.476   1.994   0.046 -0.4858 -2.4325 -1.2260
 5819TIP3    H217464   2.457   2.016   0.195 -0.3502  0.8351 -1.6145
 5820TIP3   OH217465   0.810   3.333   3.227 -0.3302 -0.0023  0.0195
 5820TIP3    H117466   0.781   3.411   3.180  0.5538  1.0287  1.1255
 5820TIP3    H217467   0.886   3.301   3.178 -0.3413  0.1732 -0.1083
 5821TIP3   OH217468   0.481   3.617   5.060 -0.4124 -0.1566  0.3023
 5821TIP3    H117469   0.453   3.530   5.033  0.7429 -0.2481 -0.7166
 5821TIP3    H217470   0.467   3.672   4.983  0.3243  0.2031  0.4082
 5822TIP3   OH217471   0.997   3.088   0.472  0.0461 -0.1703 -0.0037
 5822TIP3    H117472   0.945   3.013   0.442  0.3075 -2.0380  3.6228
 5822TIP3    H217473   1.062   3.101   0.403 -2.7041 -0.2482 -2.8890
 5823TIP3   OH217474   3.610   0.063   4.555 -0.0596  0.1977  0.0077
 5823TIP3    H117475   3.562  -0.012   4.521  0.9978 -0.1807 -0.6829
 5823TIP3    H217476   3.553   0.098   4.624 -1.3301 -0.2150 -0.7911
 5824TIP3   OH217477   5.917   1.716   3.559  0.3390  0.1686  0.3885
 5824TIP3    H117478   5.937   1.659   3.633  1.4234  1.3216  1.0155
 5824TIP3    H217479   5.822   1.721   3.558  0.3201  0.3127  1.8388
 5825TIP3   OH217480   6.064   1.781   0.792 -0.7935 -0.2113 -0.0367
 5825TIP3    H117481   5.984   1.825   0.821 -0.0031  1.5424 -0.3232
 5825TIP3    H217482   6.076   1.812   0.702 -0.3487 -1.2966 -0.3583
 5826TIP3   OH217483   1.387   0.177   3.848 -0.4292  0.8832 -0.1783
 5826TIP3    H117484   1.351   0.162   3.936  1.3649 -0.2262  0.4352
 5826TIP3    H217485   1.444   0.102   3.833 -1.9460  0.1545 -3.0386
 5827TIP3   OH217486   1.496   3.197   4.834 -0.4846 -0.2424  0.7639
 5827TIP3    H117487   1.571   3.162   4.882 -0.5180  0.0940  1.0587
 5827TIP3    H217488   1.532   3.268   4.781 -0.4263 -0.6832  0.1966
 5828TIP3   OH217489   0.080   0.637   3.788  0.5653  0.5025 -0.2093
 5828TIP3    H117490   0.139   0.562   3.785 -0.3909 -0.2446 -1.5836
 5828TIP3    H217491  -0.005   0.599   3.809 -0.4123  0.8066 -3.1824
 5829TIP3   OH217492   1.026   4.635   4.870 -0.9353 -0.0075  0.0851
 5829TIP3    H117493   1.098   4.583   4.908  0.5063  0.0736 -2.3417
 5829TIP3    H217494   1.043   4.724   4.902 -0.3540 -0.1216  0.1207
 5830TIP3   OH217495   2.824   1.239   1.258 -0.0838  0.4234 -0.0011
 5830TIP3    H117496   2.856   1.150   1.270  0.8108  1.0442  3.4092
 5830TIP3    H217497   2.835   1.257   1.165  1.8813 -2.2352 -0.3785
 5831TIP3   OH217498   4.907   1.668   3.528 -0.9570 -0.5449 -0.4133
 5831TIP3    H117499   4.971   1.624   3.584  0.4299  1.0913 -0.6270
 5831TIP3    H217500   4.879   1.744   3.579 -1.8748 -0.6139 -0.7939
 5832TIP3   OH217501   4.280   4.654   2.916  0.5066 -0.2837 -0.3583
 5832TIP3    H117502   4.261   4.714   2.843  0.7798 -0.2557 -0.4055
 5832TIP3    H217503   4.365   4.683   2.949  0.1403  0.0487  0.3168
 5833TIP3   OH217504   0.223   5.894   2.386 -0.8521 -0.5671 -0.2730
 5833TIP3    H117505   0.161   5.963   2.364 -2.2070 -1.4885  0.5015
 5833TIP3    H217506   0.249   5.911   2.476  1.5129  0.8560 -1.1383
 5834TIP3   OH217507   5.239   1.185   4.114 -0.1843 -0.1410  0.2774
 5834TIP3    H117508   5.166   1.197   4.053  0.8417  1.2272 -0.7285
 5834TIP3    H217509   5.229   1.095   4.145 -0.7721 -0.8710 -1.8622
 5835TIP3   OH217510   2.006   0.256   2.544  0.4301  0.0563  0.2500
 5835TIP3    H117511   2.039   0.346   2.550  2.0087 -0.4338 -0.6038
 5835TIP3    H217512   1.994   0.229   2.635 -0.8821  1.3896  0.5153
 5836TIP3   OH217513   4.833   2.578   4.383 -0.0701 -0.2843 -0.0051
 5836TIP3    H117514   4.889   2.655   4.381 -0.6484  0.1360 -1.2719
 5836TIP3    H217515   4.821   2.559   4.476 -0.5663  1.6244  0.3563
 5837TIP3   OH217516   0.131   3.381   0.245 -0.1560  0.5990  0.1882
 5837TIP3    H117517   0.055   3.387   0.303 -1.3764  0.0478 -1.2793
 5837TIP3    H217518   0.198   3.435   0.287 -0.8948  0.0552  2.1992
 5838TIP3   OH217519   0.866   0.802   4.428 -0.0685 -0.3098 -0.2418
 5838TIP3    H117520   0.898   0.775   4.341  0.6466  0.7126 -0.3041
 5838TIP3    H217521   0.811   0.878   4.410  1.4601  0.9887  0.3418
 5839TIP3   OH217522   6.065   5.017   1.886 -0.4070  0.5336  0.3202
 5839TIP3    H117523   5.972   5.010   1.861 -0.5491  0.2216  0.9237
 5839TIP3    H217524   6.063   5.026   1.981  0.2820 -2.1411  0.6640
 5840TIP3   OH217525   4.574   4.544   0.632 -0.3442 -0.4069 -0.6624
 5840TIP3    H117526   4.515   4.472   0.609  0.2879 -1.4467  0.7593
 5840TIP3    H217527   4.652   4.500   0.665 -0.3203  0.9164  1.1880
 5841TIP3   OH217528   5.575   2.135   3.663 -0.3630 -0.0118  0.0246
 5841TIP3    H117529   5.591   2.132   3.569 -2.5772 -1.1874 -0.3579
 5841TIP3    H217530   5.495   2.187   3.673 -1.8339 -2.2946  0.9499
 5842TIP3   OH217531   0.340   4.109   3.227 -0.5248  0.0221  0.4514
 5842TIP3    H117532   0.347   4.014   3.243 -0.2841 -0.3265 -1.4866
 5842TIP3    H217533   0.247   4.128   3.235 -0.4997 -0.2257  1.5207
 5843TIP3   OH217534   1.767   5.412   0.978  0.2105 -0.1222 -0.3201
 5843TIP3    H117535   1.791   5.481   1.040  1.3034 -1.8861  1.3424
 5843TIP3    H217536   1.676   5.392   0.999  0.8174 -1.3038  1.4204
 5844TIP3   OH217537   2.805   5.361   4.556 -0.4718 -0.2196  0.2504
 5844TIP3    H117538   2.800   5.284   4.500  1.1742  0.0117 -0.2892
 5844TIP3    H217539   2.887   5.350   4.604  2.2126  3.1402 -2.9834
 5845TIP3   OH217540   4.195   2.399   1.111 -0.0626 -0.3724 -0.1224
 5845TIP3    H117541   4.252   2.405   1.188  0.2609 -1.9549 -0.2140
 5845TIP3    H217542   4.123   2.459   1.130  0.3766 -0.2019  1.0895
 5846TIP3   OH217543   4.464   5.053   3.440  0.4073  0.0392 -0.0294
 5846TIP3    H117544   4.444   5.119   3.505  1.3156 -0.6681  1.0045
 5846TIP3    H217545   4.389   4.994   3.442  0.3701  0.0943  0.2901
 5847TIP3   OH217546   3.922   5.561   5.048 -0.3896  0.1008  0.5534
 5847TIP3    H117547   3.846   5.590   4.997 -0.2609  0.9589  0.8249
 5847TIP3    H217548   3.963   5.643   5.078 -0.1951 -0.3739  1.6216
 5848TIP3   OH217549   3.711   3.827   2.752  0.3451 -0.2282  0.1692
 5848TIP3    H117550   3.747   3.914   2.766  0.2458 -0.1510 -0.0637
 5848TIP3    H217551   3.683   3.799   2.840 -2.0876  1.0557 -0.1269
 5849TIP3   OH217552   3.311   1.741   2.675 -0.4465 -0.5249  0.3052
 5849TIP3    H117553   3.222   1.755   2.708 -0.7006  1.3581 -0.9950
 5849TIP3    H217554   3.298   1.692   2.594 -0.3048 -0.2806  0.1340
 5850TIP3   OH217555   1.051   2.774   2.054  0.1916 -0.0119  0.2408
 5850TIP3    H117556   1.024   2.851   2.104  0.8832  0.5910 -0.2973
 5850TIP3    H217557   1.054   2.704   2.119 -2.7253 -0.1688  0.3267
 5851TIP3   OH217558   2.360   1.873   0.670 -0.2481  0.1873  0.3093
 5851TIP3    H117559   2.268   1.861   0.649 -0.0398 -1.2387  0.1087
 5851TIP3    H217560   2.396   1.785   0.675  0.8403  0.6598  1.6306
 5852TIP3   OH217561   0.675   2.432   0.599  0.1535 -0.1504 -0.2637
 5852TIP3    H117562   0.615   2.484   0.545 -0.1086 -0.1252  0.0487
 5852TIP3    H217563   0.634   2.346   0.606 -0.6046  0.2993  1.1870
 5853TIP3   OH217564   3.748   1.336   5.095 -0.2953  0.2908  0.3790
 5853TIP3    H117565   3.828   1.294   5.065 -0.3443  1.5838 -1.7922
 5853TIP3    H217566   3.687   1.327   5.022 -1.2165  1.6796  0.9273
 5854TIP3   OH217567   0.725   0.119   1.855  0.2541  0.0804  0.1371
 5854TIP3    H117568   0.681   0.045   1.896  1.9542 -0.1797  1.6121
 5854TIP3    H217569   0.818   0.100   1.865  0.7205  1.6648 -0.8635
 5855TIP3   OH217570   1.653   3.489   3.266  0.6537 -0.0379 -0.4126
 5855TIP3    H117571   1.745   3.508   3.246  1.1098 -1.0988  0.5516
 5855TIP3    H217572   1.657   3.430   3.342 -0.7837 -1.1973 -1.2014
 5856TIP3   OH217573   5.352   1.415   4.210 -0.2588 -0.6212  0.0344
 5856TIP3    H117574   5.309   1.332   4.193 -0.9320 -0.4053  0.6313
 5856TIP3    H217575   5.307   1.450   4.287 -0.2595  0.4769 -0.4417
 5857TIP3   OH217576   4.735   4.378   2.648 -0.2588  0.3653 -0.0075
 5857TIP3    H117577   4.715   4.339   2.563  1.2318 -1.0862  0.2430
 5857TIP3    H217578   4.679   4.455   2.654 -1.7385 -0.5424 -1.5011
 5858TIP3   OH217579   3.056   5.329   1.204 -0.0601  0.2487  0.2186
 5858TIP3    H117580   3.095   5.404   1.158 -2.4263  2.3954  1.4587
 5858TIP3    H217581   3.043   5.360   1.294  0.2449 -2.2332  1.2093
 5859TIP3   OH217582   1.070   1.037   3.499 -0.9055  0.2577  0.3607
 5859TIP3    H117583   1.090   0.964   3.558 -0.1394 -0.4551 -0.7400
 5859TIP3    H217584   0.979   1.021   3.472 -0.8180 -0.1482  0.3022
 5860TIP3   OH217585   3.158   2.301   3.256 -0.2563 -0.0435  0.0699
 5860TIP3    H117586   3.247   2.316   3.225 -0.2094  0.4841  0.4465
 5860TIP3    H217587   3.163   2.316   3.350 -0.4185 -1.5254  0.3344
 5861TIP3   OH217588   3.486   2.313   3.969 -0.1293  0.0089  0.2940
 5861TIP3    H117589   3.555   2.258   3.933 -1.9460 -2.4409  0.2656
 5861TIP3    H217590   3.419   2.316   3.901 -0.3664  1.7791  0.5520
 5862TIP3   OH217591   0.901   0.392   1.489  0.5114 -0.0382  0.0608
 5862TIP3    H117592   0.931   0.316   1.538 -1.2177  0.4378  1.9998
 5862TIP3    H217593   0.814   0.369   1.459  1.1503  0.0760 -2.0046
 5863TIP3   OH217594   2.636   0.768   0.749  0.5489 -0.7068  0.5121
 5863TIP3    H117595   2.657   0.783   0.841  2.0231 -1.2886  0.2996
 5863TIP3    H217596   2.677   0.842   0.703  0.4394 -0.7996  0.2604
 5864TIP3   OH217597   3.315   3.674   4.926  0.4878 -0.0362 -0.1664
 5864TIP3    H117598   3.287   3.682   4.835  2.7592 -0.4572 -0.9667
 5864TIP3    H217599   3.332   3.764   4.954 -1.1263  0.1892  0.2120
 5865TIP3   OH217600   2.501   5.355   2.420 -0.3367 -0.3332  0.0657
 5865TIP3    H117601   2.486   5.351   2.514  1.2571 -1.1558  0.3190
 5865TIP3    H217602   2.553   5.435   2.408  0.3227 -0.7574  0.0366
 5866TIP3   OH217603   0.539   2.266   2.769  0.3783 -0.1876 -0.3550
 5866TIP3    H117604   0.480   2.250   2.843 -0.3530  1.7933 -0.4359
 5866TIP3    H217605   0.627   2.257   2.806  0.0369  1.3448  0.9656
 5867TIP3   OH217606   0.532   3.450   0.302  0.2749  0.0916 -0.7028
 5867TIP3    H117607   0.500   3.396   0.374  0.9759  1.7430  0.9074
 5867TIP3    H217608   0.607   3.402   0.268  0.4066 -0.3428  0.1655
 5868TIP3   OH217609   5.955   0.347   3.274  0.7917 -0.3060  0.0542
 5868TIP3    H117610   5.926   0.365   3.364 -2.4233 -1.1817 -0.6735
 5868TIP3    H217611   6.035   0.398   3.264 -0.1376  1.9106  2.5843
 5869TIP3   OH217612   3.242   3.670   3.392 -0.3176  0.3630 -0.3535
 5869TIP3    H117613   3.289   3.588   3.377  0.0954  0.3632  0.8548
 5869TIP3    H217614   3.300   3.721   3.447 -0.5621  1.4971 -1.1091
 5870TIP3   OH217615   1.007   2.712   0.149  0.5462  0.1438  0.5962
 5870TIP3    H117616   1.001   2.689   0.056  2.1746  0.3438  0.4192
 5870TIP3    H217617   1.020   2.629   0.194 -2.2970 -0.2251  0.9264
 5871TIP3   OH217618   2.011   4.013   3.728 -0.2990 -0.3699  0.1854
 5871TIP3    H117619   2.017   3.999   3.634 -1.2419 -1.1782  0.2211
 5871TIP3    H217620   2.018   3.925   3.765  0.9365  0.0188  0.9410
 5872TIP3   OH217621   0.498   1.826   5.066 -0.7419  0.3721 -0.6739
 5872TIP3    H117622   0.452   1.901   5.026  1.6814  0.7524 -3.0415
 5872TIP3    H217623   0.560   1.865   5.126 -0.4637  0.1700 -0.8286
 5873TIP3   OH217624   3.666   1.060   4.965  0.2486  0.1593  0.0007
 5873TIP3    H117625   3.720   1.060   5.045 -0.0662  0.0174  0.2142
 5873TIP3    H217626   3.729   1.044   4.894  0.2937 -1.5131  0.3772
 5874TIP3   OH217627   4.221   3.789   5.068  0.1365  0.1166 -0.1636
 5874TIP3    H117628   4.275   3.729   5.016  1.1250  0.9413 -0.1150
 5874TIP3    H217629   4.278   3.817   5.139 -1.1185 -0.8115  1.2745
 5875TIP3   OH217630   1.068   3.705   3.333  0.1227 -0.3829  0.3204
 5875TIP3    H117631   1.101   3.645   3.266  1.9461  2.2100 -1.2834
 5875TIP3    H217632   1.092   3.792   3.302 -0.5009  1.0984  3.5391
 5876TIP3   OH217633   3.514   1.814   2.856  0.0267 -0.2110 -0.1569
 5876TIP3    H117634   3.575   1.874   2.815 -0.5984 -0.2943 -1.2471
 5876TIP3    H217635   3.450   1.794   2.787 -0.2159 -1.5055  0.4166
 5877TIP3   OH217636   4.183   2.666   0.365 -0.0412 -0.5363 -0.1112
 5877TIP3    H117637   4.132   2.624   0.296 -2.4173  0.9163  0.6540
 5877TIP3    H217638   4.136   2.645   0.446  2.0622 -1.2697  0.9942
 5878TIP3   OH217639   5.695   4.636   4.025 -0.3262  0.1320 -0.0680
 5878TIP3    H117640   5.771   4.616   3.971  0.4616  0.1525  0.9987
 5878TIP3    H217641   5.714   4.721   4.063 -0.6987 -0.0310  0.5042
 5879TIP3   OH217642   4.765   5.317   3.218 -0.1840  0.3611  0.5002
 5879TIP3    H117643   4.694   5.259   3.244 -0.1972  1.1639  2.3700
 5879TIP3    H217644   4.788   5.288   3.129 -1.2361 -1.4444  0.7695
 5880TIP3   OH217645   1.922   2.566   3.995  0.3911  0.6232 -0.3734
 5880TIP3    H117646   1.937   2.505   3.923 -1.1171 -2.4906  1.6722
 5880TIP3    H217647   1.992   2.547   4.058  0.6071  1.9409 -0.1859
 5881TIP3   OH217648   5.455   3.222   1.528  0.2653  0.9120  0.1363
 5881TIP3    H117649   5.361   3.229   1.519  0.3484 -0.2862 -2.6114
 5881TIP3    H217650   5.468   3.144   1.582 -0.2817  1.4330  1.0432
 5882TIP3   OH217651   1.314   1.461   2.307  0.0331 -0.2339 -0.4403
 5882TIP3    H117652   1.228   1.495   2.331  0.1577 -0.7872  0.9103
 5882TIP3    H217653   1.360   1.450   2.391  1.0248 -0.9676 -1.0484
 5883TIP3   OH217654   0.749   1.702   2.809 -0.3789  0.0000 -0.3698
 5883TIP3    H117655   0.753   1.719   2.903  1.1053  0.3330 -0.4754
 5883TIP3    H217656   0.731   1.608   2.802 -0.9815  0.0646  0.2291
 5884TIP3   OH217657   5.607   1.501   0.899 -0.1396 -0.0815 -0.5631
 5884TIP3    H117658   5.684   1.447   0.918 -0.8824 -0.8486  0.2829
 5884TIP3    H217659   5.575   1.469   0.815 -0.6332 -1.0333 -0.0204
 5885TIP3   OH217660   6.179   0.316   1.332  0.1787  0.0939 -0.3688
 5885TIP3    H117661   6.254   0.341   1.277 -0.2462  0.4963 -0.7783
 5885TIP3    H217662   6.166   0.391   1.390  1.1146 -0.6476  0.8364
 5886TIP3   OH217663   1.330   5.819   1.438  0.0414 -0.0667 -0.1032
 5886TIP3    H117664   1.294   5.864   1.514  0.0832  0.9074 -0.6472
 5886TIP3    H217665   1.390   5.883   1.399 -0.8674 -0.1151 -1.6254
 5887TIP3   OH217666   4.374   3.530   0.090 -0.0384 -0.0649  0.2467
 5887TIP3    H117667   4.378   3.530   0.186  0.7871 -2.8309  0.3118
 5887TIP3    H217668   4.282   3.539   0.069 -0.4956 -1.5381  1.4338
 5888TIP3   OH217669   5.467   2.256   1.467 -0.1529 -0.1425 -0.7520
 5888TIP3    H117670   5.444   2.171   1.430 -1.9339  1.0949 -2.7963
 5888TIP3    H217671   5.383   2.293   1.495  0.7420  0.4817  1.2280
 5889TIP3   OH217672   5.301   3.938   3.991  0.1144 -0.1804  0.3887
 5889TIP3    H117673   5.356   3.861   3.976 -0.9766 -0.6122 -1.8309
 5889TIP3    H217674   5.214   3.912   3.961 -0.5834  1.5095  0.8236
 5890TIP3   OH217675   3.631   1.039   3.542 -0.1747 -0.0632 -0.5284
 5890TIP3    H117676   3.690   0.967   3.521  0.3335  0.2274 -0.1109
 5890TIP3    H217677   3.688   1.109   3.573 -0.8621 -0.4156  1.6835
 5891TIP3   OH217678   4.130   3.513   1.280 -0.6169 -0.0412  0.0608
 5891TIP3    H117679   4.197   3.464   1.233  0.1233  1.4734 -0.5538
 5891TIP3    H217680   4.178   3.555   1.352 -0.6595  1.7965 -0.9181
 5892TIP3   OH217681   5.171   1.995   4.427 -0.1904 -0.0175 -0.2678
 5892TIP3    H117682   5.155   1.934   4.355  1.1243  2.6108 -3.0158
 5892TIP3    H217683   5.098   2.057   4.422  0.6177  0.9527 -0.2535
 5893TIP3   OH217684   4.398   1.562   1.237 -0.0966 -0.5942  0.0089
 5893TIP3    H117685   4.490   1.547   1.215 -0.0802 -0.1009 -0.2768
 5893TIP3    H217686   4.400   1.636   1.298 -0.2410 -1.1444  0.6901
 5894TIP3   OH217687   1.328   3.257   0.951 -0.2824 -0.4873  0.3544
 5894TIP3    H117688   1.357   3.337   0.995 -0.3619  1.4432 -2.8171
 5894TIP3    H217689   1.234   3.271   0.937 -0.3340 -1.2318 -0.0904
 5895TIP3   OH217690   0.142   2.283   0.220  0.3547  0.4250  0.0112
 5895TIP3    H117691   0.209   2.310   0.283 -0.7859  1.6344  0.7503
 5895TIP3    H217692   0.136   2.188   0.230  2.2385  0.2241 -0.3838
 5896TIP3   OH217693   0.177   3.265   4.383  0.1162  0.1129  0.6049
 5896TIP3    H117694   0.269   3.285   4.368  0.4627 -1.0076  1.0900
 5896TIP3    H217695   0.135   3.279   4.298  1.3241 -2.3072 -0.5020
 5897TIP3   OH217696   5.006   3.788   4.460  0.2796 -0.0340  0.0672
 5897TIP3    H117697   5.072   3.777   4.391  2.8525  2.0345  1.9777
 5897TIP3    H217698   5.040   3.737   4.534 -1.6776 -1.0490  0.3233
 5898TIP3   OH217699   4.066   5.258   2.692 -0.1095  0.2421 -0.1827
 5898TIP3    H117700   4.055   5.214   2.607 -0.2548 -1.3186  0.6075
 5898TIP3    H217701   3.994   5.320   2.697  0.9629  1.7373 -1.9923
 5899TIP3   OH217702   4.317   1.206   0.732  0.0559  0.2147  0.6389
 5899TIP3    H117703   4.240   1.153   0.754  1.6832 -1.8910  1.5613
 5899TIP3    H217704   4.317   1.211   0.637  0.2912 -2.2607  0.4392
 5900TIP3   OH217705   0.853   4.106   3.349  0.2622  0.5091  0.1826
 5900TIP3    H117706   0.846   4.159   3.269 -1.5480  0.3434  0.1899
 5900TIP3    H217707   0.794   4.148   3.411  1.3175  0.3733  1.3046
 5901TIP3   OH217708   2.447   4.713   3.747  0.1731 -0.3907 -0.0230
 5901TIP3    H117709   2.377   4.649   3.730  0.6644 -1.0788  0.4827
 5901TIP3    H217710   2.402   4.797   3.754 -0.4752 -0.6540 -0.8099
 5902TIP3   OH217711   5.723   0.140   4.232 -0.6439 -0.1747 -0.1709
 5902TIP3    H117712   5.697   0.141   4.324 -0.3519  0.9553 -0.0786
 5902TIP3    H217713   5.692   0.224   4.197 -1.0787 -0.7427 -1.1991
 5903TIP3   OH217714   0.674   5.124   1.383 -0.4149 -0.7506 -0.3098
 5903TIP3    H117715   0.733   5.082   1.446 -1.2073 -0.7362  0.4616
 5903TIP3    H217716   0.631   5.193   1.434 -0.4620 -0.1958 -1.0917
 5904TIP3   OH217717   2.611   0.912   5.095 -0.4325 -0.0648 -0.3011
 5904TIP3    H117718   2.676   0.858   5.139  0.6490  0.0612 -1.6888
 5904TIP3    H217719   2.594   0.867   5.012 -1.4067  0.4147 -0.3829
 5905TIP3   OH217720   5.521   5.968   0.023  0.4413 -0.2206 -0.7087
 5905TIP3    H117721   5.483   5.887   0.056  0.7371  0.1866  0.6833
 5905TIP3    H217722   5.454   6.003  -0.036 -0.6550 -0.3587  0.3983
 5906TIP3   OH217723   3.672   0.320   1.299  0.8132  0.1412  0.0244
 5906TIP3    H117724   3.759   0.344   1.331  0.1092  3.1700  0.0060
 5906TIP3    H217725   3.649   0.391   1.239 -2.1740  0.1058  0.9899
 5907TIP3   OH217726   4.120   4.608   1.078 -0.1680 -0.2387  0.3262
 5907TIP3    H117727   4.190   4.568   1.130 -1.4674 -2.0867  0.7603
 5907TIP3    H217728   4.040   4.576   1.119 -1.2509  0.5545 -1.1248
 5908TIP3   OH217729   1.582   0.533   1.648  0.0697  0.0479 -0.5375
 5908TIP3    H117730   1.678   0.539   1.652  0.0316  0.5315  0.0079
 5908TIP3    H217731   1.553   0.625   1.650 -0.4377 -0.1092  0.9529
 5909TIP3   OH217732   4.917   1.384   3.165 -0.0646  0.4001  0.7609
 5909TIP3    H117733   4.960   1.311   3.121 -0.2232  0.7275  0.0411
 5909TIP3    H217734   4.860   1.343   3.230 -1.2227 -0.2148 -0.5777
 5910TIP3   OH217735   1.133   1.481   4.328  0.7031  0.0075 -0.0893
 5910TIP3    H117736   1.199   1.427   4.373  1.4128  1.2049  0.3510
 5910TIP3    H217737   1.174   1.567   4.320 -0.1161  0.3038 -1.4493
 5911TIP3   OH217738   5.305   2.237   3.642  0.1986  0.0052 -0.1905
 5911TIP3    H117739   5.367   2.299   3.603  2.0534 -1.3146  0.5206
 5911TIP3    H217740   5.220   2.263   3.606  1.2677  1.3109 -1.9655
 5912TIP3   OH217741   0.740   1.819   0.624  0.1504 -0.6279 -0.0519
 5912TIP3    H117742   0.682   1.769   0.565 -0.5343 -1.4260  1.2470
 5912TIP3    H217743   0.685   1.890   0.657  1.2127  1.3228 -2.1480
 5913TIP3   OH217744   3.992   2.913   3.148  0.4402  0.1117 -0.4798
 5913TIP3    H117745   4.027   2.881   3.231  0.9346  1.0195 -0.3298
 5913TIP3    H217746   3.963   3.002   3.166 -1.4478 -0.4120 -0.7540
 5914TIP3   OH217747   1.125   0.931   2.975  0.0021 -0.3670  0.7825
 5914TIP3    H117748   1.040   0.930   2.933  0.5284 -0.4007 -0.3033
 5914TIP3    H217749   1.183   0.976   2.913  0.7128 -0.0929  1.6176
 5915TIP3   OH217750   3.306   1.786   4.715 -0.2342  0.3584  0.3662
 5915TIP3    H117751   3.262   1.773   4.799 -2.2136 -0.0798 -0.6859
 5915TIP3    H217752   3.256   1.856   4.673  1.0732  0.9556 -0.2563
 5916TIP3   OH217753   1.588   4.161   4.980  0.1451 -0.3154  0.4195
 5916TIP3    H117754   1.652   4.186   5.046 -0.0988 -2.8833  1.7798
 5916TIP3    H217755   1.503   4.183   5.019  0.0705  1.5258 -0.6667
 5917TIP3   OH217756   2.677   2.477   2.565 -0.0075  0.1175  0.4456
 5917TIP3    H117757   2.619   2.538   2.518 -1.2598 -0.7439  0.8401
 5917TIP3    H217758   2.658   2.392   2.526  1.2683 -0.1351  0.3468
 5918TIP3   OH217759   2.634   1.431   3.221 -0.0873  0.2576 -0.3613
 5918TIP3    H117760   2.695   1.437   3.295 -1.1585  0.2504  0.5460
 5918TIP3    H217761   2.604   1.520   3.207 -0.3278  0.1668 -0.4217
 5919TIP3   OH217762   3.726   2.158   3.489 -0.0055 -0.3957 -0.3075
 5919TIP3    H117763   3.812   2.133   3.522 -0.6450 -0.3456  1.5056
 5919TIP3    H217764   3.674   2.078   3.495 -0.7144  0.1272  0.9031
 5920TIP3   OH217765   3.568   4.698   5.087  0.1333  0.0839 -0.1538
 5920TIP3    H117766   3.582   4.630   5.153 -0.9819  0.4738  0.5152
 5920TIP3    H217767   3.569   4.652   5.004 -2.1725 -1.0365  0.3674
 5921TIP3   OH217768   0.896   3.504   3.517 -0.4265  0.2317  0.2401
 5921TIP3    H117769   0.857   3.490   3.431  0.5220 -0.7660 -0.0435
 5921TIP3    H217770   0.973   3.559   3.500  0.3186 -0.7699  0.3015
 5922TIP3   OH217771   0.554   1.052   4.978  0.1610  0.2612 -0.4581
 5922TIP3    H117772   0.604   1.070   5.058 -1.5890  0.2486  0.7130
 5922TIP3    H217773   0.578   0.963   4.954  0.7764  0.2945 -0.0009
 5923TIP3   OH217774   5.993   3.814   4.129  0.0946 -0.2666 -0.3870
 5923TIP3    H117775   5.915   3.866   4.151  1.6555  2.3166 -0.4637
 5923TIP3    H217776   5.960   3.744   4.073 -2.0929  1.3379 -1.2860
 5924TIP3   OH217777   4.545   4.318   1.300 -0.1206 -0.8908  0.8499
 5924TIP3    H117778   4.606   4.248   1.275 -2.1729 -2.4077 -0.2529
 5924TIP3    H217779   4.498   4.338   1.219  0.8685  2.3675  0.9421
 5925TIP3   OH217780   4.516   4.350   4.615 -0.1756 -0.2525 -0.0342
 5925TIP3    H117781   4.593   4.358   4.671  0.2587 -0.8313 -0.5333
 5925TIP3    H217782   4.449   4.311   4.671  0.0081 -0.1036  0.2914
 5926TIP3   OH217783   5.220   0.906   3.106  0.2738  0.5717  0.0569
 5926TIP3    H117784   5.302   0.862   3.085  0.6777 -0.2533  2.9952
 5926TIP3    H217785   5.241   0.965   3.177 -1.3776  1.5930 -0.2345
 5927TIP3   OH217786   0.415   0.805   3.322  0.1921  0.4982  0.3959
 5927TIP3    H117787   0.419   0.900   3.327  0.5590  0.6449 -1.8357
 5927TIP3    H217788   0.325   0.786   3.295  0.3735  0.2847 -0.0764
 5928TIP3   OH217789   0.600   1.497   4.065  0.1719  0.2756 -0.1026
 5928TIP3    H117790   0.538   1.482   3.994 -1.2850 -0.8232  1.3503
 5928TIP3    H217791   0.632   1.410   4.088  0.6123  0.6192  0.6138
 5929TIP3   OH217792   5.756   4.858   4.162  0.1105 -0.0925  0.7665
 5929TIP3    H117793   5.825   4.845   4.227  1.3646 -0.5476 -0.5962
 5929TIP3    H217794   5.793   4.919   4.099 -0.6973 -0.3947 -0.0284
 5930TIP3   OH217795   0.667   5.503   1.262  0.5065 -0.0709 -0.5545
 5930TIP3    H117796   0.724   5.444   1.214  1.3511 -0.7655  1.1917
 5930TIP3    H217797   0.582   5.458   1.263  1.3428 -1.7915  1.4797
 5931TIP3   OH217798   0.908   4.445   0.352  0.0673  0.1884  0.6999
 5931TIP3    H117799   0.930   4.429   0.260 -1.6297  0.3631  0.2407
 5931TIP3    H217800   0.818   4.476   0.350 -0.5499 -1.3464  2.5568
 5932TIP3   OH217801   2.295   2.527   1.732  0.8845  0.0799  0.2531
 5932TIP3    H117802   2.387   2.504   1.717  1.8307  1.6904  2.9206
 5932TIP3    H217803   2.264   2.558   1.647  2.8263 -0.4343 -0.6897
 5933TIP3   OH217804   4.401   1.954   2.994 -0.7497  0.2566 -0.0326
 5933TIP3    H117805   4.327   1.985   3.046  1.7552  2.5668  2.4904
 5933TIP3    H217806   4.420   2.027   2.934 -0.4715 -0.2806 -0.6030
 5934TIP3   OH217807   0.598   0.727   1.247  0.0938 -0.5679 -0.5669
 5934TIP3    H117808   0.559   0.803   1.291  0.6132 -1.6792  1.9779
 5934TIP3    H217809   0.689   0.752   1.231 -0.1119 -0.1397 -1.1198
 5935TIP3   OH217810   3.958   3.242   1.925  0.3199  0.0736 -0.2778
 5935TIP3    H117811   3.891   3.231   1.992  0.7392  1.5113  0.4270
 5935TIP3    H217812   3.923   3.310   1.867  0.4590 -0.3452 -0.8562
 5936TIP3   OH217813   0.525   3.860   4.459  0.3415 -0.0337 -0.1720
 5936TIP3    H117814   0.458   3.906   4.510 -0.6138 -2.5404  1.0200
 5936TIP3    H217815   0.521   3.899   4.372 -1.1515  1.3531  0.4720
 5937TIP3   OH217816   5.225   3.190   4.287 -0.1171 -0.6263 -0.2675
 5937TIP3    H117817   5.153   3.185   4.350  0.2772 -1.8882  0.1088
 5937TIP3    H217818   5.266   3.275   4.305 -1.7889  0.3413 -0.8265
 5938TIP3   OH217819   0.410   1.972   4.315 -0.0795  0.0419 -0.5784
 5938TIP3    H117820   0.390   1.967   4.409  2.3724 -0.0449 -0.0002
 5938TIP3    H217821   0.333   1.933   4.273 -1.3464  0.2824  1.3548
 5939TIP3   OH217822   2.466   4.382   2.649  0.0147 -0.1826 -0.2742
 5939TIP3    H117823   2.414   4.368   2.569 -0.7151  0.4513  0.0744
 5939TIP3    H217824   2.447   4.472   2.674  0.5885 -0.2390  0.3721
 5940TIP3   OH217825   3.672   2.652   0.093  0.0422 -0.1238  0.4227
 5940TIP3    H117826   3.725   2.724   0.129 -0.6647 -0.8355  3.1092
 5940TIP3    H217827   3.581   2.679   0.110 -0.2207 -2.1517  2.7801
 5941TIP3   OH217828   3.537   2.711   1.686 -0.3298  0.4468  0.0515
 5941TIP3    H117829   3.564   2.656   1.612  1.3390  2.3099 -0.8205
 5941TIP3    H217830   3.619   2.736   1.728 -1.1575  0.9527  1.4203
 5942TIP3   OH217831   5.306   3.243   3.454  0.5261  0.2517 -0.2075
 5942TIP3    H117832   5.347   3.309   3.397  0.5639  0.4306  0.0259
 5942TIP3    H217833   5.258   3.294   3.519  0.7722  0.0532  0.1325
 5943TIP3   OH217834   4.274   2.567   3.657 -0.3460  0.1125  0.3615
 5943TIP3    H117835   4.343   2.567   3.590  0.0258 -1.1813  0.7066
 5943TIP3    H217836   4.302   2.633   3.721 -1.4169  2.3962 -1.4021
 5944TIP3   OH217837   4.684   2.428   0.641  0.1492 -0.1584  0.0434
 5944TIP3    H117838   4.766   2.384   0.622  0.1878  0.0041 -0.1703
 5944TIP3    H217839   4.621   2.389   0.581  0.1227 -0.1187  0.0453
 5945TIP3   OH217840   0.407   1.301   2.391 -0.8670 -0.1920 -0.2747
 5945TIP3    H117841   0.365   1.383   2.363 -0.6908 -0.4803 -1.4476
 5945TIP3    H217842   0.443   1.264   2.310  0.5515 -0.5834  0.4921
 5946TIP3   OH217843   0.488   4.978   2.496  0.4307  0.0261 -0.0433
 5946TIP3    H117844   0.408   4.934   2.526  0.2791  0.3728  0.0679
 5946TIP3    H217845   0.481   4.979   2.401  1.2968 -1.8084 -0.1620
 5947TIP3   OH217846   3.282   5.018   2.035  0.0749  0.2409  0.0720
 5947TIP3    H117847   3.319   5.057   2.114  2.0110  0.4061 -0.8747
 5947TIP3    H217848   3.340   5.047   1.964 -2.1992  0.9981 -1.6110
 5948TIP3   OH217849   2.695   1.400   4.976 -0.1681  0.3568 -0.4966
 5948TIP3    H117850   2.760   1.458   5.017  0.6195  0.4912 -1.8515
 5948TIP3    H217851   2.699   1.319   5.026  0.2367  0.7546  0.1272
 5949TIP3   OH217852   5.415   5.977   0.946 -0.1175  0.4868 -0.7352
 5949TIP3    H117853   5.371   5.948   0.866 -0.3074  2.6586 -1.4787
 5949TIP3    H217854   5.471   5.904   0.970 -2.4303 -1.5210 -1.0111
 5950TIP3   OH217855   6.319   5.705   0.888  0.2028  0.3653  0.1480
 5950TIP3    H117856   6.389   5.657   0.844  0.3130  0.1552  0.5518
 5950TIP3    H217857   6.240   5.687   0.836 -0.1659 -1.8198  1.3789
 5951TIP3   OH217858   2.512   5.903   2.752  0.6027  0.0241  0.1485
 5951TIP3    H117859   2.595   5.912   2.798  0.4708 -0.3439  0.4601
 5951TIP3    H217860   2.464   5.837   2.801  0.3966 -0.2577 -0.4240
 5952TIP3   OH217861   4.389   0.805   1.892 -0.1542  0.4346  0.3108
 5952TIP3    H117862   4.297   0.817   1.868 -0.1451 -2.2783 -1.5131
 5952TIP3    H217863   4.394   0.834   1.983 -2.5117  1.7211  0.1164
 5953TIP3   OH217864   1.314   4.928   1.690 -0.1130  0.3150 -0.0768
 5953TIP3    H117865   1.328   4.910   1.597  1.1155  2.3093 -0.3479
 5953TIP3    H217866   1.401   4.951   1.723 -0.5940 -0.0090  1.4904
 5954TIP3   OH217867   4.651   2.507   4.880 -0.0562 -0.2165 -0.5476
 5954TIP3    H117868   4.651   2.598   4.850 -0.3974 -0.2603 -0.6868
 5954TIP3    H217869   4.568   2.498   4.928 -0.6663 -0.8186 -1.6735
 5955TIP3   OH217870   5.071   4.105   4.679  0.2250 -0.3287  0.2581
 5955TIP3    H117871   5.084   4.151   4.597 -1.0912  0.3661  0.4046
 5955TIP3    H217872   5.116   4.159   4.744 -1.9103  1.2770  0.5489
 5956TIP3   OH217873   0.184   4.533   3.775 -0.4424  0.3111 -0.0778
 5956TIP3    H117874   0.140   4.615   3.800 -1.0140 -0.4129  1.3885
 5956TIP3    H217875   0.182   4.480   3.854  0.7203 -0.7903 -0.7610
 5957TIP3   OH217876   5.914   4.567   4.179 -0.5063 -0.2188  0.1360
 5957TIP3    H117877   5.823   4.544   4.194 -0.0824 -1.4351  1.0429
 5957TIP3    H217878   5.927   4.558   4.085 -1.5613  0.9771 -0.1460
 5958TIP3   OH217879   2.451   0.205   4.892 -0.3667  0.0913 -0.7048
 5958TIP3    H117880   2.406   0.176   4.972  1.4544 -0.8707  0.0343
 5958TIP3    H217881   2.417   0.293   4.876  1.5088  1.7382  3.0628
 5959TIP3   OH217882   4.332   2.618   4.138  0.2268  0.3394  0.0291
 5959TIP3    H117883   4.412   2.591   4.183  0.0600  0.4756  0.4159
 5959TIP3    H217884   4.299   2.691   4.191 -0.1428  0.2933 -0.1364
 5960TIP3   OH217885   3.727   5.260   4.795 -0.0883 -0.2101  0.2944
 5960TIP3    H117886   3.816   5.226   4.799 -0.4804 -1.2829  0.1563
 5960TIP3    H217887   3.699   5.244   4.705 -0.4031  0.1864  0.3172
 5961TIP3   OH217888   0.453   5.137   2.719 -0.5975  0.0706 -0.6791
 5961TIP3    H117889   0.477   5.082   2.645 -0.6871 -1.3004  0.2842
 5961TIP3    H217890   0.534   5.151   2.766 -0.9176 -1.0328  0.2402
 5962TIP3   OH217891   5.607   0.102   4.491  0.4900 -0.0775  0.6924
 5962TIP3    H117892   5.513   0.107   4.470  0.8448 -0.8341 -1.2436
 5962TIP3    H217893   5.623   0.009   4.508  1.6362 -0.7929 -3.2947
 5963TIP3   OH217894   5.693   5.454   2.571 -0.1168  0.0127  0.5210
 5963TIP3    H117895   5.599   5.461   2.557 -0.0412  0.3689  0.1882
 5963TIP3    H217896   5.701   5.396   2.647 -0.5736 -0.7560 -0.0060
 5964TIP3   OH217897   2.937   0.114   2.732 -0.0788  0.5025  0.8992
 5964TIP3    H117898   2.974   0.026   2.733 -1.1199  0.0327  0.4057
 5964TIP3    H217899   2.843   0.100   2.740 -0.1391  1.6921  2.9424
 5965TIP3   OH217900   0.804   3.885   4.424  0.1608  0.0476 -0.2040
 5965TIP3    H117901   0.726   3.848   4.465 -0.2129  0.7202 -0.2884
 5965TIP3    H217902   0.789   3.876   4.330 -0.0929  0.7058 -0.2357
 5966TIP3   OH217903   0.051   2.930   1.808  0.0893  0.4483 -0.2113
 5966TIP3    H117904   0.058   2.904   1.899  1.5732  0.5941 -0.2453
 5966TIP3    H217905   0.004   2.858   1.765  1.4895 -0.8018  0.2462
 5967TIP3   OH217906   3.739   5.978   1.084  0.0955  0.3709  0.2242
 5967TIP3    H117907   3.752   5.896   1.132 -0.3328 -0.1487 -0.5145
 5967TIP3    H217908   3.760   6.047   1.147  0.5939 -0.3076  0.8215
 5968TIP3   OH217909   3.538   2.714   0.390  0.0747 -0.0507  0.3010
 5968TIP3    H117910   3.499   2.742   0.308 -0.4851 -0.7863  0.2987
 5968TIP3    H217911   3.556   2.620   0.378  0.2946 -0.0936  0.8899
 5969TIP3   OH217912   4.824   3.597   0.987 -0.7391 -0.0819 -0.4896
 5969TIP3    H117913   4.816   3.610   0.893  2.6879 -1.5152 -1.0833
 5969TIP3    H217914   4.831   3.686   1.022  3.8018  0.5585 -2.3789
 5970TIP3   OH217915   0.825   2.057   2.896  0.0793  0.0041  0.7256
 5970TIP3    H117916   0.858   2.004   2.969  1.0553 -3.1249 -1.7521
 5970TIP3    H217917   0.738   2.019   2.877 -0.1818  0.8095  0.2938
 5971TIP3   OH217918   2.285   4.197   0.737  0.0999 -0.2570  0.1107
 5971TIP3    H117919   2.242   4.267   0.687  1.7273  0.6892 -0.0269
 5971TIP3    H217920   2.340   4.242   0.800 -0.1455 -1.4475  1.2264
 5972TIP3   OH217921   3.473   5.467   3.964 -0.3090  0.1630  0.6924
 5972TIP3    H117922   3.559   5.510   3.957  0.1393 -0.8270 -0.0979
 5972TIP3    H217923   3.441   5.463   3.874 -1.3258  0.7711  1.0149
 5973TIP3   OH217924   5.480   4.210   4.973 -0.3855  0.5784  0.0227
 5973TIP3    H117925   5.482   4.236   5.065  0.1255  1.1314 -0.1345
 5973TIP3    H217926   5.572   4.204   4.948 -0.4597 -1.7168  0.1183
 5974TIP3   OH217927   5.395   2.704   3.965 -0.0142  0.0595  0.0314
 5974TIP3    H117928   5.467   2.767   3.962  0.0261  0.0686  0.9694
 5974TIP3    H217929   5.323   2.751   4.005 -0.4631 -0.0416 -0.6419
 5975TIP3   OH217930   3.649   1.892   3.540  0.0662 -0.5185 -0.2407
 5975TIP3    H117931   3.698   1.848   3.609 -0.0522 -0.2599  0.0141
 5975TIP3    H217932   3.561   1.855   3.546 -0.2941  0.4149  0.6051
 5976TIP3   OH217933   5.894   1.631   1.164  0.2332 -0.0782 -0.4097
 5976TIP3    H117934   5.979   1.653   1.127 -0.5265  1.5998 -1.3043
 5976TIP3    H217935   5.910   1.621   1.257  1.3045  0.9475 -0.4544
 5977TIP3   OH217936   3.989   5.664   1.975  0.3874 -0.3712  0.5253
 5977TIP3    H117937   3.907   5.623   1.947 -0.4821  1.9578 -0.6504
 5977TIP3    H217938   3.969   5.702   2.060  0.7986 -1.2499  1.0251
 5978TIP3   OH217939   0.914   4.234   0.512 -0.5293  0.1729  0.0930
 5978TIP3    H117940   1.009   4.228   0.518 -0.5725 -1.9504 -0.4101
 5978TIP3    H217941   0.897   4.282   0.431  0.1348 -0.2514 -0.3055
 5979TIP3   OH217942   0.844   5.066   4.736  0.3003 -0.4394  0.0511
 5979TIP3    H117943   0.927   5.112   4.748  1.2045 -2.1561  0.6173
 5979TIP3    H217944   0.818   5.040   4.824 -2.1137  2.0835  0.2152
 5980TIP3   OH217945   1.198   5.234   4.268 -0.2860 -0.4062  0.1549
 5980TIP3    H117946   1.274   5.287   4.245 -0.3866  0.1517  1.0338
 5980TIP3    H217947   1.169   5.196   4.185 -1.4903  2.6033 -0.9542
 5981TIP3   OH217948   1.436   4.312   1.356  0.0781  0.2282  0.0025
 5981TIP3    H117949   1.499   4.351   1.295 -0.3349  1.9418  0.6210
 5981TIP3    H217950   1.488   4.293   1.435  0.0539  0.5860  0.1059
 5982TIP3   OH217951   0.410   2.231   4.192 -0.4251 -0.2051 -0.1868
 5982TIP3    H117952   0.321   2.257   4.218 -0.7197  0.3347 -1.6290
 5982TIP3    H217953   0.416   2.138   4.217 -1.5133 -0.3335 -0.3461
 5983TIP3   OH217954   2.823   3.556   0.343  0.2586 -0.2100 -0.4492
 5983TIP3    H117955   2.888   3.531   0.409 -0.6083 -0.7567  0.2128
 5983TIP3    H217956   2.833   3.651   0.335  1.2888 -0.3068 -0.5309
 5984TIP3   OH217957   4.178   4.972   0.952 -0.2816  0.1647 -0.0002
 5984TIP3    H117958   4.163   5.053   1.000  0.2972 -0.4603  1.2725
 5984TIP3    H217959   4.096   4.923   0.960 -0.0279 -0.1512  0.8129
 5985TIP3   OH217960   5.546   5.930   3.149  0.5746  0.4695  0.2290
 5985TIP3    H117961   5.588   6.016   3.154  1.4247  0.0865 -0.0163
 5985TIP3    H217962   5.593   5.877   3.214  0.9012 -0.1363 -0.4807
 5986TIP3   OH217963   3.468   5.136   1.860 -0.1430 -0.0099  0.2270
 5986TIP3    H117964   3.552   5.137   1.907 -1.0120 -0.0743  1.8610
 5986TIP3    H217965   3.474   5.208   1.798  1.1131 -0.0086  0.3326
 5987TIP3   OH217966   2.738   0.767   2.399  0.4116 -0.1361 -0.3504
 5987TIP3    H117967   2.785   0.802   2.474  0.3560 -0.6935 -0.0510
 5987TIP3    H217968   2.645   0.782   2.420  0.4390  1.4205 -1.1646
 5988TIP3   OH217969   5.064   3.448   3.338  0.0472 -0.6447 -0.1124
 5988TIP3    H117970   5.011   3.475   3.413 -0.5110  1.1622 -1.1114
 5988TIP3    H217971   5.050   3.353   3.333 -1.5299 -0.5102  0.8352
 5989TIP3   OH217972   0.010   1.970   2.640 -0.0455 -0.5627  0.1739
 5989TIP3    H117973   0.027   2.006   2.727  1.6792 -0.8440 -0.0192
 5989TIP3    H217974   0.076   2.011   2.584 -0.0733 -1.6415 -0.6725
 5990TIP3   OH217975   2.068   2.979   3.242  0.2453 -0.5035 -0.7178
 5990TIP3    H117976   2.053   3.048   3.177  0.3321  1.0828  0.8710
 5990TIP3    H217977   2.153   2.942   3.218  0.9934  1.0976 -0.6480
 5991TIP3   OH217978   2.004   1.702   3.635 -0.3492  0.5538 -0.1770
 5991TIP3    H117979   1.914   1.680   3.611  0.1672 -1.7379 -0.2250
 5991TIP3    H217980   1.999   1.793   3.664 -2.5649  0.6691 -0.7224
 5992TIP3   OH217981   5.086   0.741   1.971 -0.1853  0.5603 -0.1320
 5992TIP3    H117982   5.020   0.711   1.909 -0.7133 -1.2354  1.1929
 5992TIP3    H217983   5.103   0.664   2.026 -0.1880  2.1712  2.2859
 5993TIP3   OH217984   4.775   3.368   0.553 -0.3260  0.5943  0.2913
 5993TIP3    H117985   4.865   3.398   0.566 -0.4149  1.0209 -0.0810
 5993TIP3    H217986   4.770   3.288   0.605  0.5993 -0.0475 -0.5580
 5994TIP3   OH217987   0.075   0.063   3.701  0.3038  0.8378  0.2135
 5994TIP3    H117988   0.016   0.019   3.763  0.1604 -0.5076 -0.8409
 5994TIP3    H217989   0.158   0.015   3.709 -0.0210 -0.0185 -1.3667
 5995TIP3   OH217990   5.131   0.277   4.737  0.1319  0.3907  0.3076
 5995TIP3    H117991   5.129   0.260   4.831  2.9066 -0.0841  0.3763
 5995TIP3    H217992   5.154   0.370   4.730 -1.1811  0.7181  0.0499
 5996TIP3   OH217993   1.676   0.567   4.266 -0.0665 -0.2994 -0.3836
 5996TIP3    H117994   1.606   0.606   4.319  0.7450  1.2064 -0.3716
 5996TIP3    H217995   1.729   0.642   4.238 -0.2969 -1.0531 -3.1055
 5997TIP3   OH217996   2.431   1.449   2.505 -0.0250 -0.2640  0.4918
 5997TIP3    H117997   2.452   1.358   2.483  1.5296  0.5219 -1.5792
 5997TIP3    H217998   2.516   1.493   2.508 -0.8707  1.5310 -0.5402
 5998TIP3   OH217999   5.203   2.214   2.319 -0.1878  0.4493  0.0818
 5998TIP3    H118000   5.243   2.269   2.251  0.8640  2.2653  2.0437
 5998TIP3    H218001   5.110   2.216   2.299 -0.0364  1.9877 -0.6265
 5999TIP3   OH218002   4.181   4.639   3.800 -0.4346 -0.1525 -0.2018
 5999TIP3    H118003   4.199   4.546   3.796  0.5996  0.0675 -0.8281
 5999TIP3    H218004   4.107   4.652   3.741 -0.9091 -0.6464  0.2760
 6000TIP3   OH218005   2.483   1.895   1.397 -0.5929  0.2293  0.0154
 6000TIP3    H118006   2.438   1.820   1.359 -1.5009  1.3126 -1.1132
 6000TIP3    H218007   2.536   1.930   1.326 -2.2027  2.2009 -0.3117
 6001TIP3   OH218008   2.735   3.666   3.180  0.0145 -0.2812  0.0035
 6001TIP3    H118009   2.675   3.619   3.239  1.4715  0.3514  2.1218
 6001TIP3    H218010   2.677   3.706   3.115 -1.7829 -0.6102  1.3029
 6002TIP3   OH218011   4.475   0.921   0.537  0.2811 -0.5147  0.0103
 6002TIP3    H118012   4.535   0.863   0.489 -2.1507 -1.8310 -1.6385
 6002TIP3    H218013   4.419   0.959   0.470 -1.3895 -0.1303  1.5499
 6003TIP3   OH218014   1.349   0.615   0.103 -0.7548 -0.0771  0.4100
 6003TIP3    H118015   1.378   0.615   0.012  0.6553 -0.2817  0.8398
 6003TIP3    H218016   1.419   0.570   0.150 -2.1011 -1.1987  1.4082
 6004TIP3   OH218017   2.037   3.050   4.538 -0.1546  0.2318 -0.0564
 6004TIP3    H118018   2.131   3.046   4.555  0.0462  2.8900 -0.0647
 6004TIP3    H218019   2.013   2.961   4.513  2.3859 -0.4751 -0.2509
 6005TIP3   OH218020   3.140   0.720   0.547  0.6865  0.1562  0.2782
 6005TIP3    H118021   3.059   0.672   0.562  0.0565  1.2597  0.5405
 6005TIP3    H218022   3.111   0.810   0.528  1.8551  0.6390  0.6841
 6006TIP3   OH218023   4.556   4.934   2.183  0.0785 -0.3107  0.5479
 6006TIP3    H118024   4.634   4.957   2.233  0.0956 -0.1960  0.4698
 6006TIP3    H218025   4.515   4.864   2.233 -0.1104  0.0629  0.9274
 6007TIP3   OH218026   0.077   2.339   1.870  0.2896  0.1066 -0.4755
 6007TIP3    H118027   0.070   2.247   1.896 -0.7684  0.8635  2.3326
 6007TIP3    H218028  -0.009   2.360   1.835  0.7552 -0.1141 -1.8013
 6008TIP3   OH218029   3.826   4.413   0.696 -0.1457 -0.0131  0.2221
 6008TIP3    H118030   3.767   4.380   0.628  0.1774  1.6617 -0.9355
 6008TIP3    H218031   3.913   4.413   0.655 -0.2614  3.2262 -0.3269
 6009TIP3   OH218032   0.115   0.017   4.182  0.2112  0.7984 -0.2297
 6009TIP3    H118033   0.106   0.108   4.211  0.4390  0.9474 -0.6135
 6009TIP3    H218034   0.027  -0.007   4.152 -0.7166 -0.2044  2.8972
 6010TIP3   OH218035   3.542   4.926   3.023  0.1502 -0.1677  0.0312
 6010TIP3    H118036   3.638   4.925   3.028  0.1622 -0.8856 -0.2605
 6010TIP3    H218037   3.521   5.015   2.994  0.9115 -0.8483 -2.9305
 6011TIP3   OH218038   5.308   0.086   4.427  0.6214 -0.7918 -0.1860
 6011TIP3    H118039   5.339  -0.002   4.449  1.3104 -0.3401  0.6810
 6011TIP3    H218040   5.212   0.079   4.431  0.6870 -1.1976  1.1623
 6012TIP3   OH218041   4.798   3.804   4.269  0.1582  0.1229 -0.1291
 6012TIP3    H118042   4.862   3.822   4.338  0.0502  1.9950 -0.4589
 6012TIP3    H218043   4.843   3.745   4.209  0.8016 -0.2900  0.7461
 6013TIP3   OH218044   5.635  -0.028   0.089 -0.1689  0.3624  0.3708
 6013TIP3    H118045   5.705   0.024   0.049 -0.4981  0.6438  0.1518
 6013TIP3    H218046   5.572   0.037   0.120 -0.6277  0.0878  0.0141
 6014TIP3   OH218047   4.492   2.992   0.306 -0.3702 -0.6259 -0.2387
 6014TIP3    H118048   4.515   3.074   0.261  2.6785  0.0401  2.1294
 6014TIP3    H218049   4.398   2.999   0.323 -0.2438  2.3629 -0.2597
 6015TIP3   OH218050   4.741   1.401   2.601 -0.4872  0.1956 -0.6985
 6015TIP3    H118051   4.810   1.336   2.614 -0.7017 -0.3993 -2.2314
 6015TIP3    H218052   4.784   1.485   2.615 -0.2730 -0.2312  1.6392
 6016TIP3   OH218053   1.452   2.530   4.894 -0.4093 -0.8327 -0.2097
 6016TIP3    H118054   1.361   2.535   4.866  0.2379 -0.1218 -2.3901
 6016TIP3    H218055   1.495   2.602   4.849  1.8444 -3.0706 -1.9574
 6017TIP3   OH218056   4.474   3.530   3.719 -0.4809  0.0449 -0.1047
 6017TIP3    H118057   4.556   3.577   3.735  2.2518 -3.8486 -1.1221
 6017TIP3    H218058   4.459   3.480   3.799 -1.5804  0.2778 -0.1486
 6018TIP3   OH218059   5.938   3.330   0.780 -0.4106 -0.3105  0.2895
 6018TIP3    H118060   5.947   3.393   0.708  0.4393  0.0415  0.6927
 6018TIP3    H218061   5.904   3.251   0.738 -1.4626  0.3942 -0.2265
 6019TIP3   OH218062   3.553   4.653   0.103  0.0875  1.2314  0.2062
 6019TIP3    H118063   3.555   4.671   0.009  0.1923  0.3052  0.0169
 6019TIP3    H218064   3.495   4.577   0.112 -2.4958  3.1828  1.2599
 6020TIP3   OH218065   2.445   2.816   0.013 -0.2556  0.4757  0.2095
 6020TIP3    H118066   2.535   2.798   0.039 -0.6254 -1.7436  0.1606
 6020TIP3    H218067   2.392   2.756   0.067 -1.5060  0.2244 -1.2312
 6021TIP3   OH218068   1.599   1.774   1.385  0.1637  0.3625 -0.0516
 6021TIP3    H118069   1.640   1.796   1.301  0.4608 -1.6345 -0.4918
 6021TIP3    H218070   1.660   1.713   1.426 -0.3149  0.7711  1.3048
 6022TIP3   OH218071   0.147   3.401   1.688 -0.2173  0.1437  0.4331
 6022TIP3    H118072   0.239   3.376   1.680 -0.1503  0.4940  0.0582
 6022TIP3    H218073   0.099   3.319   1.686  0.2085 -0.2147  2.6263
 6023TIP3   OH218074   6.068   5.571   3.362 -0.1893  0.4521  0.3011
 6023TIP3    H118075   6.030   5.584   3.449 -2.1988  0.8066 -0.5798
 6023TIP3    H218076   5.997   5.589   3.301  1.5412  1.6778 -1.5055
 6024TIP3   OH218077   1.965   1.989   0.998  0.0457 -0.6612  0.3540
 6024TIP3    H118078   1.906   1.925   0.960 -0.3494  0.2392 -0.6107
 6024TIP3    H218079   1.972   2.058   0.932  0.5127  0.2570  1.3191
 6025TIP3   OH218080   0.774   3.818   4.167  0.8002  0.1915  0.2764
 6025TIP3    H118081   0.686   3.813   4.130  0.8317  1.2113  0.0420
 6025TIP3    H218082   0.811   3.730   4.153  0.4328  0.2447 -1.1557
 6026TIP3   OH218083   1.244   0.257   4.343 -0.5231 -0.0781  0.3252
 6026TIP3    H118084   1.202   0.185   4.296 -0.5115 -1.1513  1.8833
 6026TIP3    H218085   1.327   0.271   4.297 -0.2308 -1.5017  0.3792
 6027TIP3   OH218086   5.935   3.719   4.654  0.0374 -0.0569  0.3694
 6027TIP3    H118087   6.010   3.717   4.714 -0.0671  1.0559  0.5531
 6027TIP3    H218088   5.974   3.729   4.568  0.1362 -0.4968  0.3590
 6028TIP3   OH218089   3.274   3.707   4.028  0.1230  0.1312  0.4419
 6028TIP3    H118090   3.324   3.680   4.106  0.7109 -1.2743 -0.3940
 6028TIP3    H218091   3.208   3.639   4.017 -0.3687  0.6619  0.0735
 6029TIP3   OH218092   2.074   3.843   2.831 -0.7906  0.0121 -0.1131
 6029TIP3    H118093   2.150   3.851   2.889 -0.6801  1.0976 -0.3833
 6029TIP3    H218094   2.092   3.904   2.760 -0.7756 -1.5415 -1.4970
 6030TIP3   OH218095   5.820   1.426   3.404 -0.2781 -0.5215 -0.3226
 6030TIP3    H118096   5.737   1.437   3.359  0.1711  2.2865 -0.6242
 6030TIP3    H218097   5.818   1.489   3.477  1.8152  0.1854 -0.7817
 6031TIP3   OH218098   3.784   4.989   1.317  0.1952 -0.0752 -0.0704
 6031TIP3    H118099   3.843   5.059   1.342  0.1100 -0.2583  0.6681
 6031TIP3    H218100   3.702   5.009   1.363  0.5808 -1.3672  1.2671
 6032TIP3   OH218101   6.278   5.448   0.552 -0.0927  0.0717  0.0570
 6032TIP3    H118102   6.226   5.479   0.478 -1.2102 -0.9747  0.3706
 6032TIP3    H218103   6.213   5.419   0.616  0.8634  0.2224  1.1282
 6033TIP3   OH218104   5.682   2.837   4.838  0.1438  0.0151  0.0047
 6033TIP3    H118105   5.663   2.873   4.751 -1.2798  1.0365  0.7024
 6033TIP3    H218106   5.777   2.848   4.848  0.3678 -0.2983 -1.4740
 6034TIP3   OH218107   1.342   0.424   2.122  0.2524 -0.1464 -0.0636
 6034TIP3    H118108   1.408   0.459   2.061  0.7741 -1.7549 -0.4881
 6034TIP3    H218109   1.340   0.330   2.102 -0.0324 -0.6096  1.9741
 6035TIP3   OH218110   1.451   3.614   4.922  0.2091  0.5277  0.0751
 6035TIP3    H118111   1.521   3.553   4.945 -0.5206 -0.4062 -0.0947
 6035TIP3    H218112   1.478   3.649   4.837  0.9751  0.9847  0.4926
 6036TIP3   OH218113   1.150   3.057   2.740 -0.7547 -0.1184 -0.4979
 6036TIP3    H118114   1.056   3.060   2.755 -0.7603 -0.3101 -0.5039
 6036TIP3    H218115   1.160   3.045   2.646 -0.7402 -2.1227 -0.2712
 6037TIP3   OH218116   3.693   4.573   2.808 -0.1907  0.1076 -0.4591
 6037TIP3    H118117   3.625   4.556   2.873  0.4914 -2.5777 -0.3505
 6037TIP3    H218118   3.742   4.648   2.844 -0.7379 -0.3703  1.3833
 6038TIP3   OH218119   6.343   4.674   5.063  0.2477  0.2982  1.1737
 6038TIP3    H118120   6.356   4.767   5.043  0.8560  0.3294  1.6741
 6038TIP3    H218121   6.251   4.658   5.043  0.3205  0.8180  0.3442
 6039TIP3   OH218122   6.248   3.466   4.956 -0.2551 -0.1079  0.7308
 6039TIP3    H118123   6.290   3.486   5.040  1.5038 -2.3720  0.4927
 6039TIP3    H218124   6.252   3.549   4.907  1.8863  0.3745  1.6061
 6040TIP3   OH218125   2.009   4.465   0.275  0.0390  0.7827  0.3832
 6040TIP3    H118126   1.922   4.427   0.286  0.6733 -0.6929  0.4542
 6040TIP3    H218127   2.011   4.494   0.183 -0.3579  0.4001  0.2513
 6041TIP3   OH218128   5.531   2.946   2.946 -0.0755  0.3546 -0.3597
 6041TIP3    H118129   5.498   2.871   2.897  1.2746  0.0048 -0.7681
 6041TIP3    H218130   5.537   3.017   2.882 -0.9690  0.7109 -0.0631
 6042TIP3   OH218131   5.953   5.065   2.140  0.1141  0.1273  0.2552
 6042TIP3    H118132   6.045   5.067   2.167  0.3678 -2.5660 -0.0536
 6042TIP3    H218133   5.904   5.094   2.217  1.1514 -0.3919  1.1250
 6043TIP3   OH218134   6.313   4.927   1.370  0.7812  1.0081  0.1605
 6043TIP3    H118135   6.235   4.870   1.371  0.5161  1.1947 -2.4366
 6043TIP3    H218136   6.288   5.002   1.423  0.2276 -0.1652  1.6279
 6044TIP3   OH218137   1.251   2.992   0.994  0.2327  0.2074 -0.5235
 6044TIP3    H118138   1.330   3.038   0.966 -1.0244  1.8696 -1.4891
 6044TIP3    H218139   1.192   2.997   0.919 -0.9470 -0.7002  0.2986
 6045TIP3   OH218140   1.255   1.107   2.785  0.5401 -0.2530 -0.1135
 6045TIP3    H118141   1.282   1.180   2.841  0.2926  0.0115 -0.3335
 6045TIP3    H218142   1.232   1.148   2.702  0.1517 -0.5551 -0.1566
 6046TIP3   OH218143   5.744   3.382   2.646  0.0512  0.0357  0.0569
 6046TIP3    H118144   5.757   3.403   2.553 -0.6253 -1.1330 -0.3291
 6046TIP3    H218145   5.821   3.329   2.669 -0.6726 -1.2542 -0.3805
 6047TIP3   OH218146   3.755   1.709   1.025  0.2420 -0.3676  0.6644
 6047TIP3    H118147   3.797   1.632   1.063 -0.4583  0.0772  2.4868
 6047TIP3    H218148   3.822   1.777   1.029  0.8576 -0.8364 -0.9369
 6048TIP3   OH218149   2.799   2.730   1.452 -0.1847  0.3715  0.2667
 6048TIP3    H118150   2.764   2.652   1.407  1.1540  0.4662 -1.0297
 6048TIP3    H218151   2.753   2.803   1.411  0.4531  0.4079 -0.4004
 6049TIP3   OH218152   2.615   5.592   2.374 -0.1597  0.1541  0.1333
 6049TIP3    H118153   2.560   5.668   2.355 -2.8929 -1.6782  0.2104
 6049TIP3    H218154   2.657   5.613   2.457 -1.2879  1.3726  0.4263
 6050TIP3   OH218155   4.515   5.511   3.976  0.3818 -0.6853  0.1117
 6050TIP3    H118156   4.480   5.489   4.063 -0.1815 -0.5589 -0.0739
 6050TIP3    H218157   4.555   5.597   3.988  0.7418 -0.8829  0.3561
 6051TIP3   OH218158   4.718   3.891   0.662 -0.2382  0.5914  0.1240
 6051TIP3    H118159   4.788   3.827   0.675  1.5546  2.6275  1.0736
 6051TIP3    H218160   4.663   3.852   0.594  1.8917 -1.0474 -0.7815
 6052TIP3   OH218161   2.077   2.440   4.216 -0.0420  0.2458 -0.1747
 6052TIP3    H118162   2.168   2.439   4.245  0.1977  0.2814 -0.8969
 6052TIP3    H218163   2.026   2.434   4.296  0.5922  0.6513  0.2683
 6053TIP3   OH218164   2.912   3.917   1.306 -0.3384  0.0225 -0.8951
 6053TIP3    H118165   2.818   3.919   1.325 -0.3841  0.8552 -1.1544
 6053TIP3    H218166   2.947   3.848   1.363 -0.8486  0.8206  0.4365
 6054TIP3   OH218167   2.586   5.642   3.764 -0.3480  0.1108  0.9534
 6054TIP3    H118168   2.544   5.620   3.681  0.4911 -1.1739  0.8383
 6054TIP3    H218169   2.679   5.646   3.744 -0.1263 -0.2831  1.8339
 6055TIP3   OH218170   0.946   5.590   5.099  0.0825  0.1934 -0.1472
 6055TIP3    H118171   0.951   5.523   5.030 -0.3990  0.0564 -0.0486
 6055TIP3    H218172   0.998   5.554   5.171 -1.8762 -1.0535  0.7263
 6056TIP3   OH218173   5.052   5.051   4.570 -0.0893 -0.4368  0.4911
 6056TIP3    H118174   4.969   5.061   4.525 -0.1332  0.6889  0.7967
 6056TIP3    H218175   5.081   4.963   4.548 -1.0308 -0.5909 -0.1676
 6057TIP3   OH218176   0.450   1.475   2.080 -0.0993  0.3834 -0.1325
 6057TIP3    H118177   0.482   1.425   2.155  0.8227  0.3729 -0.5141
 6057TIP3    H218178   0.366   1.434   2.057  0.2419 -0.4572  0.0792
 6058TIP3   OH218179   2.497   5.874   0.124  0.0028 -0.1780  0.2527
 6058TIP3    H118180   2.568   5.812   0.106 -0.8772 -1.0235 -0.3832
 6058TIP3    H218181   2.482   5.918   0.041  0.4667  0.7468  0.6444
 6059TIP3   OH218182   6.326   5.741   4.823  0.2283 -0.4951  0.1294
 6059TIP3    H118183   6.249   5.685   4.812  0.5509 -0.7747 -0.7757
 6059TIP3    H218184   6.318   5.774   4.913 -0.4213 -1.3127  0.3957
 6060TIP3   OH218185   0.517   5.131   5.023  0.3059 -0.8040 -0.4194
 6060TIP3    H118186   0.422   5.120   5.018  0.1214  0.2407  0.3747
 6060TIP3    H218187   0.530   5.200   5.088  1.6221 -1.0339 -0.4012
 6061TIP3   OH218188   5.015   0.278   4.467 -0.2843  0.2239  0.0529
 6061TIP3    H118189   5.019   0.194   4.422  0.6319  0.7227 -0.8336
 6061TIP3    H218190   5.078   0.270   4.539  0.9360  0.6330 -0.9259
 6062TIP3   OH218191   3.800   3.875   2.325 -0.2369  0.3746 -0.1272
 6062TIP3    H118192   3.732   3.847   2.386 -0.3517  1.9785  0.5306
 6062TIP3    H218193   3.880   3.831   2.355 -0.5721  0.0803  0.3446
 6063TIP3   OH218194   5.904   4.502   1.650  0.4477 -0.0849 -0.5334
 6063TIP3    H118195   5.892   4.576   1.711 -3.2615 -1.3113  0.5489
 6063TIP3    H218196   5.916   4.543   1.565  0.6355  1.7505  0.3175
 6064TIP3   OH218197   2.072   1.437   3.572  0.1230 -0.2888  0.0136
 6064TIP3    H118198   2.057   1.531   3.585 -0.7480 -0.2314 -1.1641
 6064TIP3    H218199   2.007   1.412   3.506  1.1533 -1.4672 -0.5926
 6065TIP3   OH218200   2.084   4.226   1.518  0.2653 -0.1347 -0.0437
 6065TIP3    H118201   2.135   4.167   1.462  0.3419  0.1400 -0.2650
 6065TIP3    H218202   1.994   4.218   1.486  0.7132  2.3319 -2.3080
 6066TIP3   OH218203   2.538   5.282   4.699  0.2913  0.0993  0.1604
 6066TIP3    H118204   2.603   5.278   4.769 -1.1787 -1.4874  1.5148
 6066TIP3    H218205   2.485   5.359   4.719  0.7958  0.5078 -0.0689
 6067TIP3   OH218206   5.891   5.034   4.009  0.0613 -0.1783 -0.2806
 6067TIP3    H118207   5.971   5.083   4.029  0.2102 -0.5264 -0.0250
 6067TIP3    H218208   5.879   5.046   3.915  1.1678 -1.2388 -0.5907
 6068TIP3   OH218209   3.522   2.074   1.213  0.1914  0.1212  0.7276
 6068TIP3    H118210   3.561   2.076   1.125 -0.6026 -0.8402  0.3317
 6068TIP3    H218211   3.518   1.981   1.236  0.5860  0.3744  1.8915
 6069TIP3   OH218212   5.802   3.462   2.378 -0.4648 -0.2094  0.0752
 6069TIP3    H118213   5.768   3.428   2.295  3.5898  0.5720 -2.1773
 6069TIP3    H218214   5.856   3.537   2.352  1.5630 -0.3616  3.3256
 6070TIP3   OH218215   0.476   5.544   3.386  0.2539  0.1063 -0.3891
 6070TIP3    H118216   0.523   5.536   3.469 -0.8785 -0.3461  0.2177
 6070TIP3    H218217   0.525   5.488   3.326 -0.3499 -1.5893  0.6308
 6071TIP3   OH218218   5.680   1.883   3.717 -0.2180  0.5303  0.3841
 6071TIP3    H118219   5.654   1.874   3.808  0.0366 -0.3611  0.3714
 6071TIP3    H218220   5.633   1.962   3.687 -4.3227 -1.7956 -0.1179
 6072TIP3   OH218221   4.897   4.818   4.677 -0.2931 -0.0861  0.4345
 6072TIP3    H118222   4.899   4.904   4.637 -0.5324  0.5947  1.8361
 6072TIP3    H218223   4.828   4.824   4.744 -2.5769 -2.2943 -1.4826
 6073TIP3   OH218224   5.385   0.808   1.366  0.9420 -0.0134  0.2440
 6073TIP3    H118225   5.346   0.721   1.374 -1.0717  0.7682 -0.3658
 6073TIP3    H218226   5.474   0.798   1.399  1.7432 -2.9309 -2.3486
 6074TIP3   OH218227   1.318   5.952   1.035  0.5297 -0.0237 -0.5577
 6074TIP3    H118228   1.256   5.900   0.984  0.8107 -0.7664 -0.1635
 6074TIP3    H218229   1.270   5.975   1.115  0.3963  0.3441 -0.7445
 6075TIP3   OH218230   2.157   1.040   3.754  0.0662 -0.3970  0.2144
 6075TIP3    H118231   2.178   1.010   3.842  0.8055 -0.6779 -0.0493
 6075TIP3    H218232   2.188   1.131   3.752  1.9146 -0.9820 -0.3576
 6076TIP3   OH218233   2.466   1.139   0.024 -0.2076 -0.1952  0.0132
 6076TIP3    H118234   2.390   1.159   0.078 -0.5012  1.3340 -0.9199
 6076TIP3    H218235   2.458   1.196  -0.052  1.3133 -0.7743 -0.6288
 6077TIP3   OH218236   3.776   5.390   1.899 -0.0260  0.5912 -0.2433
 6077TIP3    H118237   3.756   5.450   1.970  0.3625  2.0336 -1.2934
 6077TIP3    H218238   3.693   5.375   1.855  0.0400  1.1712 -0.5722
 6078TIP3   OH218239   2.756   2.256   4.210 -0.8270  0.1936  0.7532
 6078TIP3    H118240   2.851   2.251   4.222 -0.7989  1.1574  1.0206
 6078TIP3    H218241   2.726   2.166   4.223  0.2027 -0.4362 -0.8035
 6079TIP3   OH218242   2.873   5.124   4.385 -0.3049 -0.2540 -0.0844
 6079TIP3    H118243   2.952   5.149   4.434 -1.1924  0.6371  0.9390
 6079TIP3    H218244   2.895   5.141   4.294  0.5987  0.2414  0.2094
 6080TIP3   OH218245   5.863   1.166   3.824  0.5345 -0.0319 -0.3122
 6080TIP3    H118246   5.932   1.108   3.856  0.7593 -0.0570 -0.8293
 6080TIP3    H218247   5.904   1.215   3.752 -0.5452 -1.4948 -2.0002
 6081TIP3   OH218248   2.301   3.058   4.581  0.4668  0.2673 -0.2697
 6081TIP3    H118249   2.343   3.142   4.600  0.0182  0.4216  0.0751
 6081TIP3    H218250   2.373   2.994   4.583  0.6680  0.4961  0.5141
 6082TIP3   OH218251   4.002   2.870   0.809 -0.0825  0.3513  0.0503
 6082TIP3    H118252   3.961   2.818   0.740 -0.8085  1.7132 -0.5835
 6082TIP3    H218253   4.086   2.897   0.773  0.6684 -0.9930  0.6903
 6083TIP3   OH218254   0.755   0.169   3.359 -0.2994 -0.2495  0.8614
 6083TIP3    H118255   0.730   0.093   3.306 -3.5245 -0.8235  2.8750
 6083TIP3    H218256   0.813   0.134   3.426  0.0841 -0.4516  0.4279
 6084TIP3   OH218257   0.552   3.488   3.945  0.0902  0.1731  0.2850
 6084TIP3    H118258   0.624   3.540   3.981 -0.5178  0.8690  0.5242
 6084TIP3    H218259   0.576   3.475   3.853  1.1220 -0.6774  0.6570
 6085TIP3   OH218260   6.176   4.039   4.689  0.3643 -0.1456  0.0500
 6085TIP3    H118261   6.260   4.084   4.680  1.2650 -1.9808 -1.3244
 6085TIP3    H218262   6.198   3.952   4.724 -1.0865 -0.3405  0.5846
 6086TIP3   OH218263   4.468   0.258   4.800  0.5334  0.5502  0.5789
 6086TIP3    H118264   4.449   0.211   4.881 -1.2350 -0.0518 -0.1256
 6086TIP3    H218265   4.383   0.262   4.755  1.3918  1.2382 -1.0424
 6087TIP3   OH218266   4.760   1.980   4.447  0.3164  0.5753  0.0431
 6087TIP3    H118267   4.758   1.890   4.415 -0.4144  0.2628  0.9139
 6087TIP3    H218268   4.709   2.029   4.383 -1.2380 -0.0607  0.7433
 6088TIP3   OH218269   0.041   3.155   0.697  0.6789  0.1661 -0.3196
 6088TIP3    H118270   0.009   3.068   0.675  0.4101  0.3953 -0.8659
 6088TIP3    H218271   0.136   3.148   0.691  0.7664 -0.5599  1.4691
 6089TIP3   OH218272   1.348   1.287   5.217  0.4898 -0.0440 -0.2731
 6089TIP3    H118273   1.297   1.364   5.193  0.6343 -0.0413 -0.5731
 6089TIP3    H218274   1.410   1.275   5.145  0.9481 -0.0130  0.1121
 6090TIP3   OH218275   3.695   4.153   0.840  0.6052 -0.1239 -0.2393
 6090TIP3    H118276   3.725   4.083   0.897  1.8683 -0.0553 -0.7789
 6090TIP3    H218277   3.607   4.175   0.872  0.8628 -0.8006  0.9801
 6091TIP3   OH218278   6.209   3.840   0.092  0.5683  0.0579  0.5992
 6091TIP3    H118279   6.260   3.899   0.147  1.3050 -1.5692  1.7148
 6091TIP3    H218280   6.268   3.815   0.021 -0.4504  2.3429 -1.2244
 6092TIP3   OH218281   4.407   2.544   4.418 -0.0058  0.5276 -0.1487
 6092TIP3    H118282   4.471   2.531   4.348  0.8418 -0.2017  0.7403
 6092TIP3    H218283   4.414   2.638   4.439 -0.9896  0.9870 -1.6827
 6093TIP3   OH218284   5.331   1.314   2.481  0.1322 -0.4123 -0.4508
 6093TIP3    H118285   5.374   1.394   2.509  0.5749 -0.1207 -1.8654
 6093TIP3    H218286   5.374   1.292   2.398 -0.0637 -2.0425 -0.1502
 6094TIP3   OH218287   0.030   1.492   0.666 -0.3420  0.4777  0.6268
 6094TIP3    H118288   0.089   1.516   0.737  0.3885  0.5391  0.0115
 6094TIP3    H218289   0.069   1.413   0.628  1.7311  2.7246 -2.4140
 6095TIP3   OH218290   0.014   4.648   1.316  0.3215 -0.0124  0.5061
 6095TIP3    H118291   0.083   4.688   1.370  1.9779 -2.0903  0.0718
 6095TIP3    H218292   0.061   4.591   1.256 -1.6652  0.3137 -1.4949
 6096TIP3   OH218293   1.182   4.437   2.600 -0.3968 -0.3847  0.1649
 6096TIP3    H118294   1.256   4.424   2.660  0.5268  2.4299 -0.2454
 6096TIP3    H218295   1.149   4.348   2.584  1.9834 -1.6061  1.4689
 6097TIP3   OH218296   1.472   3.339   2.159  0.2450  0.2672  0.5065
 6097TIP3    H118297   1.512   3.386   2.086 -1.9546  2.6930  0.6917
 6097TIP3    H218298   1.423   3.407   2.206  0.0787 -1.5697  3.1649
 6098TIP3   OH218299   2.528   0.945   3.264 -0.0647 -0.1050  0.2045
 6098TIP3    H118300   2.495   1.033   3.282  1.0158  0.1968  0.8656
 6098TIP3    H218301   2.498   0.893   3.338  1.7173  0.4075  1.3603
 6099TIP3   OH218302   0.522   0.770   5.173  0.4173  0.2504 -0.2100
 6099TIP3    H118303   0.498   0.706   5.105  1.2083 -1.2017  0.8183
 6099TIP3    H218304   0.597   0.730   5.217 -0.3243  0.9810  1.7889
 6100TIP3   OH218305   5.457   3.555   1.425  0.2663  0.5087 -0.7072
 6100TIP3    H118306   5.369   3.555   1.388  0.3111  0.8115 -0.8183
 6100TIP3    H218307   5.501   3.483   1.381  0.1759  0.5700 -0.9006
 6101TIP3   OH218308   2.454   0.549   3.755  0.3107  0.2113 -0.0172
 6101TIP3    H118309   2.494   0.632   3.731  1.1763 -0.0777  0.3740
 6101TIP3    H218310   2.432   0.559   3.848  0.0444  0.1504 -0.0740
 6102TIP3   OH218311   4.245   5.837   2.291  0.0673 -0.3039 -0.0200
 6102TIP3    H118312   4.300   5.868   2.219 -1.2844  1.3498 -0.4101
 6102TIP3    H218313   4.216   5.750   2.262 -0.7652  0.4774 -1.7310
 6103TIP3   OH218314   1.538   2.483   2.776  0.5011  0.1486 -0.1675
 6103TIP3    H118315   1.455   2.442   2.752 -0.6469  1.9354  0.5076
 6103TIP3    H218316   1.572   2.518   2.693  1.9958 -2.8451 -0.9323
 6104TIP3   OH218317   1.685   3.460   4.968  0.2161 -0.0168  0.3219
 6104TIP3    H118318   1.761   3.412   4.936 -0.0478 -0.3729  0.2200
 6104TIP3    H218319   1.681   3.438   5.061  0.5907  0.4832  0.4565
 6105TIP3   OH218320   2.251   5.193   1.603 -0.1955  0.0878 -0.0968
 6105TIP3    H118321   2.175   5.134   1.607  0.4328 -0.7377 -0.2477
 6105TIP3    H218322   2.214   5.277   1.574 -0.9384 -0.4979 -0.8878
 6106TIP3   OH218323   1.089   4.008   3.655  0.0565 -0.3045 -0.8772
 6106TIP3    H118324   1.125   4.056   3.580  1.6113  0.0861  0.0698
 6106TIP3    H218325   1.065   4.076   3.717 -2.5881 -0.5488 -1.5259
 6107TIP3   OH218326   1.095   5.751   2.303  0.4499 -0.5344  0.2271
 6107TIP3    H118327   1.077   5.663   2.268 -2.3540  0.4004 -0.9921
 6107TIP3    H218328   1.119   5.803   2.227  0.2803  0.1684  0.6429
 6108TIP3   OH218329   5.837   0.889   3.030  0.2343  0.1654 -0.9228
 6108TIP3    H118330   5.867   0.799   3.031  0.0013  0.0859 -0.9108
 6108TIP3    H218331   5.910   0.939   2.994  0.5907  0.0557 -0.3607
 6109TIP3   OH218332   5.390   4.257   3.123 -0.3919 -0.0931 -0.0088
 6109TIP3    H118333   5.466   4.266   3.181 -0.3570 -0.2383 -0.0325
 6109TIP3    H218334   5.321   4.222   3.180 -0.2910 -0.4556 -0.1086
 6110TIP3   OH218335   0.551   1.529   4.814 -0.4846  0.2154 -0.2639
 6110TIP3    H118336   0.602   1.547   4.893  0.6212  1.4867 -1.2120
 6110TIP3    H218337   0.533   1.435   4.818 -1.8967  0.4887  2.2888
 6111TIP3   OH218338   2.596   5.990   0.562 -0.1704 -0.1424  1.0297
 6111TIP3    H118339   2.630   5.952   0.643  1.5744 -1.3744 -0.1941
 6111TIP3    H218340   2.535   5.925   0.528 -0.7505  0.2820  1.2449
 6112TIP3   OH218341   4.090   0.382   2.366 -0.4739  0.4090 -0.5240
 6112TIP3    H118342   4.142   0.349   2.440  1.2625 -0.5991 -2.1121
 6112TIP3    H218343   4.130   0.466   2.345 -0.2230  0.1729 -1.0102
 6113TIP3   OH218344   4.899   2.917   0.473  0.3863  0.3423 -0.4129
 6113TIP3    H118345   4.848   2.861   0.532  0.4725  0.3795 -0.3025
 6113TIP3    H218346   4.838   2.940   0.403 -0.0463  1.1945  0.2319
 6114TIP3   OH218347   5.831   2.075   4.820  0.2315 -0.0079  0.4654
 6114TIP3    H118348   5.762   2.140   4.835  0.7439  0.3821  1.2232
 6114TIP3    H218349   5.880   2.109   4.745  0.3057  0.3258  0.6617
 6115TIP3   OH218350   0.573   2.739   4.791  0.1228  0.7504  0.0443
 6115TIP3    H118351   0.652   2.731   4.738 -0.1902 -0.1226 -0.3045
 6115TIP3    H218352   0.501   2.740   4.728 -0.2227  0.2180  0.4220
 6116TIP3   OH218353   0.235   1.615   2.579 -0.3500  0.3399 -0.0775
 6116TIP3    H118354   0.151   1.572   2.560  0.1359 -0.1980 -1.0679
 6116TIP3    H218355   0.247   1.602   2.674 -0.4074 -1.4188 -0.2710
 6117TIP3   OH218356   2.650   1.202   1.936  0.4604 -0.7247 -0.0281
 6117TIP3    H118357   2.672   1.109   1.936 -0.0070 -0.8493  1.0363
 6117TIP3    H218358   2.609   1.217   2.021 -0.0066  0.3320 -0.4249
 6118TIP3   OH218359   1.334   3.682   1.066  0.1586 -0.5092  0.2582
 6118TIP3    H118360   1.410   3.728   1.032  0.5272 -1.5556 -0.3829
 6118TIP3    H218361   1.368   3.597   1.093 -0.9456 -1.3775 -0.9786
 6119TIP3   OH218362   0.960   0.026   1.134 -0.5466  0.3849  0.4847
 6119TIP3    H118363   0.984   0.050   1.223 -0.7180 -0.0772  0.6570
 6119TIP3    H218364   1.041   0.037   1.083 -0.7333  1.8085  0.4465
 6120TIP3   OH218365   5.910   3.998   1.127 -0.0098  0.1687 -0.0966
 6120TIP3    H118366   5.996   4.026   1.096 -0.6680  2.2138 -0.1814
 6120TIP3    H218367   5.898   4.043   1.210 -0.8202 -0.4587  0.1359
 6121TIP3   OH218368   6.121   1.438   3.058 -0.3241  0.4542  0.3637
 6121TIP3    H118369   6.029   1.413   3.072 -0.1217 -0.0591  0.8445
 6121TIP3    H218370   6.128   1.526   3.094 -0.4121  0.1254  1.2064
 6122TIP3   OH218371   2.802   1.255   1.713 -0.8665  0.1249  0.2592
 6122TIP3    H118372   2.871   1.320   1.720 -0.6330 -0.0734 -0.2054
 6122TIP3    H218373   2.765   1.249   1.802  0.6915 -0.8622  0.8788
 6123TIP3   OH218374   4.868   3.993   3.835  0.0439  0.1803  0.2142
 6123TIP3    H118375   4.792   3.944   3.802 -0.6551  0.9243  0.6649
 6123TIP3    H218376   4.896   4.046   3.761  0.0774 -0.0387  0.0684
 6124TIP3   OH218377   4.556   3.723   0.926  0.7342  0.3619 -0.0505
 6124TIP3    H118378   4.622   3.695   0.989  0.6320 -0.1118 -0.1519
 6124TIP3    H218379   4.527   3.642   0.884 -1.8238  0.1592  1.8489
 6125TIP3   OH218380   3.703   1.557   4.483 -0.1732  0.2476  0.5352
 6125TIP3    H118381   3.757   1.636   4.477  0.8923 -0.5429 -0.9533
 6125TIP3    H218382   3.751   1.492   4.433 -1.9760 -0.8257  0.1282
 6126TIP3   OH218383   3.908   2.405   3.837  0.1921 -0.0155 -0.2627
 6126TIP3    H118384   3.997   2.439   3.851  0.1133  0.4649 -0.9028
 6126TIP3    H218385   3.855   2.483   3.825 -0.0058 -0.3488 -1.6966
 6127TIP3   OH218386   5.345   1.933   5.118  0.3258 -0.4409  0.3442
 6127TIP3    H118387   5.388   1.886   5.189 -0.4913  0.5418  1.5436
 6127TIP3    H218388   5.389   2.018   5.115  1.0760 -0.8430 -1.0843
 6128TIP3   OH218389   3.878   0.314   5.020  0.1166  0.1723  0.0071
 6128TIP3    H118390   3.867   0.296   4.926  0.2356  0.3575 -0.0423
 6128TIP3    H218391   3.907   0.405   5.024  0.4245  0.0674  0.2060
 6129TIP3   OH218392   4.487   2.272   2.969 -0.1459  0.6307 -0.3123
 6129TIP3    H118393   4.490   2.246   2.877 -1.2416 -0.3890 -0.0847
 6129TIP3    H218394   4.561   2.227   3.009 -1.1198 -1.0055 -0.2322
 6130TIP3   OH218395   4.988   0.919   1.021 -0.2175  0.6210  0.2854
 6130TIP3    H118396   5.009   0.839   0.973 -1.8066 -0.5635  1.5001
 6130TIP3    H218397   4.907   0.951   0.982 -0.5889  0.6044  1.0264
 6131TIP3   OH218398   2.809   3.466   3.870 -0.3619  0.0597  0.2590
 6131TIP3    H118399   2.884   3.413   3.844 -0.8289 -0.9885  0.9915
 6131TIP3    H218400   2.800   3.530   3.799 -0.7868 -1.8630 -1.5310
 6132TIP3   OH218401   4.669   2.002   3.993  0.0295 -0.1539  0.1492
 6132TIP3    H118402   4.746   1.997   4.050  0.5365 -1.2558 -0.5908
 6132TIP3    H218403   4.657   2.095   3.976 -0.0274  0.1930  1.8924
 6133TIP3   OH218404   5.476   4.243   2.188 -0.0492  1.2974  0.4018
 6133TIP3    H118405   5.537   4.178   2.224  1.1658  2.2935  0.2280
 6133TIP3    H218406   5.457   4.211   2.099 -2.7172 -0.9351  1.6425
 6134TIP3   OH218407   2.908   5.452   2.569  1.0672  0.4517 -0.0612
 6134TIP3    H118408   2.998   5.424   2.551  0.1095 -2.0425 -1.5331
 6134TIP3    H218409   2.863   5.372   2.598 -0.8531  1.4345 -0.1500
 6135TIP3   OH218410   0.979   3.921   0.450  0.1689  0.0364 -0.4031
 6135TIP3    H118411   0.990   3.839   0.497 -2.1505 -0.4382 -0.5879
 6135TIP3    H218412   0.900   3.960   0.486 -1.6473 -0.2679 -3.6358
 6136TIP3   OH218413   3.766   0.523   4.188  0.2658  0.5040  0.0336
 6136TIP3    H118414   3.807   0.531   4.275 -2.1986 -0.2324  1.3653
 6136TIP3    H218415   3.702   0.594   4.186 -1.1080 -0.7180 -0.3295
 6137TIP3   OH218416   4.755   1.277   3.356 -0.4968  0.4715  0.6561
 6137TIP3    H118417   4.685   1.323   3.404 -0.8248  0.9453 -0.2398
 6137TIP3    H218418   4.710   1.205   3.312 -0.7732  1.7049 -1.2135
 6138TIP3   OH218419   0.322   3.177   2.101  0.3734  0.2746 -0.0974
 6138TIP3    H118420   0.383   3.221   2.160 -0.5518 -1.4890  2.3410
 6138TIP3    H218421   0.236   3.213   2.126  0.0720  0.3667 -1.2353
 6139TIP3   OH218422   3.486   4.129   2.835  0.0323  0.2594  0.2578
 6139TIP3    H118423   3.575   4.162   2.825 -0.0297  0.3558  0.0046
 6139TIP3    H218424   3.475   4.066   2.764 -1.1242  2.5059 -1.7169
 6140TIP3   OH218425   1.705   2.276   2.882  0.1977  0.0789  0.0898
 6140TIP3    H118426   1.653   2.355   2.868 -0.1832  0.0623  1.2673
 6140TIP3    H218427   1.664   2.234   2.958  0.2002 -1.4130 -0.6885
 6141TIP3   OH218428   4.610   2.411   1.148  0.2196  0.0832 -0.1554
 6141TIP3    H118429   4.583   2.445   1.063 -0.3692 -1.0860 -0.4580
 6141TIP3    H218430   4.677   2.345   1.127 -2.2741 -2.6914 -0.0635
 6142TIP3   OH218431   1.241   3.693   1.429 -0.8464  0.0767  0.9594
 6142TIP3    H118432   1.195   3.710   1.347  1.3718 -1.1444 -0.6463
 6142TIP3    H218433   1.246   3.598   1.435  1.8076  0.1178  0.7550
 6143TIP3   OH218434   2.385   4.487   4.599  0.1831  0.5538 -0.3848
 6143TIP3    H118435   2.341   4.411   4.559 -0.2226  0.7907 -0.3873
 6143TIP3    H218436   2.456   4.448   4.650 -0.0190  0.1694 -0.3879
 6144TIP3   OH218437   1.868   1.439   3.797 -0.1808 -0.9233 -0.3360
 6144TIP3    H118438   1.950   1.398   3.768 -1.0372 -1.3717 -2.2953
 6144TIP3    H218439   1.804   1.413   3.730 -1.3066  1.6410 -0.3471
 6145TIP3   OH218440   1.409   2.601   1.873 -0.2181  0.2607 -0.3252
 6145TIP3    H118441   1.461   2.523   1.895 -0.9087 -0.1189 -0.0092
 6145TIP3    H218442   1.391   2.592   1.780  1.2198  0.9679 -0.6962
 6146TIP3   OH218443   0.484   5.392   0.546 -0.6957 -0.4348 -0.1452
 6146TIP3    H118444   0.489   5.421   0.455 -1.1874  0.7119  0.1676
 6146TIP3    H218445   0.557   5.435   0.590 -0.9248 -0.3438  0.1579
 6147TIP3   OH218446   5.588   1.163   3.703 -0.2644 -0.2527  0.0425
 6147TIP3    H118447   5.606   1.160   3.609  0.6819 -1.4584  0.2422
 6147TIP3    H218448   5.667   1.200   3.742 -0.6219  0.1665  0.3927
 6148TIP3   OH218449   3.584   1.567   3.963 -0.4508 -0.3886 -0.3966
 6148TIP3    H118450   3.524   1.641   3.964  0.6922  0.5816  0.3602
 6148TIP3    H218451   3.531   1.492   3.992 -1.2300  0.4878  0.5245
 6149TIP3   OH218452   5.336   0.680   3.805  0.0733  0.6861 -0.1634
 6149TIP3    H118453   5.387   0.748   3.761 -1.9723  0.8312 -2.5079
 6149TIP3    H218454   5.310   0.619   3.736 -1.5702 -0.2420  1.1734
 6150TIP3   OH218455   1.489   0.738   1.113  0.2969  0.4717 -0.0573
 6150TIP3    H118456   1.546   0.664   1.093 -0.4298  0.2523 -1.3927
 6150TIP3    H218457   1.519   0.769   1.199  0.1267 -1.8362  0.9111
 6151TIP3   OH218458   3.611   2.360   4.724  0.0008 -0.6692 -0.0392
 6151TIP3    H118459   3.593   2.423   4.654  1.8749 -0.5573 -0.4474
 6151TIP3    H218460   3.706   2.359   4.733 -0.0945 -2.0535  1.2636
 6152TIP3   OH218461   1.878   4.705   2.533  0.1715 -0.1564  0.8544
 6152TIP3    H118462   1.938   4.763   2.579  0.3581 -1.2397  2.0437
 6152TIP3    H218463   1.922   4.620   2.534 -0.0427 -0.3262 -0.9397
 6153TIP3   OH218464   3.660   1.259   3.809 -0.1127  0.6877  0.3755
 6153TIP3    H118465   3.651   1.165   3.826  0.8870  0.4116 -0.5491
 6153TIP3    H218466   3.575   1.296   3.835 -0.3760 -0.4020  1.1444
 6154TIP3   OH218467   4.236   1.757   3.752  0.3924  0.0831  0.3176
 6154TIP3    H118468   4.250   1.753   3.657  0.4205  0.8764  0.2809
 6154TIP3    H218469   4.156   1.809   3.762  0.8642  0.7362  0.7569
 6155TIP3   OH218470   5.330   5.025   1.067 -0.2207 -0.2675 -0.7976
 6155TIP3    H118471   5.286   4.965   1.007 -3.4955 -1.5134  2.4738
 6155TIP3    H218472   5.259   5.072   1.111  1.9132  0.8235  1.8315
 6156TIP3   OH218473   0.811   5.172   3.691  0.4168  0.1602  0.0664
 6156TIP3    H118474   0.859   5.090   3.695  2.1096  1.1493  2.0054
 6156TIP3    H218475   0.746   5.165   3.762 -0.4789 -0.0763 -0.7553
 6157TIP3   OH218476   5.894   5.809   4.107  0.1259  0.1666 -0.0209
 6157TIP3    H118477   5.962   5.862   4.065 -1.7090  2.2271 -0.5833
 6157TIP3    H218478   5.864   5.863   4.180 -1.4708 -0.3297 -0.2827
 6158TIP3   OH218479   6.055   1.136   2.300 -0.3486  0.1716  0.1549
 6158TIP3    H118480   5.973   1.091   2.318 -0.4642  0.9025  1.5991
 6158TIP3    H218481   6.040   1.182   2.218 -0.8357 -0.9310 -0.3982
 6159TIP3   OH218482   3.559   2.229   1.825 -0.2747  0.1798 -0.4717
 6159TIP3    H118483   3.514   2.297   1.774 -0.9725 -1.1048 -1.6168
 6159TIP3    H218484   3.533   2.147   1.784  0.2227 -0.8246  1.1445
 6160TIP3   OH218485   0.203   5.388   0.914  0.0369 -0.4762  0.5208
 6160TIP3    H118486   0.291   5.418   0.937  1.0237 -4.1025  2.2312
 6160TIP3    H218487   0.216   5.333   0.837 -0.9207 -0.2658  0.1973
 6161TIP3   OH218488   2.491   2.039   4.965  0.0409 -0.4484 -0.4404
 6161TIP3    H118489   2.406   2.059   5.006 -1.0625 -0.9222 -2.3805
 6161TIP3    H218490   2.556   2.074   5.026 -1.5242 -0.5006  1.3499
 6162TIP3   OH218491   1.422   4.475   4.680  0.6236 -0.6327 -0.0225
 6162TIP3    H118492   1.477   4.397   4.678  0.3876 -0.9875  2.6972
 6162TIP3    H218493   1.379   4.471   4.766  0.0125  2.0811 -0.1121
 6163TIP3   OH218494   5.400   2.847   2.282 -0.3696 -0.0663 -0.2769
 6163TIP3    H118495   5.410   2.934   2.243 -0.5052 -0.1443 -0.4910
 6163TIP3    H218496   5.488   2.809   2.279 -0.2141  0.2462  0.2653
 6164TIP3   OH218497   3.680   5.574   1.657  0.0811  0.2720 -0.4510
 6164TIP3    H118498   3.645   5.497   1.612  0.5483  0.1405 -0.6000
 6164TIP3    H218499   3.769   5.583   1.623  1.4137 -1.3624  2.3110
 6165TIP3   OH218500   5.541   2.684   4.464 -0.3579  0.5163  0.5997
 6165TIP3    H118501   5.565   2.740   4.390 -0.5766 -0.2440 -0.0544
 6165TIP3    H218502   5.471   2.732   4.509 -1.5602  0.1173 -0.7985
 6166TIP3   OH218503   3.980   5.851   1.644  0.0254  0.2582 -0.5392
 6166TIP3    H118504   3.988   5.924   1.706 -0.1824 -1.5770  1.7846
 6166TIP3    H218505   3.899   5.870   1.596  0.2551  1.8010 -0.3724
 6167TIP3   OH218506   4.984   2.398   1.632  0.2718 -0.2302  0.2666
 6167TIP3    H118507   4.949   2.452   1.703 -1.0616 -0.0440 -0.4962
 6167TIP3    H218508   4.918   2.405   1.562  0.1220 -2.7025  0.0611
 6168TIP3   OH218509   3.652   4.281   4.485 -0.2294 -0.9082  0.0874
 6168TIP3    H118510   3.675   4.239   4.402 -0.8729 -1.6163  0.2524
 6168TIP3    H218511   3.557   4.273   4.491 -0.1780 -1.0488  0.9779
 6169TIP3   OH218512   2.911   2.739   4.492  0.2701  0.5987 -0.2714
 6169TIP3    H118513   2.986   2.726   4.434  0.1715 -0.5771 -0.1702
 6169TIP3    H218514   2.942   2.800   4.559  1.5582 -0.8115  0.4801
 6170TIP3   OH218515   0.599   3.251   4.691  0.0183 -0.3848 -0.6135
 6170TIP3    H118516   0.630   3.249   4.782 -1.8994 -0.4555  0.1014
 6170TIP3    H218517   0.663   3.199   4.643  1.9313  0.9068  0.3733
 6171TIP3   OH218518   0.499   3.797   4.051  0.6679  0.6311 -0.1095
 6171TIP3    H118519   0.529   3.856   3.983  0.7482 -2.0582 -2.5844
 6171TIP3    H218520   0.441   3.735   4.006  0.3234 -0.9962  2.3644
 6172TIP3   OH218521   4.657   3.631   4.444 -0.3435  0.1084 -0.3055
 6172TIP3    H118522   4.707   3.692   4.389 -0.8786 -0.8623 -1.9513
 6172TIP3    H218523   4.687   3.650   4.533  0.9176  1.4365 -0.9527
 6173TIP3   OH218524   5.398   5.713   2.776 -0.4184  0.1085  0.5364
 6173TIP3    H118525   5.374   5.620   2.779  0.0651 -0.1381 -1.4989
 6173TIP3    H218526   5.316   5.758   2.756 -0.0766 -0.3677 -2.5862
 6174TIP3   OH218527   3.798   5.842   3.822 -0.1015 -0.2102 -0.0373
 6174TIP3    H118528   3.863   5.782   3.786 -0.1276  0.5083 -1.3413
 6174TIP3    H218529   3.845   5.924   3.836 -0.6810  0.2664 -0.8361
 6175TIP3   OH218530   5.392   1.139   4.764  0.1933 -0.1939  0.0061
 6175TIP3    H118531   5.367   1.217   4.814  1.1798 -0.4614  0.9606
 6175TIP3    H218532   5.311   1.107   4.726 -0.1454  1.6836 -0.9786
 6176TIP3   OH218533   5.092   2.764   3.664  0.1895  0.3589  0.5866
 6176TIP3    H118534   5.050   2.837   3.618  0.0596 -0.0259  0.0879
 6176TIP3    H218535   5.168   2.741   3.611  0.2349  0.1343  0.7432
 6177TIP3   OH218536   1.588   5.017   2.574  0.1554 -0.3357 -0.3755
 6177TIP3    H118537   1.559   4.931   2.545 -1.7514  0.5720 -1.4118
 6177TIP3    H218538   1.628   5.056   2.496 -1.9492  0.8739 -0.9336
 6178TIP3   OH218539   0.865   4.843   4.552 -0.0148  0.3445 -0.0348
 6178TIP3    H118540   0.949   4.851   4.508  0.3515 -1.3600  0.2985
 6178TIP3    H218541   0.869   4.908   4.622 -0.1589  2.2954 -1.7278
 6179TIP3   OH218542   4.878   2.087   2.469 -0.6505  0.2114  0.0982
 6179TIP3    H118543   4.961   2.096   2.516 -0.1049  1.2095 -1.0206
 6179TIP3    H218544   4.880   1.997   2.436  0.6684  0.6526 -1.1205
 6180TIP3   OH218545   0.425   0.156   4.262  0.4362  0.7435 -0.8369
 6180TIP3    H118546   0.493   0.219   4.284 -0.4060  1.0294  1.1491
 6180TIP3    H218547   0.469   0.071   4.267  0.5880  0.8917  0.8717
 6181TIP3   OH218548   3.393   0.210   4.934 -0.5906  0.0293 -0.1312
 6181TIP3    H118549   3.405   0.234   4.842  0.9671  0.5076  0.1696
 6181TIP3    H218550   3.461   0.145   4.951  0.3335  1.2675  1.1367
 6182TIP3   OH218551   1.215   3.209   4.339  0.6286 -0.0701  0.1963
 6182TIP3    H118552   1.246   3.282   4.393  0.5829 -0.1920  0.3875
 6182TIP3    H218553   1.294   3.156   4.323  0.6915  0.1064 -0.0746
 6183TIP3   OH218554   2.490   2.869   4.592 -0.0386 -0.3574 -0.4992
 6183TIP3    H118555   2.554   2.850   4.524  1.6610  1.3916  0.4911
 6183TIP3    H218556   2.466   2.784   4.628  1.9891 -1.0535 -0.6912
 6184TIP3   OH218557   1.541   3.080   1.040  0.1092  0.0089  0.7542
 6184TIP3    H118558   1.483   3.146   1.000  1.4529  1.6237  1.3277
 6184TIP3    H218559   1.613   3.071   0.977  0.4895 -0.0389  1.1863
 6185TIP3   OH218560   1.080   0.799   3.291 -0.6228 -0.6635  0.1077
 6185TIP3    H118561   0.994   0.842   3.292 -0.0032  0.6141  0.1102
 6185TIP3    H218562   1.081   0.747   3.371 -1.8573 -1.6864 -0.4966
 6186TIP3   OH218563   1.190   0.183   4.910 -0.1234 -0.0215  0.0805
 6186TIP3    H118564   1.109   0.163   4.863  0.7370  0.6854 -1.8089
 6186TIP3    H218565   1.245   0.228   4.845  1.9518 -0.8539  1.1640
 6187TIP3   OH218566   1.745   2.799   0.186 -0.1628  0.0509  0.3248
 6187TIP3    H118567   1.741   2.887   0.223 -0.2613  0.8481 -1.4888
 6187TIP3    H218568   1.654   2.768   0.188 -0.3465  0.5333 -0.2358
 6188TIP3   OH218569   5.789   5.719   4.642 -0.7118  0.6134  0.5378
 6188TIP3    H118570   5.787   5.691   4.734 -0.3717  1.6214  0.8755
 6188TIP3    H218571   5.757   5.810   4.645  3.8034  2.4401  0.3818
 6189TIP3   OH218572   1.232   3.107   3.205 -0.2115 -0.7298 -0.6170
 6189TIP3    H118573   1.194   3.125   3.291 -0.6468  1.6246 -1.2313
 6189TIP3    H218574   1.310   3.055   3.224  1.6230  2.4362  1.6333
 6190TIP3   OH218575   1.039   2.205   4.008 -0.0404 -0.1748 -0.1652
 6190TIP3    H118576   1.010   2.181   3.920  1.0624 -2.0672 -0.0750
 6190TIP3    H218577   1.092   2.131   4.036  0.4969  0.8602  1.6983
 6191TIP3   OH218578   2.815   3.034   0.839 -0.0787 -0.0420 -0.3906
 6191TIP3    H118579   2.830   3.127   0.856 -1.7237  0.2121 -0.2299
 6191TIP3    H218580   2.832   3.024   0.745 -1.0336  0.6811 -0.6579
 6192TIP3   OH218581   4.412   2.945   1.165 -1.0032  0.0716 -0.0520
 6192TIP3    H118582   4.384   2.946   1.257  0.7125  0.0252  0.5088
 6192TIP3    H218583   4.458   2.862   1.155 -3.0691 -0.9786 -1.6237
 6193TIP3   OH218584   3.325   2.255   2.541 -0.2547  0.0712  0.1524
 6193TIP3    H118585   3.308   2.314   2.615  1.8591  0.9025  0.0376
 6193TIP3    H218586   3.316   2.167   2.578 -3.1373  0.3881  0.4037
 6194TIP3   OH218587   3.725   5.824   4.691  0.6181  0.4781  0.0369
 6194TIP3    H118588   3.639   5.836   4.731  0.6652  1.7095 -0.1691
 6194TIP3    H218589   3.725   5.734   4.658  0.7139 -0.7288  3.0396
 6195TIP3   OH218590   5.748   1.288   2.172 -0.1216 -0.1815  0.2205
 6195TIP3    H118591   5.707   1.337   2.243 -0.7065  0.9358 -0.8617
 6195TIP3    H218592   5.771   1.354   2.106  2.4907 -0.8744  0.3091
 6196TIP3   OH218593   4.175   5.146   2.124 -0.1107  0.5045  0.2431
 6196TIP3    H118594   4.166   5.099   2.041 -0.0572 -2.6658  1.8725
 6196TIP3    H218595   4.097   5.202   2.129 -0.6944 -0.1075 -1.4403
 6197TIP3   OH218596   1.006   4.237   2.629 -1.0001  0.4282 -0.2140
 6197TIP3    H118597   1.031   4.144   2.632 -0.6519  0.5523  1.2938
 6197TIP3    H218598   0.920   4.240   2.671 -1.6123  0.6390 -1.4169
 6198TIP3   OH218599   3.007   0.980   0.507  0.0257  0.1343  0.4355
 6198TIP3    H118600   2.997   1.064   0.551 -0.2476  1.0870 -1.3547
 6198TIP3    H218601   2.918   0.956   0.481  0.4007  0.7191 -1.5252
 6199TIP3   OH218602   1.423   4.733   0.542 -1.1269  0.4682 -0.5088
 6199TIP3    H118603   1.508   4.695   0.524 -1.3217  0.6759 -1.9575
 6199TIP3    H218604   1.433   4.826   0.521 -1.6677  0.5257 -0.5298
 6200TIP3   OH218605   5.147   2.873   2.507 -0.7383  0.2493  0.4582
 6200TIP3    H118606   5.205   2.799   2.490 -2.5108 -0.9802 -0.4703
 6200TIP3    H218607   5.069   2.835   2.547 -1.2726  1.7564  0.9437
 6201TIP3   OH218608   5.675   1.030   3.207 -0.0549 -0.4285  0.3474
 6201TIP3    H118609   5.737   0.982   3.152 -1.6329 -1.4593 -0.6003
 6201TIP3    H218610   5.730   1.073   3.273  1.5826 -2.2713  0.2833
 6202TIP3   OH218611   0.117   3.037   0.102  0.0403 -0.5203  0.0687
 6202TIP3    H118612   0.194   3.078   0.140 -0.8500  0.9003  0.3942
 6202TIP3    H218613   0.080   2.985   0.173 -0.9734  1.2119  0.8630
 6203TIP3   OH218614   4.973   0.598   3.742 -0.1451 -0.4554 -0.2620
 6203TIP3    H118615   5.048   0.599   3.683  0.8899 -0.9246  0.9911
 6203TIP3    H218616   4.928   0.515   3.723  1.2704 -1.5351  0.8659
 6204TIP3   OH218617   6.275   2.182   4.113 -0.4774 -0.1558  0.0898
 6204TIP3    H118618   6.328   2.162   4.190  1.1644 -0.8653 -1.1471
 6204TIP3    H218619   6.300   2.271   4.088  0.8493 -0.7855 -0.9778
 6205TIP3   OH218620   6.051   5.753   2.350  0.2943 -0.0791 -0.4749
 6205TIP3    H118621   5.980   5.703   2.390  0.6374 -0.4981 -0.3929
 6205TIP3    H218622   6.049   5.838   2.395  0.0026 -0.1765 -0.3065
 6206TIP3   OH218623   2.870   4.852   3.036  0.2953 -0.5813  0.3916
 6206TIP3    H118624   2.904   4.768   3.066  1.6583 -0.3443 -0.4535
 6206TIP3    H218625   2.836   4.834   2.948  1.5083 -0.0481 -0.2008
 6207TIP3   OH218626   5.806   5.295   3.215  1.0574  0.1083  0.1389
 6207TIP3    H118627   5.752   5.313   3.292  0.1262  0.8869 -0.6736
 6207TIP3    H218628   5.820   5.201   3.217 -1.8218 -0.4344 -0.5449
 6208TIP3   OH218629   5.337   4.558   0.314  0.2786  0.5562  0.4600
 6208TIP3    H118630   5.255   4.531   0.356  0.5161  1.3781  1.4918
 6208TIP3    H218631   5.317   4.643   0.274  0.0254 -0.2632 -1.2463
 6209TIP3   OH218632   2.618   2.156   2.063  0.4379 -0.0023  0.5478
 6209TIP3    H118633   2.667   2.161   2.145 -0.6230 -1.8180  1.3555
 6209TIP3    H218634   2.587   2.245   2.049  0.0134  0.2236  2.5562
 6210TIP3   OH218635   6.014   0.305   5.039  0.5346 -0.0282 -0.0155
 6210TIP3    H118636   6.017   0.307   5.135 -4.3616 -0.0407  0.4088
 6210TIP3    H218637   6.002   0.396   5.013 -0.2264 -0.2159 -0.3742
 6211TIP3   OH218638   2.706   1.041   0.069  0.5549 -0.4939  0.1719
 6211TIP3    H118639   2.614   1.066   0.071  0.0669 -2.0642 -1.1456
 6211TIP3    H218640   2.745   1.100   0.004  0.1651 -0.7896 -0.3344
 6212TIP3   OH218641   4.119   3.612   4.445 -0.1464 -0.1492  0.3253
 6212TIP3    H118642   4.041   3.639   4.494  0.7169  1.5996  0.8059
 6212TIP3    H218643   4.089   3.603   4.355 -1.4106 -1.8815  0.8480
 6213TIP3   OH218644   5.512   3.625   1.914  0.3181 -0.2320  0.1939
 6213TIP3    H118645   5.603   3.651   1.898  0.6330 -1.3519  0.0753
 6213TIP3    H218646   5.499   3.547   1.860  0.0498 -1.5222  2.0498
 6214TIP3   OH218647   6.187   1.974   1.882 -0.8589  0.1962 -0.1160
 6214TIP3    H118648   6.185   1.909   1.952 -1.0141 -0.1895 -0.4778
 6214TIP3    H218649   6.246   2.042   1.915 -0.5149 -0.2325  0.1715
 6215TIP3   OH218650   2.700   0.374   0.079  0.1093  0.0196 -0.3445
 6215TIP3    H118651   2.787   0.365   0.116  0.2067 -1.6043 -0.8755
 6215TIP3    H218652   2.641   0.341   0.147  0.1471 -1.3050 -0.9219
 6216TIP3   OH218653   2.790   0.050   0.252  0.7668  0.3677  0.2067
 6216TIP3    H118654   2.867   0.051   0.309  2.0061 -0.0478 -1.3567
 6216TIP3    H218655   2.826   0.039   0.164 -1.1665 -1.6586 -0.4327
 6217TIP3   OH218656   3.276   0.365   2.389 -0.4541 -0.2007  0.0364
 6217TIP3    H118657   3.288   0.271   2.379 -0.2253 -0.1440 -0.2655
 6217TIP3    H218658   3.355   0.395   2.433 -1.0526 -0.3130  1.2185
 6218TIP3   OH218659   3.338   3.124   3.230 -0.0679 -0.5209 -0.1298
 6218TIP3    H118660   3.404   3.088   3.171 -0.0231  0.2480 -0.5646
 6218TIP3    H218661   3.293   3.047   3.266  0.4409 -1.0189 -0.5464
 6219TIP3   OH218662   1.248   3.710   0.687 -0.0429  0.0493  0.2142
 6219TIP3    H118663   1.309   3.645   0.723 -0.4728 -0.5577 -0.1382
 6219TIP3    H218664   1.201   3.663   0.618  0.6816  1.1440 -1.0937
 6220TIP3   OH218665   0.965   4.170   0.990  0.4684  0.0134 -0.7937
 6220TIP3    H118666   0.982   4.113   1.065  0.7963 -0.5654 -1.2999
 6220TIP3    H218667   1.037   4.152   0.929  1.4743  2.0949 -0.3100
 6221TIP3   OH218668   3.375   2.064   3.762  0.0849  0.4750 -0.1475
 6221TIP3    H118669   3.342   2.044   3.675 -1.8466  0.0029  0.6358
 6221TIP3    H218670   3.333   2.147   3.786  0.9344  0.8248  0.1645
 6222TIP3   OH218671   5.837   4.148   2.164 -0.0496 -0.1071 -0.8229
 6222TIP3    H118672   5.799   4.112   2.083  1.2099  0.4413 -1.6829
 6222TIP3    H218673   5.828   4.077   2.227  0.9163 -1.3830 -2.0487
 6223TIP3   OH218674   1.498   5.321   3.820  0.2773 -0.1355  0.1989
 6223TIP3    H118675   1.496   5.392   3.756 -0.7235  0.0603  0.4290
 6223TIP3    H218676   1.584   5.280   3.808  0.4472  0.4468 -0.6590
 6224TIP3   OH218677   3.155   3.627   2.220 -0.3289  0.1071  0.5321
 6224TIP3    H118678   3.154   3.531   2.230  1.0746  0.0296  0.1795
 6224TIP3    H218679   3.190   3.641   2.132 -1.3285  0.9457  0.2502
 6225TIP3   OH218680   3.336   2.720   2.161 -0.5323  0.3243  0.0145
 6225TIP3    H118681   3.365   2.631   2.141 -1.6731 -0.6331  2.1739
 6225TIP3    H218682   3.302   2.754   2.079  0.2698 -1.0923 -0.9393
 6226TIP3   OH218683   2.783   0.199   1.903  0.5154 -0.5048  0.0158
 6226TIP3    H118684   2.710   0.139   1.916  0.8227 -1.0815 -0.8891
 6226TIP3    H218685   2.763   0.273   1.961 -1.3050 -0.1653 -0.9627
 6227TIP3   OH218686   4.319   5.050   2.329 -0.1870 -0.1866  0.3597
 6227TIP3    H118687   4.255   5.084   2.266  0.3005 -0.9943 -0.6104
 6227TIP3    H218688   4.361   5.128   2.365  0.7818  0.3109 -1.6740
 6228TIP3   OH218689   5.863   1.259   4.844 -0.1118  0.1626  0.1038
 6228TIP3    H118690   5.868   1.350   4.815  0.1504  0.1943  0.2453
 6228TIP3    H218691   5.786   1.255   4.900  1.1226  0.8291  1.9560
 6229TIP3   OH218692   4.250   3.951   4.319 -0.0722 -0.7392  0.9135
 6229TIP3    H118693   4.325   3.892   4.315  1.5813  1.2825  0.9218
 6229TIP3    H218694   4.224   3.964   4.228  0.2060 -0.6611  0.8462
 6230TIP3   OH218695   1.766   3.392   4.418  0.1841  0.2206 -0.3194
 6230TIP3    H118696   1.807   3.343   4.346  0.7317  1.6159 -0.9867
 6230TIP3    H218697   1.838   3.441   4.458 -0.3322  0.3957  0.4176
 6231TIP3   OH218698   5.933   3.152   2.187  0.2817 -0.0526 -0.1341
 6231TIP3    H118699   5.987   3.231   2.178 -0.3058  0.7129  2.3211
 6231TIP3    H218700   5.927   3.138   2.281 -1.8466 -1.5009 -0.4176
 6232TIP3   OH218701   3.070   3.664   0.745 -0.1279  0.4563 -0.7324
 6232TIP3    H118702   3.063   3.759   0.757 -1.1322  0.1127  2.4175
 6232TIP3    H218703   2.980   3.632   0.756  0.4768 -0.9901  0.3150
 6233TIP3   OH218704   3.410   4.343   0.289  0.5076  0.2776  0.0495
 6233TIP3    H118705   3.405   4.324   0.196 -2.0508 -0.2646  0.2132
 6233TIP3    H218706   3.372   4.266   0.332  0.2987  1.1052  1.4328
 6234TIP3   OH218707   2.745   3.603   2.475  0.0509 -0.2243  0.0102
 6234TIP3    H118708   2.834   3.637   2.478  0.3155 -0.9085  0.1361
 6234TIP3    H218709   2.690   3.673   2.509  0.5854  0.0584  0.2830
 6235TIP3   OH218710   2.125   5.777   2.646 -0.0501  0.6046  0.0969
 6235TIP3    H118711   2.034   5.786   2.675 -0.3077  1.5245 -0.9155
 6235TIP3    H218712   2.174   5.840   2.699 -0.0382  0.2498  0.5055
 6236TIP3   OH218713   5.139   0.969   1.761  0.5062  0.2012  0.1553
 6236TIP3    H118714   5.110   0.921   1.838  2.2530 -0.3928  0.4856
 6236TIP3    H218715   5.143   0.903   1.692 -0.8009  0.6813 -0.4230
 6237TIP3   OH218716   3.699   0.963   2.792  0.3289 -0.2668  0.0465
 6237TIP3    H118717   3.632   0.923   2.735 -0.1851 -2.1262  1.8336
 6237TIP3    H218718   3.667   0.948   2.881  1.6087  1.6510  0.8846
 6238TIP3   OH218719   0.790   1.816   3.095  0.6102 -0.0541  0.7052
 6238TIP3    H118720   0.875   1.786   3.127  0.4977 -1.0904  0.0951
 6238TIP3    H218721   0.737   1.736   3.093  0.0720  0.3166 -0.3270
 6239TIP3   OH218722   3.855   1.341   4.346 -0.1590 -0.2263 -0.2199
 6239TIP3    H118723   3.918   1.309   4.411 -0.1578  0.3439  0.0596
 6239TIP3    H218724   3.877   1.293   4.266 -1.0597 -2.0110  0.5378
 6240TIP3   OH218725   6.315   1.828   4.421  0.1321 -0.0624 -0.3201
 6240TIP3    H118726   6.294   1.745   4.465 -0.8526  1.0622  1.4775
 6240TIP3    H218727   6.292   1.895   4.486 -2.5035  1.8089 -2.9211
 6241TIP3   OH218728   1.637   5.418   2.113  0.7328  1.0863  0.0326
 6241TIP3    H118729   1.622   5.442   2.022  0.9928  2.0774  0.2458
 6241TIP3    H218730   1.681   5.494   2.151  1.3819  0.3591  0.7767
 6242TIP3   OH218731   2.959   2.186   0.599  0.1006  0.0466  0.0839
 6242TIP3    H118732   2.910   2.236   0.664 -1.5275 -1.9860  0.5219
 6242TIP3    H218733   2.905   2.108   0.583  2.3972 -1.4684 -0.7105
 6243TIP3   OH218734   6.082   4.549   2.485  0.1986  0.3413  0.7704
 6243TIP3    H118735   6.162   4.564   2.536  1.5821  1.5457 -1.6017
 6243TIP3    H218736   6.026   4.623   2.507  0.4175  0.3935  1.1731
 6244TIP3   OH218737   3.653   4.951   4.608 -0.0181  0.0146  0.0852
 6244TIP3    H118738   3.565   4.935   4.644 -0.3925 -1.2670 -1.3170
 6244TIP3    H218739   3.639   5.019   4.542  0.1745  0.2828  0.3165
 6245TIP3   OH218740   5.611   1.003   0.120 -0.1137  0.1111 -0.2456
 6245TIP3    H118741   5.695   1.038   0.150 -0.7817  1.0007  0.6397
 6245TIP3    H218742   5.629   0.969   0.033  1.0660  0.6883 -0.2444
 6246TIP3   OH218743   0.154   1.869   4.201 -0.1335 -0.1472  0.1111
 6246TIP3    H118744   0.094   1.847   4.273  1.6766 -0.6429  1.5350
 6246TIP3    H218745   0.098   1.872   4.123 -2.2456  0.7711  1.5577
 6247TIP3   OH218746   1.761   5.132   1.286 -0.2225 -0.1810  0.4796
 6247TIP3    H118747   1.796   5.219   1.266 -0.8394 -0.1909 -0.6906
 6247TIP3    H218748   1.710   5.144   1.366  0.7131  0.2637  1.0219
 6248TIP3   OH218749   5.726   5.337   1.086 -0.1308 -0.2041 -0.3439
 6248TIP3    H118750   5.764   5.367   1.004 -0.2992  1.5599  0.1933
 6248TIP3    H218751   5.700   5.417   1.132 -2.2222 -1.2324  0.3942
 6249TIP3   OH218752   3.486   3.773   3.817 -0.5930  0.3457  0.2689
 6249TIP3    H118753   3.395   3.789   3.841 -0.9389  0.0097 -0.7669
 6249TIP3    H218754   3.531   3.757   3.900 -1.3399  1.1698  0.8390
 6250TIP3   OH218755   5.607   4.496   0.256  0.3396 -0.6021  0.1479
 6250TIP3    H118756   5.526   4.524   0.300  0.7393 -0.2258  0.6594
 6250TIP3    H218757   5.676   4.547   0.299  1.0753 -2.2502  0.9862
 6251TIP3   OH218758   2.273   5.496   4.388  0.7571  0.2192  0.1739
 6251TIP3    H118759   2.287   5.411   4.347  1.1362  0.2231  0.2873
 6251TIP3    H218760   2.360   5.536   4.390  0.7669  0.1714  1.0728
 6252TIP3   OH218761   3.360   1.248   1.723  0.3497  0.1170 -0.1785
 6252TIP3    H118762   3.295   1.179   1.712  0.6092  0.0638 -1.5687
 6252TIP3    H218763   3.357   1.297   1.640  0.5151  1.4722  0.5941
 6253TIP3   OH218764   1.579   2.402   0.337 -0.1573 -0.1029 -0.1099
 6253TIP3    H118765   1.502   2.374   0.286 -1.4706  2.5872  0.1861
 6253TIP3    H218766   1.542   2.434   0.420  1.0652  2.3447 -0.4139
 6254TIP3   OH218767   6.376   1.362   3.957 -0.6400 -0.8591 -0.1730
 6254TIP3    H118768   6.348   1.273   3.974 -1.0361 -1.2322 -2.4018
 6254TIP3    H218769   6.315   1.394   3.890  0.4133  0.5369 -0.5139
 6255TIP3   OH218770   1.942   4.252   0.885  0.4886 -0.1451  0.3956
 6255TIP3    H118771   1.972   4.260   0.975 -0.1650  1.9222  0.4873
 6255TIP3    H218772   1.878   4.181   0.887 -1.6581  1.6842  2.2172
 6256TIP3   OH218773   2.964   5.125   2.368  0.0507  0.6374  0.5677
 6256TIP3    H118774   3.033   5.162   2.423  3.3407 -1.8263 -1.5156
 6256TIP3    H218775   2.918   5.063   2.425  0.0558  1.7234  1.7846
 6257TIP3   OH218776   1.399   2.973   2.892  0.0927 -0.2387 -0.2052
 6257TIP3    H118777   1.376   3.057   2.933 -1.3459 -0.3849 -0.6392
 6257TIP3    H218778   1.321   2.950   2.841  1.9494  0.2852 -3.6563
 6258TIP3   OH218779   1.921   2.348   3.582  0.3749 -0.2832 -0.5445
 6258TIP3    H118780   1.911   2.253   3.587 -2.5285 -0.0444  0.3553
 6258TIP3    H218781   1.915   2.368   3.488  0.9067 -0.9676 -0.7305
 6259TIP3   OH218782   2.545   1.931   1.881 -0.3141  0.4223 -0.0187
 6259TIP3    H118783   2.569   1.997   1.945 -0.4639 -0.3492  0.8642
 6259TIP3    H218784   2.464   1.893   1.916 -0.2603 -0.1804 -0.5352
 6260TIP3   OH218785   3.184   5.580   3.199  0.1053 -0.2707  0.1338
 6260TIP3    H118786   3.260   5.607   3.148  0.5436 -1.1151  0.3066
 6260TIP3    H218787   3.122   5.546   3.135 -0.4535  1.1265 -0.0819
 6261TIP3   OH218788   1.534   1.732   1.864 -0.2453  0.3371 -0.3010
 6261TIP3    H118789   1.528   1.727   1.960 -1.9451 -1.6498 -0.4491
 6261TIP3    H218790   1.546   1.642   1.836 -1.1962  0.7013 -2.0389
 6262TIP3   OH218791   4.928   3.436   4.409  0.0704 -0.2745 -0.1518
 6262TIP3    H118792   5.022   3.431   4.426  0.0867 -0.4469 -0.2889
 6262TIP3    H218793   4.894   3.495   4.476  0.1939 -0.6416  0.2386
 6263TIP3   OH218794   0.003   2.347   2.473 -0.5181  0.8371  0.4439
 6263TIP3    H118795   0.052   2.297   2.537 -0.2133  0.9429  0.2919
 6263TIP3    H218796   0.068   2.380   2.411 -0.9525 -0.4290 -0.7326
 6264TIP3   OH218797   1.844   3.227   0.785 -0.4900 -0.2753 -0.2024
 6264TIP3    H118798   1.810   3.257   0.870  1.3390  0.4375  0.3475
 6264TIP3    H218799   1.934   3.259   0.784 -0.5648  0.0366 -2.5849
 6265TIP3   OH218800   6.034   4.599   2.220 -0.1708 -0.0785 -0.6818
 6265TIP3    H118801   6.104   4.605   2.156 -0.3115  0.2180 -0.8123
 6265TIP3    H218802   6.078   4.578   2.302 -0.0236 -0.7576 -0.9337
 6266TIP3   OH218803   3.061   1.182   3.865  0.0570  0.0541  0.2874
 6266TIP3    H118804   2.995   1.217   3.925 -1.1043 -3.2442  1.1452
 6266TIP3    H218805   3.012   1.159   3.786  0.4899 -0.8580  0.2745
 6267TIP3   OH218806   2.542   3.022   0.881 -0.2301  0.2375 -0.3895
 6267TIP3    H118807   2.630   2.996   0.853 -0.5014 -1.7223  0.4538
 6267TIP3    H218808   2.483   2.976   0.821 -0.7273 -1.3350  1.2248
 6268TIP3   OH218809   5.097   0.854   1.508  0.5080 -0.9625  0.1713
 6268TIP3    H118810   5.129   0.768   1.482  1.1344 -0.3037 -1.3523
 6268TIP3    H218811   5.101   0.907   1.428 -1.0911  0.1338  0.7552
 6269TIP3   OH218812   3.872   3.440   4.553  0.1374 -0.4787 -0.2194
 6269TIP3    H118813   3.902   3.365   4.501  0.4265 -0.4300 -0.1243
 6269TIP3    H218814   3.829   3.497   4.489  0.6243 -0.3483 -0.4368
 6270TIP3   OH218815   0.528   2.779   2.660 -0.3558 -0.5234  0.3959
 6270TIP3    H118816   0.560   2.689   2.668  1.5168  0.1528  0.8739
 6270TIP3    H218817   0.550   2.820   2.743  0.6260  0.9192 -0.5286
 6271TIP3   OH218818   0.236   3.040   3.594  0.2168 -0.4496 -0.7580
 6271TIP3    H118819   0.160   3.095   3.576  0.6703  0.2793 -0.4877
 6271TIP3    H218820   0.238   3.031   3.689  1.1136  0.4936 -0.6698
 6272TIP3   OH218821   0.755   3.697   3.338 -0.2274 -0.6538 -0.3764
 6272TIP3    H118822   0.716   3.777   3.303 -0.9059 -1.0518 -0.5496
 6272TIP3    H218823   0.849   3.717   3.345 -0.5809  0.6426  0.9638
 6273TIP3   OH218824   2.018   5.509   4.257  0.1775 -0.0240 -0.3564
 6273TIP3    H118825   2.056   5.515   4.169 -0.9587  1.6273 -0.7702
 6273TIP3    H218826   2.076   5.561   4.311  1.4874 -1.8988  0.1574
 6274TIP3   OH218827   1.727   3.035   4.985 -0.3657  0.2305 -0.2024
 6274TIP3    H118828   1.715   2.965   5.048  4.8272  0.3080  1.3419
 6274TIP3    H218829   1.749   2.991   4.903  0.9817 -0.0045  0.2651
 6275TIP3   OH218830   6.226   2.617   2.467  0.0046 -0.1892  0.3183
 6275TIP3    H118831   6.310   2.590   2.429  0.8743  2.4589  0.1573
 6275TIP3    H218832   6.200   2.694   2.416 -1.1544  0.6785  2.1007
 6276TIP3   OH218833   1.384   1.550   1.148 -0.1166 -0.5055 -1.1326
 6276TIP3    H118834   1.355   1.616   1.212 -0.4304 -0.0387 -1.7473
 6276TIP3    H218835   1.409   1.475   1.202 -1.5080 -0.5600 -0.4962
 6277TIP3   OH218836   4.168   3.338   0.451  0.3103  0.0817 -0.4294
 6277TIP3    H118837   4.163   3.390   0.531  3.0202 -0.9021  0.4895
 6277TIP3    H218838   4.143   3.250   0.479  1.9250 -0.4136 -0.4428
 6278TIP3   OH218839   0.378   4.225   1.715  0.5231 -0.1808  0.2414
 6278TIP3    H118840   0.393   4.291   1.648 -1.3163  0.4658  0.4145
 6278TIP3    H218841   0.302   4.176   1.685 -0.0456 -0.1852  1.5971
 6279TIP3   OH218842   2.501   0.870   2.900 -0.0808 -0.2260 -0.0867
 6279TIP3    H118843   2.544   0.918   2.829  2.0905 -0.1188  1.2029
 6279TIP3    H218844   2.425   0.828   2.859  1.4355 -0.6769 -2.6207
 6280TIP3   OH218845   3.225   4.126   0.754  0.3633  0.1858 -0.0523
 6280TIP3    H118846   3.224   4.200   0.694  1.3240 -0.9052 -1.4741
 6280TIP3    H218847   3.284   4.153   0.825 -1.7359  1.9622  1.1432
 6281TIP3   OH218848   4.603   1.433   0.427  0.0549 -0.7616  0.1598
 6281TIP3    H118849   4.609   1.498   0.356 -3.7291 -0.0951  0.2376
 6281TIP3    H218850   4.626   1.350   0.385  1.0949  0.0582 -0.9862
 6282TIP3   OH218851   5.773   4.813   0.749 -0.0031 -0.1661  0.1103
 6282TIP3    H118852   5.762   4.784   0.658  4.1165 -1.0669 -0.2994
 6282TIP3    H218853   5.793   4.907   0.742  1.0597 -0.3891 -0.0520
 6283TIP3   OH218854   5.759   2.402   2.570  0.1124  0.0683 -0.2851
 6283TIP3    H118855   5.781   2.308   2.571 -1.4743 -0.3641  2.3287
 6283TIP3    H218856   5.674   2.407   2.613 -0.1435  2.6883 -0.9483
 6284TIP3   OH218857   4.751   2.478   3.252 -0.1841  0.0844  0.3249
 6284TIP3    H118858   4.657   2.469   3.235 -0.2553  1.1017  0.0884
 6284TIP3    H218859   4.759   2.564   3.292  0.5889 -0.2291  0.8574
 6285TIP3   OH218860   3.400   2.871   1.499  0.1954  0.2129 -0.2372
 6285TIP3    H118861   3.418   2.797   1.441  0.3783  0.1679 -0.1212
 6285TIP3    H218862   3.442   2.848   1.581 -2.3888 -1.0540  0.8711
 6286TIP3   OH218863   0.758   0.163   2.310 -0.2346  0.7063 -0.6108
 6286TIP3    H118864   0.814   0.221   2.361  0.1265  1.1096 -1.4485
 6286TIP3    H218865   0.800   0.157   2.224  0.0627 -1.2976 -0.3654
 6287TIP3   OH218866   1.425   2.512   3.456  0.4718  0.5711 -0.3814
 6287TIP3    H118867   1.440   2.564   3.535 -1.4491  1.1028 -0.3062
 6287TIP3    H218868   1.488   2.441   3.462  1.4880  1.5230  0.7835
 6288TIP3   OH218869   1.311   1.773   2.475 -0.7049 -0.1822  0.0125
 6288TIP3    H118870   1.276   1.845   2.421 -0.3377 -0.9847 -1.3440
 6288TIP3    H218871   1.237   1.712   2.482 -0.9704  0.2445  1.0396
 6289TIP3   OH218872   6.216   4.856   0.450 -0.3899  0.1892  0.0145
 6289TIP3    H118873   6.186   4.918   0.516 -1.8264  1.1740 -1.4859
 6289TIP3    H218874   6.191   4.770   0.485 -2.5143  0.7914  0.1016
 6290TIP3   OH218875   5.514   3.449   3.062  0.4228 -0.1038  0.4634
 6290TIP3    H118876   5.432   3.471   3.019  1.2103  1.5308 -0.2839
 6290TIP3    H218877   5.582   3.475   2.999  1.5445 -2.6132  0.4818
 6291TIP3   OH218878   1.955  -0.024   0.477 -0.6155  0.4469  0.3649
 6291TIP3    H118879   1.982   0.053   0.427 -0.4346 -1.1240 -2.1997
 6291TIP3    H218880   1.870  -0.001   0.514  0.0369  2.3003  0.8108
 6292TIP3   OH218881   5.812   1.868   0.924  0.4974  0.9917 -0.8635
 6292TIP3    H118882   5.755   1.945   0.918 -1.5071 -0.2200  1.0488
 6292TIP3    H218883   5.751   1.795   0.941  2.5594 -0.5458  0.3789
 6293TIP3   OH218884   4.749   4.207   2.414 -0.3289 -0.3857  0.1102
 6293TIP3    H118885   4.820   4.256   2.374  0.0778  0.6308  1.9759
 6293TIP3    H218886   4.792   4.133   2.458 -0.6806 -1.0155 -0.5770
 6294TIP3   OH218887   5.388   0.530   2.504  0.2709  0.0124 -0.7109
 6294TIP3    H118888   5.477   0.548   2.535  0.9934 -1.0979 -2.0373
 6294TIP3    H218889   5.388   0.557   2.413 -0.9329  0.5131 -0.5781
 6295TIP3   OH218890   2.213   0.581   3.554 -0.1106  0.1937 -0.2260
 6295TIP3    H118891   2.255   0.510   3.506  1.9731  0.3999  1.1804
 6295TIP3    H218892   2.248   0.574   3.643 -2.9177  0.5562  1.0101
 6296TIP3   OH218893   5.356   3.669   3.884 -0.2755  0.0383 -0.2612
 6296TIP3    H118894   5.263   3.648   3.868 -0.0911 -0.5431 -0.5933
 6296TIP3    H218895   5.402   3.587   3.867  0.4672  0.6937 -1.5158
 6297TIP3   OH218896   3.495   1.925   4.094 -0.0668  0.0327 -0.2111
 6297TIP3    H118897   3.433   1.852   4.086  0.6420 -0.6238  0.1412
 6297TIP3    H218898   3.538   1.929   4.009 -0.3236  0.2494 -0.3333
 6298TIP3   OH218899   2.345   0.073   5.097 -0.3025  0.0056  0.5237
 6298TIP3    H118900   2.321   0.122   5.176 -2.0225  0.3739 -0.1732
 6298TIP3    H218901   2.261   0.054   5.054  0.5374 -0.8618 -0.8230
 6299TIP3   OH218902   5.503   0.765   4.112 -0.1805 -0.0438  0.4410
 6299TIP3    H118903   5.483   0.808   4.195  0.2040  0.3871  0.3173
 6299TIP3    H218904   5.507   0.837   4.048 -1.6196 -0.4873 -0.1824
 6300TIP3   OH218905   0.255   5.448   1.387  0.4907  0.1340 -0.1868
 6300TIP3    H118906   0.194   5.439   1.461  2.2151 -0.5693  1.2066
 6300TIP3    H218907   0.253   5.541   1.367 -1.1683  0.1118 -0.3165
 6301TIP3   OH218908   1.407   4.859   2.823  0.3805 -0.4524  0.3301
 6301TIP3    H118909   1.324   4.894   2.855 -0.0757 -0.1627 -1.1355
 6301TIP3    H218910   1.466   4.934   2.822  0.0992 -0.2336 -0.4663
 6302TIP3   OH218911   4.450   5.222   3.171  0.1899  0.5073  0.4570
 6302TIP3    H118912   4.462   5.307   3.128  0.8662 -0.2954 -1.0188
 6302TIP3    H218913   4.442   5.244   3.264  1.3321  2.1220  0.2345
 6303TIP3   OH218914   3.318   4.516   1.332  0.0765  0.2543 -0.2855
 6303TIP3    H118915   3.228   4.535   1.359  0.6008  1.7063  0.5479
 6303TIP3    H218916   3.361   4.601   1.332  1.3329 -0.3608 -1.1522
 6304TIP3   OH218917   5.145   5.795   2.685  0.1899  0.4664  0.3087
 6304TIP3    H118918   5.093   5.825   2.760 -1.2548 -0.3262 -0.3341
 6304TIP3    H218919   5.085   5.799   2.611  1.5366  1.0559 -0.8026
 6305TIP3   OH218920   0.315   4.308   4.068 -0.6851 -0.2655  0.5285
 6305TIP3    H118921   0.401   4.311   4.025 -0.8558 -0.5784  0.1649
 6305TIP3    H218922   0.254   4.340   4.002 -1.0136 -1.2002  0.3596
 6306TIP3   OH218923   2.144   5.330   3.460 -0.0404  0.7268  0.0496
 6306TIP3    H118924   2.185   5.290   3.537  1.4124  1.8613 -0.0907
 6306TIP3    H218925   2.128   5.256   3.401  0.3433  0.0509  0.7663
 6307TIP3   OH218926   5.232   5.718   4.663  0.0223  0.0792 -0.0344
 6307TIP3    H118927   5.222   5.792   4.722  0.1791 -0.0767  0.1892
 6307TIP3    H218928   5.287   5.656   4.711  2.7450  1.1959 -1.4501
 6308TIP3   OH218929   2.172   4.730   2.893  0.1385 -0.2029 -0.1497
 6308TIP3    H118930   2.121   4.672   2.951 -0.8074 -0.7550 -1.4785
 6308TIP3    H218931   2.107   4.791   2.858  0.8053  0.4839 -0.2029
 6309TIP3   OH218932   5.478   3.183   0.879 -0.2348 -0.5178 -0.3104
 6309TIP3    H118933   5.521   3.244   0.939  0.1188 -0.7665 -0.3135
 6309TIP3    H218934   5.511   3.097   0.904  0.7919 -0.5172 -1.6063
 6310TIP3   OH218935   6.009   2.365   1.141 -0.3790 -0.3949 -0.2066
 6310TIP3    H118936   5.922   2.348   1.105  0.2233 -0.7827 -1.5468
 6310TIP3    H218937   6.062   2.390   1.066  0.6064  0.1623  0.6370
 6311TIP3   OH218938   3.354   5.166   5.083 -0.5590 -0.5711 -0.5132
 6311TIP3    H118939   3.296   5.181   5.009 -0.4212 -0.5429 -0.6162
 6311TIP3    H218940   3.435   5.211   5.059 -0.5402 -0.4944 -0.3114
 6312TIP3   OH218941   2.911   5.015   3.545  0.1113 -0.1877  0.3904
 6312TIP3    H118942   2.978   5.081   3.528 -1.9090  1.6211 -1.0436
 6312TIP3    H218943   2.892   4.978   3.459 -0.5526 -0.8566  0.8171
 6313TIP3   OH218944   2.569   0.456   2.740 -0.2031 -0.1397  0.2291
 6313TIP3    H118945   2.497   0.493   2.688  0.3704 -2.5037 -2.5000
 6313TIP3    H218946   2.648   0.477   2.690  0.6049 -0.8996  1.1527
 6314TIP3   OH218947   0.415   0.295   1.343  0.7029  0.6166  0.1646
 6314TIP3    H118948   0.421   0.353   1.268  2.2220 -0.6668 -0.7695
 6314TIP3    H218949   0.398   0.353   1.417  0.1571  2.0131 -1.0058
 6315TIP3   OH218950   5.977   0.987   3.579  0.3120  0.1070  0.6376
 6315TIP3    H118951   5.979   0.945   3.665 -0.9948 -1.3878 -0.0070
 6315TIP3    H218952   5.966   0.914   3.517 -1.2919  1.3351 -0.6048
 6316TIP3   OH218953   5.302   5.389   1.232 -0.1627 -0.4536  0.2463
 6316TIP3    H118954   5.263   5.470   1.198  0.2588 -1.3052 -2.4521
 6316TIP3    H218955   5.249   5.319   1.194  0.9005 -1.5136  0.6602
 6317TIP3   OH218956   2.965   2.254   3.909 -0.2847 -0.0108  0.7559
 6317TIP3    H118957   2.945   2.309   3.985  2.0622  1.7808  0.1933
 6317TIP3    H218958   2.957   2.312   3.834 -1.8505 -1.5668 -0.3624
 6318TIP3   OH218959   4.916   1.114   5.119  0.3507 -0.1819  0.2816
 6318TIP3    H118960   4.983   1.046   5.112  1.3287  0.8299 -0.5859
 6318TIP3    H218961   4.947   1.170   5.191 -1.4028 -1.6340  2.2546
 6319TIP3   OH218962   3.852   3.956   4.694 -0.5827 -0.2792  0.2106
 6319TIP3    H118963   3.929   3.928   4.743 -0.1904 -1.0238 -0.8059
 6319TIP3    H218964   3.879   3.954   4.602 -1.7350 -0.3188 -0.1507
 6320TIP3   OH218965   3.141   1.638   2.446  0.3972  0.2466  0.1129
 6320TIP3    H118966   3.103   1.597   2.368  1.1394  0.5595 -0.4278
 6320TIP3    H218967   3.084   1.712   2.465  0.8778  0.8978 -0.8780
 6321TIP3   OH218968   2.142   3.165   4.102  0.1828  0.0496 -0.3063
 6321TIP3    H118969   2.175   3.142   4.015 -0.2359 -0.0817 -0.4315
 6321TIP3    H218970   2.161   3.087   4.155  1.1491  0.4235 -0.0786
 6322TIP3   OH218971   4.798   0.589   2.272  0.0561 -0.2886 -0.4328
 6322TIP3    H118972   4.892   0.608   2.263  0.4311 -1.6568  0.4282
 6322TIP3    H218973   4.763   0.605   2.184  1.4910 -1.7552 -1.3457
 6323TIP3   OH218974   2.444   4.253   4.338 -0.2577  0.1011 -0.2672
 6323TIP3    H118975   2.457   4.344   4.362 -1.4639  0.7308 -1.8577
 6323TIP3    H218976   2.533   4.218   4.326  0.1954  1.2770 -0.4270
 6324TIP3   OH218977   6.052   0.958   3.859  0.0493  0.1615 -0.1578
 6324TIP3    H118978   6.046   0.870   3.897  0.7827 -0.0612 -0.5304
 6324TIP3    H218979   6.146   0.972   3.846 -0.1607  0.2499 -1.8280
 6325TIP3   OH218980   4.780   0.975   0.356 -0.2777  0.4238  0.4993
 6325TIP3    H118981   4.816   1.010   0.437 -0.7388  1.3144  0.3317
 6325TIP3    H218982   4.786   0.880   0.366  2.8268  0.4991  0.1401
 6326TIP3   OH218983   1.558   1.183   5.044 -0.0464 -0.0108  0.3775
 6326TIP3    H118984   1.566   1.123   4.970 -0.5867 -1.1318  1.2074
 6326TIP3    H218985   1.632   1.243   5.034  1.8454 -2.1698  0.7657
 6327TIP3   OH218986   5.794   2.063   4.014 -0.7645  0.4026  0.2785
 6327TIP3    H118987   5.871   2.069   4.071 -0.2455 -0.4743 -0.3124
 6327TIP3    H218988   5.823   2.098   3.930 -0.9238 -0.1805 -0.0272
 6328TIP3   OH218989   5.851   2.435   3.991 -0.3819 -0.0359  0.1596
 6328TIP3    H118990   5.842   2.517   3.941  1.2409 -0.2122 -0.4955
 6328TIP3    H218991   5.807   2.370   3.937 -0.3619  0.1363 -0.0693
 6329TIP3   OH218992   6.092   2.167   2.439 -0.4299 -0.0716 -0.3180
 6329TIP3    H118993   6.085   2.259   2.413  3.0257  0.1952 -0.7318
 6329TIP3    H218994   6.129   2.170   2.527 -1.0171 -1.0764 -0.0282
 6330TIP3   OH218995   1.743   5.394   2.800 -0.8845 -0.1738 -0.2220
 6330TIP3    H118996   1.662   5.445   2.803 -0.1905  0.9360  0.4313
 6330TIP3    H218997   1.792   5.423   2.877  0.7146  0.1778 -1.3227
 6331TIP3   OH218998   2.914   2.731   4.835 -0.4884  0.7044  0.4986
 6331TIP3    H118999   2.890   2.638   4.839  1.3418  0.2317  3.4036
 6331TIP3    H219000   2.830   2.776   4.826 -1.5081 -1.1770 -0.1283
 6332TIP3   OH219001   2.234   4.973   1.024 -0.2725  0.1380  0.2668
 6332TIP3    H119002   2.288   5.020   0.960 -0.1251 -1.1825 -0.6079
 6332TIP3    H219003   2.177   5.041   1.060  0.2180  1.0808 -0.6391
 6333TIP3   OH219004   5.015   0.413   2.658 -0.3903  0.5403 -0.4975
 6333TIP3    H119005   4.945   0.404   2.594 -0.6806  1.5159 -0.3344
 6333TIP3    H219006   5.053   0.499   2.641 -0.2243  0.6579  0.3840
 6334TIP3   OH219007   5.818   0.369   4.549  0.2029 -0.0998  0.2376
 6334TIP3    H119008   5.782   0.440   4.601 -0.4846  0.6361 -1.1657
 6334TIP3    H219009   5.741   0.325   4.512  0.6581  0.7321 -1.8243
 6335TIP3   OH219010   1.001   4.983   0.653 -0.0610 -0.4917 -0.5662
 6335TIP3    H119011   1.069   4.937   0.603 -0.6358  0.3520 -2.2139
 6335TIP3    H219012   1.032   4.981   0.743  1.4846 -1.2978 -1.0743
 6336TIP3   OH219013   6.231   3.939   4.102 -0.3018 -0.2993  0.0812
 6336TIP3    H119014   6.143   3.904   4.083  0.1006 -1.0580 -0.4357
 6336TIP3    H219015   6.256   3.895   4.183 -0.3987 -0.0677  0.2391
 6337TIP3   OH219016   3.273   4.200   3.267  0.6561 -0.7869 -0.5821
 6337TIP3    H119017   3.275   4.255   3.189  2.5690 -0.1833 -0.1465
 6337TIP3    H219018   3.236   4.117   3.237 -2.8013  0.7912 -1.1463
 6338TIP3   OH219019   3.783   4.360   2.398  0.0835  0.0972 -0.1001
 6338TIP3    H119020   3.752   4.394   2.482  0.3526  2.2160 -0.7954
 6338TIP3    H219021   3.862   4.310   2.420  0.1546  0.6263  0.9004
 6339TIP3   OH219022   0.362   0.977   2.418 -0.3262 -0.6782 -0.6085
 6339TIP3    H119023   0.411   1.058   2.432 -0.0686 -0.8565 -0.4857
 6339TIP3    H219024   0.271   1.006   2.411 -1.0281 -0.8029  4.5960
 6340TIP3   OH219025   5.635   1.731   3.494  0.5842 -0.0982 -0.3727
 6340TIP3    H119026   5.642   1.799   3.561  0.6405 -0.0839 -0.3934
 6340TIP3    H219027   5.561   1.677   3.522  1.8473 -1.3098  0.7958
 6341TIP3   OH219028   5.162   5.550   2.538  0.0507  0.1984  0.6045
 6341TIP3    H119029   5.087   5.554   2.479  0.5425 -0.2741 -0.0557
 6341TIP3    H219030   5.194   5.641   2.542 -1.4087  0.7100  2.0433
 6342TIP3   OH219031   1.796   2.888   3.621 -0.5758 -0.3287 -0.0776
 6342TIP3    H119032   1.866   2.926   3.569 -0.3304 -1.1118 -0.3240
 6342TIP3    H219033   1.839   2.860   3.702 -1.0626  1.4729  0.8781
 6343TIP3   OH219034   5.479   3.977   1.815 -0.1524 -0.3086  0.7010
 6343TIP3    H119035   5.448   4.053   1.864 -0.0499  0.1722  0.0290
 6343TIP3    H219036   5.401   3.922   1.804 -0.7589  0.7515 -0.7275
 6344TIP3   OH219037   5.368   4.006   4.248  0.1425 -0.2608 -0.1236
 6344TIP3    H119038   5.363   3.988   4.154  2.0656 -0.4515 -0.2219
 6344TIP3    H219039   5.370   4.101   4.253  1.0704 -0.2590 -0.3626
 6345TIP3   OH219040   2.367   2.035   2.159 -0.3299  0.5865 -0.2381
 6345TIP3    H119041   2.453   2.069   2.136 -0.4561  0.8765 -0.2756
 6345TIP3    H219042   2.328   2.008   2.076  0.9342 -2.4543  0.0037
 6346TIP3   OH219043   2.715   5.533   1.124 -0.5725  0.2413 -0.3405
 6346TIP3    H119044   2.775   5.605   1.109  0.8873 -0.9652 -0.5673
 6346TIP3    H219045   2.751   5.460   1.073 -2.4820 -0.4234 -0.8483
 6347TIP3   OH219046   6.103   5.649   0.735  0.2109  0.1812  0.2292
 6347TIP3    H119047   6.101   5.679   0.644  1.4839  0.1040  0.1594
 6347TIP3    H219048   6.021   5.682   0.773 -1.1148 -1.1230 -1.3476
 6348TIP3   OH219049   4.232   4.674   2.153  0.2267 -0.0571  0.7078
 6348TIP3    H119050   4.298   4.690   2.086 -0.8301 -0.0389 -0.3656
 6348TIP3    H219051   4.280   4.679   2.236  1.5523 -0.0349 -0.0335
 6349TIP3   OH219052   0.363   1.586   5.103 -0.1137 -0.3636 -0.4164
 6349TIP3    H119053   0.391   1.677   5.100 -0.1410 -0.3628 -2.5725
 6349TIP3    H219054   0.443   1.536   5.089 -0.3434 -0.5667 -1.0872
 6350TIP3   OH219055   0.465   0.231   3.148  0.5703 -0.1981  0.8862
 6350TIP3    H119056   0.517   0.299   3.190 -0.2229  1.8838 -1.2629
 6350TIP3    H219057   0.387   0.277   3.117 -0.9635 -2.5261  1.0544
 6351TIP3   OH219058   1.764   4.208   3.305 -0.4097  0.3478 -0.1384
 6351TIP3    H119059   1.791   4.239   3.392  0.3746  1.0535 -0.6107
 6351TIP3    H219060   1.717   4.127   3.322 -1.1542  0.9925  1.0326
 6352TIP3   OH219061   5.562   3.871   0.107 -0.7583 -0.1113 -0.7932
 6352TIP3    H119062   5.575   3.962   0.136  0.8854 -0.0767 -1.5093
 6352TIP3    H219063   5.487   3.876   0.048 -0.7336  0.7782 -0.7702
 6353TIP3   OH219064   5.809   0.104   4.850  0.5444 -0.2758 -0.0310
 6353TIP3    H119065   5.810   0.019   4.807  1.5532  0.3492 -1.2887
 6353TIP3    H219066   5.891   0.146   4.824  0.4807  0.7385  1.2844
 6354TIP3   OH219067   4.402   5.274   1.592 -0.3231 -0.9222  0.2659
 6354TIP3    H119068   4.423   5.199   1.535  0.9951 -0.0761 -0.4152
 6354TIP3    H219069   4.441   5.251   1.676 -0.8358 -1.4625  0.3585
 6355TIP3   OH219070   4.673   1.005   0.928  0.3165 -0.1464 -0.0572
 6355TIP3    H119071   4.625   0.922   0.930 -0.1383  0.1224  0.4733
 6355TIP3    H219072   4.670   1.032   0.836  0.3652 -0.6574 -0.2121
 6356TIP3   OH219073   2.609   4.808   3.546 -0.6562  0.1718 -0.1767
 6356TIP3    H119074   2.668   4.843   3.612 -0.7437  1.4625 -0.7567
 6356TIP3    H219075   2.527   4.794   3.593 -0.0532 -1.1867  0.5196
 6357TIP3   OH219076   3.454   5.387   1.523  1.0086  0.2844 -0.0422
 6357TIP3    H119077   3.388   5.455   1.522  0.5717 -0.0207  2.2644
 6357TIP3    H219078   3.430   5.329   1.451 -0.7588  0.6111  0.2447
 6358TIP3   OH219079   1.077   2.684   4.573  0.4385 -0.0977 -0.4724
 6358TIP3    H119080   1.027   2.750   4.621 -0.2963 -1.4497  0.6849
 6358TIP3    H219081   1.140   2.651   4.636  1.1424 -0.1789 -1.1967
 6359TIP3   OH219082   1.347   5.909   0.118 -0.3680 -0.1256 -0.6315
 6359TIP3    H119083   1.397   5.933   0.040  1.3453 -3.0578 -0.5610
 6359TIP3    H219084   1.255   5.918   0.090  0.1687  1.1716 -2.1805
 6360TIP3   OH219085   4.776   5.603   1.358  0.3073  0.2857 -0.2794
 6360TIP3    H119086   4.684   5.612   1.332  0.4343 -3.0278 -2.5457
 6360TIP3    H219087   4.819   5.681   1.321 -1.3275  1.1043 -0.5442
 6361TIP3   OH219088   6.257   3.432   3.087 -0.9753 -0.0693  0.2716
 6361TIP3    H119089   6.319   3.368   3.123 -2.3543 -1.6342 -0.0069
 6361TIP3    H219090   6.186   3.379   3.049 -2.3472  1.6306  0.3032
 6362TIP3   OH219091   2.181   3.332   4.542 -1.0335 -0.4709  0.2267
 6362TIP3    H119092   2.176   3.237   4.552 -0.0589 -0.4418  1.1201
 6362TIP3    H219093   2.256   3.346   4.485 -0.9802 -0.2239  0.3574
 6363TIP3   OH219094   1.877   2.354   4.407  0.8850  0.0884 -0.4611
 6363TIP3    H119095   1.925   2.272   4.401  0.7724 -0.0819  0.7336
 6363TIP3    H219096   1.841   2.355   4.496 -1.9634 -0.1494 -1.4948
 6364TIP3   OH219097   0.740   5.493   4.374  0.1791 -0.2030  0.0569
 6364TIP3    H119098   0.744   5.407   4.416 -1.8836 -0.2575  0.2399
 6364TIP3    H219099   0.666   5.487   4.314 -0.5428  1.6871  0.6814
 6365TIP3   OH219100   6.183   4.931   0.951  0.8103  0.3825 -0.3671
 6365TIP3    H119101   6.120   5.000   0.974  0.9678  0.5151 -0.3270
 6365TIP3    H219102   6.214   4.898   1.035  1.8869  1.3271 -0.3539
 6366TIP3   OH219103   3.599   5.754   0.280 -0.2837 -0.2945  0.0515
 6366TIP3    H119104   3.533   5.802   0.329  0.1612  0.5397 -0.1546
 6366TIP3    H219105   3.629   5.815   0.212  0.9406 -0.5292  0.3518
 6367TIP3   OH219106   0.686   2.693   4.246 -0.2898  0.9277 -0.0866
 6367TIP3    H119107   0.613   2.678   4.185 -0.6241  2.6668 -0.1497
 6367TIP3    H219108   0.657   2.766   4.300  0.1277 -0.3534  1.9989
 6368TIP3   OH219109   1.419   1.636   2.861 -0.4287 -0.0303  0.1222
 6368TIP3    H119110   1.475   1.644   2.938 -1.0456  2.1553  0.4139
 6368TIP3    H219111   1.397   1.726   2.838 -2.0503 -0.7314 -1.3031
 6369TIP3   OH219112   1.511   2.386   2.009  0.2013  0.1073  0.2053
 6369TIP3    H119113   1.536   2.445   2.080 -0.3585  1.8653 -0.9963
 6369TIP3    H219114   1.549   2.301   2.034  0.4997  0.7928  2.2935
 6370TIP3   OH219115   3.357   4.873   4.635 -0.3893  0.2130  0.2014
 6370TIP3    H119116   3.330   4.882   4.544  0.8633  1.3557 -0.1021
 6370TIP3    H219117   3.365   4.779   4.649  0.4388  0.0503 -1.2063
 6371TIP3   OH219118   0.104   0.424   1.519 -0.7884 -0.1794 -0.7873
 6371TIP3    H119119   0.078   0.370   1.444 -0.8831 -2.9276  1.0722
 6371TIP3    H219120   0.198   0.406   1.529 -0.6646  0.5878 -0.5621
 6372TIP3   OH219121   4.820   1.826   2.110 -0.1216 -0.3924  0.1126
 6372TIP3    H119122   4.754   1.773   2.155  2.1780 -3.5284  0.1762
 6372TIP3    H219123   4.770   1.884   2.053 -2.9910  0.4636  3.1943
 6373TIP3   OH219124   3.186   1.023   4.600  0.5080 -0.0373  0.1956
 6373TIP3    H119125   3.281   1.036   4.604  0.6056 -0.9192  2.5210
 6373TIP3    H219126   3.157   1.076   4.525  2.7461  0.6947 -0.2253
 6374TIP3   OH219127   0.099   0.700   4.857  0.4606 -0.3107  0.3936
 6374TIP3    H119128   0.008   0.679   4.838  0.4591  0.2319 -0.2280
 6374TIP3    H219129   0.136   0.729   4.773  0.1789  3.1707  1.3089
 6375TIP3   OH219130   3.912   1.821   3.036 -0.1156  0.1779  0.0343
 6375TIP3    H119131   3.870   1.859   3.113 -0.5147  1.3555 -0.7422
 6375TIP3    H219132   3.842   1.772   2.992  0.2885 -1.1261  0.7893
 6376TIP3   OH219133   4.683   3.015   4.099 -0.2188 -0.0506  0.1124
 6376TIP3    H119134   4.724   2.936   4.063 -0.3843  0.0212 -0.2368
 6376TIP3    H219135   4.757   3.071   4.123 -0.0782 -0.6764  1.2025
 6377TIP3   OH219136   0.257   1.127   4.384 -0.1637 -0.1689 -0.0080
 6377TIP3    H119137   0.196   1.079   4.330 -0.8727 -0.1408  0.7516
 6377TIP3    H219138   0.210   1.207   4.408 -0.0918 -0.4380  1.1046
 6378TIP3   OH219139   2.516   5.153   2.027 -0.0375 -0.0504 -0.3079
 6378TIP3    H119140   2.565   5.098   2.088 -1.3435  0.0237  0.8424
 6378TIP3    H219141   2.541   5.121   1.940  0.3387 -1.4713  0.3010
 6379TIP3   OH219142   1.624   2.989   2.109 -0.2269 -0.7347  0.6237
 6379TIP3    H119143   1.555   3.034   2.060  1.5268  2.8491  1.1600
 6379TIP3    H219144   1.651   2.918   2.051 -1.5118  0.3509 -1.4336
 6380TIP3   OH219145   3.162   0.984   1.205  0.3951  0.1215 -0.6931
 6380TIP3    H119146   3.142   1.071   1.172  0.0353 -0.0549 -0.9476
 6380TIP3    H219147   3.214   0.943   1.136 -0.6174 -0.3572 -1.1960
 6381TIP3   OH219148   5.438   0.326   0.403  0.2000  0.2980 -0.6050
 6381TIP3    H119149   5.521   0.345   0.447  0.0098 -2.2603  1.0908
 6381TIP3    H219150   5.414   0.408   0.360  1.9581  2.0928  1.5913
 6382TIP3   OH219151   3.414   4.478   1.644  0.4735 -0.4744 -0.7010
 6382TIP3    H119152   3.447   4.415   1.580  0.0536 -0.7843 -0.6163
 6382TIP3    H219153   3.322   4.491   1.620  0.5049 -0.0531 -0.5903
 6383TIP3   OH219154   4.389   3.904   0.764  0.1184  0.0395 -0.9092
 6383TIP3    H119155   4.451   3.844   0.805 -1.9223 -0.9868  0.8550
 6383TIP3    H219156   4.417   3.907   0.672  2.3814 -0.8141 -0.3389
 6384TIP3   OH219157   5.707   0.658   0.175 -0.0825  0.2593  0.8265
 6384TIP3    H119158   5.720   0.639   0.268  0.1712 -2.3004  0.3195
 6384TIP3    H219159   5.791   0.695   0.147  0.1877  0.0784  1.3801
 6385TIP3   OH219160   4.595   5.039   1.512 -0.1113  0.3911 -0.1257
 6385TIP3    H119161   4.609   4.945   1.515 -0.9805  0.2570  0.0765
 6385TIP3    H219162   4.558   5.055   1.425  0.8143  0.6654 -0.4765
 6386TIP3   OH219163   0.004   0.252   4.334 -0.1835 -0.0651 -0.1183
 6386TIP3    H119164  -0.015   0.170   4.379  1.4083 -0.7012 -0.5412
 6386TIP3    H219165   0.089   0.280   4.368  0.4026  0.1629 -1.6527
 6387TIP3   OH219166   3.791   2.705   2.965 -0.9815  0.2381 -0.2490
 6387TIP3    H119167   3.885   2.716   2.978 -1.0545 -1.4775  2.4449
 6387TIP3    H219168   3.764   2.783   2.916  1.4909  1.8895  0.8194
 6388TIP3   OH219169   4.170   0.768   2.684 -0.3375 -0.3125  0.2087
 6388TIP3    H119170   4.189   0.674   2.679  0.4797 -0.0925 -2.4709
 6388TIP3    H219171   4.256   0.809   2.697 -0.2834  0.1571 -1.4057
 6389TIP3   OH219172   0.691   4.251   0.203  0.2553  0.0532 -0.4197
 6389TIP3    H119173   0.773   4.211   0.233  0.0887 -0.3645 -0.5204
 6389TIP3    H219174   0.662   4.304   0.277  0.9841  0.7694 -0.6379
 6390TIP3   OH219175   2.204   0.918   0.685  0.4420  0.1333  0.4759
 6390TIP3    H119176   2.148   0.994   0.698 -0.9929 -0.7842 -0.0495
 6390TIP3    H219177   2.165   0.850   0.739 -0.0413 -1.0223 -1.2288
 6391TIP3   OH219178   2.025   4.791   3.796  0.2382  0.1773  0.2550
 6391TIP3    H119179   2.067   4.721   3.846 -0.5731 -0.8467 -0.4693
 6391TIP3    H219180   2.097   4.833   3.748  0.4646 -1.7030 -1.1490
 6392TIP3   OH219181   4.070   4.597   0.789 -0.0262  0.1707  0.3724
 6392TIP3    H119182   4.090   4.613   0.881  1.1461  1.7845 -0.1273
 6392TIP3    H219183   3.977   4.617   0.781  0.4029  2.6394  0.7207
 6393TIP3   OH219184   5.781   0.689   3.613 -0.4634 -0.2303  0.3021
 6393TIP3    H119185   5.786   0.741   3.693  1.3213 -1.7991  1.2919
 6393TIP3    H219186   5.701   0.638   3.623 -0.4582 -0.1276  0.9131
 6394TIP3   OH219187   0.949   3.195   3.427  0.6785  0.2040  0.1535
 6394TIP3    H119188   0.937   3.122   3.367  2.2865  0.6703 -0.8217
 6394TIP3    H219189   0.910   3.270   3.382 -0.3806  0.0975  0.8583
 6395TIP3   OH219190   3.338   2.305   0.806  0.3375 -0.3388 -0.1409
 6395TIP3    H119191   3.271   2.357   0.762  1.4936  0.4053 -1.1087
 6395TIP3    H219192   3.374   2.249   0.737  1.4952  0.1257  0.0535
 6396TIP3   OH219193   3.700   1.492   2.468 -0.6130  0.1637  0.4116
 6396TIP3    H119194   3.721   1.459   2.381 -1.0057 -0.0917  0.4129
 6396TIP3    H219195   3.785   1.511   2.507 -0.4122 -0.1961  0.1597
 6397TIP3   OH219196   0.046   3.866   2.455  0.1889 -0.3209  0.4572
 6397TIP3    H119197   0.105   3.798   2.487  0.3595 -0.1488  0.5114
 6397TIP3    H219198   0.011   3.906   2.535 -1.4648 -1.6769  0.4417
 6398TIP3   OH219199   3.607   4.934   1.669 -0.8173  0.0105  0.2089
 6398TIP3    H119200   3.532   4.968   1.718 -0.9811  1.6314 -1.0622
 6398TIP3    H219201   3.577   4.934   1.577  1.3466  2.8437 -0.6468
 6399TIP3   OH219202   2.577   5.462   4.432 -0.1512  0.0494  0.3094
 6399TIP3    H119203   2.513   5.396   4.407 -1.3825  0.2826  2.5742
 6399TIP3    H219204   2.637   5.415   4.490  0.0394  0.5074  0.4840
 6400TIP3   OH219205   2.169   1.260   4.043 -0.0825 -0.7136  0.1885
 6400TIP3    H119206   2.179   1.280   3.950  0.0436 -0.6799  0.2094
 6400TIP3    H219207   2.134   1.341   4.081 -0.6701 -0.9044  0.0767
 6401TIP3   OH219208   3.313   3.170   0.659 -0.2709 -0.3897  0.2575
 6401TIP3    H119209   3.326   3.263   0.644 -2.5028 -0.0790 -0.1261
 6401TIP3    H219210   3.252   3.166   0.734  0.1600 -1.5568  0.5742
 6402TIP3   OH219211   3.081   4.367   4.349 -0.5646 -0.4752  0.4167
 6402TIP3    H119212   3.136   4.440   4.323 -3.5418  1.9535  0.4236
 6402TIP3    H219213   3.066   4.318   4.269 -0.0100 -0.0164  0.0258
 6403TIP3   OH219214   5.831   2.524   2.342 -0.0917 -0.2881 -0.0843
 6403TIP3    H119215   5.923   2.502   2.330  0.3462  1.0214  0.7074
 6403TIP3    H219216   5.803   2.470   2.416  0.2390 -0.1496  0.1420
 6404TIP3   OH219217   4.577   5.621   4.976 -0.1204  0.1236 -0.0323
 6404TIP3    H119218   4.571   5.677   5.053 -0.6304  0.4863 -0.3293
 6404TIP3    H219219   4.548   5.535   5.006  0.0299  0.1763  0.2651
 6405TIP3   OH219220   1.869   0.808   0.050 -0.0826  0.1898  0.3107
 6405TIP3    H119221   1.910   0.743   0.107 -0.3039  0.7189  1.0972
 6405TIP3    H219222   1.939   0.837  -0.008 -0.5003 -2.3614 -1.6020
 6406TIP3   OH219223   5.981   4.368   1.162  0.1683 -0.0614  0.0811
 6406TIP3    H119224   5.969   4.440   1.224  0.7919 -1.2053  1.5789
 6406TIP3    H219225   5.971   4.288   1.214  3.3859 -1.1162 -0.6606
 6407TIP3   OH219226   5.684   2.697   1.923  0.6671 -0.2922  0.2938
 6407TIP3    H119227   5.720   2.735   1.843 -1.4856  0.1637 -0.5310
 6407TIP3    H219228   5.644   2.771   1.969 -1.0393 -1.0407  0.1013
 6408TIP3   OH219229   5.781   0.795   0.940  0.6327  0.5261 -0.3987
 6408TIP3    H119230   5.786   0.710   0.985 -1.5033 -0.0068 -1.0634
 6408TIP3    H219231   5.819   0.857   1.002 -0.7908 -0.4344  1.5472
 6409TIP3   OH219232   1.549   2.194   2.624  0.3125  0.3371 -0.2787
 6409TIP3    H119233   1.468   2.227   2.662  0.4260  0.1471  0.1398
 6409TIP3    H219234   1.611   2.191   2.698  0.3827 -0.5370 -0.3608
 6410TIP3   OH219235   1.691   0.835   3.768  0.0524  0.2987 -0.8162
 6410TIP3    H119236   1.665   0.892   3.696 -1.1341 -0.1260 -0.7479
 6410TIP3    H219237   1.613   0.783   3.787  1.2631 -1.8765 -1.3758
 6411TIP3   OH219238   3.937   1.746   3.533 -0.0671  0.1858  0.3174
 6411TIP3    H119239   3.933   1.669   3.477  0.8656 -0.8265  1.5693
 6411TIP3    H219240   4.031   1.765   3.540 -0.2216  0.7452  0.9348
 6412TIP3   OH219241   3.871   1.026   5.193  0.2529  0.3647 -0.7762
 6412TIP3    H119242   3.938   0.959   5.207 -0.5766 -1.0356 -2.9566
 6412TIP3    H219243   3.899   1.071   5.113 -0.7928  0.5459 -1.0525
 6413TIP3   OH219244   4.649   0.603   3.598  0.4019 -0.2410 -0.1476
 6413TIP3    H119245   4.634   0.555   3.680 -0.3223  0.4729  0.1418
 6413TIP3    H219246   4.562   0.618   3.563  0.4269  2.5741  0.7546
 6414TIP3   OH219247   3.536   3.200   3.540  0.3211 -0.2938  0.1080
 6414TIP3    H119248   3.539   3.278   3.485 -0.1674  0.0526  0.5597
 6414TIP3    H219249   3.578   3.132   3.488  0.4469  0.1877 -0.4281
 6415TIP3   OH219250   2.126   0.927   1.094  0.1329  0.2134 -0.3563
 6415TIP3    H119251   2.207   0.938   1.143 -1.5868  1.5990  2.4158
 6415TIP3    H219252   2.116   1.008   1.044 -1.0930  1.5974  1.9566
 6416TIP3   OH219253   3.584   0.484   0.790 -0.5100  0.5220  0.0189
 6416TIP3    H119254   3.669   0.524   0.804 -0.9216  1.2958  0.3222
 6416TIP3    H219255   3.580   0.414   0.855  0.6009 -0.6904 -1.1345
 6417TIP3   OH219256   5.217   4.153   2.702  0.1202 -0.0046 -0.3638
 6417TIP3    H119257   5.299   4.175   2.747 -0.4718  0.6056  0.4714
 6417TIP3    H219258   5.165   4.233   2.709 -0.7874 -0.5894 -0.3035
 6418TIP3   OH219259   0.115   3.360   2.852 -0.0055  0.1148  0.2516
 6418TIP3    H119260   0.092   3.441   2.896 -2.4822 -0.0472 -0.6344
 6418TIP3    H219261   0.123   3.296   2.922 -1.6591  0.3488  0.6804
 6419TIP3   OH219262   0.819   2.330   2.905 -0.2266 -0.0835  0.4198
 6419TIP3    H119263   0.827   2.237   2.926 -0.9168 -0.3630 -0.4933
 6419TIP3    H219264   0.898   2.351   2.856  0.1671 -0.0530  1.0526
 6420TIP3   OH219265   6.199   2.106   2.932 -0.0867  0.0786 -0.3290
 6420TIP3    H119266   6.167   2.092   3.021  0.5102 -3.4393 -0.5019
 6420TIP3    H219267   6.292   2.127   2.943  0.4960 -2.3172 -0.0413
 6421TIP3   OH219268   4.984   5.324   2.651  1.3161  0.5401 -0.3965
 6421TIP3    H119269   4.894   5.295   2.639  1.0131  1.7417 -1.2029
 6421TIP3    H219270   5.018   5.338   2.563  1.7084  1.7870 -0.0718
 6422TIP3   OH219271   2.528   4.250   0.897 -0.0848 -0.0683  0.3167
 6422TIP3    H119272   2.530   4.318   0.965 -2.7603  0.0605  0.3688
 6422TIP3    H219273   2.581   4.179   0.933  0.1677  0.7634  1.6806
 6423TIP3   OH219274   0.237   5.478   4.679  0.1468  0.4030 -0.2336
 6423TIP3    H119275   0.310   5.431   4.721 -0.5092 -1.8260 -1.3894
 6423TIP3    H219276   0.259   5.477   4.586 -1.0098  0.3160 -0.5165
 6424TIP3   OH219277   5.971   0.587   4.021  0.5131 -0.0365  0.8541
 6424TIP3    H119278   5.935   0.664   4.066  0.3074  1.1926 -1.2673
 6424TIP3    H219279   5.895   0.533   4.001  0.5563 -0.3748  1.5867
 6425TIP3   OH219280   1.642   4.844   3.413 -0.0702  0.4158 -0.2386
 6425TIP3    H119281   1.570   4.834   3.352  1.4928  0.3342 -2.1745
 6425TIP3    H219282   1.709   4.784   3.381  1.0957  0.9090  1.1514
 6426TIP3   OH219283   1.998   4.906   2.752  0.2578  0.5112  0.0041
 6426TIP3    H119284   1.974   4.998   2.767 -1.4732  0.3603 -1.5269
 6426TIP3    H219285   2.057   4.909   2.677 -2.3242  0.2245 -2.1942
 6427TIP3   OH219286   5.516   1.333   1.131 -0.6203  0.2760 -0.0425
 6427TIP3    H119287   5.611   1.324   1.130 -0.4168  1.7525  1.7738
 6427TIP3    H219288   5.490   1.325   1.039  1.2188 -0.3410 -0.5479
 6428TIP3   OH219289   1.102   1.170   5.106  0.4700  0.1390 -0.0124
 6428TIP3    H119290   1.182   1.217   5.131  2.2615 -2.4749 -0.3627
 6428TIP3    H219291   1.125   1.127   5.023 -0.8531 -1.6350  0.4855
 6429TIP3   OH219292   6.044   0.252   2.246 -0.2433  0.1480 -0.9644
 6429TIP3    H119293   6.012   0.210   2.166  0.1489 -1.8180 -0.1604
 6429TIP3    H219294   6.086   0.181   2.295 -0.2365  1.3450  0.8707
 6430TIP3   OH219295   4.227   4.085   3.755 -0.0579 -0.0982  0.5468
 6430TIP3    H119296   4.149   4.045   3.715 -0.1418  0.5010  0.0939
 6430TIP3    H219297   4.296   4.019   3.743  0.1267  0.3698 -1.3581
 6431TIP3   OH219298   1.466   0.579   3.373  0.1739 -0.5235  0.2980
 6431TIP3    H119299   1.561   0.592   3.368 -0.0654  1.0335 -0.9519
 6431TIP3    H219300   1.444   0.605   3.463  0.7477  0.6261  0.1320
 6432TIP3   OH219301   1.050   2.716   5.046  0.1418 -0.3025 -0.0351
 6432TIP3    H119302   1.009   2.630   5.057  2.2209 -1.3673 -0.0715
 6432TIP3    H219303   0.980   2.772   5.013 -1.0425 -2.2141 -0.9426
 6433TIP3   OH219304   0.943   3.208   4.060 -0.3295 -0.3353 -0.2137
 6433TIP3    H119305   0.903   3.167   3.983 -0.1403 -1.2624  0.1788
 6433TIP3    H219306   0.989   3.138   4.104 -2.5394 -0.4499  2.1564
 6434TIP3   OH219307   2.559   2.655   2.389 -0.3017 -0.0059 -0.1670
 6434TIP3    H119308   2.525   2.593   2.325  0.3415 -0.7929  0.2430
 6434TIP3    H219309   2.482   2.684   2.438 -0.6597 -0.1476 -0.6377
 6435TIP3   OH219310   5.052   2.168   2.659  0.5149  0.1410  0.2864
 6435TIP3    H119311   5.043   2.195   2.751  1.1305  2.2191 -0.2161
 6435TIP3    H219312   5.111   2.093   2.662 -0.0487 -0.2774  1.6385
 6436TIP3   OH219313   5.127   3.932   0.940  0.4559  0.4974 -0.2886
 6436TIP3    H119314   5.207   3.903   0.984  0.6003  0.3761 -0.6305
 6436TIP3    H219315   5.111   4.020   0.974  1.1691  0.8334 -0.8128
 6437TIP3   OH219316   2.696   1.369   1.460  0.0126  0.3822 -0.3462
 6437TIP3    H119317   2.702   1.328   1.547 -1.0730 -1.1362 -0.9403
 6437TIP3    H219318   2.764   1.325   1.408 -0.0393  0.5336 -0.5430
 6438TIP3   OH219319   4.541   0.437   4.375 -0.1424  0.3405  0.5207
 6438TIP3    H119320   4.598   0.419   4.300  0.2614  2.5044  0.2181
 6438TIP3    H219321   4.590   0.407   4.451 -0.1597 -1.0335  0.0209
 6439TIP3   OH219322   0.685   4.810   1.158  0.2573 -0.2460 -0.2365
 6439TIP3    H119323   0.716   4.883   1.210 -1.5105  0.5735 -0.2579
 6439TIP3    H219324   0.764   4.760   1.137  1.3220  0.8552  0.9756
 6440TIP3   OH219325   1.320   0.611   0.429 -0.5593  0.3040 -0.3432
 6440TIP3    H119326   1.330   0.696   0.386  0.0900  0.6586  0.4803
 6440TIP3    H219327   1.347   0.627   0.519 -2.2226 -0.3359  0.3068
 6441TIP3   OH219328   0.578   1.171   2.224  0.2629  0.5561 -0.1180
 6441TIP3    H119329   0.671   1.155   2.240  0.2621  1.2448  0.6108
 6441TIP3    H219330   0.572   1.186   2.129  0.5034 -1.9633 -0.5814
 6442TIP3   OH219331   3.334   0.524   2.715 -0.2758  0.1162 -0.1734
 6442TIP3    H119332   3.241   0.502   2.716 -0.2996  0.2107  0.6654
 6442TIP3    H219333   3.340   0.602   2.660 -0.4468 -0.8409 -1.6257
 6443TIP3   OH219334   5.132   0.629   3.436 -0.0034 -0.2437  0.0125
 6443TIP3    H119335   5.056   0.619   3.379  0.7496  1.1577 -1.3371
 6443TIP3    H219336   5.140   0.724   3.447  1.4695 -0.3752  0.2056
 6444TIP3   OH219337   4.298   3.350   5.143 -0.1360  0.1959 -0.2804
 6444TIP3    H119338   4.342   3.341   5.058  0.9418 -0.2291  0.3056
 6444TIP3    H219339   4.340   3.425   5.184 -2.0178  1.6569 -0.8982
 6445TIP3   OH219340   5.351   1.660   4.660 -0.0522  0.2030 -0.5741
 6445TIP3    H119341   5.347   1.688   4.751 -0.8923 -0.5203 -0.3727
 6445TIP3    H219342   5.410   1.584   4.661  1.6074  1.4239 -0.9951
 6446TIP3   OH219343   2.332   2.918   3.182 -0.5516 -0.1751 -0.7277
 6446TIP3    H119344   2.388   2.961   3.247 -1.6927  1.0968 -0.5478
 6446TIP3    H219345   2.380   2.928   3.100  0.5310 -1.1062 -0.2436
 6447TIP3   OH219346   4.741   1.486   3.751  0.3798  0.1876 -0.1486
 6447TIP3    H119347   4.755   1.565   3.804 -2.0722 -0.7611  2.1704
 6447TIP3    H219348   4.684   1.514   3.680 -0.2499  0.5745  0.5025
 6448TIP3   OH219349   5.991   5.805   0.240  0.0088  1.1727  0.2040
 6448TIP3    H119350   6.011   5.789   0.148  1.9009  0.9047  0.6237
 6448TIP3    H219351   5.970   5.898   0.245  0.3616  1.2859 -0.4198
 6449TIP3   OH219352   2.298   4.031   1.437  0.4081 -0.5079  0.1119
 6449TIP3    H119353   2.324   4.048   1.527  1.5243 -0.4992 -0.2007
 6449TIP3    H219354   2.300   3.935   1.429  1.0133 -0.4834 -0.0943
 6450TIP3   OH219355   4.202   5.861   4.866  0.4903 -0.6558  0.2300
 6450TIP3    H119356   4.228   5.894   4.952 -1.8756  0.2102  0.6959
 6450TIP3    H219357   4.254   5.911   4.804 -0.0929  1.0847  1.0829
 6451TIP3   OH219358   4.364   4.364   1.055 -0.1104 -0.0989 -0.0834
 6451TIP3    H119359   4.305   4.389   0.983  1.1752  0.2091 -1.0558
 6451TIP3    H219360   4.305   4.348   1.129 -1.7315 -2.7497 -1.7816
 6452TIP3   OH219361   4.598   0.108   1.213  0.0436  0.9358 -0.2730
 6452TIP3    H119362   4.573   0.123   1.304  1.8736 -0.9778  0.6359
 6452TIP3    H219363   4.516   0.086   1.169 -0.8327  1.6063  0.9524
 6453TIP3   OH219364   2.638   1.603   2.513 -0.7374  0.7232 -0.2298
 6453TIP3    H119365   2.714   1.606   2.570 -0.3805 -0.9281 -0.5646
 6453TIP3    H219366   2.598   1.689   2.522  0.9462  1.4949  0.2391
 6454TIP3   OH219367   1.425   2.806   2.683  0.0496  0.4355  0.0165
 6454TIP3    H119368   1.482   2.856   2.742 -0.8654  0.4060  0.9487
 6454TIP3    H219369   1.393   2.734   2.736 -1.3606  0.8086 -0.2942
 6455TIP3   OH219370   5.568   1.876   1.909  0.1581 -0.3157 -0.3012
 6455TIP3    H119371   5.622   1.924   1.846 -0.1062 -0.2145 -0.4515
 6455TIP3    H219372   5.586   1.918   1.993 -0.0938  0.0653 -0.4351
 6456TIP3   OH219373   5.430   3.786   3.117 -0.1323 -0.7506  0.0358
 6456TIP3    H119374   5.385   3.742   3.044  0.0604  0.0354 -0.5734
 6456TIP3    H219375   5.417   3.879   3.099 -1.7067 -0.5102  2.0174
 6457TIP3   OH219376   1.938   3.663   5.050  0.3203 -0.7052  0.3958
 6457TIP3    H119377   1.849   3.631   5.060  0.0745 -0.0285  0.4514
 6457TIP3    H219378   1.933   3.727   4.979  0.7100 -0.4898  0.5561
 6458TIP3   OH219379   1.240   5.695   3.936 -0.2394 -0.3562 -0.2436
 6458TIP3    H119380   1.319   5.734   3.899 -0.2245  0.1682  0.3284
 6458TIP3    H219381   1.170   5.725   3.879 -0.0709 -0.5593 -0.5624
 6459TIP3   OH219382   2.555   3.494   0.636 -0.2804 -0.1964 -0.1393
 6459TIP3    H119383   2.567   3.445   0.718  0.5083 -1.9321 -1.2225
 6459TIP3    H219384   2.613   3.569   0.645  1.0835 -1.2468  0.2730
 6460TIP3   OH219385   3.183   1.640   5.136  0.6978 -0.2012 -0.5053
 6460TIP3    H119386   3.184   1.577   5.064 -1.0143  1.3473 -1.9937
 6460TIP3    H219387   3.276   1.658   5.153  1.1804 -1.9106 -1.1078
 6461TIP3   OH219388   4.378   5.319   2.398  0.6866 -0.4489 -0.1979
 6461TIP3    H119389   4.472   5.335   2.387  0.8678 -2.2415 -1.8918
 6461TIP3    H219390   4.355   5.365   2.479  3.4191 -1.3829  1.2474
 6462TIP3   OH219391   3.837   3.067   4.621 -0.5798 -0.7735 -0.1853
 6462TIP3    H119392   3.874   3.074   4.533 -0.3162 -0.5870 -0.0626
 6462TIP3    H219393   3.750   3.106   4.614 -0.3072 -0.1571 -0.2186
 6463TIP3   OH219394   6.268   4.594   0.102 -0.1561  0.2790 -0.4272
 6463TIP3    H119395   6.179   4.599   0.067 -0.5154 -0.3836  0.3589
 6463TIP3    H219396   6.323   4.575   0.025 -0.7288  0.3863 -0.8665
 6464TIP3   OH219397   1.116   6.005   4.056 -0.4361 -0.5153  0.0162
 6464TIP3    H119398   1.049   5.949   4.018 -2.3304 -0.8175  3.4748
 6464TIP3    H219399   1.170   5.946   4.109  1.1299  0.1342 -0.7673
 6465TIP3   OH219400   4.180   4.395   2.395 -0.2668 -0.7902 -0.1116
 6465TIP3    H119401   4.192   4.484   2.429 -0.8781 -0.5206 -0.5944
 6465TIP3    H219402   4.267   4.356   2.400 -0.0298 -0.2232  0.2747
 6466TIP3   OH219403   6.311   1.910   4.028  0.4222  0.4314  0.0675
 6466TIP3    H119404   6.284   1.993   4.068 -0.4605 -0.2491  0.9364
 6466TIP3    H219405   6.229   1.864   4.010  0.8043  0.4987 -2.1409
 6467TIP3   OH219406   5.675   5.146   4.435  1.0525  0.1536  0.1064
 6467TIP3    H119407   5.593   5.140   4.386 -0.7689 -2.0352  3.0490
 6467TIP3    H219408   5.678   5.237   4.466 -0.9110  0.0029  0.8622
 6468TIP3   OH219409   4.351   5.106   1.346 -0.7727  0.4194 -0.6320
 6468TIP3    H119410   4.405   5.059   1.282  0.5937  2.6545 -1.2039
 6468TIP3    H219411   4.329   5.039   1.411  1.1524 -1.0290 -1.3540
 6469TIP3   OH219412   1.644   3.945   2.839 -0.2566 -0.1375  0.1435
 6469TIP3    H119413   1.644   3.885   2.913  1.7745  0.4587  0.6884
 6469TIP3    H219414   1.553   3.973   2.831 -0.6329 -0.7254  1.9945
 6470TIP3   OH219415   0.432   1.050   3.413  0.0255  0.6113  0.3663
 6470TIP3    H119416   0.440   1.129   3.360 -0.4585 -0.5919 -1.6201
 6470TIP3    H219417   0.338   1.043   3.431  0.1480  0.8284  1.1192
 6471TIP3   OH219418   1.607   1.162   1.173  0.1100  0.1737 -0.1942
 6471TIP3    H119419   1.694   1.126   1.154 -0.3497 -0.9460 -0.2178
 6471TIP3    H219420   1.547   1.112   1.118 -0.6021  0.6793  0.1045
 6472TIP3   OH219421   2.108   5.161   1.272  0.5583 -0.2422  0.0242
 6472TIP3    H119422   2.053   5.232   1.306 -0.3741 -0.0861 -1.7018
 6472TIP3    H219423   2.058   5.081   1.292 -0.4878 -0.0889 -1.7166
 6473TIP3   OH219424   4.452   0.590   4.760  0.3129  0.1044  0.0977
 6473TIP3    H119425   4.431   0.608   4.668 -0.4382  4.3152  0.8720
 6473TIP3    H219426   4.368   0.566   4.799  0.0255  1.1325  0.1530
 6474TIP3   OH219427   1.467   3.884   5.081 -0.3604 -0.3041  0.1726
 6474TIP3    H119428   1.525   3.826   5.131 -0.6523 -1.7474 -1.0878
 6474TIP3    H219429   1.504   3.885   4.993 -1.0702  0.4584 -0.1300
 6475TIP3   OH219430   1.937   5.164   3.137  0.3881 -0.1771  0.2605
 6475TIP3    H119431   1.942   5.248   3.092  0.4519  0.7557  1.9289
 6475TIP3    H219432   1.899   5.104   3.073  0.1669  1.1657 -0.8973
 6476TIP3   OH219433   5.365   0.041   2.727 -0.4288  0.5042  0.6506
 6476TIP3    H119434   5.298   0.109   2.738 -0.4070  0.7595 -0.6955
 6476TIP3    H219435   5.448   0.088   2.739 -0.3821  0.9092 -1.0285
 6477TIP3   OH219436   1.427   4.644   4.244  0.3128 -0.5371 -0.2039
 6477TIP3    H119437   1.496   4.619   4.306 -0.4513  0.0617  0.9041
 6477TIP3    H219438   1.404   4.561   4.201 -0.2074 -1.2631  1.4059
 6478TIP3   OH219439   0.581   1.184   1.949 -0.3112  0.1736 -0.5041
 6478TIP3    H119440   0.521   1.152   1.882  2.0447 -2.1941 -1.6577
 6478TIP3    H219441   0.665   1.196   1.904  0.3853  2.4882  1.2023
 6479TIP3   OH219442   4.379   0.601   3.493  0.3004 -0.4295  0.1274
 6479TIP3    H119443   4.328   0.522   3.510 -1.6270  0.7750  0.2419
 6479TIP3    H219444   4.413   0.589   3.405  0.0750 -1.4067  0.1630
 6480TIP3   OH219445   4.018   3.724   1.158  0.3221  0.3789 -0.5309
 6480TIP3    H119446   4.096   3.751   1.109  0.0363  0.3420 -1.0166
 6480TIP3    H219447   4.050   3.659   1.220  0.8136  0.9545 -0.1679
 6481TIP3   OH219448   0.909   0.355   3.569  0.4077  0.0494  0.5100
 6481TIP3    H119449   0.928   0.268   3.534 -0.5726 -0.0094  0.0821
 6481TIP3    H219450   0.821   0.347   3.607  0.0222  1.0066 -0.1190
 6482TIP3   OH219451   1.315   2.292   2.785 -0.0240  0.1431 -0.4338
 6482TIP3    H119452   1.249   2.356   2.759  0.2471  0.5795 -0.0666
 6482TIP3    H219453   1.266   2.221   2.825 -0.3252  0.1355 -0.8067
 6483TIP3   OH219454   6.034   4.867   1.415  0.0858 -0.3538 -0.3438
 6483TIP3    H119455   6.045   4.893   1.506 -1.3513 -1.6465  0.2279
 6483TIP3    H219456   6.003   4.947   1.371  0.2771  0.1370  0.3919
 6484TIP3   OH219457   4.968   0.280   0.395  0.1343  0.4252  0.2966
 6484TIP3    H119458   4.904   0.225   0.351  2.0975 -1.1406 -0.7855
 6484TIP3    H219459   4.946   0.273   0.488 -1.2746 -0.0093 -0.0418
 6485TIP3   OH219460   1.713   0.932   4.214 -0.1591  0.6913 -0.3194
 6485TIP3    H119461   1.776   0.864   4.189 -0.1709  0.0853  1.1831
 6485TIP3    H219462   1.662   0.948   4.134  0.0082 -0.8849 -0.7834
 6486TIP3   OH219463   6.317   3.099   4.528  0.3654 -0.0150 -0.1484
 6486TIP3    H119464   6.409   3.081   4.509  0.5029  0.7480 -0.2505
 6486TIP3    H219465   6.317   3.130   4.618  0.1833 -0.1787 -0.0913
 6487TIP3   OH219466   4.765   0.328   1.630 -0.4386  0.4459  0.8109
 6487TIP3    H119467   4.807   0.245   1.654 -1.3336  0.5599  3.0156
 6487TIP3    H219468   4.672   0.307   1.621 -0.6318  1.1558  1.0720
 6488TIP3   OH219469   2.317   2.989   0.291  0.4297  0.7343 -0.3778
 6488TIP3    H119470   2.399   2.941   0.282 -0.8750 -1.7691  0.0790
 6488TIP3    H219471   2.249   2.922   0.279 -1.5544  2.6376 -0.3773
 6489TIP3   OH219472   5.636   2.578   3.030  0.0292 -0.0321 -0.1020
 6489TIP3    H119473   5.603   2.662   3.064  0.0095  0.9656 -2.3673
 6489TIP3    H219474   5.721   2.600   2.992 -0.0963 -0.9775 -0.9650
 6490TIP3   OH219475   5.250   1.868   0.818 -0.6039  0.1237 -0.6998
 6490TIP3    H119476   5.295   1.787   0.844  0.2956  0.0653 -2.2744
 6490TIP3    H219477   5.172   1.870   0.873  0.4176 -0.7007  0.8855
 6491TIP3   OH219478   5.701   4.397   1.847 -0.2391  0.1399 -0.2973
 6491TIP3    H119479   5.775   4.396   1.785  1.3975 -2.1897  1.5086
 6491TIP3    H219480   5.735   4.443   1.924 -1.1239  0.1756  0.0776
 6492TIP3   OH219481   5.528   2.084   3.971 -0.5285 -0.2837  0.2801
 6492TIP3    H119482   5.613   2.095   4.013 -0.4395  3.2861 -0.5810
 6492TIP3    H219483   5.543   2.104   3.879 -1.9166 -1.9379 -0.3677
 6493TIP3   OH219484   0.622   1.262   3.229  0.7438  0.4742  0.3802
 6493TIP3    H119485   0.694   1.203   3.206 -0.8086 -1.5009  0.2783
 6493TIP3    H219486   0.561   1.255   3.155  1.7492  4.5240 -1.0586
 6494TIP3   OH219487   3.285   4.008   1.124  0.2581 -0.0243 -0.1450
 6494TIP3    H119488   3.300   3.991   1.217 -1.7939 -0.1320  0.2153
 6494TIP3    H219489   3.283   3.921   1.083  1.6997  0.0492 -0.4069
 6495TIP3   OH219490   0.183   0.924   3.038  0.6557  0.1504 -0.3230
 6495TIP3    H119491   0.135   1.005   3.054 -0.7794 -0.5911 -0.7684
 6495TIP3    H219492   0.247   0.948   2.971  1.0454  1.1847  0.3856
 6496TIP3   OH219493   0.710   5.604   3.608  0.3836 -0.0388 -0.0628
 6496TIP3    H119494   0.744   5.516   3.590 -1.6781 -0.5168 -1.9828
 6496TIP3    H219495   0.757   5.661   3.547  0.3408 -0.0981 -0.1506
 6497TIP3   OH219496   3.786   3.803   0.354  0.2357 -0.0622 -0.4970
 6497TIP3    H119497   3.861   3.765   0.400 -0.6019 -2.3492 -0.9089
 6497TIP3    H219498   3.712   3.747   0.377 -1.2487  1.7227 -0.6574
 6498TIP3   OH219499   0.253   1.614   0.086  0.8686 -0.3799  0.4604
 6498TIP3    H119500   0.225   1.558   0.159  0.0355  1.3870  1.5733
 6498TIP3    H219501   0.299   1.687   0.129 -2.3091  2.3468 -0.4010
 6499TIP3   OH219502   6.065   3.066   3.734  0.2064 -0.2393  0.1894
 6499TIP3    H119503   6.134   3.130   3.752  0.9361 -0.4783 -1.5139
 6499TIP3    H219504   5.983   3.116   3.739  0.7865  0.9859 -1.5222
 6500TIP3   OH219505   2.383   0.943   4.266  0.2316  0.8233  0.3061
 6500TIP3    H119506   2.288   0.932   4.257  0.3270 -1.0354  1.0982
 6500TIP3    H219507   2.396   1.038   4.264 -1.7504  1.1711  1.1031
 6501TIP3   OH219508   4.493   1.170   1.095  0.0471 -0.6707  0.1364
 6501TIP3    H119509   4.544   1.164   1.176 -0.2727 -1.6672  0.2832
 6501TIP3    H219510   4.546   1.123   1.030 -1.2199 -2.8694  0.5970
 6502TIP3   OH219511   4.447   2.589   3.145 -0.2061 -0.6778 -0.3079
 6502TIP3    H119512   4.450   2.648   3.069  2.6720  1.2752  1.1485
 6502TIP3    H219513   4.362   2.545   3.137 -2.1938  2.9433 -2.0597
 6503TIP3   OH219514   3.877   4.069   1.832 -0.3590  0.2521  0.7783
 6503TIP3    H119515   3.865   3.977   1.807  2.2694 -0.3339  1.2995
 6503TIP3    H219516   3.903   4.066   1.924 -1.0929  1.6112  1.0591
 6504TIP3   OH219517   2.683   2.494   2.831 -0.7655 -0.3917 -0.0310
 6504TIP3    H119518   2.765   2.449   2.851 -0.8770 -0.6673 -0.1804
 6504TIP3    H219519   2.662   2.467   2.742  0.0754  1.3586 -0.7831
 6505TIP3   OH219520   3.978   0.292   2.668  0.3470 -0.5288 -0.2003
 6505TIP3    H119521   3.942   0.335   2.590  0.8744 -0.5049 -0.4331
 6505TIP3    H219522   3.903   0.282   2.726  0.0166 -0.2274 -0.5678
 6506TIP3   OH219523   3.836   5.299   1.520 -0.4924  0.5713 -0.4251
 6506TIP3    H119524   3.865   5.386   1.547  0.3027  0.0695  0.3984
 6506TIP3    H219525   3.855   5.295   1.426  0.4788  0.9020 -0.2559
 6507TIP3   OH219526   6.002   3.265   2.660  0.5535 -0.3985 -0.4801
 6507TIP3    H119527   6.059   3.188   2.659 -2.1892 -2.6096 -2.6057
 6507TIP3    H219528   6.025   3.313   2.580  1.4814  0.4403  0.2634
 6508TIP3   OH219529   0.961   5.475   2.703  0.6844  0.3479 -0.0510
 6508TIP3    H119530   0.969   5.441   2.792  0.0815 -0.4052 -0.2740
 6508TIP3    H219531   0.964   5.398   2.647 -0.8164  0.6190 -0.5658
 6509TIP3   OH219532   4.815   5.108   5.029 -0.5973 -0.3088  0.3311
 6509TIP3    H119533   4.765   5.188   5.045  0.1523  0.1385  0.5069
 6509TIP3    H219534   4.755   5.052   4.980 -1.1606  0.3325  0.2594
 6510TIP3   OH219535   0.862   1.637   1.021  0.5190  0.3041 -0.2959
 6510TIP3    H119536   0.954   1.645   1.045  0.4588  1.5739 -0.4371
 6510TIP3    H219537   0.862   1.644   0.926  0.1011  2.5105 -0.1775
 6511TIP3   OH219538   2.699   0.233   5.036 -0.1910  0.0458  0.1873
 6511TIP3    H119539   2.677   0.169   5.105  1.8070  0.6513  1.4468
 6511TIP3    H219540   2.629   0.222   4.972  0.1528 -3.6028  0.2070
 6512TIP3   OH219541   5.187   2.424   0.291  0.1606 -0.6242 -0.3325
 6512TIP3    H119542   5.134   2.491   0.248 -0.2649 -1.1710 -0.6801
 6512TIP3    H219543   5.266   2.417   0.238  1.1825  1.0807  0.8859
 6513TIP3   OH219544   2.504   4.738   4.655 -0.0520 -0.3168 -0.0338
 6513TIP3    H119545   2.428   4.733   4.598 -0.2963  1.0624  0.1164
 6513TIP3    H219546   2.566   4.674   4.620 -0.4437  0.0516 -1.4682
 6514TIP3   OH219547   3.405   2.867   3.356 -0.1802  0.2234  0.6593
 6514TIP3    H119548   3.379   2.777   3.335  0.2193  0.5142 -1.2964
 6514TIP3    H219549   3.340   2.896   3.420 -1.6403 -0.7357 -0.3083
 6515TIP3   OH219550   4.725   3.050   2.094 -0.1704  0.0201 -0.6839
 6515TIP3    H119551   4.714   3.142   2.068  1.3710  0.3625 -0.2438
 6515TIP3    H219552   4.784   3.054   2.168 -0.2191 -1.3387 -0.5558
 6516TIP3   OH219553   5.677   2.596   5.148 -0.2489  0.5194  0.0610
 6516TIP3    H119554   5.712   2.540   5.080  1.1799 -0.7972  1.7878
 6516TIP3    H219555   5.747   2.659   5.167 -0.7825  1.1305  0.0499
 6517TIP3   OH219556   2.964   3.761   2.504 -0.1908 -0.3619  0.8454
 6517TIP3    H119557   2.951   3.849   2.539  1.3048  0.4668 -0.5704
 6517TIP3    H219558   3.040   3.768   2.447  0.2289 -2.6859  1.0054
 6518TIP3   OH219559   2.678   5.009   5.052 -0.4929  0.0270  0.1719
 6518TIP3    H119560   2.714   4.927   5.017 -0.3734 -0.1686  0.7292
 6518TIP3    H219561   2.754   5.055   5.087 -0.3449  1.0646 -1.4547
 6519TIP3   OH219562   4.704   2.229   4.863 -0.1415 -0.6301  0.3348
 6519TIP3    H119563   4.698   2.322   4.841  0.0995 -1.0901 -1.8974
 6519TIP3    H219564   4.711   2.228   4.958 -0.3539  1.6197  0.4399
 6520TIP3   OH219565   1.904   1.987   0.471  0.0919 -0.5755  0.2825
 6520TIP3    H119566   1.930   2.052   0.537 -1.2585 -1.6278  1.9330
 6520TIP3    H219567   1.849   2.037   0.411  1.5117  0.4510 -0.2375
 6521TIP3   OH219568   0.338   2.691   3.759  0.4261  0.0758  0.1896
 6521TIP3    H119569   0.406   2.758   3.765  0.2539  0.1787  1.3499
 6521TIP3    H219570   0.288   2.714   3.681  0.4767  1.2010  0.4711
 6522TIP3   OH219571   5.134   4.660   2.299  0.6710  0.2968  0.3572
 6522TIP3    H119572   5.132   4.651   2.395 -1.0342  0.4256  0.3606
 6522TIP3    H219573   5.210   4.608   2.272 -2.1026 -4.9931  1.3152
 6523TIP3   OH219574   0.056   1.910   1.691  0.2865  0.0274  0.2741
 6523TIP3    H119575   0.030   1.924   1.600 -1.1958 -3.0884  0.0975
 6523TIP3    H219576  -0.019   1.942   1.743  0.4266  0.2710  0.3298
 6524TIP3   OH219577   3.465   5.841   1.570  0.2390  0.4569 -0.0838
 6524TIP3    H119578   3.471   5.934   1.592  2.4553  0.1020  1.1288
 6524TIP3    H219579   3.489   5.796   1.650 -1.3176 -1.2230 -0.4944
 6525TIP3   OH219580   2.751   4.508   0.780  0.4175 -0.0676 -0.2472
 6525TIP3    H119581   2.826   4.488   0.837  0.8483  0.2266 -0.7119
 6525TIP3    H219582   2.783   4.490   0.692  0.2446  0.9837 -0.5290
 6526TIP3   OH219583   2.117   1.089   4.358 -0.0765 -0.1459 -0.6760
 6526TIP3    H119584   2.096   0.995   4.365 -0.3920 -0.1422 -1.4224
 6526TIP3    H219585   2.044   1.126   4.309  0.5477  0.3042 -1.2836
 6527TIP3   OH219586   0.318   5.257   3.373  0.0794 -0.2045  0.0843
 6527TIP3    H119587   0.395   5.308   3.348  1.6597 -0.7228  3.3904
 6527TIP3    H219588   0.276   5.308   3.442 -1.4445 -0.8720 -0.2954
 6528TIP3   OH219589   0.371   1.997   4.896  0.0182  0.4026 -0.8983
 6528TIP3    H119590   0.277   1.995   4.874 -0.4724  0.5612  0.9906
 6528TIP3    H219591   0.388   2.089   4.916 -0.1664  0.0087  1.4483
 6529TIP3   OH219592   3.855   0.556   0.770 -0.1832 -0.4535  0.0457
 6529TIP3    H119593   3.855   0.633   0.713 -0.2235 -0.3690  0.1579
 6529TIP3    H219594   3.929   0.571   0.829  0.3579 -0.9260 -0.4947
 6530TIP3   OH219595   5.806   2.102   0.449  0.3715  0.1910  0.2116
 6530TIP3    H119596   5.743   2.067   0.385  2.6296 -1.0180 -1.5125
 6530TIP3    H219597   5.892   2.081   0.411  1.8660 -0.3278  3.5417
 6531TIP3   OH219598   0.489   2.203   2.127  0.1511  0.2327 -0.2178
 6531TIP3    H119599   0.425   2.133   2.139  0.5240 -0.3813 -1.5891
 6531TIP3    H219600   0.524   2.218   2.215  0.7830 -2.0165 -0.0081
 6532TIP3   OH219601   0.559   4.179   3.738 -0.2481  0.1579  0.1135
 6532TIP3    H119602   0.552   4.094   3.693 -1.8715  0.9820 -1.3129
 6532TIP3    H219603   0.624   4.227   3.687 -1.1902  0.6510 -0.6557
 6533TIP3   OH219604   2.720   5.986   3.721 -0.2983 -0.4773 -0.4022
 6533TIP3    H119605   2.790   5.922   3.707 -0.0829 -0.3541  0.0891
 6533TIP3    H219606   2.689   5.968   3.810 -0.3907 -0.0523 -0.3468
 6534TIP3   OH219607   5.029   1.434   4.915  0.1457  0.1051  0.1578
 6534TIP3    H119608   4.941   1.397   4.911  0.5004 -0.7761  0.1658
 6534TIP3    H219609   5.020   1.515   4.964 -0.3348 -1.0202  2.0239
 6535TIP3   OH219610   3.854   5.774   2.196 -0.2655 -0.4943 -0.4927
 6535TIP3    H119611   3.763   5.802   2.184  0.0763 -0.2042 -2.8847
 6535TIP3    H219612   3.848   5.698   2.255 -1.9484  0.0120  0.0524
 6536TIP3   OH219613   5.986   4.018   1.831 -0.1272 -0.0624 -0.0551
 6536TIP3    H119614   6.048   4.090   1.823  1.5497 -1.3859  0.3813
 6536TIP3    H219615   5.915   4.053   1.885  1.1830  0.9509  1.0870
 6537TIP3   OH219616   3.163   5.135   3.699 -0.1049 -0.2693 -0.0623
 6537TIP3    H119617   3.223   5.091   3.638 -0.9242 -1.5787  0.0204
 6537TIP3    H219618   3.126   5.208   3.649  2.7049  1.6059  0.3826
 6538TIP3   OH219619   3.867   0.892   0.708  0.1865 -0.3112 -0.3390
 6538TIP3    H119620   3.804   0.882   0.637 -0.8158  3.0468 -0.0970
 6538TIP3    H219621   3.951   0.906   0.664 -0.2622  0.7976 -0.8722
 6539TIP3   OH219622   2.208   0.392   2.042 -0.4790 -0.4171 -0.4154
 6539TIP3    H119623   2.145   0.427   2.106  0.9941  2.3169 -0.3107
 6539TIP3    H219624   2.173   0.420   1.957 -0.2315 -0.2879 -0.4747
 6540TIP3   OH219625   6.285   5.178   3.702  0.6366 -0.0872  0.2757
 6540TIP3    H119626   6.269   5.272   3.713 -0.9339 -0.3812  0.7663
 6540TIP3    H219627   6.201   5.137   3.726  1.8321 -1.7305  1.8865
 6541TIP3   OH219628   0.551   5.214   0.890  0.5515  0.3001 -0.0799
 6541TIP3    H119629   0.476   5.171   0.931 -0.4209  0.8112 -1.2719
 6541TIP3    H219630   0.545   5.189   0.798  0.3894  2.3336 -0.6676
 6542TIP3   OH219631   5.232   3.292   0.922 -0.3644 -0.2683 -0.1108
 6542TIP3    H119632   5.222   3.304   1.016  2.5412  0.8992  0.1551
 6542TIP3    H219633   5.305   3.231   0.913 -0.2197  0.0764 -1.6133
 6543TIP3   OH219634   3.679   1.211   3.297  0.1209  0.6664  0.3504
 6543TIP3    H119635   3.733   1.245   3.368 -2.1680  1.6301  1.7645
 6543TIP3    H219636   3.633   1.136   3.336  0.3215 -0.0463 -0.7535
 6544TIP3   OH219637   1.087   2.189   1.052 -0.1313 -0.0551  0.1816
 6544TIP3    H119638   1.124   2.243   1.121  1.7906  0.4241 -1.1572
 6544TIP3    H219639   1.162   2.155   1.004 -1.3779 -0.7197 -1.4200
 6545TIP3   OH219640   5.950   1.065   0.556  0.1947  0.3562 -0.5884
 6545TIP3    H119641   5.979   0.975   0.539  0.8660  0.6534 -1.0564
 6545TIP3    H219642   5.998   1.091   0.635  0.7240  0.6256 -0.9942
 6546TIP3   OH219643   0.324   5.305   4.393  0.2060  0.0135 -0.2916
 6546TIP3    H119644   0.245   5.251   4.397  0.4542 -0.4809 -1.3898
 6546TIP3    H219645   0.396   5.241   4.387  0.8976  0.3971  2.6128
 6547TIP3   OH219646   1.270   1.438   2.744  0.2586 -0.3634 -0.4749
 6547TIP3    H119647   1.179   1.469   2.740  0.7559  1.1140 -0.9064
 6547TIP3    H219648   1.317   1.509   2.787  1.1521 -1.3201  0.1694
 6548TIP3   OH219649   2.581   2.760   4.132 -0.0512 -0.4090 -0.1321
 6548TIP3    H119650   2.621   2.790   4.214  0.1164  1.1120 -0.7406
 6548TIP3    H219651   2.653   2.759   4.069 -0.4655 -0.1190 -0.6209
 6549TIP3   OH219652   4.781   0.472   2.533  0.5149  0.6929 -0.1112
 6549TIP3    H119653   4.697   0.433   2.508  0.9729  0.6677 -1.6908
 6549TIP3    H219654   4.804   0.529   2.460  1.8189  0.7755  0.3449
 6550TIP3   OH219655   4.219   1.231   0.036 -0.3733  0.2115  0.2921
 6550TIP3    H119656   4.299   1.182   0.054 -0.0739  0.8569  0.8100
 6550TIP3    H219657   4.236   1.276  -0.047  0.5148  1.7127  1.2329
 6551TIP3   OH219658   0.012   5.258   3.307 -0.2951  0.1304 -0.8309
 6551TIP3    H119659   0.076   5.275   3.375 -0.2110 -1.4476 -0.4750
 6551TIP3    H219660  -0.073   5.276   3.348 -0.1466  1.2605 -0.9977
 6552TIP3   OH219661   6.322   2.498   2.133  0.4843 -0.2067 -0.2806
 6552TIP3    H119662   6.298   2.540   2.051 -0.7904 -1.7243 -0.7222
 6552TIP3    H219663   6.358   2.569   2.186  0.1327  1.0548 -1.6652
 6553TIP3   OH219664   6.169   3.989   3.544  0.6615  0.2042 -0.0122
 6553TIP3    H119665   6.096   3.954   3.596 -0.1161  0.1374 -1.1278
 6553TIP3    H219666   6.233   3.918   3.544 -0.2865 -0.6817 -1.0118
 6554TIP3   OH219667   1.670   0.105   0.255  0.6319  0.1824  0.5176
 6554TIP3    H119668   1.597   0.130   0.310 -1.3773  0.4437 -2.0796
 6554TIP3    H219669   1.725   0.183   0.250 -0.7392  1.1349 -0.1958
 6555TIP3   OH219670   0.098   3.906   2.160  0.0609  0.2123  0.8615
 6555TIP3    H119671   0.059   3.856   2.088  0.2605  4.0134 -2.2873
 6555TIP3    H219672   0.041   3.890   2.235 -1.7683 -1.9781 -0.8499
 6556TIP3   OH219673   2.938   5.264   0.120 -0.4124  0.1884  0.7108
 6556TIP3    H119674   2.876   5.196   0.091  0.1944  0.6068 -1.7544
 6556TIP3    H219675   3.019   5.245   0.073  0.0971  1.9919  0.7752
 6557TIP3   OH219676   5.284   1.946   0.165 -0.1883  0.0395 -0.3307
 6557TIP3    H119677   5.274   1.857   0.131 -0.5585  0.0997 -0.3799
 6557TIP3    H219678   5.322   1.933   0.253  0.4920 -0.1247 -0.6372
 6558TIP3   OH219679   3.321   1.864   1.580 -0.6831 -0.2479  0.2394
 6558TIP3    H119680   3.327   1.959   1.586 -0.7624 -0.2287  0.0220
 6558TIP3    H219681   3.261   1.848   1.507  0.1945 -0.4731 -0.4495
 6559TIP3   OH219682   5.846   2.534   4.246 -0.4434  0.0433 -0.1256
 6559TIP3    H119683   5.940   2.548   4.251 -0.7174  1.7206  1.2523
 6559TIP3    H219684   5.832   2.490   4.162  1.5186  0.1016 -0.5157
 6560TIP3   OH219685   1.856   5.357   2.525 -0.0546  0.1517  0.1049
 6560TIP3    H119686   1.802   5.388   2.597 -0.4329  1.1745 -0.5914
 6560TIP3    H219687   1.935   5.323   2.567 -0.4648  0.3031  1.0202
 6561TIP3   OH219688   4.776   3.085   0.765 -0.4463 -0.0845 -0.2516
 6561TIP3    H119689   4.843   3.137   0.720 -0.7220  1.2221  0.7972
 6561TIP3    H219690   4.819   3.002   0.785  0.8593  0.7148  0.3533
 6562TIP3   OH219691   1.441   4.291   3.658 -0.9897 -0.7064 -0.0469
 6562TIP3    H119692   1.410   4.226   3.595 -0.2337 -2.5902  1.4399
 6562TIP3    H219693   1.481   4.359   3.604 -2.7477 -0.8840 -1.7112
 6563TIP3   OH219694   6.209   1.169   5.092 -0.2697  0.5083 -0.1855
 6563TIP3    H119695   6.148   1.227   5.046 -0.3822  1.8576  1.5585
 6563TIP3    H219696   6.154   1.118   5.151 -0.0601 -0.7869 -1.0682
 6564TIP3   OH219697   5.419   2.240   1.815 -0.7741 -0.0093  0.1024
 6564TIP3    H119698   5.376   2.322   1.790 -0.8345 -0.6511 -2.0408
 6564TIP3    H219699   5.508   2.248   1.781 -0.3745 -0.3305  1.0323
 6565TIP3   OH219700   2.624   1.165   3.869  0.2208  0.3510  0.1083
 6565TIP3    H119701   2.556   1.099   3.871 -0.1496  0.6450 -1.7891
 6565TIP3    H219702   2.599   1.225   3.799  2.0910  0.8222 -0.2189
 6566TIP3   OH219703   2.218   0.660   0.436 -0.3073 -0.3581 -0.5392
 6566TIP3    H119704   2.236   0.566   0.429  1.1201 -0.0527 -1.2410
 6566TIP3    H219705   2.254   0.685   0.522  0.2591 -0.2579 -0.8029
 6567TIP3   OH219706   3.928   4.043   0.428 -0.0462 -0.1811 -0.1094
 6567TIP3    H119707   3.920   4.010   0.518  1.1883 -0.6672 -0.1569
 6567TIP3    H219708   3.874   3.984   0.376 -0.5105 -0.0945  0.2641
 6568TIP3   OH219709   5.813   4.445   2.330 -0.1916  0.1909  0.4656
 6568TIP3    H119710   5.789   4.361   2.291 -0.1016 -0.0072  0.8233
 6568TIP3    H219711   5.851   4.496   2.259  2.3373 -1.0834  0.7879
 6569TIP3   OH219712   5.716   1.053   4.098 -0.1846 -0.3596  1.1205
 6569TIP3    H119713   5.742   1.135   4.139  1.4735  0.0864 -0.6567
 6569TIP3    H219714   5.650   1.079   4.033 -0.1790 -0.5402  1.0413
 6570TIP3   OH219715   0.702   1.360   1.515 -0.3086  0.4408  0.0308
 6570TIP3    H119716   0.687   1.308   1.436  0.5520  0.3658 -0.0912
 6570TIP3    H219717   0.697   1.451   1.485 -1.4278  0.4442  0.1728
 6571TIP3   OH219718   4.391   5.343   4.404  0.3907  0.1782 -0.1954
 6571TIP3    H119719   4.333   5.318   4.476  0.9956 -0.9186 -0.0537
 6571TIP3    H219720   4.386   5.269   4.343  2.9605 -0.8234  0.6641
 6572TIP3   OH219721   4.375   0.832   3.095  0.4814  0.2873  0.7184
 6572TIP3    H119722   4.399   0.924   3.082  0.5943  0.1252 -0.3012
 6572TIP3    H219723   4.289   0.835   3.136  0.1184  0.8539 -0.0610
 6573TIP3   OH219724   5.833   5.031   3.214 -0.4555  0.0301  0.8487
 6573TIP3    H119725   5.871   4.981   3.286  0.7016  0.0154  0.2560
 6573TIP3    H219726   5.873   4.994   3.135 -0.9164  0.7221  0.2781
 6574TIP3   OH219727   0.082   5.674   2.089  0.1706  0.8721 -0.3776
 6574TIP3    H119728   0.169   5.712   2.082 -0.1173  1.4780 -0.7446
 6574TIP3    H219729   0.060   5.682   2.182  0.0316  1.8035 -0.4828
 6575TIP3   OH219730   3.894   0.638   2.368  0.3403 -0.1367 -0.1483
 6575TIP3    H119731   3.934   0.582   2.302 -1.9713 -0.4574 -1.3709
 6575TIP3    H219732   3.830   0.582   2.412  0.5928  0.5604  1.1478
 6576TIP3   OH219733   2.464   2.639   0.883  0.4586 -0.1636 -0.0554
 6576TIP3    H119734   2.493   2.672   0.968  0.9404 -0.0084 -0.2814
 6576TIP3    H219735   2.377   2.602   0.901 -0.1615  1.3389  0.1760
 6577TIP3   OH219736   3.958   0.884   0.205  0.3483 -0.0546 -0.4292
 6577TIP3    H119737   3.951   0.849   0.116  0.7880 -0.3033 -0.3700
 6577TIP3    H219738   4.050   0.871   0.228 -0.0707 -1.3022  0.6121
 6578TIP3   OH219739   1.862   3.927   1.133 -0.2481 -0.2310 -0.4610
 6578TIP3    H119740   1.802   3.918   1.060 -1.2669 -1.3158  0.4631
 6578TIP3    H219741   1.882   3.836   1.159  1.0615  0.1179 -0.1667
 6579TIP3   OH219742   3.683   3.068   3.814 -0.1091  0.2415  0.0047
 6579TIP3    H119743   3.623   2.999   3.786  0.6689 -0.2934 -0.3695
 6579TIP3    H219744   3.665   3.079   3.907 -2.2756  1.5919 -0.4867
 6580TIP3   OH219745   4.747   3.245   4.922  0.0048  0.2747 -0.4381
 6580TIP3    H119746   4.723   3.335   4.942  1.6390  0.5678  0.3692
 6580TIP3    H219747   4.730   3.197   5.003  0.2147  0.0950 -0.4993
 6581TIP3   OH219748   1.622   2.386   0.621  0.0001  0.2148  0.2082
 6581TIP3    H119749   1.658   2.392   0.710  0.6239  1.4401 -0.1036
 6581TIP3    H219750   1.530   2.363   0.635  0.5755 -1.7377  1.0697
 6582TIP3   OH219751   1.649   1.670   1.140 -0.6362  0.1430  0.5691
 6582TIP3    H119752   1.734   1.635   1.166  0.5204  2.7328  0.6863
 6582TIP3    H219753   1.585   1.607   1.172  1.2369 -2.0760  0.1516
 6583TIP3   OH219754   6.258   3.255   3.828  0.4027  0.3365 -0.1779
 6583TIP3    H119755   6.227   3.330   3.879  0.8163 -0.5866  1.5076
 6583TIP3    H219756   6.349   3.275   3.808  0.2841  0.6305 -0.4402
 6584TIP3   OH219757   4.082   3.223   0.795  0.0096  0.2138  0.4300
 6584TIP3    H119758   4.110   3.191   0.880 -1.7857 -0.9933  0.6284
 6584TIP3    H219759   4.007   3.279   0.814  1.4408  2.4611 -0.1572
 6585TIP3   OH219760   2.339   4.940   3.089 -0.2441 -0.2532 -0.2195
 6585TIP3    H119761   2.330   4.848   3.064  1.0427 -1.0025  1.8011
 6585TIP3    H219762   2.433   4.952   3.099 -0.5619  0.0991  3.4300
 6586TIP3   OH219763   3.637   0.849   1.066 -0.5025 -0.1590 -0.4874
 6586TIP3    H119764   3.565   0.892   1.113 -0.4580 -0.3143 -0.2751
 6586TIP3    H219765   3.652   0.768   1.115  0.9539  0.6636  0.4748
 6587TIP3   OH219766   4.165   1.174   1.094 -0.1850 -0.4860  0.0021
 6587TIP3    H119767   4.149   1.109   1.026 -2.3326 -0.6140  0.5471
 6587TIP3    H219768   4.259   1.168   1.113  0.3599 -0.7906 -2.5472
 6588TIP3   OH219769   5.342   3.645   1.081  0.0685  0.4091 -0.2235
 6588TIP3    H119770   5.283   3.688   1.143 -1.0135 -0.5064 -0.5997
 6588TIP3    H219771   5.407   3.712   1.060 -1.6843  1.9600 -0.9783
 6589TIP3   OH219772   4.523   5.055   5.085  0.6324 -0.0305  0.3721
 6589TIP3    H119773   4.454   4.991   5.064  0.3124  0.2311  0.6288
 6589TIP3    H219774   4.498   5.134   5.037  0.5813  0.1654  0.7173
 6590TIP3   OH219775   4.338   0.369   0.639 -0.2770  0.7219  0.2280
 6590TIP3    H119776   4.351   0.380   0.733  1.5206  1.2470 -0.0501
 6590TIP3    H219777   4.419   0.330   0.608 -1.1478 -0.2125 -1.0119
 6591TIP3   OH219778   1.895   0.739   4.119 -0.2040  0.1246 -0.4962
 6591TIP3    H119779   1.910   0.646   4.102 -0.3411 -0.1802  0.9211
 6591TIP3    H219780   1.940   0.784   4.048  3.8561 -0.8387  1.2223
 6592TIP3   OH219781   5.162   0.636   2.623  0.4446 -0.2627 -0.2378
 6592TIP3    H119782   5.241   0.597   2.584  0.2456 -0.9713  0.0440
 6592TIP3    H219783   5.188   0.725   2.645  1.0167 -0.3295 -0.6112
 6593TIP3   OH219784   5.928   0.459   3.539 -0.0604 -0.1822 -0.5692
 6593TIP3    H119785   6.013   0.438   3.577  1.2151  0.7204 -2.7524
 6593TIP3    H219786   5.908   0.546   3.574 -0.2401 -0.5009  0.1460
 6594TIP3   OH219787   2.492   1.148   3.012  0.0458  0.1383 -0.0820
 6594TIP3    H119788   2.492   1.063   3.055 -0.1820  0.6169  0.8865
 6594TIP3    H219789   2.417   1.195   3.050  1.3494  1.5070  0.9267
 6595TIP3   OH219790   3.665   3.585   0.700  0.2945 -0.0987 -0.1427
 6595TIP3    H119791   3.743   3.583   0.645  0.2854 -0.4117 -0.1449
 6595TIP3    H219792   3.673   3.509   0.757  0.2286  0.1391  0.1863
 6596TIP3   OH219793   0.941   3.936   3.990 -0.2390  0.4839  0.0985
 6596TIP3    H119794   0.936   4.030   4.007 -1.1837  0.3063  0.8588
 6596TIP3    H219795   0.897   3.896   4.064 -0.0587 -0.5599 -0.3447
 6597TIP3   OH219796   2.487   3.330   1.410  0.6295  0.3211  0.1936
 6597TIP3    H119797   2.562   3.304   1.463  1.0840 -0.8599 -0.9524
 6597TIP3    H219798   2.516   3.408   1.363  0.1943  1.4246  1.6896
 6598TIP3   OH219799   5.023   2.636   3.909 -0.0492  0.1144 -0.2129
 6598TIP3    H119800   5.074   2.642   3.828 -0.2429  0.5468 -0.3038
 6598TIP3    H219801   5.078   2.583   3.968 -1.1893 -2.8597 -1.5971
 6599TIP3   OH219802   4.510   4.204   4.393 -0.6364 -0.5172  0.3334
 6599TIP3    H119803   4.549   4.264   4.457  0.0290  2.2437 -2.4357
 6599TIP3    H219804   4.415   4.219   4.400 -0.5219  0.2927  0.2281
 6600TIP3   OH219805   6.116   1.227   1.236 -0.0241 -0.1472  0.4948
 6600TIP3    H119806   6.035   1.242   1.187  0.0866 -1.5506 -0.1716
 6600TIP3    H219807   6.089   1.177   1.313 -0.0266  0.9802  1.2392
 6601TIP3   OH219808   5.752   5.799   2.695 -0.2047  0.3639 -0.0128
 6601TIP3    H119809   5.697   5.787   2.618 -2.4067 -0.6948  1.6048
 6601TIP3    H219810   5.716   5.877   2.738 -0.7714 -0.5702  1.2729
 6602TIP3   OH219811   0.868   4.746   2.444  0.7081 -0.9114  0.4972
 6602TIP3    H119812   0.858   4.683   2.373 -1.7364 -0.1449  0.0945
 6602TIP3    H219813   0.914   4.820   2.405  2.4054 -1.8273  0.6424
 6603TIP3   OH219814   5.605   3.960   2.912  0.4466 -0.5024  0.2082
 6603TIP3    H119815   5.608   3.868   2.939  0.5652 -0.4304  0.4457
 6603TIP3    H219816   5.687   3.997   2.945 -0.0919 -0.0501  1.0652
 6604TIP3   OH219817   3.535   1.538   4.692  0.0553  0.4686 -0.0646
 6604TIP3    H119818   3.584   1.586   4.759 -0.5944 -0.4002  1.0908
 6604TIP3    H219819   3.594   1.531   4.618  0.7062  1.7044  0.3130
 6605TIP3   OH219820   0.739   3.512   2.085  0.1280 -0.5089  0.7398
 6605TIP3    H119821   0.674   3.562   2.134  0.6419  0.5788  0.3617
 6605TIP3    H219822   0.770   3.573   2.018  0.0163 -1.6924 -0.4344
 6606TIP3   OH219823   4.077   0.278   3.819 -0.1506 -0.0623 -0.5416
 6606TIP3    H119824   4.051   0.318   3.902  0.2902 -1.3025  0.2272
 6606TIP3    H219825   4.007   0.302   3.758 -1.6069 -0.8836  0.7270
 6607TIP3   OH219826   5.105   4.176   1.941  0.2660 -0.0306  0.5638
 6607TIP3    H119827   5.024   4.131   1.920 -0.3163 -0.5604  3.5648
 6607TIP3    H219828   5.091   4.266   1.911 -0.9637 -0.3909 -0.0056
 6608TIP3   OH219829   2.096   4.680   5.143 -0.2789 -0.6519  0.0815
 6608TIP3    H119830   2.189   4.701   5.137 -0.5729  0.6318 -0.3660
 6608TIP3    H219831   2.076   4.688   5.237  0.1132 -1.1961  0.2135
 6609TIP3   OH219832   0.481   4.658   0.451  0.3063  0.0718  0.2953
 6609TIP3    H119833   0.402   4.644   0.399  1.0255  0.9992 -1.1092
 6609TIP3    H219834   0.449   4.693   0.535 -0.7882 -0.0240 -0.0684
 6610TIP3   OH219835   0.414   0.586   2.642  0.0370 -0.0831 -0.3010
 6610TIP3    H119836   0.396   0.677   2.667  0.7645  0.1227 -0.5133
 6610TIP3    H219837   0.361   0.534   2.703 -0.8784  0.4883 -0.5805
 6611TIP3   OH219838   5.012   3.218   0.743 -0.2547 -0.0423 -0.3292
 6611TIP3    H119839   5.090   3.201   0.691 -0.9430 -2.0662 -0.7728
 6611TIP3    H219840   5.045   3.239   0.831  0.7892 -0.4797 -0.6106
 6612TIP3   OH219841   2.012   0.677   4.587  0.0074 -0.2865  0.0788
 6612TIP3    H119842   2.053   0.720   4.662  0.6279  1.3101 -1.1140
 6612TIP3    H219843   1.918   0.690   4.601  0.1761  1.6926 -0.3163
 6613TIP3   OH219844   1.748   0.771   0.367  0.2914 -0.2662 -0.1837
 6613TIP3    H119845   1.695   0.775   0.447  0.9786 -1.5310  0.3494
 6613TIP3    H219846   1.827   0.821   0.389  0.9288 -1.4511  0.3003
 6614TIP3   OH219847   3.182   4.099   4.611  0.1876  0.0521 -0.0307
 6614TIP3    H119848   3.106   4.087   4.554 -0.0840 -0.1872  0.3779
 6614TIP3    H219849   3.219   4.011   4.619 -0.1971 -0.0420  0.7472
 6615TIP3   OH219850   4.771   0.134   4.825  0.2221 -0.4282 -0.2696
 6615TIP3    H119851   4.836   0.130   4.896 -0.0458 -2.5551 -0.0638
 6615TIP3    H219852   4.729   0.219   4.836 -0.1462 -0.8614  2.4729
 6616TIP3   OH219853   5.156   4.843   0.061  0.5223 -0.1461  0.1914
 6616TIP3    H119854   5.205   4.781   0.008  0.2625  1.4396 -2.0916
 6616TIP3    H219855   5.219   4.876   0.125  1.6942 -0.1209 -0.9388
 6617TIP3   OH219856   4.382   5.577   2.447 -0.4792  0.4841 -0.4310
 6617TIP3    H119857   4.308   5.550   2.502 -1.5420 -0.1558 -2.0728
 6617TIP3    H219858   4.380   5.516   2.374  2.2915 -0.1178 -0.0922
 6618TIP3   OH219859   2.523   0.913   1.623 -0.4464  0.4058 -0.3386
 6618TIP3    H119860   2.552   0.922   1.714  1.6147 -1.9325 -0.6790
 6618TIP3    H219861   2.588   0.962   1.572 -0.1976 -0.3041 -0.7165
 6619TIP3   OH219862   3.052   3.657   3.848  0.0685  0.2116  0.0806
 6619TIP3    H119863   2.998   3.671   3.769  1.3124 -1.2232 -1.0701
 6619TIP3    H219864   3.128   3.714   3.835  1.1658 -1.3549 -0.6929
 6620TIP3   OH219865   0.330   5.843   1.424 -0.7123 -0.2021 -0.6317
 6620TIP3    H119866   0.410   5.802   1.392 -1.0073 -1.2130 -0.1301
 6620TIP3    H219867   0.358   5.929   1.456  0.0487 -0.2809 -1.0611
 6621TIP3   OH219868   2.707   2.800   2.739 -0.9829 -0.3165 -0.6323
 6621TIP3    H119869   2.701   2.710   2.770 -0.0197 -0.8236 -1.8197
 6621TIP3    H219870   2.617   2.833   2.744 -1.6156 -1.7937 -1.4642
 6622TIP3   OH219871   0.954   5.065   0.388 -0.0698  0.2571 -0.7854
 6622TIP3    H119872   0.940   5.047   0.481 -0.2796  2.1124 -0.4179
 6622TIP3    H219873   1.049   5.063   0.376 -0.0791 -1.0852 -0.8041
 6623TIP3   OH219874   5.989   5.481   3.908  0.2646  0.3918  0.1291
 6623TIP3    H119875   5.900   5.489   3.942  1.2318  1.7002  2.5925
 6623TIP3    H219876   6.024   5.403   3.951  1.2439  1.6136  1.6805
 6624TIP3   OH219877   3.193   2.702   0.730  0.1180  0.1623  0.4236
 6624TIP3    H119878   3.201   2.633   0.663  0.3864  0.4448  0.1618
 6624TIP3    H219879   3.280   2.743   0.731  0.0490  0.2971  0.7982
 6625TIP3   OH219880   3.617   0.378   4.502 -0.1297  0.1894 -0.0439
 6625TIP3    H119881   3.668   0.322   4.444 -0.3095 -1.5077  1.3249
 6625TIP3    H219882   3.682   0.431   4.548  0.2558 -0.4627  0.1822
 6626TIP3   OH219883   1.574   0.068   4.260 -0.2239 -0.1881 -0.2936
 6626TIP3    H119884   1.595  -0.003   4.320 -0.0894 -1.6120 -1.9492
 6626TIP3    H219885   1.637   0.137   4.280 -0.6679 -0.2883  1.6735
 6627TIP3   OH219886   3.438   2.390   0.528 -0.1247 -0.6120 -0.2164
 6627TIP3    H119887   3.517   2.439   0.503 -0.8380  0.3740 -0.5997
 6627TIP3    H219888   3.466   2.299   0.529  1.5748 -0.1684  1.7010
 6628TIP3   OH219889   5.442   1.078   5.056 -0.2542  0.1496 -0.3395
 6628TIP3    H119890   5.434   1.094   5.150 -0.0111  0.4503 -0.3674
 6628TIP3    H219891   5.384   1.142   5.015 -0.0437  0.2991 -0.4094
 6629TIP3   OH219892   3.968   1.164   2.976  0.0962 -0.0399  0.8142
 6629TIP3    H119893   3.889   1.187   3.025 -0.7234 -1.3154  0.1767
 6629TIP3    H219894   3.989   1.075   3.005 -0.4110 -0.8280 -1.0819
 6630TIP3   OH219895   3.029   5.066   1.385 -0.0491  0.2734  0.2973
 6630TIP3    H119896   2.976   4.997   1.426 -0.0741  0.9745  1.4607
 6630TIP3    H219897   2.965   5.130   1.354  0.0601  0.6228  0.7876
 6631TIP3   OH219898   4.876   2.847   0.876  0.2308  0.1872  0.0509
 6631TIP3    H119899   4.803   2.853   0.938 -0.0098  1.5310 -0.3112
 6631TIP3    H219900   4.839   2.802   0.800 -0.5540  1.7337 -0.5278
 6632TIP3   OH219901   4.528   5.144   1.807 -0.7857  0.4770 -0.3894
 6632TIP3    H119902   4.530   5.050   1.792 -0.5535  0.6799 -1.7689
 6632TIP3    H219903   4.531   5.154   1.902  1.6655 -0.8503 -0.2586
 6633TIP3   OH219904   4.821   2.684   3.634 -0.4016  0.3145  0.5138
 6633TIP3    H119905   4.869   2.670   3.553 -0.7657  0.4331  0.2758
 6633TIP3    H219906   4.882   2.733   3.690  1.6168 -3.5412  2.0507
 6634TIP3   OH219907   3.006   5.474   0.799 -0.1515 -0.2830 -0.2118
 6634TIP3    H119908   3.004   5.542   0.731  1.7555  1.0509  0.9511
 6634TIP3    H219909   3.065   5.407   0.764  1.8712  0.9965  0.5235
 6635TIP3   OH219910   4.420   2.698   5.153 -0.0063 -0.2924 -0.5593
 6635TIP3    H119911   4.398   2.679   5.062 -0.2325 -2.5841 -0.0945
 6635TIP3    H219912   4.337   2.725   5.192 -0.1896 -0.5676 -0.7521
 6636TIP3   OH219913   2.573   3.705   4.655  0.1229  0.0850 -0.0863
 6636TIP3    H119914   2.634   3.631   4.649  0.5787  0.3210  1.2687
 6636TIP3    H219915   2.499   3.671   4.706 -1.6599 -0.6391 -2.8699
 6637TIP3   OH219916   0.559   4.431   3.132 -0.2853  0.0569  1.0605
 6637TIP3    H119917   0.512   4.394   3.207 -1.4832  2.0051  1.3660
 6637TIP3    H219918   0.493   4.484   3.087  0.6849 -0.2413 -0.7854
 6638TIP3   OH219919   5.779   0.426   2.971 -0.5190 -0.0039 -0.4252
 6638TIP3    H119920   5.690   0.440   2.937 -1.7633 -3.5838  0.8781
 6638TIP3    H219921   5.766   0.373   3.050  2.7086  1.2694  1.1369
 6639TIP3   OH219922   0.929   2.957   3.286 -0.1566  0.0671 -0.0251
 6639TIP3    H119923   0.885   2.973   3.203 -1.7047  2.3625  1.1727
 6639TIP3    H219924   0.859   2.942   3.349  0.9647 -1.0307  1.0266
 6640TIP3   OH219925   0.724   5.076   3.202 -0.4339 -0.0364 -0.2783
 6640TIP3    H119926   0.730   5.003   3.264 -0.7514  0.1032 -0.0815
 6640TIP3    H219927   0.690   5.037   3.122  1.8683 -0.6182 -1.0441
 6641TIP3   OH219928   5.227   0.321   1.166  0.6017  0.3778 -0.0344
 6641TIP3    H119929   5.313   0.282   1.179  0.8704  0.8857 -0.2662
 6641TIP3    H219930   5.173   0.284   1.235  1.1461  0.4883  0.4537
 6642TIP3   OH219931   2.366   5.229   2.216  0.5816  0.2678 -0.5665
 6642TIP3    H119932   2.399   5.284   2.287  2.2028 -0.5892 -0.6133
 6642TIP3    H219933   2.439   5.223   2.155 -0.1456 -0.5730 -1.3702
 6643TIP3   OH219934   4.420   3.784   0.212 -0.4187  0.2528  0.6234
 6643TIP3    H119935   4.349   3.831   0.170  0.5720  0.9815 -0.3032
 6643TIP3    H219936   4.454   3.726   0.144  2.1285  2.4685 -0.1849
 6644TIP3   OH219937   3.097   5.682   3.760 -0.0146  0.1805  0.3483
 6644TIP3    H119938   3.026   5.618   3.772  0.6508 -0.3995  1.3995
 6644TIP3    H219939   3.083   5.746   3.829  0.6732 -0.1344  0.7924
 6645TIP3   OH219940   0.412   4.132   0.559 -0.1303 -0.1620 -0.0156
 6645TIP3    H119941   0.399   4.038   0.571 -0.4191  0.0765  1.9168
 6645TIP3    H219942   0.476   4.139   0.488 -0.5801 -1.7780 -0.6141
   6.35164   5.98838   5.18610   0.00000   0.00000  -2.11722   0.00000  -2.11722  -2.99419
