Title t=  54.00000 step= 27000
19942
    1ASP      N    1   1.673   2.378   3.534
    1ASP    HT1    2   1.716   2.300   3.588
    1ASP    HT2    3   1.638   2.450   3.600
    1ASP    HT3    4   1.741   2.419   3.466
    1ASP     CA    5   1.557   2.319   3.467
    1ASP     HA    6   1.499   2.266   3.541
    1ASP     CB    7   1.477   2.437   3.405
    1ASP    HB1    8   1.530   2.495   3.326
    1ASP    HB2    9   1.436   2.505   3.483
    1ASP     CG   10   1.338   2.393   3.354
    1ASP    OD1   11   1.285   2.450   3.260
    1ASP    OD2   12   1.270   2.321   3.425
    1ASP      C   13   1.588   2.214   3.361
    1ASP      O   14   1.700   2.207   3.309
    2ALA      N   15   1.493   2.125   3.330
    2ALA     HN   16   1.402   2.128   3.370
    2ALA     CA   17   1.517   2.009   3.249
    2ALA     HA   18   1.602   2.015   3.183
    2ALA     CB   19   1.534   1.898   3.351
    2ALA    HB1   20   1.576   1.807   3.302
    2ALA    HB2   21   1.442   1.876   3.408
    2ALA    HB3   22   1.607   1.921   3.432
    2ALA      C   23   1.413   1.971   3.152
    2ALA      O   24   1.293   2.008   3.171
    3ASP      N   25   1.454   1.895   3.047
    3ASP     HN   26   1.551   1.875   3.035
    3ASP     CA   27   1.352   1.861   2.945
    3ASP     HA   28   1.286   1.945   2.930
    3ASP     CB   29   1.428   1.837   2.811
    3ASP    HB1   30   1.353   1.810   2.733
    3ASP    HB2   31   1.499   1.752   2.816
    3ASP     CG   32   1.507   1.955   2.762
    3ASP    OD1   33   1.630   1.926   2.730
    3ASP    OD2   34   1.453   2.067   2.762
    3ASP      C   35   1.261   1.738   2.969
    3ASP      O   36   1.309   1.630   3.014
    4GLY      N   37   1.138   1.746   2.930
    4GLY     HN   38   1.114   1.826   2.874
    4GLY     CA   39   1.035   1.642   2.939
    4GLY    HA1   40   0.948   1.689   2.897
    4GLY    HA2   41   1.015   1.621   3.043
    4GLY      C   42   1.065   1.515   2.855
    4GLY      O   43   1.075   1.525   2.735
    5PRO      N   44   1.076   1.400   2.913
    5PRO     CD   45   1.093   1.378   3.055
    5PRO    HD1   46   0.995   1.401   3.103
    5PRO    HD2   47   1.182   1.436   3.089
    5PRO     CA   48   1.093   1.279   2.840
    5PRO     HA   49   1.184   1.285   2.783
    5PRO     CB   50   1.100   1.163   2.942
    5PRO    HB1   51   1.189   1.104   2.915
    5PRO    HB2   52   1.004   1.106   2.944
    5PRO     CG   53   1.128   1.232   3.079
    5PRO    HG1   54   1.078   1.189   3.169
    5PRO    HG2   55   1.236   1.234   3.104
    5PRO      C   56   0.983   1.251   2.730
    5PRO      O   57   0.867   1.260   2.761
    6GLY      N   58   1.014   1.209   2.610
    6GLY     HN   59   1.106   1.213   2.573
    6GLY     CA   60   0.906   1.170   2.512
    6GLY    HA1   61   0.955   1.177   2.416
    6GLY    HA2   62   0.828   1.243   2.525
    6GLY      C   63   0.844   1.029   2.532
    6GLY      O   64   0.828   0.990   2.647
    7ASP      N   65   0.806   0.961   2.423
    7ASP     HN   66   0.822   0.998   2.331
    7ASP     CA   67   0.734   0.837   2.432
    7ASP     HA   68   0.674   0.837   2.521
    7ASP     CB   69   0.641   0.825   2.305
    7ASP    HB1   70   0.696   0.822   2.209
    7ASP    HB2   71   0.574   0.913   2.309
    7ASP     CG   72   0.547   0.704   2.301
    7ASP    OD1   73   0.455   0.691   2.220
    7ASP    OD2   74   0.557   0.612   2.385
    7ASP      C   75   0.831   0.716   2.449
    7ASP      O   76   0.912   0.703   2.359
    8PRO      N   77   0.821   0.620   2.548
    8PRO     CD   78   0.741   0.642   2.671
    8PRO    HD1   79   0.654   0.574   2.669
    8PRO    HD2   80   0.719   0.748   2.696
    8PRO     CA   81   0.916   0.515   2.574
    8PRO     HA   82   1.017   0.552   2.561
    8PRO     CB   83   0.897   0.472   2.717
    8PRO    HB1   84   0.991   0.442   2.768
    8PRO    HB2   85   0.817   0.396   2.732
    8PRO     CG   86   0.832   0.586   2.785
    8PRO    HG1   87   0.768   0.563   2.872
    8PRO    HG2   88   0.899   0.670   2.814
    8PRO      C   89   0.898   0.407   2.470
    8PRO      O   90   0.953   0.301   2.491
    9ASP      N   91   0.826   0.427   2.354
    9ASP     HN   92   0.772   0.511   2.348
    9ASP     CA   93   0.810   0.332   2.247
    9ASP     HA   94   0.806   0.234   2.293
    9ASP     CB   95   0.672   0.347   2.170
    9ASP    HB1   96   0.681   0.269   2.091
    9ASP    HB2   97   0.667   0.454   2.141
    9ASP     CG   98   0.557   0.310   2.267
    9ASP    OD1   99   0.452   0.371   2.246
    9ASP    OD2  100   0.572   0.220   2.355
    9ASP      C  101   0.921   0.358   2.147
    9ASP      O  102   0.962   0.267   2.075
   10ALA      N  103   0.967   0.482   2.144
   10ALA     HN  104   0.921   0.555   2.195
   10ALA     CA  105   1.072   0.526   2.057
   10ALA     HA  106   1.062   0.467   1.967
   10ALA     CB  107   1.054   0.677   2.034
   10ALA    HB1  108   1.125   0.743   1.979
   10ALA    HB2  109   1.050   0.726   2.134
   10ALA    HB3  110   0.958   0.690   1.979
   10ALA      C  111   1.205   0.493   2.110
   10ALA      O  112   1.218   0.471   2.223
   11GLY      N  113   1.309   0.471   2.029
   11GLY     HN  114   1.290   0.476   1.931
   11GLY     CA  115   1.432   0.408   2.070
   11GLY    HA1  116   1.421   0.360   2.166
   11GLY    HA2  117   1.505   0.488   2.074
   11GLY      C  118   1.468   0.304   1.957
   11GLY    OT1  119   1.402   0.193   1.950
   11GLY    OT2  120   1.562   0.326   1.876
   12LIT    LIT  121   3.905   4.547   3.569
   13LIT    LIT  122   1.008   2.516   2.677
   14LIT    LIT  123   0.323   5.355   1.835
   15LIT    LIT  124   0.522   0.965   4.537
   16LIT    LIT  125   4.149   5.536   3.297
   17LIT    LIT  126   3.849   5.675   4.533
   18LIT    LIT  127   0.296   5.777   2.860
   19LIT    LIT  128   0.396   0.526   2.322
   20LIT    LIT  129   3.656   2.501   3.529
   21LIT    LIT  130   2.233   5.314   2.598
   22LIT    LIT  131   4.538   2.834   1.004
   23LIT    LIT  132   1.304   0.987   1.322
   24LIT    LIT  133   4.801   3.013   2.251
   25LIT    LIT  134   1.483   5.634   0.669
   26LIT    LIT  135   2.928   1.174   4.141
   27LIT    LIT  136   0.248   1.168   2.909
   28LIT    LIT  137   2.447   2.108   4.017
   29LIT    LIT  138   2.440   4.277   1.873
   30LIT    LIT  139   2.299   1.948   2.018
   31LIT    LIT  140   5.718   4.170   4.447
   32LIT    LIT  141   4.057   4.637   2.487
   33LIT    LIT  142   3.746   1.609   0.788
   34CLA    CLA  143   3.045   0.905   2.366
   35CLA    CLA  144   0.592   1.161   4.137
   36CLA    CLA  145   2.822   1.193   5.112
   37CLA    CLA  146   0.094   3.770   3.360
   38CLA    CLA  147   1.328   2.753   4.850
   39CLA    CLA  148   4.524   4.233   4.406
   40CLA    CLA  149   1.539   0.796   3.506
   41CLA    CLA  150   0.855   4.451   1.593
   42CLA    CLA  151   3.392   3.431   1.441
   43CLA    CLA  152   1.765   3.732   0.688
   44CLA    CLA  153   6.048   2.408   3.768
   45CLA    CLA  154   3.563   1.457   3.454
   46CLA    CLA  155   1.564   0.325   3.523
   47CLA    CLA  156   3.017   0.969   4.184
   48CLA    CLA  157   2.682   4.929   5.118
   49CLA    CLA  158   5.837   5.632   0.405
   50CLA    CLA  159   1.568   1.457   0.957
   51CLA    CLA  160   1.271   5.829   1.287
   52TIP3   OH2  161   6.018   0.862   3.157
   52TIP3    H1  162   5.994   0.932   3.097
   52TIP3    H2  163   5.950   0.796   3.145
   53TIP3   OH2  164   0.056   3.066   4.819
   53TIP3    H1  165   0.113   3.093   4.746
   53TIP3    H2  166  -0.016   3.019   4.776
   54TIP3   OH2  167   0.426   1.687   3.757
   54TIP3    H1  168   0.482   1.765   3.755
   54TIP3    H2  169   0.433   1.650   3.670
   55TIP3   OH2  170   4.013   3.596   2.925
   55TIP3    H1  171   3.943   3.622   2.985
   55TIP3    H2  172   4.092   3.632   2.965
   56TIP3   OH2  173   2.413   0.385   0.935
   56TIP3    H1  174   2.403   0.336   1.016
   56TIP3    H2  175   2.415   0.318   0.866
   57TIP3   OH2  176   2.812   2.418   1.994
   57TIP3    H1  177   2.807   2.419   2.090
   57TIP3    H2  178   2.879   2.483   1.972
   58TIP3   OH2  179   6.188   2.297   1.788
   58TIP3    H1  180   6.242   2.234   1.836
   58TIP3    H2  181   6.248   2.367   1.764
   59TIP3   OH2  182   2.281   2.643   3.162
   59TIP3    H1  183   2.309   2.733   3.180
   59TIP3    H2  184   2.324   2.591   3.230
   60TIP3   OH2  185   3.165   4.568   2.301
   60TIP3    H1  186   3.160   4.616   2.384
   60TIP3    H2  187   3.086   4.594   2.253
   61TIP3   OH2  188   5.213   0.890   2.548
   61TIP3    H1  189   5.285   0.846   2.502
   61TIP3    H2  190   5.176   0.824   2.605
   62TIP3   OH2  191   0.342   3.729   2.431
   62TIP3    H1  192   0.412   3.758   2.372
   62TIP3    H2  193   0.345   3.791   2.504
   63TIP3   OH2  194   3.685   2.342   1.088
   63TIP3    H1  195   3.692   2.274   1.156
   63TIP3    H2  196   3.655   2.296   1.010
   64TIP3   OH2  197   5.929   1.114   2.698
   64TIP3    H1  198   5.842   1.116   2.738
   64TIP3    H2  199   5.931   1.031   2.650
   65TIP3   OH2  200   4.747   1.530   1.629
   65TIP3    H1  201   4.720   1.444   1.662
   65TIP3    H2  202   4.731   1.590   1.702
   66TIP3   OH2  203   4.657   1.786   0.152
   66TIP3    H1  204   4.673   1.868   0.105
   66TIP3    H2  205   4.588   1.808   0.215
   67TIP3   OH2  206   5.169   3.207   4.652
   67TIP3    H1  207   5.251   3.234   4.694
   67TIP3    H2  208   5.104   3.214   4.722
   68TIP3   OH2  209   6.225   5.892   3.407
   68TIP3    H1  210   6.267   5.940   3.478
   68TIP3    H2  211   6.245   5.942   3.328
   69TIP3   OH2  212   2.910   0.600   4.948
   69TIP3    H1  213   2.870   0.679   4.986
   69TIP3    H2  214   2.951   0.556   5.022
   70TIP3   OH2  215   4.909   1.378   4.399
   70TIP3    H1  216   4.890   1.441   4.330
   70TIP3    H2  217   4.837   1.389   4.461
   71TIP3   OH2  218   3.666   0.922   4.949
   71TIP3    H1  219   3.723   0.851   4.918
   71TIP3    H2  220   3.614   0.882   5.019
   72TIP3   OH2  221   5.291   0.573   1.103
   72TIP3    H1  222   5.208   0.525   1.105
   72TIP3    H2  223   5.306   0.598   1.194
   73TIP3   OH2  224   5.175   5.071   0.870
   73TIP3    H1  225   5.104   5.101   0.926
   73TIP3    H2  226   5.198   4.984   0.905
   74TIP3   OH2  227   3.501   0.134   2.325
   74TIP3    H1  228   3.442   0.060   2.310
   74TIP3    H2  229   3.540   0.151   2.239
   75TIP3   OH2  230   0.607   1.301   2.404
   75TIP3    H1  231   0.582   1.303   2.496
   75TIP3    H2  232   0.680   1.362   2.398
   76TIP3   OH2  233   3.345   3.442   3.618
   76TIP3    H1  234   3.360   3.458   3.712
   76TIP3    H2  235   3.292   3.362   3.616
   77TIP3   OH2  236   6.105   2.893   1.465
   77TIP3    H1  237   6.154   2.812   1.447
   77TIP3    H2  238   6.042   2.898   1.393
   78TIP3   OH2  239   3.434   2.655   3.940
   78TIP3    H1  240   3.429   2.747   3.913
   78TIP3    H2  241   3.360   2.613   3.896
   79TIP3   OH2  242   5.288   0.753   1.917
   79TIP3    H1  243   5.349   0.721   1.984
   79TIP3    H2  244   5.237   0.821   1.962
   80TIP3   OH2  245   1.937   3.152   2.193
   80TIP3    H1  246   1.922   3.246   2.203
   80TIP3    H2  247   1.970   3.142   2.104
   81TIP3   OH2  248   3.135   4.451   3.969
   81TIP3    H1  249   3.071   4.402   4.021
   81TIP3    H2  250   3.160   4.524   4.026
   82TIP3   OH2  251   2.645   4.365   0.352
   82TIP3    H1  252   2.622   4.284   0.399
   82TIP3    H2  253   2.740   4.357   0.337
   83TIP3   OH2  254   0.176   2.261   4.998
   83TIP3    H1  255   0.268   2.235   5.003
   83TIP3    H2  256   0.177   2.351   4.965
   84TIP3   OH2  257   5.135   3.577   2.180
   84TIP3    H1  258   5.184   3.609   2.256
   84TIP3    H2  259   5.202   3.537   2.124
   85TIP3   OH2  260   6.124   1.483   4.123
   85TIP3    H1  261   6.190   1.552   4.122
   85TIP3    H2  262   6.088   1.483   4.034
   86TIP3   OH2  263   4.321   2.750   2.498
   86TIP3    H1  264   4.323   2.749   2.594
   86TIP3    H2  265   4.230   2.730   2.476
   87TIP3   OH2  266   0.379   4.157   3.554
   87TIP3    H1  267   0.339   4.243   3.541
   87TIP3    H2  268   0.449   4.172   3.617
   88TIP3   OH2  269   3.263   1.893   1.886
   88TIP3    H1  270   3.323   1.820   1.874
   88TIP3    H2  271   3.320   1.967   1.909
   89TIP3   OH2  272   5.810   4.031   4.921
   89TIP3    H1  273   5.899   4.051   4.894
   89TIP3    H2  274   5.802   3.937   4.910
   90TIP3   OH2  275   4.058   4.955   2.275
   90TIP3    H1  276   4.094   4.926   2.191
   90TIP3    H2  277   4.077   5.049   2.278
   91TIP3   OH2  278   3.548   5.751   4.957
   91TIP3    H1  279   3.491   5.820   4.922
   91TIP3    H2  280   3.623   5.798   4.992
   92TIP3   OH2  281   4.190   3.643   2.258
   92TIP3    H1  282   4.197   3.637   2.162
   92TIP3    H2  283   4.168   3.554   2.285
   93TIP3   OH2  284   4.217   4.138   3.587
   93TIP3    H1  285   4.234   4.087   3.508
   93TIP3    H2  286   4.303   4.150   3.627
   94TIP3   OH2  287   4.955   3.709   3.641
   94TIP3    H1  288   4.969   3.787   3.587
   94TIP3    H2  289   5.043   3.685   3.670
   95TIP3   OH2  290   3.532   0.396   3.903
   95TIP3    H1  291   3.468   0.326   3.919
   95TIP3    H2  292   3.605   0.353   3.859
   96TIP3   OH2  293   3.644   0.249   0.494
   96TIP3    H1  294   3.687   0.323   0.452
   96TIP3    H2  295   3.565   0.234   0.442
   97TIP3   OH2  296   4.866   5.501   0.141
   97TIP3    H1  297   4.896   5.432   0.200
   97TIP3    H2  298   4.945   5.550   0.119
   98TIP3   OH2  299   1.966   0.055   3.784
   98TIP3    H1  300   1.885   0.102   3.765
   98TIP3    H2  301   2.026   0.081   3.714
   99TIP3   OH2  302   6.246   3.698   2.177
   99TIP3    H1  303   6.251   3.793   2.172
   99TIP3    H2  304   6.338   3.670   2.187
  100TIP3   OH2  305   5.389   5.832   1.042
  100TIP3    H1  306   5.392   5.926   1.022
  100TIP3    H2  307   5.392   5.829   1.138
  101TIP3   OH2  308   3.107   1.760   1.304
  101TIP3    H1  309   3.129   1.695   1.237
  101TIP3    H2  310   3.189   1.772   1.353
  102TIP3   OH2  311   3.226   0.168   3.822
  102TIP3    H1  312   3.208   0.249   3.869
  102TIP3    H2  313   3.263   0.109   3.887
  103TIP3   OH2  314   2.848   4.750   3.141
  103TIP3    H1  315   2.903   4.678   3.110
  103TIP3    H2  316   2.810   4.788   3.061
  104TIP3   OH2  317   5.541   5.805   3.557
  104TIP3    H1  318   5.629   5.770   3.570
  104TIP3    H2  319   5.543   5.842   3.469
  105TIP3   OH2  320   1.192   3.972   0.258
  105TIP3    H1  321   1.108   3.962   0.213
  105TIP3    H2  322   1.210   4.066   0.255
  106TIP3   OH2  323   4.376   1.542   5.153
  106TIP3    H1  324   4.319   1.604   5.106
  106TIP3    H2  325   4.331   1.528   5.236
  107TIP3   OH2  326   1.712   3.896   4.277
  107TIP3    H1  327   1.775   3.843   4.325
  107TIP3    H2  328   1.627   3.857   4.298
  108TIP3   OH2  329   6.360   0.020   4.376
  108TIP3    H1  330   6.369   0.115   4.368
  108TIP3    H2  331   6.291  -0.004   4.315
  109TIP3   OH2  332   2.808   3.545   3.486
  109TIP3    H1  333   2.862   3.491   3.543
  109TIP3    H2  334   2.786   3.622   3.540
  110TIP3   OH2  335   5.733   0.556   2.623
  110TIP3    H1  336   5.730   0.527   2.531
  110TIP3    H2  337   5.648   0.529   2.658
  111TIP3   OH2  338   3.947   3.751   3.864
  111TIP3    H1  339   4.017   3.697   3.827
  111TIP3    H2  340   3.961   3.837   3.825
  112TIP3   OH2  341   3.461   4.496   4.116
  112TIP3    H1  342   3.445   4.455   4.031
  112TIP3    H2  343   3.387   4.470   4.170
  113TIP3   OH2  344   2.420  -0.029   1.935
  113TIP3    H1  345   2.393  -0.055   2.023
  113TIP3    H2  346   2.423   0.067   1.938
  114TIP3   OH2  347   6.064   0.121   2.497
  114TIP3    H1  348   6.146   0.098   2.541
  114TIP3    H2  349   6.004   0.049   2.518
  115TIP3   OH2  350   1.246   5.416   4.192
  115TIP3    H1  351   1.193   5.436   4.269
  115TIP3    H2  352   1.335   5.441   4.218
  116TIP3   OH2  353   3.421   4.556   2.835
  116TIP3    H1  354   3.406   4.463   2.819
  116TIP3    H2  355   3.515   4.568   2.822
  117TIP3   OH2  356   2.028   4.392   2.675
  117TIP3    H1  357   1.953   4.362   2.623
  117TIP3    H2  358   2.084   4.314   2.681
  118TIP3   OH2  359   4.121   5.327   3.280
  118TIP3    H1  360   4.090   5.251   3.329
  118TIP3    H2  361   4.203   5.298   3.240
  119TIP3   OH2  362   0.487   2.898   1.218
  119TIP3    H1  363   0.578   2.917   1.194
  119TIP3    H2  364   0.487   2.896   1.314
  120TIP3   OH2  365   4.920   0.292   4.168
  120TIP3    H1  366   4.842   0.335   4.203
  120TIP3    H2  367   4.980   0.289   4.242
  121TIP3   OH2  368   0.286   2.251   4.402
  121TIP3    H1  369   0.278   2.178   4.340
  121TIP3    H2  370   0.296   2.208   4.487
  122TIP3   OH2  371   4.509   3.625   2.245
  122TIP3    H1  372   4.604   3.618   2.251
  122TIP3    H2  373   4.483   3.668   2.326
  123TIP3   OH2  374   3.206   1.162   3.568
  123TIP3    H1  375   3.191   1.254   3.590
  123TIP3    H2  376   3.124   1.119   3.593
  124TIP3   OH2  377   5.269   0.340   3.058
  124TIP3    H1  378   5.187   0.291   3.066
  124TIP3    H2  379   5.289   0.369   3.147
  125TIP3   OH2  380   2.273   0.441   1.669
  125TIP3    H1  381   2.261   0.346   1.675
  125TIP3    H2  382   2.366   0.451   1.650
  126TIP3   OH2  383   2.508   2.965   0.878
  126TIP3    H1  384   2.465   3.041   0.840
  126TIP3    H2  385   2.531   2.992   0.967
  127TIP3   OH2  386   4.587   1.485   0.177
  127TIP3    H1  387   4.682   1.495   0.182
  127TIP3    H2  388   4.554   1.575   0.172
  128TIP3   OH2  389   2.276   2.664   0.666
  128TIP3    H1  390   2.227   2.652   0.585
  128TIP3    H2  391   2.238   2.743   0.705
  129TIP3   OH2  392   5.374   4.048   2.130
  129TIP3    H1  393   5.296   3.995   2.147
  129TIP3    H2  394   5.344   4.139   2.137
  130TIP3   OH2  395   3.725   0.642   5.008
  130TIP3    H1  396   3.658   0.667   5.072
  130TIP3    H2  397   3.691   0.562   4.969
  131TIP3   OH2  398   6.062   5.359   4.451
  131TIP3    H1  399   6.015   5.391   4.373
  131TIP3    H2  400   6.004   5.292   4.487
  132TIP3   OH2  401   3.694   1.306   0.472
  132TIP3    H1  402   3.626   1.339   0.413
  132TIP3    H2  403   3.681   1.211   0.472
  133TIP3   OH2  404   4.953   1.853   1.232
  133TIP3    H1  405   4.887   1.792   1.265
  133TIP3    H2  406   5.037   1.809   1.248
  134TIP3   OH2  407   0.426   0.184   4.020
  134TIP3    H1  408   0.389   0.095   4.018
  134TIP3    H2  409   0.516   0.172   4.051
  135TIP3   OH2  410   2.544   2.446   2.442
  135TIP3    H1  411   2.480   2.471   2.376
  135TIP3    H2  412   2.576   2.361   2.412
  136TIP3   OH2  413   5.413   3.045   5.173
  136TIP3    H1  414   5.465   2.998   5.108
  136TIP3    H2  415   5.415   3.136   5.143
  137TIP3   OH2  416   3.485   4.893   5.095
  137TIP3    H1  417   3.495   4.815   5.150
  137TIP3    H2  418   3.573   4.910   5.062
  138TIP3   OH2  419   3.351   5.779   3.828
  138TIP3    H1  420   3.372   5.869   3.804
  138TIP3    H2  421   3.271   5.785   3.879
  139TIP3   OH2  422   2.196   5.912   0.984
  139TIP3    H1  423   2.183   5.839   1.045
  139TIP3    H2  424   2.291   5.925   0.982
  140TIP3   OH2  425   5.329   2.598   1.322
  140TIP3    H1  426   5.422   2.597   1.344
  140TIP3    H2  427   5.291   2.529   1.375
  141TIP3   OH2  428   0.272   2.487   3.483
  141TIP3    H1  429   0.319   2.410   3.514
  141TIP3    H2  430   0.185   2.480   3.521
  142TIP3   OH2  431   3.085   2.767   2.553
  142TIP3    H1  432   3.051   2.687   2.593
  142TIP3    H2  433   3.143   2.804   2.620
  143TIP3   OH2  434   5.285   2.025   2.677
  143TIP3    H1  435   5.213   1.993   2.731
  143TIP3    H2  436   5.362   1.976   2.707
  144TIP3   OH2  437   3.042   4.873   0.359
  144TIP3    H1  438   2.951   4.903   0.361
  144TIP3    H2  439   3.086   4.924   0.427
  145TIP3   OH2  440   6.233   3.971   2.820
  145TIP3    H1  441   6.281   4.007   2.895
  145TIP3    H2  442   6.144   3.959   2.852
  146TIP3   OH2  443   2.845   5.826   1.791
  146TIP3    H1  444   2.912   5.759   1.778
  146TIP3    H2  445   2.881   5.904   1.749
  147TIP3   OH2  446   0.431   3.252   1.295
  147TIP3    H1  447   0.454   3.333   1.340
  147TIP3    H2  448   0.337   3.241   1.312
  148TIP3   OH2  449   0.558   2.989   2.858
  148TIP3    H1  450   0.562   3.014   2.950
  148TIP3    H2  451   0.642   3.019   2.822
  149TIP3   OH2  452   4.893   3.981   4.038
  149TIP3    H1  453   4.816   3.957   3.987
  149TIP3    H2  454   4.924   3.898   4.075
  150TIP3   OH2  455   5.689   1.890   4.688
  150TIP3    H1  456   5.678   1.958   4.754
  150TIP3    H2  457   5.751   1.928   4.625
  151TIP3   OH2  458   2.852   2.320   2.622
  151TIP3    H1  459   2.773   2.354   2.663
  151TIP3    H2  460   2.823   2.293   2.534
  152TIP3   OH2  461   2.815   2.958   3.891
  152TIP3    H1  462   2.889   2.918   3.937
  152TIP3    H2  463   2.830   3.052   3.898
  153TIP3   OH2  464   0.933   4.720   3.547
  153TIP3    H1  465   0.941   4.761   3.461
  153TIP3    H2  466   0.992   4.770   3.603
  154TIP3   OH2  467  -0.045   4.458   2.583
  154TIP3    H1  468   0.039   4.484   2.544
  154TIP3    H2  469  -0.022   4.390   2.646
  155TIP3   OH2  470   6.078   4.093   4.877
  155TIP3    H1  471   6.158   4.047   4.902
  155TIP3    H2  472   6.102   4.144   4.799
  156TIP3   OH2  473   3.996   1.550   3.461
  156TIP3    H1  474   3.929   1.487   3.437
  156TIP3    H2  475   4.078   1.510   3.432
  157TIP3   OH2  476   0.264   3.366   3.451
  157TIP3    H1  477   0.319   3.442   3.437
  157TIP3    H2  478   0.258   3.324   3.366
  158TIP3   OH2  479   4.385   0.630   0.573
  158TIP3    H1  480   4.397   0.690   0.647
  158TIP3    H2  481   4.291   0.631   0.556
  159TIP3   OH2  482   4.429   4.999   4.732
  159TIP3    H1  483   4.516   4.973   4.763
  159TIP3    H2  484   4.369   4.935   4.771
  160TIP3   OH2  485   2.920   5.989   3.375
  160TIP3    H1  486   2.929   5.919   3.440
  160TIP3    H2  487   2.835   5.971   3.333
  161TIP3   OH2  488   5.285   1.320   1.484
  161TIP3    H1  489   5.255   1.262   1.554
  161TIP3    H2  490   5.358   1.368   1.523
  162TIP3   OH2  491   3.764   1.816   0.781
  162TIP3    H1  492   3.842   1.846   0.828
  162TIP3    H2  493   3.759   1.874   0.705
  163TIP3   OH2  494  -0.034   1.218   3.887
  163TIP3    H1  495  -0.058   1.130   3.918
  163TIP3    H2  496   0.039   1.244   3.943
  164TIP3   OH2  497   6.311   1.292   1.540
  164TIP3    H1  498   6.391   1.247   1.512
  164TIP3    H2  499   6.306   1.274   1.634
  165TIP3   OH2  500   5.726   2.515   0.973
  165TIP3    H1  501   5.634   2.540   0.976
  165TIP3    H2  502   5.740   2.463   1.052
  166TIP3   OH2  503   5.868   4.410   0.215
  166TIP3    H1  504   5.885   4.500   0.188
  166TIP3    H2  505   5.929   4.358   0.162
  167TIP3   OH2  506   1.106   2.029   4.318
  167TIP3    H1  507   1.188   1.980   4.312
  167TIP3    H2  508   1.113   2.078   4.400
  168TIP3   OH2  509   3.222   5.020   4.809
  168TIP3    H1  510   3.243   5.098   4.860
  168TIP3    H2  511   3.167   4.967   4.867
  169TIP3   OH2  512   1.697   5.590   4.571
  169TIP3    H1  513   1.759   5.546   4.514
  169TIP3    H2  514   1.630   5.524   4.590
  170TIP3   OH2  515   5.755   1.198   0.262
  170TIP3    H1  516   5.819   1.131   0.285
  170TIP3    H2  517   5.686   1.190   0.328
  171TIP3   OH2  518   1.029   1.770   4.805
  171TIP3    H1  519   1.056   1.801   4.891
  171TIP3    H2  520   0.990   1.684   4.822
  172TIP3   OH2  521   3.788   2.547   0.761
  172TIP3    H1  522   3.823   2.585   0.842
  172TIP3    H2  523   3.698   2.523   0.782
  173TIP3   OH2  524   3.524   1.731   1.716
  173TIP3    H1  525   3.512   1.727   1.811
  173TIP3    H2  526   3.618   1.741   1.704
  174TIP3   OH2  527   1.970   4.033   0.312
  174TIP3    H1  528   1.999   3.981   0.237
  174TIP3    H2  529   2.048   4.038   0.368
  175TIP3   OH2  530   2.465   2.207   1.886
  175TIP3    H1  531   2.484   2.297   1.913
  175TIP3    H2  532   2.386   2.214   1.832
  176TIP3   OH2  533   5.850   4.176   2.542
  176TIP3    H1  534   5.928   4.225   2.566
  176TIP3    H2  535   5.796   4.177   2.621
  177TIP3   OH2  536   3.699   3.426   3.364
  177TIP3    H1  537   3.695   3.483   3.288
  177TIP3    H2  538   3.672   3.481   3.437
  178TIP3   OH2  539   2.371   3.494   2.700
  178TIP3    H1  540   2.411   3.408   2.705
  178TIP3    H2  541   2.291   3.486   2.753
  179TIP3   OH2  542   5.179   0.731   1.643
  179TIP3    H1  543   5.170   0.750   1.737
  179TIP3    H2  544   5.243   0.796   1.612
  180TIP3   OH2  545   2.933   4.333   0.344
  180TIP3    H1  546   2.995   4.358   0.275
  180TIP3    H2  547   2.922   4.239   0.332
  181TIP3   OH2  548   0.171   3.820   2.231
  181TIP3    H1  549   0.237   3.757   2.261
  181TIP3    H2  550   0.187   3.827   2.136
  182TIP3   OH2  551   1.369   2.845   5.135
  182TIP3    H1  552   1.392   2.821   5.046
  182TIP3    H2  553   1.278   2.816   5.145
  183TIP3   OH2  554   5.880   0.330   1.712
  183TIP3    H1  555   5.923   0.307   1.794
  183TIP3    H2  556   5.848   0.420   1.726
  184TIP3   OH2  557   1.680   1.901   1.277
  184TIP3    H1  558   1.729   1.914   1.196
  184TIP3    H2  559   1.595   1.943   1.261
  185TIP3   OH2  560   2.116   2.132   3.780
  185TIP3    H1  561   2.160   2.097   3.702
  185TIP3    H2  562   2.166   2.211   3.802
  186TIP3   OH2  563   5.532   0.345   2.947
  186TIP3    H1  564   5.565   0.394   3.023
  186TIP3    H2  565   5.443   0.321   2.972
  187TIP3   OH2  566   1.856   5.819   1.551
  187TIP3    H1  567   1.913   5.896   1.547
  187TIP3    H2  568   1.768   5.856   1.561
  188TIP3   OH2  569   2.112   3.981   1.492
  188TIP3    H1  570   2.112   3.894   1.451
  188TIP3    H2  571   2.158   3.968   1.575
  189TIP3   OH2  572   0.607   5.347   1.002
  189TIP3    H1  573   0.512   5.344   1.002
  189TIP3    H2  574   0.633   5.272   1.056
  190TIP3   OH2  575   5.149   0.552   2.176
  190TIP3    H1  576   5.209   0.499   2.123
  190TIP3    H2  577   5.062   0.528   2.145
  191TIP3   OH2  578   4.000   1.883   0.651
  191TIP3    H1  579   4.092   1.881   0.623
  191TIP3    H2  580   3.950   1.876   0.570
  192TIP3   OH2  581   3.993   3.725   1.114
  192TIP3    H1  582   3.991   3.816   1.085
  192TIP3    H2  583   4.041   3.679   1.045
  193TIP3   OH2  584   5.965   3.841   4.003
  193TIP3    H1  585   5.966   3.933   3.978
  193TIP3    H2  586   5.900   3.837   4.074
  194TIP3   OH2  587   1.022   3.722   3.555
  194TIP3    H1  588   1.079   3.786   3.598
  194TIP3    H2  589   0.933   3.750   3.576
  195TIP3   OH2  590   5.149   0.998   1.035
  195TIP3    H1  591   5.238   0.965   1.049
  195TIP3    H2  592   5.116   0.948   0.961
  196TIP3   OH2  593   1.503   2.369   1.700
  196TIP3    H1  594   1.552   2.416   1.632
  196TIP3    H2  595   1.510   2.277   1.674
  197TIP3   OH2  596   4.957   2.304   0.635
  197TIP3    H1  597   4.963   2.311   0.730
  197TIP3    H2  598   4.921   2.388   0.607
  198TIP3   OH2  599   2.455   2.431   4.460
  198TIP3    H1  600   2.376   2.425   4.407
  198TIP3    H2  601   2.431   2.487   4.534
  199TIP3   OH2  602   4.444   3.372   4.189
  199TIP3    H1  603   4.475   3.372   4.098
  199TIP3    H2  604   4.487   3.296   4.229
  200TIP3   OH2  605   5.460   0.383   4.280
  200TIP3    H1  606   5.483   0.296   4.248
  200TIP3    H2  607   5.528   0.403   4.345
  201TIP3   OH2  608   3.121   1.606   0.219
  201TIP3    H1  609   3.153   1.615   0.130
  201TIP3    H2  610   3.164   1.528   0.253
  202TIP3   OH2  611   0.669   4.552   2.988
  202TIP3    H1  612   0.643   4.628   3.039
  202TIP3    H2  613   0.593   4.532   2.933
  203TIP3   OH2  614   3.662   0.132   2.870
  203TIP3    H1  615   3.663   0.228   2.871
  203TIP3    H2  616   3.641   0.109   2.780
  204TIP3   OH2  617   3.850   4.207   1.930
  204TIP3    H1  618   3.928   4.241   1.974
  204TIP3    H2  619   3.854   4.245   1.842
  205TIP3   OH2  620   0.645   0.301   1.141
  205TIP3    H1  621   0.581   0.367   1.113
  205TIP3    H2  622   0.606   0.218   1.113
  206TIP3   OH2  623   3.030   2.713   4.235
  206TIP3    H1  624   3.059   2.630   4.272
  206TIP3    H2  625   2.947   2.692   4.191
  207TIP3   OH2  626   5.585   4.081   3.922
  207TIP3    H1  627   5.603   4.000   3.969
  207TIP3    H2  628   5.607   4.062   3.831
  208TIP3   OH2  629   5.071   1.946   2.826
  208TIP3    H1  630   4.995   1.978   2.776
  208TIP3    H2  631   5.037   1.872   2.877
  209TIP3   OH2  632   1.180   2.258   2.327
  209TIP3    H1  633   1.209   2.348   2.315
  209TIP3    H2  634   1.102   2.264   2.382
  210TIP3   OH2  635   0.760   1.455   2.594
  210TIP3    H1  636   0.832   1.401   2.625
  210TIP3    H2  637   0.738   1.510   2.669
  211TIP3   OH2  638   5.040   1.109   4.440
  211TIP3    H1  639   4.988   1.052   4.497
  211TIP3    H2  640   4.995   1.193   4.444
  212TIP3   OH2  641   2.435   2.018   1.180
  212TIP3    H1  642   2.439   2.110   1.204
  212TIP3    H2  643   2.342   2.002   1.162
  213TIP3   OH2  644   2.520   1.436   2.942
  213TIP3    H1  645   2.465   1.366   2.907
  213TIP3    H2  646   2.588   1.449   2.875
  214TIP3   OH2  647   6.330   5.569   0.156
  214TIP3    H1  648   6.322   5.635   0.225
  214TIP3    H2  649   6.304   5.614   0.076
  215TIP3   OH2  650   2.044   2.259   0.547
  215TIP3    H1  651   2.132   2.224   0.560
  215TIP3    H2  652   2.028   2.313   0.625
  216TIP3   OH2  653   1.344   4.136   2.659
  216TIP3    H1  654   1.365   4.133   2.753
  216TIP3    H2  655   1.430   4.136   2.616
  217TIP3   OH2  656   5.525   2.956   0.815
  217TIP3    H1  657   5.487   2.947   0.728
  217TIP3    H2  658   5.618   2.934   0.802
  218TIP3   OH2  659   4.205   2.952   4.020
  218TIP3    H1  660   4.282   3.007   4.002
  218TIP3    H2  661   4.217   2.875   3.964
  219TIP3   OH2  662   1.762   0.404   4.047
  219TIP3    H1  663   1.697   0.351   4.002
  219TIP3    H2  664   1.845   0.357   4.035
  220TIP3   OH2  665   4.652   1.089   2.617
  220TIP3    H1  666   4.696   1.013   2.578
  220TIP3    H2  667   4.613   1.134   2.542
  221TIP3   OH2  668   2.606   0.571   4.221
  221TIP3    H1  669   2.541   0.501   4.209
  221TIP3    H2  670   2.641   0.586   4.133
  222TIP3   OH2  671   0.396   1.730   4.377
  222TIP3    H1  672   0.429   1.641   4.366
  222TIP3    H2  673   0.302   1.720   4.392
  223TIP3   OH2  674   3.186   3.232   3.681
  223TIP3    H1  675   3.253   3.164   3.680
  223TIP3    H2  676   3.153   3.233   3.771
  224TIP3   OH2  677   2.327   1.559   1.949
  224TIP3    H1  678   2.251   1.529   1.998
  224TIP3    H2  679   2.402   1.531   2.001
  225TIP3   OH2  680   0.827   5.471   4.045
  225TIP3    H1  681   0.850   5.545   4.101
  225TIP3    H2  682   0.757   5.426   4.093
  226TIP3   OH2  683   5.796   2.741   2.304
  226TIP3    H1  684   5.801   2.724   2.398
  226TIP3    H2  685   5.865   2.805   2.288
  227TIP3   OH2  686   5.151   2.551   3.314
  227TIP3    H1  687   5.110   2.480   3.264
  227TIP3    H2  688   5.080   2.613   3.330
  228TIP3   OH2  689   5.965   3.403   5.093
  228TIP3    H1  690   6.051   3.367   5.113
  228TIP3    H2  691   5.983   3.481   5.040
  229TIP3   OH2  692   1.759   1.242   1.665
  229TIP3    H1  693   1.827   1.214   1.602
  229TIP3    H2  694   1.732   1.161   1.708
  230TIP3   OH2  695   3.639   2.596   4.361
  230TIP3    H1  696   3.610   2.656   4.292
  230TIP3    H2  697   3.690   2.529   4.315
  231TIP3   OH2  698   5.901   5.060   0.969
  231TIP3    H1  699   5.956   4.991   1.006
  231TIP3    H2  700   5.935   5.141   1.009
  232TIP3   OH2  701   2.789   4.543   4.447
  232TIP3    H1  702   2.701   4.555   4.411
  232TIP3    H2  703   2.799   4.613   4.511
  233TIP3   OH2  704   1.305   5.495   0.353
  233TIP3    H1  705   1.350   5.521   0.273
  233TIP3    H2  706   1.364   5.431   0.394
  234TIP3   OH2  707   2.334   0.201   0.720
  234TIP3    H1  708   2.241   0.221   0.709
  234TIP3    H2  709   2.376   0.234   0.641
  235TIP3   OH2  710   1.907   3.788   4.458
  235TIP3    H1  711   1.917   3.695   4.435
  235TIP3    H2  712   1.976   3.804   4.522
  236TIP3   OH2  713   3.853   5.455   4.202
  236TIP3    H1  714   3.863   5.454   4.107
  236TIP3    H2  715   3.937   5.424   4.236
  237TIP3   OH2  716   2.912   0.644   0.145
  237TIP3    H1  717   2.876   0.653   0.233
  237TIP3    H2  718   2.976   0.573   0.152
  238TIP3   OH2  719   3.353   4.897   2.367
  238TIP3    H1  720   3.306   4.979   2.353
  238TIP3    H2  721   3.298   4.847   2.427
  239TIP3   OH2  722   0.392   0.079   5.076
  239TIP3    H1  723   0.320   0.126   5.034
  239TIP3    H2  724   0.449   0.147   5.110
  240TIP3   OH2  725   1.369   0.811   1.828
  240TIP3    H1  726   1.440   0.780   1.884
  240TIP3    H2  727   1.338   0.733   1.782
  241TIP3   OH2  728   2.357   5.500   2.967
  241TIP3    H1  729   2.436   5.449   2.988
  241TIP3    H2  730   2.308   5.443   2.907
  242TIP3   OH2  731   3.094   4.049   4.078
  242TIP3    H1  732   3.188   4.059   4.088
  242TIP3    H2  733   3.057   4.130   4.112
  243TIP3   OH2  734   4.468   5.541   4.197
  243TIP3    H1  735   4.442   5.632   4.205
  243TIP3    H2  736   4.402   5.501   4.141
  244TIP3   OH2  737   4.921   1.084   1.382
  244TIP3    H1  738   5.016   1.098   1.375
  244TIP3    H2  739   4.910   1.037   1.465
  245TIP3   OH2  740   1.610   0.646   1.233
  245TIP3    H1  741   1.638   0.617   1.147
  245TIP3    H2  742   1.650   0.732   1.244
  246TIP3   OH2  743   4.116   0.228   3.462
  246TIP3    H1  744   4.131   0.159   3.398
  246TIP3    H2  745   4.203   0.260   3.485
  247TIP3   OH2  746   0.658   2.758   0.908
  247TIP3    H1  747   0.733   2.703   0.930
  247TIP3    H2  748   0.694   2.826   0.850
  248TIP3   OH2  749   1.554   3.920   3.696
  248TIP3    H1  750   1.640   3.898   3.731
  248TIP3    H2  751   1.525   3.841   3.651
  249TIP3   OH2  752   6.327   2.550   4.220
  249TIP3    H1  753   6.239   2.574   4.191
  249TIP3    H2  754   6.379   2.630   4.206
  250TIP3   OH2  755   4.789   4.624   4.027
  250TIP3    H1  756   4.850   4.559   4.060
  250TIP3    H2  757   4.838   4.706   4.029
  251TIP3   OH2  758   2.646   4.396   0.667
  251TIP3    H1  759   2.567   4.378   0.718
  251TIP3    H2  760   2.692   4.312   0.665
  252TIP3   OH2  761   1.546   1.290   4.977
  252TIP3    H1  762   1.522   1.380   5.001
  252TIP3    H2  763   1.606   1.301   4.902
  253TIP3   OH2  764   4.407   4.636   2.894
  253TIP3    H1  765   4.436   4.557   2.848
  253TIP3    H2  766   4.402   4.703   2.826
  254TIP3   OH2  767   0.832   4.649   1.828
  254TIP3    H1  768   0.846   4.600   1.747
  254TIP3    H2  769   0.738   4.638   1.847
  255TIP3   OH2  770   4.375   2.608   4.682
  255TIP3    H1  771   4.450   2.640   4.732
  255TIP3    H2  772   4.301   2.659   4.715
  256TIP3   OH2  773   1.262   5.634   3.887
  256TIP3    H1  774   1.346   5.599   3.857
  256TIP3    H2  775   1.241   5.582   3.965
  257TIP3   OH2  776   6.141   3.000   3.912
  257TIP3    H1  777   6.054   2.973   3.881
  257TIP3    H2  778   6.185   3.029   3.832
  258TIP3   OH2  779   3.691   5.660   4.718
  258TIP3    H1  780   3.631   5.678   4.791
  258TIP3    H2  781   3.686   5.565   4.706
  259TIP3   OH2  782   2.074   2.593   2.601
  259TIP3    H1  783   2.114   2.678   2.621
  259TIP3    H2  784   2.147   2.536   2.578
  260TIP3   OH2  785   2.504   4.935   2.350
  260TIP3    H1  786   2.452   4.855   2.344
  260TIP3    H2  787   2.568   4.917   2.419
  261TIP3   OH2  788   2.973   3.498   2.413
  261TIP3    H1  789   3.026   3.440   2.358
  261TIP3    H2  790   3.033   3.570   2.436
  262TIP3   OH2  791   4.009   4.213   0.960
  262TIP3    H1  792   3.921   4.251   0.962
  262TIP3    H2  793   4.058   4.270   0.901
  263TIP3   OH2  794   0.631   5.386   4.870
  263TIP3    H1  795   0.592   5.381   4.957
  263TIP3    H2  796   0.710   5.439   4.881
  264TIP3   OH2  797   1.228   1.349   5.014
  264TIP3    H1  798   1.294   1.416   4.997
  264TIP3    H2  799   1.163   1.361   4.944
  265TIP3   OH2  800   4.756   2.016   1.574
  265TIP3    H1  801   4.777   2.086   1.512
  265TIP3    H2  802   4.666   1.991   1.553
  266TIP3   OH2  803   2.798   3.385   1.012
  266TIP3    H1  804   2.820   3.371   1.104
  266TIP3    H2  805   2.750   3.469   1.012
  267TIP3   OH2  806   5.788   0.600   2.103
  267TIP3    H1  807   5.831   0.680   2.132
  267TIP3    H2  808   5.794   0.603   2.007
  268TIP3   OH2  809   2.727   0.299   3.312
  268TIP3    H1  810   2.683   0.220   3.279
  268TIP3    H2  811   2.741   0.282   3.405
  269TIP3   OH2  812   5.700   0.361   3.565
  269TIP3    H1  813   5.660   0.434   3.518
  269TIP3    H2  814   5.647   0.352   3.644
  270TIP3   OH2  815   3.000   4.037   2.305
  270TIP3    H1  816   2.924   4.077   2.348
  270TIP3    H2  817   3.074   4.064   2.359
  271TIP3   OH2  818   5.499   1.414   4.824
  271TIP3    H1  819   5.473   1.363   4.747
  271TIP3    H2  820   5.561   1.479   4.790
  272TIP3   OH2  821   6.211   2.864   4.196
  272TIP3    H1  822   6.208   2.893   4.105
  272TIP3    H2  823   6.304   2.852   4.214
  273TIP3   OH2  824   2.533   2.473   1.981
  273TIP3    H1  825   2.563   2.557   1.946
  273TIP3    H2  826   2.611   2.418   1.981
  274TIP3   OH2  827   4.570   5.563   1.602
  274TIP3    H1  828   4.487   5.569   1.555
  274TIP3    H2  829   4.547   5.524   1.687
  275TIP3   OH2  830   3.894   3.861   3.114
  275TIP3    H1  831   3.930   3.853   3.203
  275TIP3    H2  832   3.807   3.820   3.120
  276TIP3   OH2  833   5.506   4.742   4.644
  276TIP3    H1  834   5.426   4.728   4.595
  276TIP3    H2  835   5.546   4.656   4.652
  277TIP3   OH2  836   6.267   5.035   4.439
  277TIP3    H1  837   6.315   5.086   4.374
  277TIP3    H2  838   6.192   4.999   4.390
  278TIP3   OH2  839   2.921   1.678   3.698
  278TIP3    H1  840   3.009   1.714   3.685
  278TIP3    H2  841   2.903   1.629   3.618
  279TIP3   OH2  842   4.141   3.003   1.613
  279TIP3    H1  843   4.139   3.098   1.604
  279TIP3    H2  844   4.216   2.986   1.670
  280TIP3   OH2  845   6.297   2.418   1.130
  280TIP3    H1  846   6.320   2.371   1.050
  280TIP3    H2  847   6.213   2.379   1.157
  281TIP3   OH2  848   2.230   3.549   3.620
  281TIP3    H1  849   2.229   3.589   3.534
  281TIP3    H2  850   2.296   3.598   3.669
  282TIP3   OH2  851   4.765   0.480   4.511
  282TIP3    H1  852   4.698   0.437   4.564
  282TIP3    H2  853   4.751   0.573   4.525
  283TIP3   OH2  854   5.229   4.184   2.682
  283TIP3    H1  855   5.233   4.274   2.715
  283TIP3    H2  856   5.137   4.160   2.691
  284TIP3   OH2  857   2.714   0.678   2.143
  284TIP3    H1  858   2.636   0.645   2.187
  284TIP3    H2  859   2.683   0.751   2.090
  285TIP3   OH2  860   0.429   2.130   2.131
  285TIP3    H1  861   0.461   2.220   2.130
  285TIP3    H2  862   0.337   2.137   2.157
  286TIP3   OH2  863   5.611   2.045   3.612
  286TIP3    H1  864   5.588   2.069   3.701
  286TIP3    H2  865   5.700   2.077   3.600
  287TIP3   OH2  866   0.426   5.674   2.172
  287TIP3    H1  867   0.379   5.603   2.129
  287TIP3    H2  868   0.514   5.672   2.133
  288TIP3   OH2  869   5.541   4.900   4.877
  288TIP3    H1  870   5.525   4.994   4.873
  288TIP3    H2  871   5.509   4.866   4.793
  289TIP3   OH2  872   0.918   1.232   3.864
  289TIP3    H1  873   1.009   1.216   3.839
  289TIP3    H2  874   0.902   1.170   3.935
  290TIP3   OH2  875   1.649   2.728   2.078
  290TIP3    H1  876   1.736   2.699   2.049
  290TIP3    H2  877   1.656   2.823   2.082
  291TIP3   OH2  878   2.796   3.340   1.288
  291TIP3    H1  879   2.779   3.401   1.359
  291TIP3    H2  880   2.746   3.262   1.310
  292TIP3   OH2  881   1.171   2.102   1.550
  292TIP3    H1  882   1.251   2.070   1.592
  292TIP3    H2  883   1.100   2.056   1.594
  293TIP3   OH2  884   3.840   4.102   5.145
  293TIP3    H1  885   3.746   4.118   5.156
  293TIP3    H2  886   3.845   4.017   5.101
  294TIP3   OH2  887   0.442   1.443   4.698
  294TIP3    H1  888   0.394   1.394   4.631
  294TIP3    H2  889   0.470   1.377   4.760
  295TIP3   OH2  890   2.007   2.664   3.188
  295TIP3    H1  891   1.958   2.597   3.141
  295TIP3    H2  892   2.099   2.642   3.171
  296TIP3   OH2  893   0.766   2.486   3.706
  296TIP3    H1  894   0.838   2.518   3.760
  296TIP3    H2  895   0.774   2.390   3.709
  297TIP3   OH2  896   2.502   5.647   4.108
  297TIP3    H1  897   2.446   5.712   4.065
  297TIP3    H2  898   2.515   5.579   4.042
  298TIP3   OH2  899   3.171   3.731   1.954
  298TIP3    H1  900   3.246   3.760   1.901
  298TIP3    H2  901   3.125   3.811   1.977
  299TIP3   OH2  902   1.948   1.577   1.897
  299TIP3    H1  903   1.957   1.500   1.952
  299TIP3    H2  904   1.908   1.545   1.816
  300TIP3   OH2  905   2.076   4.324   4.962
  300TIP3    H1  906   2.064   4.328   5.057
  300TIP3    H2  907   2.012   4.260   4.932
  301TIP3   OH2  908   5.046   3.909   4.434
  301TIP3    H1  909   5.046   3.832   4.377
  301TIP3    H2  910   5.124   3.899   4.488
  302TIP3   OH2  911   4.048   4.924   1.788
  302TIP3    H1  912   4.001   5.006   1.800
  302TIP3    H2  913   4.042   4.907   1.694
  303TIP3   OH2  914   2.533   4.079   4.864
  303TIP3    H1  915   2.471   4.120   4.804
  303TIP3    H2  916   2.515   4.119   4.949
  304TIP3   OH2  917   1.299   2.501   2.382
  304TIP3    H1  918   1.349   2.455   2.450
  304TIP3    H2  919   1.364   2.524   2.316
  305TIP3   OH2  920   5.240   5.688   2.143
  305TIP3    H1  921   5.255   5.691   2.048
  305TIP3    H2  922   5.174   5.619   2.153
  306TIP3   OH2  923   3.432   1.978   3.012
  306TIP3    H1  924   3.479   1.913   2.959
  306TIP3    H2  925   3.464   2.062   2.980
  307TIP3   OH2  926   2.659   1.582   5.058
  307TIP3    H1  927   2.593   1.592   5.127
  307TIP3    H2  928   2.649   1.491   5.029
  308TIP3   OH2  929   0.797   2.659   0.278
  308TIP3    H1  930   0.869   2.720   0.296
  308TIP3    H2  931   0.837   2.573   0.282
  309TIP3   OH2  932   4.095   5.699   3.204
  309TIP3    H1  933   4.021   5.755   3.178
  309TIP3    H2  934   4.169   5.734   3.154
  310TIP3   OH2  935   6.067   4.743   2.970
  310TIP3    H1  936   5.995   4.793   3.009
  310TIP3    H2  937   6.124   4.722   3.044
  311TIP3   OH2  938   4.078   4.416   4.313
  311TIP3    H1  939   4.107   4.432   4.224
  311TIP3    H2  940   4.129   4.341   4.342
  312TIP3   OH2  941   4.223   4.622   2.396
  312TIP3    H1  942   4.318   4.614   2.406
  312TIP3    H2  943   4.205   4.583   2.310
  313TIP3   OH2  944   5.901   2.711   0.882
  313TIP3    H1  945   5.834   2.663   0.930
  313TIP3    H2  946   5.912   2.662   0.801
  314TIP3   OH2  947   0.493   1.675   0.103
  314TIP3    H1  948   0.576   1.695   0.146
  314TIP3    H2  949   0.479   1.748   0.043
  315TIP3   OH2  950   3.200   4.698   4.087
  315TIP3    H1  951   3.126   4.740   4.130
  315TIP3    H2  952   3.276   4.723   4.140
  316TIP3   OH2  953   6.323   0.774   2.796
  316TIP3    H1  954   6.247   0.730   2.834
  316TIP3    H2  955   6.287   0.837   2.735
  317TIP3   OH2  956   1.137   5.852   0.773
  317TIP3    H1  957   1.122   5.802   0.853
  317TIP3    H2  958   1.145   5.943   0.801
  318TIP3   OH2  959   0.388   5.003   3.449
  318TIP3    H1  960   0.409   5.000   3.355
  318TIP3    H2  961   0.464   5.045   3.488
  319TIP3   OH2  962   2.379   4.999   4.749
  319TIP3    H1  963   2.446   4.932   4.765
  319TIP3    H2  964   2.393   5.025   4.658
  320TIP3   OH2  965   2.949   5.085   5.108
  320TIP3    H1  966   3.014   5.027   5.068
  320TIP3    H2  967   2.867   5.036   5.103
  321TIP3   OH2  968   3.609   4.252   5.128
  321TIP3    H1  969   3.551   4.285   5.197
  321TIP3    H2  970   3.677   4.319   5.120
  322TIP3   OH2  971   2.731   0.473   4.463
  322TIP3    H1  972   2.825   0.478   4.442
  322TIP3    H2  973   2.687   0.508   4.386
  323TIP3   OH2  974   3.642   3.875   1.629
  323TIP3    H1  975   3.652   3.780   1.626
  323TIP3    H2  976   3.730   3.908   1.649
  324TIP3   OH2  977   3.619   1.100   3.825
  324TIP3    H1  978   3.576   1.122   3.742
  324TIP3    H2  979   3.575   1.155   3.890
  325TIP3   OH2  980   0.484   5.070   1.470
  325TIP3    H1  981   0.576   5.080   1.494
  325TIP3    H2  982   0.486   5.039   1.379
  326TIP3   OH2  983   5.349   2.020   1.069
  326TIP3    H1  984   5.327   1.995   1.159
  326TIP3    H2  985   5.340   2.115   1.067
  327TIP3   OH2  986   3.932   3.222   1.446
  327TIP3    H1  987   3.977   3.240   1.528
  327TIP3    H2  988   3.850   3.270   1.453
  328TIP3   OH2  989   0.426   3.553   0.290
  328TIP3    H1  990   0.385   3.637   0.270
  328TIP3    H2  991   0.514   3.576   0.321
  329TIP3   OH2  992   3.922   3.529   5.038
  329TIP3    H1  993   3.875   3.573   4.967
  329TIP3    H2  994   4.010   3.567   5.035
  330TIP3   OH2  995   3.636   5.637   3.820
  330TIP3    H1  996   3.566   5.693   3.854
  330TIP3    H2  997   3.603   5.548   3.831
  331TIP3   OH2  998   2.507   1.019   2.223
  331TIP3    H1  999   2.602   1.025   2.233
  331TIP3    H2 1000   2.476   1.108   2.242
  332TIP3   OH2 1001   5.699   3.161   0.887
  332TIP3    H1 1002   5.616   3.119   0.863
  332TIP3    H2 1003   5.764   3.120   0.830
  333TIP3   OH2 1004   1.691   2.100   4.666
  333TIP3    H1 1005   1.639   2.150   4.603
  333TIP3    H2 1006   1.665   2.135   4.751
  334TIP3   OH2 1007   5.354   1.585   1.174
  334TIP3    H1 1008   5.342   1.624   1.087
  334TIP3    H2 1009   5.434   1.624   1.207
  335TIP3   OH2 1010   0.891   1.093   4.116
  335TIP3    H1 1011   0.914   1.131   4.201
  335TIP3    H2 1012   0.797   1.105   4.109
  336TIP3   OH2 1013   2.744   4.111   1.542
  336TIP3    H1 1014   2.816   4.166   1.509
  336TIP3    H2 1015   2.788   4.032   1.574
  337TIP3   OH2 1016   6.023   0.876   1.205
  337TIP3    H1 1017   5.957   0.807   1.205
  337TIP3    H2 1018   5.995   0.937   1.136
  338TIP3   OH2 1019   4.015   2.375   5.111
  338TIP3    H1 1020   3.978   2.462   5.125
  338TIP3    H2 1021   3.954   2.316   5.157
  339TIP3   OH2 1022   3.468   3.285   4.062
  339TIP3    H1 1023   3.492   3.299   4.154
  339TIP3    H2 1024   3.401   3.351   4.045
  340TIP3   OH2 1025   1.856   1.340   5.068
  340TIP3    H1 1026   1.916   1.267   5.087
  340TIP3    H2 1027   1.798   1.307   5.000
  341TIP3   OH2 1028   3.547   1.640   0.124
  341TIP3    H1 1029   3.585   1.728   0.130
  341TIP3    H2 1030   3.469   1.652   0.069
  342TIP3   OH2 1031   0.635   3.932   1.495
  342TIP3    H1 1032   0.550   3.969   1.470
  342TIP3    H2 1033   0.694   4.007   1.497
  343TIP3   OH2 1034   5.387   5.942   2.005
  343TIP3    H1 1035   5.395   6.001   1.930
  343TIP3    H2 1036   5.393   5.855   1.967
  344TIP3   OH2 1037   5.526   5.502   1.143
  344TIP3    H1 1038   5.523   5.537   1.054
  344TIP3    H2 1039   5.579   5.423   1.136
  345TIP3   OH2 1040   2.231   5.840   3.445
  345TIP3    H1 1041   2.256   5.775   3.510
  345TIP3    H2 1042   2.136   5.830   3.436
  346TIP3   OH2 1043   1.836   5.275   1.167
  346TIP3    H1 1044   1.924   5.310   1.176
  346TIP3    H2 1045   1.848   5.195   1.115
  347TIP3   OH2 1046   0.693   3.959   4.408
  347TIP3    H1 1047   0.724   3.948   4.497
  347TIP3    H2 1048   0.658   4.048   4.404
  348TIP3   OH2 1049   0.806   2.988   0.802
  348TIP3    H1 1050   0.779   3.030   0.721
  348TIP3    H2 1051   0.901   2.983   0.796
  349TIP3   OH2 1052   3.892   3.879   4.973
  349TIP3    H1 1053   3.857   3.821   4.906
  349TIP3    H2 1054   3.985   3.885   4.953
  350TIP3   OH2 1055   2.240   6.009   0.495
  350TIP3    H1 1056   2.229   6.016   0.590
  350TIP3    H2 1057   2.185   6.079   0.459
  351TIP3   OH2 1058   5.197   4.519   3.994
  351TIP3    H1 1059   5.205   4.587   3.926
  351TIP3    H2 1060   5.106   4.525   4.023
  352TIP3   OH2 1061   6.247   5.778   4.267
  352TIP3    H1 1062   6.271   5.854   4.321
  352TIP3    H2 1063   6.246   5.813   4.177
  353TIP3   OH2 1064   3.239   5.486   4.635
  353TIP3    H1 1065   3.211   5.557   4.692
  353TIP3    H2 1066   3.175   5.486   4.564
  354TIP3   OH2 1067   5.015   3.565   0.066
  354TIP3    H1 1068   4.944   3.625   0.044
  354TIP3    H2 1069   5.089   3.623   0.086
  355TIP3   OH2 1070   4.076   5.888   4.185
  355TIP3    H1 1071   4.064   5.944   4.108
  355TIP3    H2 1072   4.100   5.803   4.150
  356TIP3   OH2 1073   1.405   4.543   4.064
  356TIP3    H1 1074   1.433   4.506   4.148
  356TIP3    H2 1075   1.469   4.509   4.001
  357TIP3   OH2 1076   0.870   0.003   1.827
  357TIP3    H1 1077   0.880  -0.071   1.767
  357TIP3    H2 1078   0.942   0.062   1.805
  358TIP3   OH2 1079   5.244   1.259   2.666
  358TIP3    H1 1080   5.239   1.318   2.741
  358TIP3    H2 1081   5.172   1.197   2.678
  359TIP3   OH2 1082   5.452   5.073   2.310
  359TIP3    H1 1083   5.428   5.045   2.222
  359TIP3    H2 1084   5.449   4.994   2.363
  360TIP3   OH2 1085   5.379   0.691   2.500
  360TIP3    H1 1086   5.393   0.633   2.425
  360TIP3    H2 1087   5.465   0.696   2.542
  361TIP3   OH2 1088   5.614   4.810   3.234
  361TIP3    H1 1089   5.671   4.842   3.303
  361TIP3    H2 1090   5.534   4.782   3.279
  362TIP3   OH2 1091   2.869   2.296   0.416
  362TIP3    H1 1092   2.805   2.234   0.450
  362TIP3    H2 1093   2.854   2.298   0.322
  363TIP3   OH2 1094   4.268   2.164   2.960
  363TIP3    H1 1095   4.334   2.232   2.951
  363TIP3    H2 1096   4.215   2.192   3.035
  364TIP3   OH2 1097   1.037   1.030   1.696
  364TIP3    H1 1098   1.006   1.103   1.643
  364TIP3    H2 1099   1.108   1.067   1.749
  365TIP3   OH2 1100   0.419   4.089   1.452
  365TIP3    H1 1101   0.325   4.105   1.451
  365TIP3    H2 1102   0.458   4.177   1.445
  366TIP3   OH2 1103   1.415   1.896   0.416
  366TIP3    H1 1104   1.343   1.853   0.370
  366TIP3    H2 1105   1.492   1.843   0.396
  367TIP3   OH2 1106   3.002   3.730   4.207
  367TIP3    H1 1107   2.930   3.756   4.264
  367TIP3    H2 1108   3.058   3.807   4.202
  368TIP3   OH2 1109   2.886   0.484   3.164
  368TIP3    H1 1110   2.905   0.566   3.210
  368TIP3    H2 1111   2.833   0.434   3.226
  369TIP3   OH2 1112   1.281   0.345   3.733
  369TIP3    H1 1113   1.270   0.426   3.784
  369TIP3    H2 1114   1.315   0.374   3.649
  370TIP3   OH2 1115   0.262   2.295   2.943
  370TIP3    H1 1116   0.207   2.219   2.961
  370TIP3    H2 1117   0.290   2.325   3.029
  371TIP3   OH2 1118   0.142   1.370   1.896
  371TIP3    H1 1119   0.143   1.354   1.990
  371TIP3    H2 1120   0.224   1.332   1.864
  372TIP3   OH2 1121   3.396   4.310   2.562
  372TIP3    H1 1122   3.431   4.301   2.474
  372TIP3    H2 1123   3.317   4.364   2.551
  373TIP3   OH2 1124   2.911   0.047   1.796
  373TIP3    H1 1125   2.825   0.025   1.760
  373TIP3    H2 1126   2.921  -0.012   1.871
  374TIP3   OH2 1127   3.757   5.517   4.461
  374TIP3    H1 1128   3.748   5.472   4.378
  374TIP3    H2 1129   3.668   5.527   4.493
  375TIP3   OH2 1130   6.164   2.245   4.644
  375TIP3    H1 1131   6.183   2.151   4.641
  375TIP3    H2 1132   6.112   2.257   4.723
  376TIP3   OH2 1133   6.175   0.728   2.316
  376TIP3    H1 1134   6.231   0.697   2.387
  376TIP3    H2 1135   6.231   0.724   2.238
  377TIP3   OH2 1136   4.644   5.240   0.774
  377TIP3    H1 1137   4.699   5.313   0.803
  377TIP3    H2 1138   4.703   5.166   0.771
  378TIP3   OH2 1139   0.571   2.472   4.547
  378TIP3    H1 1140   0.529   2.483   4.462
  378TIP3    H2 1141   0.644   2.413   4.530
  379TIP3   OH2 1142   4.087   4.314   1.195
  379TIP3    H1 1143   4.065   4.270   1.112
  379TIP3    H2 1144   4.168   4.362   1.175
  380TIP3   OH2 1145   0.476   0.471   3.970
  380TIP3    H1 1146   0.440   0.382   3.961
  380TIP3    H2 1147   0.535   0.465   4.045
  381TIP3   OH2 1148   1.780   4.583   4.291
  381TIP3    H1 1149   1.784   4.607   4.199
  381TIP3    H2 1150   1.862   4.537   4.308
  382TIP3   OH2 1151   3.923   2.946   2.464
  382TIP3    H1 1152   4.005   2.992   2.480
  382TIP3    H2 1153   3.876   3.002   2.402
  383TIP3   OH2 1154   5.899   1.691   1.792
  383TIP3    H1 1155   5.813   1.669   1.828
  383TIP3    H2 1156   5.897   1.786   1.780
  384TIP3   OH2 1157   3.936   0.434   4.828
  384TIP3    H1 1158   3.908   0.387   4.907
  384TIP3    H2 1159   3.976   0.368   4.773
  385TIP3   OH2 1160   2.710   0.765   4.438
  385TIP3    H1 1161   2.745   0.682   4.468
  385TIP3    H2 1162   2.700   0.753   4.343
  386TIP3   OH2 1163   2.066   3.539   1.488
  386TIP3    H1 1164   2.133   3.588   1.438
  386TIP3    H2 1165   2.027   3.481   1.423
  387TIP3   OH2 1166   2.324   5.944   3.805
  387TIP3    H1 1167   2.262   5.884   3.764
  387TIP3    H2 1168   2.282   6.029   3.801
  388TIP3   OH2 1169   0.852   5.306   0.748
  388TIP3    H1 1170   0.828   5.390   0.788
  388TIP3    H2 1171   0.787   5.244   0.780
  389TIP3   OH2 1172   0.689   1.169   2.991
  389TIP3    H1 1173   0.695   1.177   3.086
  389TIP3    H2 1174   0.758   1.226   2.958
  390TIP3   OH2 1175   6.239   1.549   3.188
  390TIP3    H1 1176   6.213   1.547   3.280
  390TIP3    H2 1177   6.249   1.457   3.164
  391TIP3   OH2 1178   1.333   2.333   1.079
  391TIP3    H1 1179   1.303   2.266   1.140
  391TIP3    H2 1180   1.420   2.303   1.051
  392TIP3   OH2 1181   4.069   4.473   4.637
  392TIP3    H1 1182   4.111   4.426   4.564
  392TIP3    H2 1183   4.001   4.413   4.668
  393TIP3   OH2 1184   3.343   3.718   3.233
  393TIP3    H1 1185   3.294   3.800   3.227
  393TIP3    H2 1186   3.305   3.662   3.165
  394TIP3   OH2 1187   0.192   4.116   0.448
  394TIP3    H1 1188   0.121   4.101   0.386
  394TIP3    H2 1189   0.268   4.133   0.394
  395TIP3   OH2 1190   1.940   3.827   0.960
  395TIP3    H1 1191   1.869   3.881   0.995
  395TIP3    H2 1192   1.902   3.784   0.883
  396TIP3   OH2 1193   1.419   5.226   4.757
  396TIP3    H1 1194   1.449   5.182   4.836
  396TIP3    H2 1195   1.350   5.169   4.722
  397TIP3   OH2 1196   3.868   0.880   3.726
  397TIP3    H1 1197   3.844   0.860   3.816
  397TIP3    H2 1198   3.952   0.835   3.713
  398TIP3   OH2 1199   4.734   4.065   2.984
  398TIP3    H1 1200   4.645   4.029   2.990
  398TIP3    H2 1201   4.742   4.093   2.893
  399TIP3   OH2 1202   2.518   1.477   3.914
  399TIP3    H1 1203   2.588   1.429   3.871
  399TIP3    H2 1204   2.440   1.461   3.861
  400TIP3   OH2 1205   0.270   4.600   0.487
  400TIP3    H1 1206   0.272   4.615   0.392
  400TIP3    H2 1207   0.346   4.544   0.504
  401TIP3   OH2 1208   4.073   5.467   2.945
  401TIP3    H1 1209   3.978   5.472   2.939
  401TIP3    H2 1210   4.101   5.435   2.859
  402TIP3   OH2 1211   5.236   1.151   1.701
  402TIP3    H1 1212   5.244   1.079   1.637
  402TIP3    H2 1213   5.171   1.119   1.764
  403TIP3   OH2 1214   2.451   1.200   2.788
  403TIP3    H1 1215   2.406   1.116   2.800
  403TIP3    H2 1216   2.408   1.241   2.714
  404TIP3   OH2 1217   4.911   5.482   2.764
  404TIP3    H1 1218   4.982   5.467   2.702
  404TIP3    H2 1219   4.831   5.468   2.713
  405TIP3   OH2 1220   1.999   4.501   1.612
  405TIP3    H1 1221   2.024   4.423   1.562
  405TIP3    H2 1222   1.905   4.490   1.628
  406TIP3   OH2 1223   0.675   3.048   0.550
  406TIP3    H1 1224   0.644   3.110   0.483
  406TIP3    H2 1225   0.646   2.963   0.518
  407TIP3   OH2 1226   1.895   3.179   0.118
  407TIP3    H1 1227   1.862   3.219   0.198
  407TIP3    H2 1228   1.983   3.149   0.140
  408TIP3   OH2 1229   6.035   0.124   3.362
  408TIP3    H1 1230   5.983   0.191   3.408
  408TIP3    H2 1231   6.028   0.148   3.270
  409TIP3   OH2 1232   2.915   5.691   0.362
  409TIP3    H1 1233   2.834   5.683   0.311
  409TIP3    H2 1234   2.892   5.658   0.449
  410TIP3   OH2 1235   0.927   5.142   4.905
  410TIP3    H1 1236   0.998   5.183   4.954
  410TIP3    H2 1237   0.912   5.199   4.830
  411TIP3   OH2 1238   1.508   5.490   4.830
  411TIP3    H1 1239   1.478   5.581   4.832
  411TIP3    H2 1240   1.439   5.440   4.874
  412TIP3   OH2 1241   4.106   4.760   3.796
  412TIP3    H1 1242   4.190   4.760   3.749
  412TIP3    H2 1243   4.081   4.852   3.800
  413TIP3   OH2 1244   5.316   0.531   3.322
  413TIP3    H1 1245   5.380   0.594   3.288
  413TIP3    H2 1246   5.249   0.585   3.364
  414TIP3   OH2 1247   1.506   2.167   0.896
  414TIP3    H1 1248   1.502   2.154   0.801
  414TIP3    H2 1249   1.429   2.122   0.930
  415TIP3   OH2 1250   2.112   3.669   1.078
  415TIP3    H1 1251   2.039   3.719   1.041
  415TIP3    H2 1252   2.179   3.670   1.010
  416TIP3   OH2 1253   1.857   1.522   0.281
  416TIP3    H1 1254   1.864   1.454   0.348
  416TIP3    H2 1255   1.946   1.529   0.245
  417TIP3   OH2 1256   0.109   4.019   4.019
  417TIP3    H1 1257   0.108   3.959   3.944
  417TIP3    H2 1258   0.193   4.002   4.063
  418TIP3   OH2 1259   4.571   1.022   0.889
  418TIP3    H1 1260   4.490   1.036   0.937
  418TIP3    H2 1261   4.637   1.068   0.941
  419TIP3   OH2 1262   4.935   2.972   1.091
  419TIP3    H1 1263   4.902   3.061   1.077
  419TIP3    H2 1264   4.993   2.957   1.017
  420TIP3   OH2 1265   2.688   3.240   3.170
  420TIP3    H1 1266   2.705   3.233   3.264
  420TIP3    H2 1267   2.761   3.194   3.129
  421TIP3   OH2 1268   0.133   2.793   4.237
  421TIP3    H1 1269   0.173   2.766   4.320
  421TIP3    H2 1270   0.207   2.804   4.178
  422TIP3   OH2 1271   2.897   0.816   0.407
  422TIP3    H1 1272   2.833   0.836   0.338
  422TIP3    H2 1273   2.883   0.884   0.473
  423TIP3   OH2 1274   1.124   5.469   4.435
  423TIP3    H1 1275   1.089   5.557   4.452
  423TIP3    H2 1276   1.163   5.443   4.518
  424TIP3   OH2 1277   5.717   2.680   0.517
  424TIP3    H1 1278   5.785   2.652   0.578
  424TIP3    H2 1279   5.745   2.644   0.433
  425TIP3   OH2 1280   3.665   2.253   2.465
  425TIP3    H1 1281   3.748   2.294   2.439
  425TIP3    H2 1282   3.667   2.254   2.561
  426TIP3   OH2 1283   3.005   1.493   0.954
  426TIP3    H1 1284   2.963   1.538   1.028
  426TIP3    H2 1285   2.936   1.488   0.888
  427TIP3   OH2 1286   0.104   4.200   1.675
  427TIP3    H1 1287   0.067   4.162   1.755
  427TIP3    H2 1288   0.113   4.294   1.695
  428TIP3   OH2 1289   2.567   5.374   2.117
  428TIP3    H1 1290   2.579   5.285   2.150
  428TIP3    H2 1291   2.637   5.386   2.053
  429TIP3   OH2 1292   4.242   3.578   3.321
  429TIP3    H1 1293   4.150   3.561   3.343
  429TIP3    H2 1294   4.280   3.491   3.310
  430TIP3   OH2 1295   5.256   4.406   4.241
  430TIP3    H1 1296   5.326   4.460   4.278
  430TIP3    H2 1297   5.238   4.445   4.156
  431TIP3   OH2 1298   0.166   3.303   2.602
  431TIP3    H1 1299   0.253   3.300   2.643
  431TIP3    H2 1300   0.163   3.225   2.547
  432TIP3   OH2 1301   2.329   3.602   3.046
  432TIP3    H1 1302   2.390   3.571   2.979
  432TIP3    H2 1303   2.290   3.523   3.082
  433TIP3   OH2 1304   1.272   3.279   2.382
  433TIP3    H1 1305   1.251   3.191   2.350
  433TIP3    H2 1306   1.312   3.264   2.467
  434TIP3   OH2 1307   1.883   2.757   4.784
  434TIP3    H1 1308   1.871   2.706   4.864
  434TIP3    H2 1309   1.794   2.786   4.761
  435TIP3   OH2 1310   5.716   1.062   3.651
  435TIP3    H1 1311   5.647   1.129   3.642
  435TIP3    H2 1312   5.781   1.103   3.708
  436TIP3   OH2 1313   5.388   5.856   1.315
  436TIP3    H1 1314   5.300   5.819   1.306
  436TIP3    H2 1315   5.414   5.834   1.405
  437TIP3   OH2 1316   5.593   0.301   2.380
  437TIP3    H1 1317   5.611   0.269   2.469
  437TIP3    H2 1318   5.620   0.229   2.323
  438TIP3   OH2 1319   5.466   1.766   3.591
  438TIP3    H1 1320   5.553   1.800   3.608
  438TIP3    H2 1321   5.429   1.752   3.679
  439TIP3   OH2 1322   0.243   5.293   3.222
  439TIP3    H1 1323   0.293   5.375   3.222
  439TIP3    H2 1324   0.285   5.239   3.155
  440TIP3   OH2 1325   5.259   4.267   1.748
  440TIP3    H1 1326   5.206   4.333   1.793
  440TIP3    H2 1327   5.199   4.193   1.735
  441TIP3   OH2 1328   4.107   2.024   2.751
  441TIP3    H1 1329   4.138   1.945   2.706
  441TIP3    H2 1330   4.176   2.044   2.814
  442TIP3   OH2 1331   5.114   2.152   4.870
  442TIP3    H1 1332   5.077   2.079   4.821
  442TIP3    H2 1333   5.039   2.188   4.918
  443TIP3   OH2 1334   3.523   1.104   1.963
  443TIP3    H1 1335   3.548   1.044   1.892
  443TIP3    H2 1336   3.599   1.161   1.973
  444TIP3   OH2 1337   4.467   1.483   2.522
  444TIP3    H1 1338   4.374   1.462   2.513
  444TIP3    H2 1339   4.488   1.462   2.613
  445TIP3   OH2 1340   5.588   3.656   0.159
  445TIP3    H1 1341   5.668   3.625   0.201
  445TIP3    H2 1342   5.527   3.672   0.231
  446TIP3   OH2 1343   2.463   2.810   1.230
  446TIP3    H1 1344   2.557   2.828   1.236
  446TIP3    H2 1345   2.432   2.812   1.320
  447TIP3   OH2 1346   4.277   5.262   1.887
  447TIP3    H1 1347   4.246   5.351   1.901
  447TIP3    H2 1348   4.242   5.237   1.801
  448TIP3   OH2 1349   3.655   3.586   3.950
  448TIP3    H1 1350   3.692   3.500   3.966
  448TIP3    H2 1351   3.712   3.646   3.998
  449TIP3   OH2 1352   5.724   4.357   1.563
  449TIP3    H1 1353   5.694   4.429   1.620
  449TIP3    H2 1354   5.798   4.394   1.515
  450TIP3   OH2 1355   0.130   4.935   0.128
  450TIP3    H1 1356   0.130   5.029   0.145
  450TIP3    H2 1357   0.062   4.922   0.061
  451TIP3   OH2 1358   4.991   2.970   2.294
  451TIP3    H1 1359   5.071   2.963   2.241
  451TIP3    H2 1360   4.989   2.890   2.346
  452TIP3   OH2 1361   4.079   0.208   1.678
  452TIP3    H1 1362   4.081   0.157   1.759
  452TIP3    H2 1363   4.144   0.278   1.691
  453TIP3   OH2 1364   5.360   1.631   1.806
  453TIP3    H1 1365   5.455   1.622   1.797
  453TIP3    H2 1366   5.327   1.541   1.801
  454TIP3   OH2 1367   2.651   3.070   4.543
  454TIP3    H1 1368   2.587   3.009   4.581
  454TIP3    H2 1369   2.681   3.122   4.618
  455TIP3   OH2 1370   0.781   3.512   4.493
  455TIP3    H1 1371   0.753   3.584   4.436
  455TIP3    H2 1372   0.787   3.436   4.435
  456TIP3   OH2 1373   2.398   5.310   4.374
  456TIP3    H1 1374   2.348   5.306   4.456
  456TIP3    H2 1375   2.460   5.382   4.388
  457TIP3   OH2 1376   1.916   0.786   4.538
  457TIP3    H1 1377   1.901   0.704   4.586
  457TIP3    H2 1378   1.957   0.759   4.456
  458TIP3   OH2 1379   4.394   4.428   3.789
  458TIP3    H1 1380   4.431   4.347   3.752
  458TIP3    H2 1381   4.413   4.495   3.723
  459TIP3   OH2 1382   3.728   4.830   4.366
  459TIP3    H1 1383   3.682   4.914   4.359
  459TIP3    H2 1384   3.763   4.829   4.455
  460TIP3   OH2 1385   0.075   0.284   3.141
  460TIP3    H1 1386   0.163   0.250   3.130
  460TIP3    H2 1387   0.053   0.266   3.232
  461TIP3   OH2 1388   0.674   1.868   3.757
  461TIP3    H1 1389   0.751   1.903   3.803
  461TIP3    H2 1390   0.710   1.820   3.683
  462TIP3   OH2 1391   3.795   0.703   4.407
  462TIP3    H1 1392   3.857   0.776   4.399
  462TIP3    H2 1393   3.849   0.625   4.396
  463TIP3   OH2 1394   2.305   2.952   0.478
  463TIP3    H1 1395   2.227   2.897   0.471
  463TIP3    H2 1396   2.378   2.890   0.480
  464TIP3   OH2 1397   2.052   3.177   3.191
  464TIP3    H1 1398   2.025   3.090   3.162
  464TIP3    H2 1399   1.983   3.204   3.252
  465TIP3   OH2 1400   5.849   2.513   0.712
  465TIP3    H1 1401   5.890   2.427   0.699
  465TIP3    H2 1402   5.788   2.499   0.785
  466TIP3   OH2 1403   3.182   3.418   1.689
  466TIP3    H1 1404   3.207   3.410   1.597
  466TIP3    H2 1405   3.265   3.413   1.737
  467TIP3   OH2 1406   2.659   4.469   0.067
  467TIP3    H1 1407   2.644   4.453   0.160
  467TIP3    H2 1408   2.571   4.474   0.029
  468TIP3   OH2 1409   2.962   4.130   1.236
  468TIP3    H1 1410   2.988   4.209   1.285
  468TIP3    H2 1411   3.011   4.059   1.277
  469TIP3   OH2 1412   3.709   1.124   1.269
  469TIP3    H1 1413   3.689   1.073   1.347
  469TIP3    H2 1414   3.640   1.101   1.207
  470TIP3   OH2 1415   5.426   1.679   2.485
  470TIP3    H1 1416   5.494   1.730   2.441
  470TIP3    H2 1417   5.426   1.713   2.575
  471TIP3   OH2 1418   4.706   4.798   5.087
  471TIP3    H1 1419   4.701   4.851   5.167
  471TIP3    H2 1420   4.773   4.733   5.106
  472TIP3   OH2 1421   4.215   5.549   4.468
  472TIP3    H1 1422   4.183   5.475   4.519
  472TIP3    H2 1423   4.234   5.617   4.533
  473TIP3   OH2 1424   3.461   5.735   2.905
  473TIP3    H1 1425   3.469   5.813   2.961
  473TIP3    H2 1426   3.443   5.769   2.818
  474TIP3   OH2 1427   5.450   4.947   3.973
  474TIP3    H1 1428   5.479   4.856   3.974
  474TIP3    H2 1429   5.419   4.961   3.883
  475TIP3   OH2 1430   1.765   4.268   0.453
  475TIP3    H1 1431   1.857   4.263   0.426
  475TIP3    H2 1432   1.729   4.341   0.403
  476TIP3   OH2 1433   3.113   5.597   0.207
  476TIP3    H1 1434   3.135   5.650   0.130
  476TIP3    H2 1435   3.070   5.658   0.266
  477TIP3   OH2 1436   2.810   1.990   4.267
  477TIP3    H1 1437   2.857   1.997   4.350
  477TIP3    H2 1438   2.862   1.930   4.214
  478TIP3   OH2 1439   3.126   1.121   2.762
  478TIP3    H1 1440   3.218   1.112   2.788
  478TIP3    H2 1441   3.130   1.149   2.670
  479TIP3   OH2 1442   4.497   3.597   4.319
  479TIP3    H1 1443   4.473   3.606   4.411
  479TIP3    H2 1444   4.464   3.511   4.294
  480TIP3   OH2 1445   4.130   3.162   0.620
  480TIP3    H1 1446   4.045   3.166   0.665
  480TIP3    H2 1447   4.192   3.141   0.690
  481TIP3   OH2 1448   2.277   4.850   4.949
  481TIP3    H1 1449   2.269   4.918   4.882
  481TIP3    H2 1450   2.187   4.836   4.979
  482TIP3   OH2 1451   3.471   1.724   4.460
  482TIP3    H1 1452   3.529   1.721   4.537
  482TIP3    H2 1453   3.476   1.636   4.423
  483TIP3   OH2 1454   2.219   0.691   3.188
  483TIP3    H1 1455   2.128   0.675   3.212
  483TIP3    H2 1456   2.268   0.622   3.234
  484TIP3   OH2 1457   0.006   4.098   3.025
  484TIP3    H1 1458   0.100   4.112   3.032
  484TIP3    H2 1459  -0.025   4.099   3.116
  485TIP3   OH2 1460   1.703   0.359   3.153
  485TIP3    H1 1461   1.737   0.286   3.204
  485TIP3    H2 1462   1.666   0.418   3.219
  486TIP3   OH2 1463   3.756   3.865   0.333
  486TIP3    H1 1464   3.707   3.848   0.413
  486TIP3    H2 1465   3.810   3.787   0.320
  487TIP3   OH2 1466   3.993   1.868   2.394
  487TIP3    H1 1467   3.937   1.791   2.407
  487TIP3    H2 1468   4.070   1.851   2.449
  488TIP3   OH2 1469   1.816   4.052   0.738
  488TIP3    H1 1470   1.810   3.957   0.731
  488TIP3    H2 1471   1.738   4.084   0.693
  489TIP3   OH2 1472   1.020   1.457   1.763
  489TIP3    H1 1473   1.029   1.404   1.843
  489TIP3    H2 1474   1.052   1.401   1.693
  490TIP3   OH2 1475   1.394   3.809   1.464
  490TIP3    H1 1476   1.330   3.739   1.475
  490TIP3    H2 1477   1.477   3.764   1.448
  491TIP3   OH2 1478   1.355   0.518   1.259
  491TIP3    H1 1479   1.442   0.553   1.239
  491TIP3    H2 1480   1.371   0.449   1.323
  492TIP3   OH2 1481   5.875   5.055   2.612
  492TIP3    H1 1482   5.923   4.983   2.653
  492TIP3    H2 1483   5.783   5.037   2.632
  493TIP3   OH2 1484   0.151   4.915   2.043
  493TIP3    H1 1485   0.221   4.858   2.073
  493TIP3    H2 1486   0.082   4.906   2.109
  494TIP3   OH2 1487   5.595   2.413   3.351
  494TIP3    H1 1488   5.616   2.372   3.267
  494TIP3    H2 1489   5.661   2.482   3.361
  495TIP3   OH2 1490   3.495   0.844   5.150
  495TIP3    H1 1491   3.496   0.797   5.234
  495TIP3    H2 1492   3.406   0.877   5.142
  496TIP3   OH2 1493   1.580   1.830   4.026
  496TIP3    H1 1494   1.531   1.797   4.101
  496TIP3    H2 1495   1.575   1.758   3.962
  497TIP3   OH2 1496   3.243   0.636   2.169
  497TIP3    H1 1497   3.262   0.542   2.175
  497TIP3    H2 1498   3.151   0.641   2.145
  498TIP3   OH2 1499   1.504   2.896   1.743
  498TIP3    H1 1500   1.509   2.856   1.656
  498TIP3    H2 1501   1.595   2.909   1.769
  499TIP3   OH2 1502   4.823   0.851   2.580
  499TIP3    H1 1503   4.853   0.826   2.667
  499TIP3    H2 1504   4.903   0.856   2.528
  500TIP3   OH2 1505   4.984   4.748   3.349
  500TIP3    H1 1506   5.002   4.842   3.346
  500TIP3    H2 1507   4.984   4.726   3.442
  501TIP3   OH2 1508   1.668   5.084   4.331
  501TIP3    H1 1509   1.664   4.990   4.313
  501TIP3    H2 1510   1.706   5.090   4.419
  502TIP3   OH2 1511   3.698   3.990   3.942
  502TIP3    H1 1512   3.607   3.961   3.934
  502TIP3    H2 1513   3.716   3.990   4.036
  503TIP3   OH2 1514   4.043   5.073   4.784
  503TIP3    H1 1515   3.961   5.117   4.806
  503TIP3    H2 1516   4.073   5.036   4.867
  504TIP3   OH2 1517   1.135   5.289   0.300
  504TIP3    H1 1518   1.079   5.267   0.374
  504TIP3    H2 1519   1.188   5.363   0.330
  505TIP3   OH2 1520   2.476   3.857   1.010
  505TIP3    H1 1521   2.390   3.884   1.041
  505TIP3    H2 1522   2.473   3.872   0.915
  506TIP3   OH2 1523   5.873   1.014   0.913
  506TIP3    H1 1524   5.875   1.000   0.819
  506TIP3    H2 1525   5.924   1.094   0.927
  507TIP3   OH2 1526   4.336   2.830   3.157
  507TIP3    H1 1527   4.428   2.858   3.153
  507TIP3    H2 1528   4.314   2.835   3.250
  508TIP3   OH2 1529   2.527   2.986   2.639
  508TIP3    H1 1530   2.492   3.034   2.563
  508TIP3    H2 1531   2.558   2.904   2.603
  509TIP3   OH2 1532   4.001   3.387   0.977
  509TIP3    H1 1533   4.025   3.406   1.068
  509TIP3    H2 1534   3.998   3.472   0.934
  510TIP3   OH2 1535   1.447   1.000   4.115
  510TIP3    H1 1536   1.460   1.054   4.037
  510TIP3    H2 1537   1.529   0.951   4.123
  511TIP3   OH2 1538   5.609   0.699   0.770
  511TIP3    H1 1539   5.536   0.757   0.790
  511TIP3    H2 1540   5.568   0.616   0.746
  512TIP3   OH2 1541   2.807   3.874   1.919
  512TIP3    H1 1542   2.824   3.832   1.835
  512TIP3    H2 1543   2.807   3.802   1.982
  513TIP3   OH2 1544   3.476   0.044   3.782
  513TIP3    H1 1545   3.536  -0.030   3.776
  513TIP3    H2 1546   3.504   0.103   3.712
  514TIP3   OH2 1547   1.553   3.441   2.571
  514TIP3    H1 1548   1.632   3.494   2.580
  514TIP3    H2 1549   1.578   3.354   2.601
  515TIP3   OH2 1550   4.257   4.610   2.127
  515TIP3    H1 1551   4.225   4.684   2.076
  515TIP3    H2 1552   4.344   4.592   2.091
  516TIP3   OH2 1553   2.579   0.872   3.214
  516TIP3    H1 1554   2.621   0.956   3.193
  516TIP3    H2 1555   2.612   0.812   3.147
  517TIP3   OH2 1556   2.026   4.548   2.420
  517TIP3    H1 1557   1.931   4.536   2.424
  517TIP3    H2 1558   2.059   4.516   2.504
  518TIP3   OH2 1559   6.169   0.483   3.833
  518TIP3    H1 1560   6.199   0.562   3.877
  518TIP3    H2 1561   6.074   0.492   3.829
  519TIP3   OH2 1562   3.078   0.089   0.618
  519TIP3    H1 1563   3.034   0.126   0.694
  519TIP3    H2 1564   3.067  -0.006   0.628
  520TIP3   OH2 1565   0.770   1.630   0.522
  520TIP3    H1 1566   0.848   1.685   0.514
  520TIP3    H2 1567   0.763   1.611   0.615
  521TIP3   OH2 1568   0.593   1.852   0.687
  521TIP3    H1 1569   0.604   1.890   0.600
  521TIP3    H2 1570   0.659   1.895   0.741
  522TIP3   OH2 1571   3.384   3.547   3.849
  522TIP3    H1 1572   3.326   3.554   3.926
  522TIP3    H2 1573   3.472   3.556   3.885
  523TIP3   OH2 1574   1.993   1.670   4.692
  523TIP3    H1 1575   2.066   1.617   4.723
  523TIP3    H2 1576   1.928   1.666   4.762
  524TIP3   OH2 1577   0.932   4.415   0.258
  524TIP3    H1 1578   0.984   4.471   0.199
  524TIP3    H2 1579   0.995   4.351   0.291
  525TIP3   OH2 1580   4.579   1.061   0.631
  525TIP3    H1 1581   4.527   1.141   0.641
  525TIP3    H2 1582   4.603   1.036   0.720
  526TIP3   OH2 1583   3.222   0.284   3.239
  526TIP3    H1 1584   3.168   0.217   3.282
  526TIP3    H2 1585   3.237   0.349   3.308
  527TIP3   OH2 1586   0.261   2.697   0.809
  527TIP3    H1 1587   0.285   2.685   0.901
  527TIP3    H2 1588   0.345   2.716   0.765
  528TIP3   OH2 1589   5.162   3.573   1.832
  528TIP3    H1 1590   5.185   3.664   1.851
  528TIP3    H2 1591   5.078   3.578   1.786
  529TIP3   OH2 1592   5.174   0.603   3.028
  529TIP3    H1 1593   5.174   0.507   3.021
  529TIP3    H2 1594   5.263   0.628   3.003
  530TIP3   OH2 1595   0.834   2.724   5.065
  530TIP3    H1 1596   0.747   2.763   5.067
  530TIP3    H2 1597   0.862   2.734   4.974
  531TIP3   OH2 1598   5.615   3.495   2.051
  531TIP3    H1 1599   5.686   3.550   2.085
  531TIP3    H2 1600   5.649   3.462   1.968
  532TIP3   OH2 1601   5.022   4.117   0.469
  532TIP3    H1 1602   4.996   4.047   0.528
  532TIP3    H2 1603   4.969   4.104   0.391
  533TIP3   OH2 1604   0.659   5.985   4.342
  533TIP3    H1 1605   0.630   5.894   4.339
  533TIP3    H2 1606   0.578   6.036   4.332
  534TIP3   OH2 1607   4.776   0.907   2.257
  534TIP3    H1 1608   4.747   0.998   2.262
  534TIP3    H2 1609   4.866   0.908   2.290
  535TIP3   OH2 1610   5.314   5.252   1.382
  535TIP3    H1 1611   5.404   5.221   1.381
  535TIP3    H2 1612   5.320   5.346   1.368
  536TIP3   OH2 1613   1.971   0.717   2.732
  536TIP3    H1 1614   1.951   0.631   2.694
  536TIP3    H2 1615   1.929   0.716   2.818
  537TIP3   OH2 1616   0.936   2.130   3.479
  537TIP3    H1 1617   0.846   2.107   3.502
  537TIP3    H2 1618   0.939   2.225   3.488
  538TIP3   OH2 1619   1.124   0.590   3.053
  538TIP3    H1 1620   1.125   0.685   3.045
  538TIP3    H2 1621   1.036   0.569   3.084
  539TIP3   OH2 1622   2.535   1.611   4.571
  539TIP3    H1 1623   2.473   1.594   4.500
  539TIP3    H2 1624   2.590   1.682   4.539
  540TIP3   OH2 1625   4.860   5.294   2.329
  540TIP3    H1 1626   4.911   5.308   2.250
  540TIP3    H2 1627   4.772   5.275   2.298
  541TIP3   OH2 1628   4.108   0.742   3.698
  541TIP3    H1 1629   4.143   0.695   3.773
  541TIP3    H2 1630   4.161   0.711   3.624
  542TIP3   OH2 1631   2.214   0.443   4.359
  542TIP3    H1 1632   2.309   0.437   4.372
  542TIP3    H2 1633   2.190   0.358   4.321
  543TIP3   OH2 1634   3.390   2.527   2.647
  543TIP3    H1 1635   3.301   2.556   2.629
  543TIP3    H2 1636   3.382   2.433   2.663
  544TIP3   OH2 1637   4.526   1.649   4.675
  544TIP3    H1 1638   4.433   1.652   4.695
  544TIP3    H2 1639   4.568   1.693   4.749
  545TIP3   OH2 1640   6.061   5.839   4.781
  545TIP3    H1 1641   6.027   5.923   4.811
  545TIP3    H2 1642   6.125   5.813   4.847
  546TIP3   OH2 1643   0.312   3.869   3.547
  546TIP3    H1 1644   0.247   3.828   3.490
  546TIP3    H2 1645   0.306   3.963   3.527
  547TIP3   OH2 1646   0.406   2.538   0.322
  547TIP3    H1 1647   0.331   2.478   0.321
  547TIP3    H2 1648   0.458   2.509   0.397
  548TIP3   OH2 1649   3.874   1.383   2.467
  548TIP3    H1 1650   3.852   1.326   2.393
  548TIP3    H2 1651   3.898   1.322   2.537
  549TIP3   OH2 1652   2.813   2.413   4.937
  549TIP3    H1 1653   2.735   2.368   4.971
  549TIP3    H2 1654   2.874   2.342   4.915
  550TIP3   OH2 1655   1.118   2.215   3.206
  550TIP3    H1 1656   1.177   2.140   3.202
  550TIP3    H2 1657   1.163   2.278   3.261
  551TIP3   OH2 1658   4.832   4.694   0.244
  551TIP3    H1 1659   4.846   4.605   0.211
  551TIP3    H2 1660   4.920   4.731   0.250
  552TIP3   OH2 1661   1.243   2.312   1.799
  552TIP3    H1 1662   1.222   2.263   1.719
  552TIP3    H2 1663   1.333   2.288   1.818
  553TIP3   OH2 1664   5.586   2.465   1.451
  553TIP3    H1 1665   5.655   2.522   1.486
  553TIP3    H2 1666   5.565   2.407   1.524
  554TIP3   OH2 1667   0.766   2.231   1.426
  554TIP3    H1 1668   0.704   2.299   1.450
  554TIP3    H2 1669   0.851   2.276   1.424
  555TIP3   OH2 1670   4.749   1.348   1.870
  555TIP3    H1 1671   4.717   1.296   1.796
  555TIP3    H2 1672   4.670   1.386   1.909
  556TIP3   OH2 1673   2.888   5.457   0.825
  556TIP3    H1 1674   2.945   5.382   0.811
  556TIP3    H2 1675   2.859   5.448   0.916
  557TIP3   OH2 1676   0.300   3.000   0.665
  557TIP3    H1 1677   0.312   2.909   0.640
  557TIP3    H2 1678   0.387   3.029   0.692
  558TIP3   OH2 1679   1.199   2.522   1.366
  558TIP3    H1 1680   1.211   2.554   1.456
  558TIP3    H2 1681   1.112   2.484   1.365
  559TIP3   OH2 1682   4.397   3.071   5.003
  559TIP3    H1 1683   4.469   3.039   5.057
  559TIP3    H2 1684   4.351   3.133   5.059
  560TIP3   OH2 1685   4.424   3.809   4.147
  560TIP3    H1 1686   4.466   3.748   4.207
  560TIP3    H2 1687   4.457   3.895   4.174
  561TIP3   OH2 1688   0.325   2.676   4.392
  561TIP3    H1 1689   0.268   2.599   4.401
  561TIP3    H2 1690   0.391   2.649   4.328
  562TIP3   OH2 1691   0.868   5.217   3.157
  562TIP3    H1 1692   0.923   5.285   3.119
  562TIP3    H2 1693   0.859   5.152   3.087
  563TIP3   OH2 1694   3.222   5.018   4.100
  563TIP3    H1 1695   3.279   4.942   4.113
  563TIP3    H2 1696   3.228   5.067   4.181
  564TIP3   OH2 1697   0.259   4.773   2.481
  564TIP3    H1 1698   0.180   4.776   2.428
  564TIP3    H2 1699   0.328   4.808   2.424
  565TIP3   OH2 1700   2.033   5.874   4.265
  565TIP3    H1 1701   2.013   5.882   4.172
  565TIP3    H2 1702   1.950   5.892   4.310
  566TIP3   OH2 1703   5.512   5.207   4.115
  566TIP3    H1 1704   5.484   5.147   4.046
  566TIP3    H2 1705   5.569   5.155   4.172
  567TIP3   OH2 1706   1.513   0.566   3.954
  567TIP3    H1 1707   1.592   0.619   3.941
  567TIP3    H2 1708   1.476   0.598   4.037
  568TIP3   OH2 1709   4.882   5.958   1.639
  568TIP3    H1 1710   4.959   5.914   1.603
  568TIP3    H2 1711   4.822   5.887   1.661
  569TIP3   OH2 1712   1.812   5.003   1.506
  569TIP3    H1 1713   1.815   4.959   1.591
  569TIP3    H2 1714   1.720   5.001   1.481
  570TIP3   OH2 1715   3.351   2.823   1.048
  570TIP3    H1 1716   3.394   2.839   1.132
  570TIP3    H2 1717   3.305   2.740   1.060
  571TIP3   OH2 1718   5.866   0.069   4.604
  571TIP3    H1 1719   5.953   0.107   4.596
  571TIP3    H2 1720   5.847   0.071   4.698
  572TIP3   OH2 1721   1.988   0.967   1.276
  572TIP3    H1 1722   1.996   0.872   1.265
  572TIP3    H2 1723   2.074   1.001   1.249
  573TIP3   OH2 1724   2.654   4.140   1.202
  573TIP3    H1 1725   2.740   4.149   1.243
  573TIP3    H2 1726   2.662   4.188   1.119
  574TIP3   OH2 1727   5.450   0.496   2.712
  574TIP3    H1 1728   5.470   0.448   2.792
  574TIP3    H2 1729   5.413   0.579   2.741
  575TIP3   OH2 1730   2.119   2.975   2.357
  575TIP3    H1 1731   2.036   3.001   2.396
  575TIP3    H2 1732   2.098   2.899   2.304
  576TIP3   OH2 1733   6.258   2.979   1.674
  576TIP3    H1 1734   6.236   2.951   1.585
  576TIP3    H2 1735   6.268   3.074   1.666
  577TIP3   OH2 1736   4.637   2.373   4.754
  577TIP3    H1 1737   4.641   2.468   4.760
  577TIP3    H2 1738   4.721   2.344   4.792
  578TIP3   OH2 1739   5.137   2.333   3.638
  578TIP3    H1 1740   5.214   2.364   3.592
  578TIP3    H2 1741   5.099   2.266   3.581
  579TIP3   OH2 1742   4.908   3.172   3.220
  579TIP3    H1 1743   4.946   3.085   3.223
  579TIP3    H2 1744   4.965   3.225   3.276
  580TIP3   OH2 1745   2.029   1.783   1.031
  580TIP3    H1 1746   1.940   1.746   1.032
  580TIP3    H2 1747   2.070   1.743   0.955
  581TIP3   OH2 1748   2.966  -0.045   3.444
  581TIP3    H1 1749   3.027   0.009   3.494
  581TIP3    H2 1750   2.999  -0.042   3.354
  582TIP3   OH2 1751   3.574   5.963   3.521
  582TIP3    H1 1752   3.626   5.888   3.550
  582TIP3    H2 1753   3.524   5.989   3.598
  583TIP3   OH2 1754   0.875   2.385   0.332
  583TIP3    H1 1755   0.907   2.327   0.263
  583TIP3    H2 1756   0.953   2.405   0.384
  584TIP3   OH2 1757   5.249   3.614   2.438
  584TIP3    H1 1758   5.299   3.690   2.468
  584TIP3    H2 1759   5.209   3.580   2.518
  585TIP3   OH2 1760   2.011   2.919   3.101
  585TIP3    H1 1761   2.013   2.835   3.148
  585TIP3    H2 1762   1.962   2.900   3.021
  586TIP3   OH2 1763   6.323   4.427   3.156
  586TIP3    H1 1764   6.244   4.437   3.210
  586TIP3    H2 1765   6.388   4.389   3.215
  587TIP3   OH2 1766   0.524   5.832   1.258
  587TIP3    H1 1767   0.529   5.848   1.353
  587TIP3    H2 1768   0.555   5.914   1.219
  588TIP3   OH2 1769   5.717   5.284   3.103
  588TIP3    H1 1770   5.737   5.254   3.014
  588TIP3    H2 1771   5.641   5.340   3.093
  589TIP3   OH2 1772   4.880   0.438   5.115
  589TIP3    H1 1773   4.848   0.349   5.102
  589TIP3    H2 1774   4.926   0.434   5.200
  590TIP3   OH2 1775   3.786   4.836   4.689
  590TIP3    H1 1776   3.743   4.903   4.742
  590TIP3    H2 1777   3.722   4.764   4.685
  591TIP3   OH2 1778   3.948   5.235   3.068
  591TIP3    H1 1779   3.909   5.241   2.980
  591TIP3    H2 1780   4.020   5.299   3.066
  592TIP3   OH2 1781   5.365   2.521   4.235
  592TIP3    H1 1782   5.379   2.607   4.273
  592TIP3    H2 1783   5.389   2.460   4.305
  593TIP3   OH2 1784   0.160   1.648   4.959
  593TIP3    H1 1785   0.073   1.616   4.982
  593TIP3    H2 1786   0.173   1.618   4.869
  594TIP3   OH2 1787   2.796   3.249   3.869
  594TIP3    H1 1788   2.859   3.291   3.926
  594TIP3    H2 1789   2.714   3.249   3.919
  595TIP3   OH2 1790   4.021   1.971   2.146
  595TIP3    H1 1791   3.961   2.041   2.119
  595TIP3    H2 1792   4.001   1.957   2.238
  596TIP3   OH2 1793   2.152   4.638   3.072
  596TIP3    H1 1794   2.116   4.722   3.042
  596TIP3    H2 1795   2.218   4.663   3.137
  597TIP3   OH2 1796   3.760   5.610   1.559
  597TIP3    H1 1797   3.823   5.679   1.581
  597TIP3    H2 1798   3.697   5.654   1.502
  598TIP3   OH2 1799   5.723   5.952   4.773
  598TIP3    H1 1800   5.637   5.966   4.732
  598TIP3    H2 1801   5.733   5.857   4.776
  599TIP3   OH2 1802   0.182   4.760   5.089
  599TIP3    H1 1803   0.226   4.825   5.034
  599TIP3    H2 1804   0.112   4.809   5.133
  600TIP3   OH2 1805   0.066   0.920   0.224
  600TIP3    H1 1806   0.115   0.854   0.174
  600TIP3    H2 1807   0.044   0.988   0.161
  601TIP3   OH2 1808   5.716   5.510  -0.011
  601TIP3    H1 1809   5.634   5.527   0.034
  601TIP3    H2 1810   5.760   5.595  -0.014
  602TIP3   OH2 1811   6.306   5.023   2.947
  602TIP3    H1 1812   6.213   5.040   2.964
  602TIP3    H2 1813   6.307   4.942   2.898
  603TIP3   OH2 1814   4.639   1.655   1.190
  603TIP3    H1 1815   4.701   1.666   1.119
  603TIP3    H2 1816   4.685   1.686   1.268
  604TIP3   OH2 1817   1.490   2.144   0.608
  604TIP3    H1 1818   1.460   2.067   0.560
  604TIP3    H2 1819   1.586   2.143   0.598
  605TIP3   OH2 1820   0.579   0.182   1.868
  605TIP3    H1 1821   0.524   0.200   1.792
  605TIP3    H2 1822   0.653   0.132   1.833
  606TIP3   OH2 1823   0.170   0.264   4.961
  606TIP3    H1 1824   0.155   0.342   4.907
  606TIP3    H2 1825   0.115   0.197   4.922
  607TIP3   OH2 1826   3.254   0.948   4.746
  607TIP3    H1 1827   3.330   0.992   4.783
  607TIP3    H2 1828   3.287   0.898   4.672
  608TIP3   OH2 1829   3.749   3.725   1.305
  608TIP3    H1 1830   3.842   3.721   1.282
  608TIP3    H2 1831   3.725   3.816   1.293
  609TIP3   OH2 1832   4.182   2.753   4.799
  609TIP3    H1 1833   4.106   2.811   4.811
  609TIP3    H2 1834   4.221   2.746   4.886
  610TIP3   OH2 1835   4.229   4.241   2.987
  610TIP3    H1 1836   4.278   4.159   2.986
  610TIP3    H2 1837   4.240   4.275   3.076
  611TIP3   OH2 1838   5.507   5.460   3.099
  611TIP3    H1 1839   5.526   5.520   3.170
  611TIP3    H2 1840   5.446   5.508   3.042
  612TIP3   OH2 1841   0.435   3.271   5.072
  612TIP3    H1 1842   0.531   3.272   5.080
  612TIP3    H2 1843   0.407   3.207   5.138
  613TIP3   OH2 1844   5.424   3.595   3.198
  613TIP3    H1 1845   5.510   3.590   3.157
  613TIP3    H2 1846   5.434   3.549   3.281
  614TIP3   OH2 1847   0.115   4.233   3.713
  614TIP3    H1 1848   0.118   4.138   3.698
  614TIP3    H2 1849   0.205   4.257   3.735
  615TIP3   OH2 1850   4.667   4.963   4.858
  615TIP3    H1 1851   4.729   4.915   4.804
  615TIP3    H2 1852   4.669   4.918   4.943
  616TIP3   OH2 1853   2.398   5.255   4.899
  616TIP3    H1 1854   2.381   5.161   4.893
  616TIP3    H2 1855   2.473   5.270   4.842
  617TIP3   OH2 1856   6.355   4.792   2.762
  617TIP3    H1 1857   6.292   4.782   2.690
  617TIP3    H2 1858   6.362   4.705   2.799
  618TIP3   OH2 1859   1.148   1.449   4.759
  618TIP3    H1 1860   1.140   1.476   4.667
  618TIP3    H2 1861   1.069   1.483   4.801
  619TIP3   OH2 1862   2.323   4.702   2.480
  619TIP3    H1 1863   2.401   4.666   2.522
  619TIP3    H2 1864   2.252   4.685   2.542
  620TIP3   OH2 1865   5.251   5.549   4.022
  620TIP3    H1 1866   5.294   5.594   3.949
  620TIP3    H2 1867   5.285   5.590   4.101
  621TIP3   OH2 1868   4.375   0.479   1.524
  621TIP3    H1 1869   4.411   0.517   1.444
  621TIP3    H2 1870   4.375   0.551   1.587
  622TIP3   OH2 1871   4.122   4.166   1.686
  622TIP3    H1 1872   4.202   4.193   1.731
  622TIP3    H2 1873   4.148   4.156   1.595
  623TIP3   OH2 1874   0.253   1.224   2.695
  623TIP3    H1 1875   0.180   1.192   2.644
  623TIP3    H2 1876   0.331   1.187   2.653
  624TIP3   OH2 1877   2.687   5.380   1.029
  624TIP3    H1 1878   2.625   5.324   1.076
  624TIP3    H2 1879   2.669   5.468   1.060
  625TIP3   OH2 1880   2.218   4.677   1.341
  625TIP3    H1 1881   2.159   4.602   1.333
  625TIP3    H2 1882   2.182   4.727   1.414
  626TIP3   OH2 1883   3.841   3.275   4.662
  626TIP3    H1 1884   3.751   3.244   4.654
  626TIP3    H2 1885   3.837   3.366   4.633
  627TIP3   OH2 1886   5.642   0.753   2.850
  627TIP3    H1 1887   5.724   0.768   2.802
  627TIP3    H2 1888   5.669   0.713   2.932
  628TIP3   OH2 1889   3.046   2.978   4.782
  628TIP3    H1 1890   3.017   3.030   4.707
  628TIP3    H2 1891   3.115   2.921   4.747
  629TIP3   OH2 1892   1.679   0.561   3.352
  629TIP3    H1 1893   1.655   0.479   3.395
  629TIP3    H2 1894   1.625   0.627   3.396
  630TIP3   OH2 1895   2.820   3.360   0.344
  630TIP3    H1 1896   2.808   3.454   0.358
  630TIP3    H2 1897   2.734   3.322   0.361
  631TIP3   OH2 1898   1.961   2.533   4.537
  631TIP3    H1 1899   2.020   2.506   4.607
  631TIP3    H2 1900   1.892   2.583   4.580
  632TIP3   OH2 1901   2.265   3.390   4.116
  632TIP3    H1 1902   2.202   3.324   4.146
  632TIP3    H2 1903   2.248   3.397   4.022
  633TIP3   OH2 1904   4.132   0.872   0.791
  633TIP3    H1 1905   4.085   0.802   0.746
  633TIP3    H2 1906   4.155   0.934   0.723
  634TIP3   OH2 1907   4.677   3.236   0.392
  634TIP3    H1 1908   4.760   3.227   0.346
  634TIP3    H2 1909   4.610   3.232   0.323
  635TIP3   OH2 1910   4.047   1.434   0.678
  635TIP3    H1 1911   4.045   1.352   0.629
  635TIP3    H2 1912   4.068   1.408   0.767
  636TIP3   OH2 1913   5.807   2.370   5.144
  636TIP3    H1 1914   5.891   2.324   5.150
  636TIP3    H2 1915   5.815   2.422   5.064
  637TIP3   OH2 1916   0.643   2.526   4.809
  637TIP3    H1 1917   0.608   2.511   4.721
  637TIP3    H2 1918   0.584   2.590   4.848
  638TIP3   OH2 1919   0.412   0.359   2.848
  638TIP3    H1 1920   0.376   0.444   2.822
  638TIP3    H2 1921   0.472   0.336   2.777
  639TIP3   OH2 1922   4.640  -0.051   1.570
  639TIP3    H1 1923   4.710   0.004   1.605
  639TIP3    H2 1924   4.595   0.005   1.506
  640TIP3   OH2 1925   5.600   5.973   0.701
  640TIP3    H1 1926   5.515   5.929   0.693
  640TIP3    H2 1927   5.602   6.034   0.627
  641TIP3   OH2 1928   5.217   4.961   4.151
  641TIP3    H1 1929   5.150   4.894   4.133
  641TIP3    H2 1930   5.240   4.995   4.065
  642TIP3   OH2 1931   4.799   0.166   0.914
  642TIP3    H1 1932   4.793   0.086   0.862
  642TIP3    H2 1933   4.760   0.233   0.858
  643TIP3   OH2 1934   1.227   3.247   0.905
  643TIP3    H1 1935   1.253   3.239   0.813
  643TIP3    H2 1936   1.261   3.331   0.933
  644TIP3   OH2 1937   1.251   2.955   4.154
  644TIP3    H1 1938   1.173   2.901   4.142
  644TIP3    H2 1939   1.319   2.893   4.182
  645TIP3   OH2 1940   1.896   0.385   1.600
  645TIP3    H1 1941   1.809   0.344   1.605
  645TIP3    H2 1942   1.916   0.409   1.691
  646TIP3   OH2 1943   0.091   1.846   2.008
  646TIP3    H1 1944   0.143   1.768   1.991
  646TIP3    H2 1945   0.097   1.859   2.103
  647TIP3   OH2 1946   1.838   5.282   1.450
  647TIP3    H1 1947   1.852   5.234   1.368
  647TIP3    H2 1948   1.864   5.372   1.429
  648TIP3   OH2 1949   4.306   2.266   3.758
  648TIP3    H1 1950   4.314   2.289   3.666
  648TIP3    H2 1951   4.262   2.181   3.758
  649TIP3   OH2 1952   2.074   0.601   2.217
  649TIP3    H1 1953   2.137   0.663   2.252
  649TIP3    H2 1954   2.058   0.540   2.289
  650TIP3   OH2 1955   6.070   5.460   2.454
  650TIP3    H1 1956   6.026   5.519   2.393
  650TIP3    H2 1957   6.045   5.493   2.541
  651TIP3   OH2 1958   3.236   2.117   4.906
  651TIP3    H1 1959   3.273   2.074   4.828
  651TIP3    H2 1960   3.304   2.178   4.933
  652TIP3   OH2 1961   2.932   5.309   4.646
  652TIP3    H1 1962   2.954   5.294   4.738
  652TIP3    H2 1963   2.856   5.367   4.648
  653TIP3   OH2 1964   4.293   5.329   0.343
  653TIP3    H1 1965   4.360   5.292   0.400
  653TIP3    H2 1966   4.332   5.410   0.309
  654TIP3   OH2 1967   4.811   2.369   5.135
  654TIP3    H1 1968   4.860   2.351   5.054
  654TIP3    H2 1969   4.721   2.383   5.107
  655TIP3   OH2 1970   4.113   2.114   0.408
  655TIP3    H1 1971   4.104   2.021   0.388
  655TIP3    H2 1972   4.172   2.117   0.483
  656TIP3   OH2 1973   2.725   2.346   3.651
  656TIP3    H1 1974   2.768   2.330   3.735
  656TIP3    H2 1975   2.771   2.288   3.590
  657TIP3   OH2 1976   0.230   3.447   3.820
  657TIP3    H1 1977   0.227   3.351   3.822
  657TIP3    H2 1978   0.143   3.473   3.791
  658TIP3   OH2 1979   0.408   4.897   4.739
  658TIP3    H1 1980   0.498   4.890   4.706
  658TIP3    H2 1981   0.382   4.807   4.758
  659TIP3   OH2 1982   0.694   2.167   4.035
  659TIP3    H1 1983   0.765   2.118   3.994
  659TIP3    H2 1984   0.721   2.178   4.126
  660TIP3   OH2 1985   1.858   0.026   5.031
  660TIP3    H1 1986   1.828  -0.056   5.071
  660TIP3    H2 1987   1.797   0.092   5.064
  661TIP3   OH2 1988   2.129   2.415   2.951
  661TIP3    H1 1989   2.135   2.507   2.926
  661TIP3    H2 1990   2.075   2.376   2.882
  662TIP3   OH2 1991   2.651   1.826   3.190
  662TIP3    H1 1992   2.708   1.873   3.130
  662TIP3    H2 1993   2.582   1.790   3.135
  663TIP3   OH2 1994   0.503   1.018   3.838
  663TIP3    H1 1995   0.576   1.019   3.901
  663TIP3    H2 1996   0.426   0.996   3.891
  664TIP3   OH2 1997   3.293   5.260   3.018
  664TIP3    H1 1998   3.277   5.351   2.996
  664TIP3    H2 1999   3.298   5.258   3.114
  665TIP3   OH2 2000   5.331   1.984   3.014
  665TIP3    H1 2001   5.331   1.947   3.102
  665TIP3    H2 2002   5.251   1.951   2.974
  666TIP3   OH2 2003   1.169   4.287   2.513
  666TIP3    H1 2004   1.238   4.227   2.544
  666TIP3    H2 2005   1.180   4.365   2.567
  667TIP3   OH2 2006   1.200   2.571   1.658
  667TIP3    H1 2007   1.143   2.620   1.718
  667TIP3    H2 2008   1.208   2.485   1.698
  668TIP3   OH2 2009   3.633   1.682   1.401
  668TIP3    H1 2010   3.617   1.753   1.464
  668TIP3    H2 2011   3.640   1.725   1.317
  669TIP3   OH2 2012   1.443   5.062   2.771
  669TIP3    H1 2013   1.385   5.004   2.722
  669TIP3    H2 2014   1.489   5.004   2.832
  670TIP3   OH2 2015   0.282   0.606   4.373
  670TIP3    H1 2016   0.277   0.515   4.400
  670TIP3    H2 2017   0.276   0.603   4.277
  671TIP3   OH2 2018   1.380   2.104   2.414
  671TIP3    H1 2019   1.311   2.150   2.366
  671TIP3    H2 2020   1.338   2.076   2.495
  672TIP3   OH2 2021   0.195   5.204   3.475
  672TIP3    H1 2022   0.253   5.129   3.491
  672TIP3    H2 2023   0.204   5.222   3.382
  673TIP3   OH2 2024   3.708   0.687   2.082
  673TIP3    H1 2025   3.776   0.677   2.015
  673TIP3    H2 2026   3.744   0.752   2.143
  674TIP3   OH2 2027   1.314   2.909   2.097
  674TIP3    H1 2028   1.360   2.833   2.060
  674TIP3    H2 2029   1.321   2.976   2.029
  675TIP3   OH2 2030   5.681   1.472   2.932
  675TIP3    H1 2031   5.733   1.464   3.012
  675TIP3    H2 2032   5.634   1.389   2.925
  676TIP3   OH2 2033   1.810   2.505   3.323
  676TIP3    H1 2034   1.852   2.589   3.340
  676TIP3    H2 2035   1.838   2.481   3.235
  677TIP3   OH2 2036   0.229   0.110   1.301
  677TIP3    H1 2037   0.207   0.188   1.353
  677TIP3    H2 2038   0.314   0.082   1.336
  678TIP3   OH2 2039   4.300   3.275   5.146
  678TIP3    H1 2040   4.206   3.263   5.132
  678TIP3    H2 2041   4.319   3.362   5.112
  679TIP3   OH2 2042   4.459   0.803   0.779
  679TIP3    H1 2043   4.526   0.871   0.794
  679TIP3    H2 2044   4.404   0.806   0.856
  680TIP3   OH2 2045   4.787   1.733   1.400
  680TIP3    H1 2046   4.746   1.663   1.451
  680TIP3    H2 2047   4.781   1.810   1.457
  681TIP3   OH2 2048   2.450   2.849   2.905
  681TIP3    H1 2049   2.404   2.893   2.976
  681TIP3    H2 2050   2.511   2.914   2.871
  682TIP3   OH2 2051   1.225   3.640   4.138
  682TIP3    H1 2052   1.176   3.596   4.208
  682TIP3    H2 2053   1.171   3.628   4.060
  683TIP3   OH2 2054   1.231   2.761   3.146
  683TIP3    H1 2055   1.289   2.687   3.165
  683TIP3    H2 2056   1.143   2.722   3.146
  684TIP3   OH2 2057   2.103   3.580   2.069
  684TIP3    H1 2058   2.119   3.572   1.975
  684TIP3    H2 2059   2.057   3.663   2.079
  685TIP3   OH2 2060   1.283   5.562   2.763
  685TIP3    H1 2061   1.235   5.633   2.722
  685TIP3    H2 2062   1.267   5.573   2.857
  686TIP3   OH2 2063   3.889   5.910   3.025
  686TIP3    H1 2064   3.942   5.968   3.079
  686TIP3    H2 2065   3.804   5.907   3.068
  687TIP3   OH2 2066   2.664   3.864   1.195
  687TIP3    H1 2067   2.677   3.958   1.188
  687TIP3    H2 2068   2.602   3.843   1.124
  688TIP3   OH2 2069   4.306   4.663   3.599
  688TIP3    H1 2070   4.305   4.722   3.524
  688TIP3    H2 2071   4.241   4.596   3.578
  689TIP3   OH2 2072   1.177   5.324   2.302
  689TIP3    H1 2073   1.218   5.407   2.277
  689TIP3    H2 2074   1.190   5.318   2.396
  690TIP3   OH2 2075   3.759   4.333   1.039
  690TIP3    H1 2076   3.682   4.389   1.029
  690TIP3    H2 2077   3.724   4.244   1.046
  691TIP3   OH2 2078   3.404   2.294   4.630
  691TIP3    H1 2079   3.412   2.241   4.709
  691TIP3    H2 2080   3.387   2.382   4.662
  692TIP3   OH2 2081   1.721   4.401   2.254
  692TIP3    H1 2082   1.734   4.490   2.288
  692TIP3    H2 2083   1.652   4.365   2.309
  693TIP3   OH2 2084   5.745   4.166   3.333
  693TIP3    H1 2085   5.662   4.212   3.342
  693TIP3    H2 2086   5.723   4.085   3.287
  694TIP3   OH2 2087   0.180   1.631   3.891
  694TIP3    H1 2088   0.146   1.563   3.833
  694TIP3    H2 2089   0.270   1.646   3.861
  695TIP3   OH2 2090   5.537   5.660   0.905
  695TIP3    H1 2091   5.503   5.740   0.944
  695TIP3    H2 2092   5.607   5.688   0.847
  696TIP3   OH2 2093   5.417   3.701   0.881
  696TIP3    H1 2094   5.512   3.705   0.886
  696TIP3    H2 2095   5.395   3.617   0.923
  697TIP3   OH2 2096   1.780   4.188   3.547
  697TIP3    H1 2097   1.858   4.234   3.516
  697TIP3    H2 2098   1.745   4.245   3.616
  698TIP3   OH2 2099   3.548   0.827   3.805
  698TIP3    H1 2100   3.511   0.799   3.889
  698TIP3    H2 2101   3.594   0.908   3.825
  699TIP3   OH2 2102   4.082   3.219   4.126
  699TIP3    H1 2103   4.132   3.253   4.200
  699TIP3    H2 2104   4.122   3.134   4.107
  700TIP3   OH2 2105   5.622   5.439   0.588
  700TIP3    H1 2106   5.631   5.521   0.637
  700TIP3    H2 2107   5.606   5.468   0.498
  701TIP3   OH2 2108   1.543   3.770   2.281
  701TIP3    H1 2109   1.484   3.721   2.224
  701TIP3    H2 2110   1.500   3.770   2.366
  702TIP3   OH2 2111   2.456   5.525   3.310
  702TIP3    H1 2112   2.509   5.522   3.390
  702TIP3    H2 2113   2.369   5.499   3.338
  703TIP3   OH2 2114   2.455   4.809   3.992
  703TIP3    H1 2115   2.550   4.806   3.992
  703TIP3    H2 2116   2.429   4.734   4.046
  704TIP3   OH2 2117   0.746   3.597   4.112
  704TIP3    H1 2118   0.838   3.619   4.096
  704TIP3    H2 2119   0.700   3.679   4.100
  705TIP3   OH2 2120   2.696   3.512   3.013
  705TIP3    H1 2121   2.699   3.417   3.026
  705TIP3    H2 2122   2.680   3.548   3.100
  706TIP3   OH2 2123   0.731   3.691   3.563
  706TIP3    H1 2124   0.744   3.782   3.535
  706TIP3    H2 2125   0.720   3.696   3.658
  707TIP3   OH2 2126   4.302   5.429   1.085
  707TIP3    H1 2127   4.382   5.479   1.066
  707TIP3    H2 2128   4.334   5.343   1.112
  708TIP3   OH2 2129   5.818   2.923   1.094
  708TIP3    H1 2130   5.887   2.971   1.140
  708TIP3    H2 2131   5.861   2.887   1.017
  709TIP3   OH2 2132   1.589   0.585   4.642
  709TIP3    H1 2133   1.567   0.615   4.730
  709TIP3    H2 2134   1.536   0.640   4.584
  710TIP3   OH2 2135   0.920   1.864   0.576
  710TIP3    H1 2136   0.839   1.892   0.533
  710TIP3    H2 2137   0.986   1.925   0.544
  711TIP3   OH2 2138   4.122   4.391   3.246
  711TIP3    H1 2139   4.111   4.483   3.220
  711TIP3    H2 2140   4.033   4.358   3.253
  712TIP3   OH2 2141   0.586   5.896   4.819
  712TIP3    H1 2142   0.554   5.982   4.791
  712TIP3    H2 2143   0.680   5.909   4.835
  713TIP3   OH2 2144   1.045   5.011   4.236
  713TIP3    H1 2145   1.011   4.983   4.321
  713TIP3    H2 2146   1.084   4.933   4.198
  714TIP3   OH2 2147   3.873   4.245   2.715
  714TIP3    H1 2148   3.902   4.231   2.625
  714TIP3    H2 2149   3.779   4.228   2.713
  715TIP3   OH2 2150   1.054   4.631   1.414
  715TIP3    H1 2151   1.026   4.711   1.460
  715TIP3    H2 2152   1.003   4.561   1.456
  716TIP3   OH2 2153   2.167   0.717   4.024
  716TIP3    H1 2154   2.105   0.785   4.050
  716TIP3    H2 2155   2.132   0.684   3.941
  717TIP3   OH2 2156   3.649   4.761   0.010
  717TIP3    H1 2157   3.712   4.814  -0.037
  717TIP3    H2 2158   3.701   4.692   0.051
  718TIP3   OH2 2159   1.073   0.549   0.376
  718TIP3    H1 2160   1.134   0.606   0.423
  718TIP3    H2 2161   1.107   0.461   0.390
  719TIP3   OH2 2162   6.313   4.758   1.673
  719TIP3    H1 2163   6.332   4.848   1.701
  719TIP3    H2 2164   6.307   4.709   1.755
  720TIP3   OH2 2165   4.554   3.676   3.207
  720TIP3    H1 2166   4.564   3.585   3.181
  720TIP3    H2 2167   4.587   3.678   3.297
  721TIP3   OH2 2168   1.311   3.008   1.458
  721TIP3    H1 2169   1.370   2.934   1.471
  721TIP3    H2 2170   1.368   3.081   1.435
  722TIP3   OH2 2171   0.586   4.797   0.872
  722TIP3    H1 2172   0.506   4.747   0.852
  722TIP3    H2 2173   0.648   4.770   0.805
  723TIP3   OH2 2174   2.414  -0.032   2.856
  723TIP3    H1 2175   2.476   0.039   2.839
  723TIP3    H2 2176   2.328   0.005   2.834
  724TIP3   OH2 2177   4.075   0.093   1.445
  724TIP3    H1 2178   4.167   0.066   1.451
  724TIP3    H2 2179   4.059   0.144   1.524
  725TIP3   OH2 2180   4.688   1.060   0.319
  725TIP3    H1 2181   4.600   1.023   0.311
  725TIP3    H2 2182   4.740   1.012   0.255
  726TIP3   OH2 2183   2.468   5.224   1.119
  726TIP3    H1 2184   2.427   5.156   1.065
  726TIP3    H2 2185   2.478   5.184   1.205
  727TIP3   OH2 2186   3.909   3.898   1.675
  727TIP3    H1 2187   3.972   3.956   1.633
  727TIP3    H2 2188   3.948   3.875   1.759
  728TIP3   OH2 2189   4.477   1.460   0.419
  728TIP3    H1 2190   4.542   1.460   0.349
  728TIP3    H2 2191   4.419   1.387   0.398
  729TIP3   OH2 2192   0.347   1.707   1.946
  729TIP3    H1 2193   0.396   1.790   1.944
  729TIP3    H2 2194   0.375   1.665   2.027
  730TIP3   OH2 2195   5.946   5.257   1.366
  730TIP3    H1 2196   5.954   5.270   1.272
  730TIP3    H2 2197   6.032   5.282   1.401
  731TIP3   OH2 2198   2.059   4.472   4.037
  731TIP3    H1 2199   2.067   4.379   4.060
  731TIP3    H2 2200   2.131   4.515   4.083
  732TIP3   OH2 2201   1.886   0.514   2.967
  732TIP3    H1 2202   1.905   0.509   2.873
  732TIP3    H2 2203   1.894   0.424   2.997
  733TIP3   OH2 2204   1.733   4.616   1.859
  733TIP3    H1 2205   1.761   4.525   1.868
  733TIP3    H2 2206   1.657   4.624   1.917
  734TIP3   OH2 2207   0.568   1.327   3.458
  734TIP3    H1 2208   0.636   1.278   3.504
  734TIP3    H2 2209   0.496   1.265   3.448
  735TIP3   OH2 2210   5.092   3.178   2.574
  735TIP3    H1 2211   5.162   3.188   2.509
  735TIP3    H2 2212   5.041   3.103   2.542
  736TIP3   OH2 2213   0.059   3.536   1.418
  736TIP3    H1 2214   0.026   3.601   1.356
  736TIP3    H2 2215   0.010   3.456   1.399
  737TIP3   OH2 2216   2.918   5.721   4.871
  737TIP3    H1 2217   2.866   5.796   4.841
  737TIP3    H2 2218   2.929   5.737   4.965
  738TIP3   OH2 2219   3.792   2.112   1.270
  738TIP3    H1 2220   3.847   2.077   1.200
  738TIP3    H2 2221   3.841   2.092   1.350
  739TIP3   OH2 2222   3.573   0.582   4.331
  739TIP3    H1 2223   3.653   0.627   4.357
  739TIP3    H2 2224   3.512   0.652   4.308
  740TIP3   OH2 2225   4.321   5.360   3.091
  740TIP3    H1 2226   4.254   5.396   3.033
  740TIP3    H2 2227   4.401   5.406   3.067
  741TIP3   OH2 2228   1.519   4.664   2.080
  741TIP3    H1 2229   1.580   4.638   2.149
  741TIP3    H2 2230   1.436   4.679   2.127
  742TIP3   OH2 2231   2.017   5.751   4.649
  742TIP3    H1 2232   2.111   5.749   4.665
  742TIP3    H2 2233   1.977   5.742   4.735
  743TIP3   OH2 2234   6.362   2.114   3.684
  743TIP3    H1 2235   6.337   2.128   3.775
  743TIP3    H2 2236   6.456   2.100   3.686
  744TIP3   OH2 2237   4.054   4.029   0.173
  744TIP3    H1 2238   3.985   3.987   0.122
  744TIP3    H2 2239   4.114   4.065   0.108
  745TIP3   OH2 2240   6.109   5.977   1.039
  745TIP3    H1 2241   6.168   5.933   0.977
  745TIP3    H2 2242   6.097   5.914   1.110
  746TIP3   OH2 2243   4.587   0.844   3.662
  746TIP3    H1 2244   4.660   0.810   3.715
  746TIP3    H2 2245   4.536   0.898   3.723
  747TIP3   OH2 2246   1.017   0.404   1.672
  747TIP3    H1 2247   1.068   0.335   1.713
  747TIP3    H2 2248   1.043   0.402   1.580
  748TIP3   OH2 2249   4.150   5.112   0.220
  748TIP3    H1 2250   4.237   5.072   0.213
  748TIP3    H2 2251   4.167   5.200   0.256
  749TIP3   OH2 2252   2.817   4.494   3.309
  749TIP3    H1 2253   2.799   4.507   3.402
  749TIP3    H2 2254   2.778   4.570   3.266
  750TIP3   OH2 2255   5.096   0.337   1.005
  750TIP3    H1 2256   5.010   0.354   1.044
  750TIP3    H2 2257   5.096   0.243   0.987
  751TIP3   OH2 2258   5.713   3.919   3.248
  751TIP3    H1 2259   5.777   3.923   3.177
  751TIP3    H2 2260   5.751   3.857   3.311
  752TIP3   OH2 2261   1.926   2.333   4.782
  752TIP3    H1 2262   1.925   2.243   4.815
  752TIP3    H2 2263   1.986   2.380   4.840
  753TIP3   OH2 2264   2.064   2.313   3.314
  753TIP3    H1 2265   2.137   2.340   3.258
  753TIP3    H2 2266   2.013   2.253   3.259
  754TIP3   OH2 2267   1.064   0.377   1.408
  754TIP3    H1 2268   1.156   0.360   1.388
  754TIP3    H2 2269   1.043   0.455   1.356
  755TIP3   OH2 2270   3.378   2.617   3.002
  755TIP3    H1 2271   3.438   2.648   2.934
  755TIP3    H2 2272   3.351   2.697   3.048
  756TIP3   OH2 2273   1.760   1.230   2.028
  756TIP3    H1 2274   1.681   1.277   2.055
  756TIP3    H2 2275   1.773   1.255   1.937
  757TIP3   OH2 2276   6.332  -0.036   5.048
  757TIP3    H1 2277   6.292   0.010   4.974
  757TIP3    H2 2278   6.329   0.028   5.120
  758TIP3   OH2 2279   3.095   5.016   1.970
  758TIP3    H1 2280   3.017   5.026   1.915
  758TIP3    H2 2281   3.169   5.025   1.909
  759TIP3   OH2 2282   3.390   4.802   4.826
  759TIP3    H1 2283   3.381   4.857   4.904
  759TIP3    H2 2284   3.372   4.860   4.753
  760TIP3   OH2 2285   2.755   1.048   2.582
  760TIP3    H1 2286   2.850   1.059   2.575
  760TIP3    H2 2287   2.742   0.953   2.583
  761TIP3   OH2 2288   0.473   2.021   1.657
  761TIP3    H1 2289   0.452   1.997   1.747
  761TIP3    H2 2290   0.392   2.006   1.609
  762TIP3   OH2 2291   2.792   2.621   0.985
  762TIP3    H1 2292   2.710   2.601   1.031
  762TIP3    H2 2293   2.800   2.552   0.920
  763TIP3   OH2 2294   0.156   5.713   2.308
  763TIP3    H1 2295   0.158   5.624   2.342
  763TIP3    H2 2296   0.246   5.744   2.319
  764TIP3   OH2 2297   0.253   4.033   3.280
  764TIP3    H1 2298   0.209   3.962   3.327
  764TIP3    H2 2299   0.338   3.997   3.256
  765TIP3   OH2 2300   2.472   1.043   4.872
  765TIP3    H1 2301   2.408   1.064   4.804
  765TIP3    H2 2302   2.553   1.085   4.842
  766TIP3   OH2 2303   1.541   1.261   3.206
  766TIP3    H1 2304   1.525   1.345   3.162
  766TIP3    H2 2305   1.497   1.197   3.151
  767TIP3   OH2 2306   5.709   2.741   2.796
  767TIP3    H1 2307   5.773   2.762   2.864
  767TIP3    H2 2308   5.630   2.718   2.844
  768TIP3   OH2 2309   3.404   4.628   0.561
  768TIP3    H1 2310   3.440   4.540   0.552
  768TIP3    H2 2311   3.314   4.621   0.530
  769TIP3   OH2 2312   4.944   4.703   2.228
  769TIP3    H1 2313   4.973   4.719   2.138
  769TIP3    H2 2314   5.024   4.709   2.280
  770TIP3   OH2 2315   2.224   0.923   5.150
  770TIP3    H1 2316   2.283   0.936   5.224
  770TIP3    H2 2317   2.277   0.876   5.085
  771TIP3   OH2 2318   3.481  -0.022   4.678
  771TIP3    H1 2319   3.543  -0.022   4.605
  771TIP3    H2 2320   3.417   0.045   4.655
  772TIP3   OH2 2321   4.076   4.067   3.824
  772TIP3    H1 2322   4.128   4.064   3.744
  772TIP3    H2 2323   4.054   4.159   3.836
  773TIP3   OH2 2324   0.172   3.202   3.625
  773TIP3    H1 2325   0.244   3.141   3.609
  773TIP3    H2 2326   0.198   3.281   3.578
  774TIP3   OH2 2327   2.053   4.538   4.365
  774TIP3    H1 2328   2.062   4.445   4.385
  774TIP3    H2 2329   2.138   4.576   4.389
  775TIP3   OH2 2330   2.200   0.864   2.641
  775TIP3    H1 2331   2.111   0.831   2.627
  775TIP3    H2 2332   2.202   0.947   2.592
  776TIP3   OH2 2333   2.506   4.982   1.626
  776TIP3    H1 2334   2.498   4.891   1.655
  776TIP3    H2 2335   2.434   5.027   1.669
  777TIP3   OH2 2336   1.176   5.063   2.229
  777TIP3    H1 2337   1.087   5.038   2.252
  777TIP3    H2 2338   1.178   5.158   2.242
  778TIP3   OH2 2339   1.094   0.122   0.007
  778TIP3    H1 2340   1.006   0.119  -0.031
  778TIP3    H2 2341   1.097   0.204   0.055
  779TIP3   OH2 2342   5.376   5.776   4.886
  779TIP3    H1 2343   5.438   5.753   4.955
  779TIP3    H2 2344   5.332   5.855   4.919
  780TIP3   OH2 2345   1.855   0.242   2.558
  780TIP3    H1 2346   1.894   0.155   2.567
  780TIP3    H2 2347   1.761   0.227   2.562
  781TIP3   OH2 2348   1.565   5.798   1.023
  781TIP3    H1 2349   1.645   5.764   1.064
  781TIP3    H2 2350   1.495   5.745   1.061
  782TIP3   OH2 2351   2.644   1.745   4.133
  782TIP3    H1 2352   2.687   1.721   4.051
  782TIP3    H2 2353   2.553   1.717   4.121
  783TIP3   OH2 2354   0.543   4.189   2.524
  783TIP3    H1 2355   0.629   4.161   2.554
  783TIP3    H2 2356   0.487   4.184   2.602
  784TIP3   OH2 2357   5.128   2.643   0.521
  784TIP3    H1 2358   5.047   2.599   0.549
  784TIP3    H2 2359   5.101   2.697   0.447
  785TIP3   OH2 2360   0.078   4.376   2.217
  785TIP3    H1 2361   0.157   4.398   2.267
  785TIP3    H2 2362   0.059   4.285   2.239
  786TIP3   OH2 2363   1.994   1.372   2.046
  786TIP3    H1 2364   1.919   1.315   2.058
  786TIP3    H2 2365   1.999   1.423   2.127
  787TIP3   OH2 2366   0.501   2.765   0.665
  787TIP3    H1 2367   0.557   2.757   0.742
  787TIP3    H2 2368   0.562   2.772   0.591
  788TIP3   OH2 2369   1.007   2.353   1.310
  788TIP3    H1 2370   0.934   2.409   1.285
  788TIP3    H2 2371   1.026   2.302   1.232
  789TIP3   OH2 2372   2.405   2.506   3.366
  789TIP3    H1 2373   2.380   2.550   3.447
  789TIP3    H2 2374   2.468   2.439   3.393
  790TIP3   OH2 2375   1.345   4.837   3.655
  790TIP3    H1 2376   1.270   4.896   3.659
  790TIP3    H2 2377   1.383   4.841   3.743
  791TIP3   OH2 2378   3.749   5.760   3.598
  791TIP3    H1 2379   3.842   5.771   3.620
  791TIP3    H2 2380   3.710   5.724   3.678
  792TIP3   OH2 2381   5.644   2.470   2.968
  792TIP3    H1 2382   5.708   2.416   3.014
  792TIP3    H2 2383   5.576   2.489   3.033
  793TIP3   OH2 2384   6.146   2.197   3.533
  793TIP3    H1 2385   6.223   2.183   3.588
  793TIP3    H2 2386   6.091   2.257   3.583
  794TIP3   OH2 2387   2.575   0.209   2.987
  794TIP3    H1 2388   2.653   0.158   3.010
  794TIP3    H2 2389   2.504   0.169   3.038
  795TIP3   OH2 2390   4.572   5.340   4.366
  795TIP3    H1 2391   4.537   5.373   4.449
  795TIP3    H2 2392   4.547   5.407   4.302
  796TIP3   OH2 2393   4.744   3.560   4.186
  796TIP3    H1 2394   4.685   3.518   4.123
  796TIP3    H2 2395   4.686   3.604   4.248
  797TIP3   OH2 2396   1.516   4.553   4.398
  797TIP3    H1 2397   1.546   4.476   4.446
  797TIP3    H2 2398   1.596   4.593   4.364
  798TIP3   OH2 2399   1.858   1.318   0.919
  798TIP3    H1 2400   1.772   1.354   0.898
  798TIP3    H2 2401   1.865   1.239   0.865
  799TIP3   OH2 2402   3.098   2.881   1.771
  799TIP3    H1 2403   3.135   2.969   1.776
  799TIP3    H2 2404   3.171   2.827   1.740
  800TIP3   OH2 2405   1.602   0.588   4.904
  800TIP3    H1 2406   1.684   0.552   4.937
  800TIP3    H2 2407   1.582   0.661   4.962
  801TIP3   OH2 2408   4.399   5.832   2.421
  801TIP3    H1 2409   4.485   5.815   2.459
  801TIP3    H2 2410   4.416   5.901   2.356
  802TIP3   OH2 2411   6.294   2.761   1.100
  802TIP3    H1 2412   6.386   2.745   1.122
  802TIP3    H2 2413   6.294   2.775   1.005
  803TIP3   OH2 2414   3.064   4.900   3.883
  803TIP3    H1 2415   3.079   4.805   3.880
  803TIP3    H2 2416   3.109   4.928   3.963
  804TIP3   OH2 2417   2.057   0.999   4.287
  804TIP3    H1 2418   2.141   1.045   4.281
  804TIP3    H2 2419   2.055   0.964   4.376
  805TIP3   OH2 2420   5.883   5.996   0.897
  805TIP3    H1 2421   5.854   5.910   0.925
  805TIP3    H2 2422   5.961   6.015   0.950
  806TIP3   OH2 2423   4.818   3.481   2.001
  806TIP3    H1 2424   4.866   3.465   1.920
  806TIP3    H2 2425   4.736   3.522   1.973
  807TIP3   OH2 2426  -0.044   2.463   2.479
  807TIP3    H1 2427  -0.015   2.543   2.435
  807TIP3    H2 2428   0.030   2.439   2.535
  808TIP3   OH2 2429   5.324   0.963   1.523
  808TIP3    H1 2430   5.313   0.948   1.430
  808TIP3    H2 2431   5.409   1.005   1.531
  809TIP3   OH2 2432   0.350   0.624   2.808
  809TIP3    H1 2433   0.303   0.670   2.739
  809TIP3    H2 2434   0.408   0.690   2.845
  810TIP3   OH2 2435   1.924   5.641   1.974
  810TIP3    H1 2436   1.860   5.590   2.023
  810TIP3    H2 2437   1.875   5.678   1.901
  811TIP3   OH2 2438   4.893   4.880   0.626
  811TIP3    H1 2439   4.872   4.940   0.554
  811TIP3    H2 2440   4.845   4.800   0.605
  812TIP3   OH2 2441   1.356   3.386   4.264
  812TIP3    H1 2442   1.372   3.372   4.171
  812TIP3    H2 2443   1.399   3.469   4.284
  813TIP3   OH2 2444   3.375   1.115   2.813
  813TIP3    H1 2445   3.427   1.178   2.764
  813TIP3    H2 2446   3.437   1.073   2.873
  814TIP3   OH2 2447   2.082   4.277   4.385
  814TIP3    H1 2448   2.133   4.244   4.459
  814TIP3    H2 2449   1.997   4.233   4.392
  815TIP3   OH2 2450   2.775   3.899   4.804
  815TIP3    H1 2451   2.710   3.938   4.863
  815TIP3    H2 2452   2.859   3.929   4.839
  816TIP3   OH2 2453   5.978   2.913   3.061
  816TIP3    H1 2454   5.903   2.972   3.059
  816TIP3    H2 2455   5.941   2.829   3.087
  817TIP3   OH2 2456   3.642   2.436   2.189
  817TIP3    H1 2457   3.693   2.487   2.124
  817TIP3    H2 2458   3.693   2.443   2.269
  818TIP3   OH2 2459   2.680   1.230   3.554
  818TIP3    H1 2460   2.657   1.323   3.556
  818TIP3    H2 2461   2.721   1.218   3.468
  819TIP3   OH2 2462   2.546   1.966   3.401
  819TIP3    H1 2463   2.597   1.915   3.338
  819TIP3    H2 2464   2.479   2.010   3.347
  820TIP3   OH2 2465   0.582   2.982   3.931
  820TIP3    H1 2466   0.517   2.978   3.860
  820TIP3    H2 2467   0.530   2.995   4.010
  821TIP3   OH2 2468   4.439   5.249   2.787
  821TIP3    H1 2469   4.483   5.334   2.788
  821TIP3    H2 2470   4.502   5.188   2.826
  822TIP3   OH2 2471   1.146   0.240   0.774
  822TIP3    H1 2472   1.154   0.232   0.869
  822TIP3    H2 2473   1.084   0.172   0.749
  823TIP3   OH2 2474   0.429   0.673   3.795
  823TIP3    H1 2475   0.446   0.591   3.842
  823TIP3    H2 2476   0.505   0.728   3.813
  824TIP3   OH2 2477   5.650   1.748   2.969
  824TIP3    H1 2478   5.654   1.732   3.063
  824TIP3    H2 2479   5.624   1.664   2.932
  825TIP3   OH2 2480   0.623   0.864   0.711
  825TIP3    H1 2481   0.590   0.790   0.761
  825TIP3    H2 2482   0.624   0.937   0.773
  826TIP3   OH2 2483   3.174   1.046   0.145
  826TIP3    H1 2484   3.243   0.982   0.163
  826TIP3    H2 2485   3.213   1.108   0.084
  827TIP3   OH2 2486   1.095   0.070   4.153
  827TIP3    H1 2487   1.037   0.034   4.086
  827TIP3    H2 2488   1.101   0.163   4.131
  828TIP3   OH2 2489   3.494   3.618   1.887
  828TIP3    H1 2490   3.542   3.632   1.968
  828TIP3    H2 2491   3.456   3.703   1.866
  829TIP3   OH2 2492   1.971   3.091   0.428
  829TIP3    H1 2493   1.959   3.052   0.515
  829TIP3    H2 2494   1.883   3.092   0.391
  830TIP3   OH2 2495   5.642   3.794   4.911
  830TIP3    H1 2496   5.636   3.733   4.984
  830TIP3    H2 2497   5.594   3.752   4.840
  831TIP3   OH2 2498   5.984   0.034  -0.018
  831TIP3    H1 2499   5.921   0.001   0.046
  831TIP3    H2 2500   6.058  -0.027  -0.014
  832TIP3   OH2 2501   6.152   4.222   4.645
  832TIP3    H1 2502   6.139   4.191   4.555
  832TIP3    H2 2503   6.202   4.303   4.635
  833TIP3   OH2 2504   0.220   1.910   5.015
  833TIP3    H1 2505   0.202   1.821   4.985
  833TIP3    H2 2506   0.270   1.898   5.096
  834TIP3   OH2 2507   3.345   0.726   0.395
  834TIP3    H1 2508   3.287   0.797   0.423
  834TIP3    H2 2509   3.362   0.677   0.476
  835TIP3   OH2 2510   6.188   1.211   2.741
  835TIP3    H1 2511   6.165   1.292   2.695
  835TIP3    H2 2512   6.110   1.156   2.733
  836TIP3   OH2 2513   1.216   1.296   2.252
  836TIP3    H1 2514   1.228   1.280   2.346
  836TIP3    H2 2515   1.206   1.391   2.245
  837TIP3   OH2 2516   4.834   1.985   2.716
  837TIP3    H1 2517   4.801   1.910   2.668
  837TIP3    H2 2518   4.882   2.036   2.652
  838TIP3   OH2 2519   0.155   0.511   3.834
  838TIP3    H1 2520   0.244   0.543   3.817
  838TIP3    H2 2521   0.101   0.590   3.837
  839TIP3   OH2 2522   3.500   2.182   4.853
  839TIP3    H1 2523   3.556   2.225   4.917
  839TIP3    H2 2524   3.534   2.093   4.846
  840TIP3   OH2 2525   2.479   5.773   3.197
  840TIP3    H1 2526   2.478   5.709   3.268
  840TIP3    H2 2527   2.388   5.776   3.166
  841TIP3   OH2 2528   5.111   1.001   0.131
  841TIP3    H1 2529   5.167   1.020   0.055
  841TIP3    H2 2530   5.172   0.977   0.201
  842TIP3   OH2 2531   5.896   1.418   0.800
  842TIP3    H1 2532   5.905   1.403   0.706
  842TIP3    H2 2533   5.952   1.352   0.841
  843TIP3   OH2 2534   4.070   1.807   3.360
  843TIP3    H1 2535   4.022   1.890   3.361
  843TIP3    H2 2536   4.010   1.744   3.401
  844TIP3   OH2 2537   4.075   5.353   1.237
  844TIP3    H1 2538   4.136   5.382   1.169
  844TIP3    H2 2539   4.021   5.430   1.254
  845TIP3   OH2 2540   2.754   4.907   3.812
  845TIP3    H1 2541   2.835   4.909   3.863
  845TIP3    H2 2542   2.709   4.827   3.841
  846TIP3   OH2 2543   5.482   1.787   4.532
  846TIP3    H1 2544   5.454   1.860   4.478
  846TIP3    H2 2545   5.538   1.826   4.599
  847TIP3   OH2 2546   5.582   0.954   3.138
  847TIP3    H1 2547   5.526   1.031   3.151
  847TIP3    H2 2548   5.626   0.971   3.054
  848TIP3   OH2 2549   1.272   3.585   1.437
  848TIP3    H1 2550   1.186   3.555   1.409
  848TIP3    H2 2551   1.293   3.532   1.514
  849TIP3   OH2 2552   4.731   2.874   4.139
  849TIP3    H1 2553   4.685   2.796   4.108
  849TIP3    H2 2554   4.723   2.871   4.234
  850TIP3   OH2 2555   1.394   2.875   1.199
  850TIP3    H1 2556   1.465   2.853   1.259
  850TIP3    H2 2557   1.351   2.791   1.181
  851TIP3   OH2 2558   5.913   2.056   0.289
  851TIP3    H1 2559   5.910   2.109   0.209
  851TIP3    H2 2560   5.931   2.119   0.359
  852TIP3   OH2 2561   6.211   2.523   5.008
  852TIP3    H1 2562   6.254   2.463   5.069
  852TIP3    H2 2563   6.195   2.602   5.059
  853TIP3   OH2 2564   1.971   2.273   1.880
  853TIP3    H1 2565   1.923   2.307   1.956
  853TIP3    H2 2566   1.911   2.210   1.840
  854TIP3   OH2 2567  -0.023   4.297   0.348
  854TIP3    H1 2568   0.031   4.348   0.287
  854TIP3    H2 2569   0.007   4.325   0.435
  855TIP3   OH2 2570   4.029   1.106   2.052
  855TIP3    H1 2571   4.001   1.180   1.998
  855TIP3    H2 2572   4.118   1.128   2.079
  856TIP3   OH2 2573   4.403   0.847   2.185
  856TIP3    H1 2574   4.364   0.881   2.105
  856TIP3    H2 2575   4.353   0.768   2.205
  857TIP3   OH2 2576   1.557   4.631   2.629
  857TIP3    H1 2577   1.478   4.683   2.645
  857TIP3    H2 2578   1.547   4.555   2.686
  858TIP3   OH2 2579   1.149   4.737   4.681
  858TIP3    H1 2580   1.181   4.707   4.596
  858TIP3    H2 2581   1.220   4.716   4.742
  859TIP3   OH2 2582   0.806   0.537   0.839
  859TIP3    H1 2583   0.800   0.633   0.844
  859TIP3    H2 2584   0.892   0.521   0.801
  860TIP3   OH2 2585   1.489   3.163   4.383
  860TIP3    H1 2586   1.469   3.070   4.372
  860TIP3    H2 2587   1.421   3.209   4.334
  861TIP3   OH2 2588   6.301   3.245   1.608
  861TIP3    H1 2589   6.241   3.302   1.655
  861TIP3    H2 2590   6.388   3.280   1.626
  862TIP3   OH2 2591   5.478   2.878   1.087
  862TIP3    H1 2592   5.557   2.895   1.138
  862TIP3    H2 2593   5.507   2.883   0.996
  863TIP3   OH2 2594   3.369   4.261   4.538
  863TIP3    H1 2595   3.393   4.340   4.490
  863TIP3    H2 2596   3.328   4.205   4.472
  864TIP3   OH2 2597   5.297   3.992   1.225
  864TIP3    H1 2598   5.240   4.028   1.293
  864TIP3    H2 2599   5.273   4.040   1.146
  865TIP3   OH2 2600   0.045   1.087   3.638
  865TIP3    H1 2601   0.086   1.011   3.679
  865TIP3    H2 2602   0.009   1.137   3.711
  866TIP3   OH2 2603   5.848   3.606   3.648
  866TIP3    H1 2604   5.836   3.512   3.631
  866TIP3    H2 2605   5.941   3.616   3.664
  867TIP3   OH2 2606   4.243   4.172   2.095
  867TIP3    H1 2607   4.269   4.195   2.185
  867TIP3    H2 2608   4.265   4.079   2.087
  868TIP3   OH2 2609   2.097   4.192   4.125
  868TIP3    H1 2610   2.103   4.215   4.217
  868TIP3    H2 2611   2.063   4.102   4.124
  869TIP3   OH2 2612   6.062   0.760   3.854
  869TIP3    H1 2613   6.076   0.770   3.759
  869TIP3    H2 2614   5.967   0.757   3.863
  870TIP3   OH2 2615   1.379   4.878   4.833
  870TIP3    H1 2616   1.307   4.870   4.896
  870TIP3    H2 2617   1.427   4.796   4.842
  871TIP3   OH2 2618   1.033   1.295   1.055
  871TIP3    H1 2619   0.990   1.335   0.979
  871TIP3    H2 2620   1.123   1.325   1.050
  872TIP3   OH2 2621   0.843   4.602   2.795
  872TIP3    H1 2622   0.802   4.588   2.880
  872TIP3    H2 2623   0.855   4.697   2.789
  873TIP3   OH2 2624   1.854   4.859   3.825
  873TIP3    H1 2625   1.856   4.800   3.750
  873TIP3    H2 2626   1.945   4.867   3.853
  874TIP3   OH2 2627   4.303   5.608   3.373
  874TIP3    H1 2628   4.328   5.677   3.435
  874TIP3    H2 2629   4.371   5.542   3.382
  875TIP3   OH2 2630   3.347   1.041   2.266
  875TIP3    H1 2631   3.267   0.999   2.301
  875TIP3    H2 2632   3.334   1.041   2.172
  876TIP3   OH2 2633   4.960   0.829   4.716
  876TIP3    H1 2634   4.906   0.818   4.794
  876TIP3    H2 2635   4.941   0.918   4.686
  877TIP3   OH2 2636   3.579   2.842   0.865
  877TIP3    H1 2637   3.503   2.826   0.919
  877TIP3    H2 2638   3.651   2.854   0.927
  878TIP3   OH2 2639   2.347   5.167   2.685
  878TIP3    H1 2640   2.343   5.075   2.710
  878TIP3    H2 2641   2.437   5.181   2.657
  879TIP3   OH2 2642   0.619   3.108   1.966
  879TIP3    H1 2643   0.650   3.093   1.877
  879TIP3    H2 2644   0.695   3.143   2.012
  880TIP3   OH2 2645   1.982   1.779   4.325
  880TIP3    H1 2646   1.911   1.736   4.277
  880TIP3    H2 2647   1.942   1.857   4.362
  881TIP3   OH2 2648   0.170   3.668   4.869
  881TIP3    H1 2649   0.180   3.609   4.944
  881TIP3    H2 2650   0.082   3.649   4.836
  882TIP3   OH2 2651   3.227   1.469   3.595
  882TIP3    H1 2652   3.257   1.560   3.598
  882TIP3    H2 2653   3.303   1.420   3.564
  883TIP3   OH2 2654   5.065   5.146   0.141
  883TIP3    H1 2655   5.098   5.234   0.159
  883TIP3    H2 2656   5.108   5.120   0.060
  884TIP3   OH2 2657   3.651   2.774   4.171
  884TIP3    H1 2658   3.568   2.814   4.146
  884TIP3    H2 2659   3.715   2.846   4.163
  885TIP3   OH2 2660   2.282   2.441   4.224
  885TIP3    H1 2661   2.188   2.436   4.242
  885TIP3    H2 2662   2.293   2.526   4.182
  886TIP3   OH2 2663   2.682   0.190   0.815
  886TIP3    H1 2664   2.759   0.133   0.811
  886TIP3    H2 2665   2.709   0.263   0.872
  887TIP3   OH2 2666   3.301   1.441   1.462
  887TIP3    H1 2667   3.232   1.506   1.450
  887TIP3    H2 2668   3.371   1.468   1.403
  888TIP3   OH2 2669   4.286   3.062   3.381
  888TIP3    H1 2670   4.381   3.056   3.368
  888TIP3    H2 2671   4.273   3.146   3.425
  889TIP3   OH2 2672   1.268   4.348   4.523
  889TIP3    H1 2673   1.271   4.432   4.478
  889TIP3    H2 2674   1.256   4.371   4.616
  890TIP3   OH2 2675   1.893   1.036   2.798
  890TIP3    H1 2676   1.967   1.050   2.858
  890TIP3    H2 2677   1.884   0.941   2.793
  891TIP3   OH2 2678   2.023   2.532   4.279
  891TIP3    H1 2679   1.996   2.621   4.257
  891TIP3    H2 2680   2.005   2.523   4.372
  892TIP3   OH2 2681   1.719   1.082   4.237
  892TIP3    H1 2682   1.758   1.074   4.324
  892TIP3    H2 2683   1.742   1.000   4.193
  893TIP3   OH2 2684   5.424   3.722   2.202
  893TIP3    H1 2685   5.439   3.776   2.280
  893TIP3    H2 2686   5.330   3.726   2.187
  894TIP3   OH2 2687   4.476   2.081   1.699
  894TIP3    H1 2688   4.496   2.061   1.608
  894TIP3    H2 2689   4.381   2.072   1.705
  895TIP3   OH2 2690   5.059   4.506   1.572
  895TIP3    H1 2691   5.007   4.575   1.532
  895TIP3    H2 2692   5.033   4.426   1.525
  896TIP3   OH2 2693   6.202   4.553   0.848
  896TIP3    H1 2694   6.204   4.492   0.775
  896TIP3    H2 2695   6.118   4.597   0.841
  897TIP3   OH2 2696   6.245   4.691   4.145
  897TIP3    H1 2697   6.224   4.775   4.184
  897TIP3    H2 2698   6.297   4.712   4.067
  898TIP3   OH2 2699   2.429   2.662   4.119
  898TIP3    H1 2700   2.518   2.642   4.089
  898TIP3    H2 2701   2.442   2.711   4.200
  899TIP3   OH2 2702   1.076   5.913   3.695
  899TIP3    H1 2703   1.031   5.870   3.767
  899TIP3    H2 2704   1.080   6.005   3.720
  900TIP3   OH2 2705   2.022   4.370   0.459
  900TIP3    H1 2706   2.028   4.321   0.541
  900TIP3    H2 2707   2.076   4.448   0.473
  901TIP3   OH2 2708   1.400   0.050   2.752
  901TIP3    H1 2709   1.327   0.097   2.711
  901TIP3    H2 2710   1.471   0.057   2.688
  902TIP3   OH2 2711   2.016   5.658   3.217
  902TIP3    H1 2712   1.976   5.718   3.280
  902TIP3    H2 2713   1.957   5.661   3.141
  903TIP3   OH2 2714   5.682   2.933   0.435
  903TIP3    H1 2715   5.712   2.850   0.471
  903TIP3    H2 2716   5.595   2.946   0.472
  904TIP3   OH2 2717   2.753   0.525   0.542
  904TIP3    H1 2718   2.700   0.603   0.558
  904TIP3    H2 2719   2.805   0.547   0.465
  905TIP3   OH2 2720   1.144   3.092   3.887
  905TIP3    H1 2721   1.149   3.012   3.834
  905TIP3    H2 2722   1.067   3.079   3.942
  906TIP3   OH2 2723   1.655   1.855   2.447
  906TIP3    H1 2724   1.739   1.809   2.445
  906TIP3    H2 2725   1.648   1.888   2.536
  907TIP3   OH2 2726   4.341   0.203   4.804
  907TIP3    H1 2727   4.321   0.282   4.854
  907TIP3    H2 2728   4.312   0.131   4.859
  908TIP3   OH2 2729   5.440   0.655   4.186
  908TIP3    H1 2730   5.463   0.562   4.194
  908TIP3    H2 2731   5.391   0.675   4.266
  909TIP3   OH2 2732   1.815   2.617   3.630
  909TIP3    H1 2733   1.783   2.703   3.601
  909TIP3    H2 2734   1.887   2.597   3.572
  910TIP3   OH2 2735   3.808   1.252   3.641
  910TIP3    H1 2736   3.791   1.345   3.658
  910TIP3    H2 2737   3.734   1.207   3.682
  911TIP3   OH2 2738   2.653   3.742   3.947
  911TIP3    H1 2739   2.576   3.685   3.943
  911TIP3    H2 2740   2.687   3.731   4.035
  912TIP3   OH2 2741   5.568   5.200   1.360
  912TIP3    H1 2742   5.599   5.131   1.302
  912TIP3    H2 2743   5.624   5.192   1.438
  913TIP3   OH2 2744   3.216   0.718   5.072
  913TIP3    H1 2745   3.149   0.779   5.041
  913TIP3    H2 2746   3.210   0.723   5.168
  914TIP3   OH2 2747   1.770   1.681   3.570
  914TIP3    H1 2748   1.762   1.601   3.518
  914TIP3    H2 2749   1.857   1.677   3.608
  915TIP3   OH2 2750   3.728   0.727   2.808
  915TIP3    H1 2751   3.762   0.672   2.738
  915TIP3    H2 2752   3.775   0.699   2.886
  916TIP3   OH2 2753   4.964   0.842   1.190
  916TIP3    H1 2754   4.953   0.925   1.236
  916TIP3    H2 2755   5.045   0.853   1.140
  917TIP3   OH2 2756   4.505   3.438   1.863
  917TIP3    H1 2757   4.434   3.392   1.820
  917TIP3    H2 2758   4.478   3.446   1.954
  918TIP3   OH2 2759   0.929   4.211   0.818
  918TIP3    H1 2760   0.972   4.209   0.904
  918TIP3    H2 2761   0.873   4.134   0.817
  919TIP3   OH2 2762   4.944   5.881   4.646
  919TIP3    H1 2763   4.985   5.798   4.621
  919TIP3    H2 2764   5.009   5.947   4.624
  920TIP3   OH2 2765   4.296   4.609   4.417
  920TIP3    H1 2766   4.357   4.572   4.353
  920TIP3    H2 2767   4.242   4.534   4.444
  921TIP3   OH2 2768   3.074   5.642   3.209
  921TIP3    H1 2769   3.151   5.693   3.235
  921TIP3    H2 2770   3.051   5.593   3.288
  922TIP3   OH2 2771   4.529   0.732   4.480
  922TIP3    H1 2772   4.452   0.723   4.537
  922TIP3    H2 2773   4.503   0.687   4.399
  923TIP3   OH2 2774   5.471   3.113   3.592
  923TIP3    H1 2775   5.392   3.097   3.643
  923TIP3    H2 2776   5.451   3.190   3.539
  924TIP3   OH2 2777   3.735   3.343   4.042
  924TIP3    H1 2778   3.643   3.319   4.030
  924TIP3    H2 2779   3.750   3.333   4.136
  925TIP3   OH2 2780   1.897   3.412   2.131
  925TIP3    H1 2781   1.813   3.411   2.084
  925TIP3    H2 2782   1.959   3.448   2.067
  926TIP3   OH2 2783   1.587   1.418   0.492
  926TIP3    H1 2784   1.524   1.381   0.554
  926TIP3    H2 2785   1.665   1.435   0.544
  927TIP3   OH2 2786   4.249   0.970   3.598
  927TIP3    H1 2787   4.202   0.904   3.649
  927TIP3    H2 2788   4.181   1.033   3.572
  928TIP3   OH2 2789   6.135   3.995   3.656
  928TIP3    H1 2790   6.221   3.990   3.614
  928TIP3    H2 2791   6.140   4.074   3.711
  929TIP3   OH2 2792   6.295   0.167   0.987
  929TIP3    H1 2793   6.323   0.136   1.073
  929TIP3    H2 2794   6.200   0.175   0.994
  930TIP3   OH2 2795   0.020   1.707   2.641
  930TIP3    H1 2796   0.053   1.626   2.681
  930TIP3    H2 2797   0.086   1.730   2.576
  931TIP3   OH2 2798   0.596   6.015   3.371
  931TIP3    H1 2799   0.680   5.995   3.413
  931TIP3    H2 2800   0.535   6.024   3.445
  932TIP3   OH2 2801   2.795   4.667   5.005
  932TIP3    H1 2802   2.711   4.636   4.972
  932TIP3    H2 2803   2.781   4.760   5.020
  933TIP3   OH2 2804   2.402   2.066   4.467
  933TIP3    H1 2805   2.313   2.084   4.497
  933TIP3    H2 2806   2.403   2.094   4.376
  934TIP3   OH2 2807   2.593   2.852   3.591
  934TIP3    H1 2808   2.512   2.865   3.640
  934TIP3    H2 2809   2.638   2.937   3.595
  935TIP3   OH2 2810   2.864   0.426   4.097
  935TIP3    H1 2811   2.901   0.445   4.183
  935TIP3    H2 2812   2.817   0.343   4.109
  936TIP3   OH2 2813   5.713   1.431   4.206
  936TIP3    H1 2814   5.806   1.429   4.231
  936TIP3    H2 2815   5.670   1.474   4.279
  937TIP3   OH2 2816   1.640   0.410   1.419
  937TIP3    H1 2817   1.645   0.473   1.348
  937TIP3    H2 2818   1.686   0.333   1.386
  938TIP3   OH2 2819   3.459   4.333   0.269
  938TIP3    H1 2820   3.412   4.406   0.229
  938TIP3    H2 2821   3.453   4.262   0.205
  939TIP3   OH2 2822   1.515   2.535   2.226
  939TIP3    H1 2823   1.535   2.618   2.183
  939TIP3    H2 2824   1.561   2.469   2.175
  940TIP3   OH2 2825   0.929   1.767   2.141
  940TIP3    H1 2826   0.868   1.716   2.193
  940TIP3    H2 2827   0.980   1.817   2.205
  941TIP3   OH2 2828   5.944   0.115   0.770
  941TIP3    H1 2829   5.866   0.123   0.824
  941TIP3    H2 2830   5.925   0.168   0.692
  942TIP3   OH2 2831   4.839   0.618   3.966
  942TIP3    H1 2832   4.806   0.559   3.899
  942TIP3    H2 2833   4.760   0.650   4.010
  943TIP3   OH2 2834   4.215   2.223   2.434
  943TIP3    H1 2835   4.242   2.131   2.439
  943TIP3    H2 2836   4.264   2.258   2.359
  944TIP3   OH2 2837   1.872   2.371   0.368
  944TIP3    H1 2838   1.940   2.363   0.435
  944TIP3    H2 2839   1.909   2.328   0.291
  945TIP3   OH2 2840   3.959   1.188   0.578
  945TIP3    H1 2841   3.903   1.140   0.517
  945TIP3    H2 2842   3.909   1.191   0.659
  946TIP3   OH2 2843   2.327   5.611   0.663
  946TIP3    H1 2844   2.272   5.653   0.729
  946TIP3    H2 2845   2.416   5.640   0.684
  947TIP3   OH2 2846   3.384   2.018   3.298
  947TIP3    H1 2847   3.397   1.991   3.207
  947TIP3    H2 2848   3.464   1.989   3.343
  948TIP3   OH2 2849   5.296   1.510   3.199
  948TIP3    H1 2850   5.291   1.422   3.234
  948TIP3    H2 2851   5.294   1.567   3.276
  949TIP3   OH2 2852   1.812   0.233   0.525
  949TIP3    H1 2853   1.763   0.313   0.543
  949TIP3    H2 2854   1.771   0.167   0.581
  950TIP3   OH2 2855   6.073   4.897   0.680
  950TIP3    H1 2856   6.002   4.847   0.720
  950TIP3    H2 2857   6.146   4.887   0.741
  951TIP3   OH2 2858   5.380   3.979   0.863
  951TIP3    H1 2859   5.428   3.989   0.782
  951TIP3    H2 2860   5.379   3.884   0.879
  952TIP3   OH2 2861   5.339   3.979   4.719
  952TIP3    H1 2862   5.383   3.899   4.748
  952TIP3    H2 2863   5.328   4.030   4.800
  953TIP3   OH2 2864   5.863   4.354   0.500
  953TIP3    H1 2865   5.808   4.283   0.534
  953TIP3    H2 2866   5.825   4.374   0.415
  954TIP3   OH2 2867   1.751   2.816   2.369
  954TIP3    H1 2868   1.833   2.800   2.321
  954TIP3    H2 2869   1.762   2.903   2.407
  955TIP3   OH2 2870   0.145   0.938   1.961
  955TIP3    H1 2871   0.189   0.866   2.007
  955TIP3    H2 2872   0.078   0.969   2.022
  956TIP3   OH2 2873   4.408   0.941   0.446
  956TIP3    H1 2874   4.329   0.914   0.492
  956TIP3    H2 2875   4.460   0.987   0.512
  957TIP3   OH2 2876   1.020   5.738   4.429
  957TIP3    H1 2877   1.072   5.817   4.446
  957TIP3    H2 2878   0.969   5.725   4.508
  958TIP3   OH2 2879   4.340   4.911   5.073
  958TIP3    H1 2880   4.346   4.857   4.994
  958TIP3    H2 2881   4.299   4.992   5.043
  959TIP3   OH2 2882   0.690   6.009   3.003
  959TIP3    H1 2883   0.693   5.943   3.073
  959TIP3    H2 2884   0.738   5.969   2.930
  960TIP3   OH2 2885   0.517   0.817   2.913
  960TIP3    H1 2886   0.506   0.757   2.987
  960TIP3    H2 2887   0.607   0.848   2.921
  961TIP3   OH2 2888   6.070   1.209   0.892
  961TIP3    H1 2889   6.161   1.235   0.877
  961TIP3    H2 2890   6.068   1.178   0.982
  962TIP3   OH2 2891   2.565   0.580   1.042
  962TIP3    H1 2892   2.528   0.504   0.997
  962TIP3    H2 2893   2.507   0.652   1.019
  963TIP3   OH2 2894   3.399   1.222   4.166
  963TIP3    H1 2895   3.323   1.223   4.226
  963TIP3    H2 2896   3.362   1.195   4.082
  964TIP3   OH2 2897   0.167   4.776   1.480
  964TIP3    H1 2898   0.089   4.747   1.528
  964TIP3    H2 2899   0.191   4.859   1.523
  965TIP3   OH2 2900   1.259   0.983   2.606
  965TIP3    H1 2901   1.205   0.935   2.669
  965TIP3    H2 2902   1.235   0.946   2.521
  966TIP3   OH2 2903   5.201   4.878   1.754
  966TIP3    H1 2904   5.221   4.791   1.788
  966TIP3    H2 2905   5.278   4.901   1.701
  967TIP3   OH2 2906   4.587   4.890   1.711
  967TIP3    H1 2907   4.615   4.835   1.638
  967TIP3    H2 2908   4.622   4.977   1.691
  968TIP3   OH2 2909   2.826   1.376   2.952
  968TIP3    H1 2910   2.915   1.354   2.980
  968TIP3    H2 2911   2.799   1.302   2.898
  969TIP3   OH2 2912   0.439   4.330   0.482
  969TIP3    H1 2913   0.521   4.373   0.457
  969TIP3    H2 2914   0.461   4.237   0.483
  970TIP3   OH2 2915   0.327   4.375   4.661
  970TIP3    H1 2916   0.255   4.343   4.606
  970TIP3    H2 2917   0.309   4.338   4.748
  971TIP3   OH2 2918   1.318   0.023   3.211
  971TIP3    H1 2919   1.295  -0.069   3.201
  971TIP3    H2 2920   1.354   0.029   3.300
  972TIP3   OH2 2921   1.422   5.098   2.099
  972TIP3    H1 2922   1.336   5.094   2.140
  972TIP3    H2 2923   1.415   5.040   2.023
  973TIP3   OH2 2924   6.287   3.284   2.711
  973TIP3    H1 2925   6.236   3.291   2.630
  973TIP3    H2 2926   6.376   3.306   2.685
  974TIP3   OH2 2927   0.168   0.858   1.677
  974TIP3    H1 2928   0.252   0.815   1.692
  974TIP3    H2 2929   0.140   0.887   1.764
  975TIP3   OH2 2930   0.326   4.374   4.069
  975TIP3    H1 2931   0.294   4.377   4.159
  975TIP3    H2 2932   0.265   4.429   4.020
  976TIP3   OH2 2933   2.606   2.207   3.244
  976TIP3    H1 2934   2.635   2.253   3.166
  976TIP3    H2 2935   2.525   2.163   3.218
  977TIP3   OH2 2936   6.301   5.057   2.266
  977TIP3    H1 2937   6.309   5.152   2.267
  977TIP3    H2 2938   6.215   5.040   2.228
  978TIP3   OH2 2939   1.566   3.674   4.649
  978TIP3    H1 2940   1.514   3.649   4.725
  978TIP3    H2 2941   1.502   3.693   4.580
  979TIP3   OH2 2942   0.889   2.452   4.886
  979TIP3    H1 2943   0.865   2.366   4.919
  979TIP3    H2 2944   0.806   2.494   4.864
  980TIP3   OH2 2945   1.396   1.904   1.246
  980TIP3    H1 2946   1.420   1.827   1.194
  980TIP3    H2 2947   1.373   1.868   1.332
  981TIP3   OH2 2948   2.854   1.869   1.846
  981TIP3    H1 2949   2.896   1.947   1.881
  981TIP3    H2 2950   2.865   1.875   1.751
  982TIP3   OH2 2951   1.403   4.595   0.309
  982TIP3    H1 2952   1.354   4.538   0.370
  982TIP3    H2 2953   1.367   4.573   0.223
  983TIP3   OH2 2954   5.645   4.696   1.295
  983TIP3    H1 2955   5.626   4.697   1.202
  983TIP3    H2 2956   5.618   4.609   1.325
  984TIP3   OH2 2957   5.589   0.579   4.843
  984TIP3    H1 2958   5.494   0.589   4.848
  984TIP3    H2 2959   5.620   0.605   4.930
  985TIP3   OH2 2960   2.546   5.761   3.679
  985TIP3    H1 2961   2.533   5.848   3.640
  985TIP3    H2 2962   2.458   5.723   3.680
  986TIP3   OH2 2963   0.589   3.996   1.803
  986TIP3    H1 2964   0.581   3.903   1.825
  986TIP3    H2 2965   0.657   3.999   1.736
  987TIP3   OH2 2966   4.064   0.705   1.167
  987TIP3    H1 2967   4.035   0.677   1.253
  987TIP3    H2 2968   3.999   0.670   1.107
  988TIP3   OH2 2969   2.219   2.843   0.125
  988TIP3    H1 2970   2.218   2.908   0.055
  988TIP3    H2 2971   2.311   2.837   0.151
  989TIP3   OH2 2972   0.131   5.829   0.627
  989TIP3    H1 2973   0.183   5.774   0.569
  989TIP3    H2 2974   0.187   5.845   0.703
  990TIP3   OH2 2975   4.599   2.796   2.552
  990TIP3    H1 2976   4.509   2.774   2.529
  990TIP3    H2 2977   4.633   2.717   2.595
  991TIP3   OH2 2978   3.981   4.608   1.760
  991TIP3    H1 2979   4.024   4.555   1.693
  991TIP3    H2 2980   3.984   4.698   1.726
  992TIP3   OH2 2981   2.201   5.621   1.990
  992TIP3    H1 2982   2.227   5.573   1.912
  992TIP3    H2 2983   2.105   5.615   1.992
  993TIP3   OH2 2984   4.780   4.488   1.270
  993TIP3    H1 2985   4.778   4.412   1.212
  993TIP3    H2 2986   4.871   4.493   1.299
  994TIP3   OH2 2987   0.115   0.818   4.443
  994TIP3    H1 2988   0.078   0.856   4.363
  994TIP3    H2 2989   0.154   0.736   4.415
  995TIP3   OH2 2990   1.689   0.885   2.436
  995TIP3    H1 2991   1.677   0.970   2.478
  995TIP3    H2 2992   1.732   0.831   2.502
  996TIP3   OH2 2993   6.305   0.612   4.584
  996TIP3    H1 2994   6.344   0.659   4.510
  996TIP3    H2 2995   6.211   0.615   4.568
  997TIP3   OH2 2996   5.178   4.774   2.366
  997TIP3    H1 2997   5.273   4.761   2.366
  997TIP3    H2 2998   5.166   4.863   2.334
  998TIP3   OH2 2999   0.135   3.775   3.877
  998TIP3    H1 3000   0.062   3.717   3.897
  998TIP3    H2 3001   0.207   3.717   3.854
  999TIP3   OH2 3002   1.470   3.648   4.215
  999TIP3    H1 3003   1.450   3.728   4.264
  999TIP3    H2 3004   1.398   3.638   4.153
 1000TIP3   OH2 3005   5.429   1.804   2.743
 1000TIP3    H1 3006   5.361   1.764   2.797
 1000TIP3    H2 3007   5.503   1.816   2.802
 1001TIP3   OH2 3008   6.106   0.265   0.338
 1001TIP3    H1 3009   6.096   0.334   0.403
 1001TIP3    H2 3010   6.034   0.278   0.277
 1002TIP3   OH2 3011   5.143   5.889   4.413
 1002TIP3    H1 3012   5.199   5.951   4.367
 1002TIP3    H2 3013   5.203   5.834   4.463
 1003TIP3   OH2 3014   0.110   3.711   1.929
 1003TIP3    H1 3015   0.138   3.755   1.849
 1003TIP3    H2 3016   0.015   3.703   1.920
 1004TIP3   OH2 3017   2.391   5.422   1.332
 1004TIP3    H1 3018   2.348   5.489   1.279
 1004TIP3    H2 3019   2.323   5.357   1.348
 1005TIP3   OH2 3020   2.368   4.090   1.908
 1005TIP3    H1 3021   2.290   4.099   1.962
 1005TIP3    H2 3022   2.374   3.997   1.889
 1006TIP3   OH2 3023   5.437   5.542   2.802
 1006TIP3    H1 3024   5.481   5.620   2.837
 1006TIP3    H2 3025   5.344   5.565   2.802
 1007TIP3   OH2 3026   2.622   2.746   2.530
 1007TIP3    H1 3027   2.586   2.667   2.570
 1007TIP3    H2 3028   2.592   2.742   2.439
 1008TIP3   OH2 3029   2.553   4.984   1.978
 1008TIP3    H1 3030   2.579   4.897   2.008
 1008TIP3    H2 3031   2.459   4.988   1.995
 1009TIP3   OH2 3032   1.777   1.395   3.219
 1009TIP3    H1 3033   1.729   1.464   3.173
 1009TIP3    H2 3034   1.720   1.318   3.213
 1010TIP3   OH2 3035   4.704   3.692   0.757
 1010TIP3    H1 3036   4.743   3.660   0.676
 1010TIP3    H2 3037   4.710   3.619   0.818
 1011TIP3   OH2 3038   0.857   3.698   2.720
 1011TIP3    H1 3039   0.832   3.643   2.645
 1011TIP3    H2 3040   0.941   3.663   2.748
 1012TIP3   OH2 3041   5.256   5.696   3.379
 1012TIP3    H1 3042   5.317   5.746   3.433
 1012TIP3    H2 3043   5.186   5.671   3.439
 1013TIP3   OH2 3044   2.034   1.700   3.669
 1013TIP3    H1 3045   2.083   1.766   3.620
 1013TIP3    H2 3046   2.004   1.746   3.747
 1014TIP3   OH2 3047   4.260   3.006   4.452
 1014TIP3    H1 3048   4.325   2.955   4.501
 1014TIP3    H2 3049   4.176   2.968   4.478
 1015TIP3   OH2 3050   6.261   0.679   3.421
 1015TIP3    H1 3051   6.264   0.598   3.472
 1015TIP3    H2 3052   6.252   0.649   3.330
 1016TIP3   OH2 3053   1.542   3.281   3.750
 1016TIP3    H1 3054   1.580   3.365   3.776
 1016TIP3    H2 3055   1.490   3.301   3.672
 1017TIP3   OH2 3056   5.172   0.159   2.810
 1017TIP3    H1 3057   5.093   0.118   2.774
 1017TIP3    H2 3058   5.139   0.228   2.868
 1018TIP3   OH2 3059   4.386   5.328   3.421
 1018TIP3    H1 3060   4.400   5.235   3.442
 1018TIP3    H2 3061   4.470   5.356   3.384
 1019TIP3   OH2 3062   1.797   2.331   5.126
 1019TIP3    H1 3063   1.827   2.347   5.216
 1019TIP3    H2 3064   1.723   2.271   5.135
 1020TIP3   OH2 3065   2.262   4.086   3.745
 1020TIP3    H1 3066   2.283   4.030   3.820
 1020TIP3    H2 3067   2.346   4.103   3.703
 1021TIP3   OH2 3068   5.755   2.569   2.104
 1021TIP3    H1 3069   5.839   2.528   2.084
 1021TIP3    H2 3070   5.776   2.634   2.172
 1022TIP3   OH2 3071   4.903   4.126   4.276
 1022TIP3    H1 3072   4.873   4.084   4.195
 1022TIP3    H2 3073   4.940   4.054   4.327
 1023TIP3   OH2 3074   1.817   0.665   2.223
 1023TIP3    H1 3075   1.913   0.658   2.218
 1023TIP3    H2 3076   1.801   0.751   2.261
 1024TIP3   OH2 3077   5.815   0.951   0.563
 1024TIP3    H1 3078   5.805   0.857   0.545
 1024TIP3    H2 3079   5.897   0.975   0.520
 1025TIP3   OH2 3080   5.653   4.696   4.149
 1025TIP3    H1 3081   5.732   4.747   4.133
 1025TIP3    H2 3082   5.611   4.688   4.063
 1026TIP3   OH2 3083   5.018   5.519   1.374
 1026TIP3    H1 3084   5.032   5.520   1.469
 1026TIP3    H2 3085   4.930   5.556   1.362
 1027TIP3   OH2 3086   5.744   0.428   4.091
 1027TIP3    H1 3087   5.665   0.374   4.099
 1027TIP3    H2 3088   5.814   0.373   4.126
 1028TIP3   OH2 3089   2.713   2.787   4.269
 1028TIP3    H1 3090   2.756   2.872   4.279
 1028TIP3    H2 3091   2.629   2.798   4.313
 1029TIP3   OH2 3092   2.318   5.312   2.006
 1029TIP3    H1 3093   2.304   5.355   1.921
 1029TIP3    H2 3094   2.406   5.339   2.032
 1030TIP3   OH2 3095   4.907   2.363   4.889
 1030TIP3    H1 3096   4.919   2.383   4.796
 1030TIP3    H2 3097   4.966   2.423   4.935
 1031TIP3   OH2 3098   1.445   3.864   4.398
 1031TIP3    H1 3099   1.364   3.832   4.437
 1031TIP3    H2 3100   1.452   3.954   4.429
 1032TIP3   OH2 3101   3.288   5.787   0.287
 1032TIP3    H1 3102   3.316   5.706   0.328
 1032TIP3    H2 3103   3.302   5.773   0.193
 1033TIP3   OH2 3104   6.389   1.641   2.970
 1033TIP3    H1 3105   6.332   1.636   3.047
 1033TIP3    H2 3106   6.345   1.704   2.912
 1034TIP3   OH2 3107   1.828   0.079   4.210
 1034TIP3    H1 3108   1.746   0.112   4.174
 1034TIP3    H2 3109   1.804   0.040   4.294
 1035TIP3   OH2 3110   1.380   1.550   4.912
 1035TIP3    H1 3111   1.449   1.573   4.849
 1035TIP3    H2 3112   1.310   1.514   4.858
 1036TIP3   OH2 3113   4.042   0.851   2.427
 1036TIP3    H1 3114   3.980   0.876   2.495
 1036TIP3    H2 3115   4.094   0.930   2.411
 1037TIP3   OH2 3116   2.752   0.259   3.583
 1037TIP3    H1 3117   2.689   0.196   3.618
 1037TIP3    H2 3118   2.836   0.233   3.621
 1038TIP3   OH2 3119   1.003   4.859   1.552
 1038TIP3    H1 3120   0.997   4.822   1.640
 1038TIP3    H2 3121   1.093   4.892   1.546
 1039TIP3   OH2 3122   3.737   2.976   4.385
 1039TIP3    H1 3123   3.749   2.889   4.422
 1039TIP3    H2 3124   3.644   2.995   4.398
 1040TIP3   OH2 3125   4.159   5.804   2.856
 1040TIP3    H1 3126   4.190   5.754   2.781
 1040TIP3    H2 3127   4.102   5.744   2.904
 1041TIP3   OH2 3128   1.212   0.187   3.935
 1041TIP3    H1 3129   1.189   0.239   3.858
 1041TIP3    H2 3130   1.201   0.096   3.906
 1042TIP3   OH2 3131   6.269   2.964   2.561
 1042TIP3    H1 3132   6.205   2.960   2.633
 1042TIP3    H2 3133   6.226   3.017   2.494
 1043TIP3   OH2 3134   1.519   5.077   1.501
 1043TIP3    H1 3135   1.528   5.169   1.529
 1043TIP3    H2 3136   1.505   5.082   1.407
 1044TIP3   OH2 3137   0.098   5.748   2.800
 1044TIP3    H1 3138   0.120   5.797   2.721
 1044TIP3    H2 3139   0.012   5.710   2.782
 1045TIP3   OH2 3140   0.469   0.024   4.667
 1045TIP3    H1 3141   0.537  -0.031   4.629
 1045TIP3    H2 3142   0.516   0.099   4.704
 1046TIP3   OH2 3143   0.155   4.295   3.350
 1046TIP3    H1 3144   0.224   4.230   3.335
 1046TIP3    H2 3145   0.192   4.353   3.416
 1047TIP3   OH2 3146   4.981   0.262   3.504
 1047TIP3    H1 3147   4.973   0.280   3.597
 1047TIP3    H2 3148   4.940   0.176   3.493
 1048TIP3   OH2 3149   0.389   0.469   3.231
 1048TIP3    H1 3150   0.363   0.443   3.320
 1048TIP3    H2 3151   0.366   0.394   3.176
 1049TIP3   OH2 3152   6.063   5.339   3.675
 1049TIP3    H1 3153   6.153   5.333   3.643
 1049TIP3    H2 3154   6.029   5.419   3.635
 1050TIP3   OH2 3155   1.471   3.815   1.777
 1050TIP3    H1 3156   1.455   3.729   1.818
 1050TIP3    H2 3157   1.563   3.812   1.750
 1051TIP3   OH2 3158   4.392   2.291   3.492
 1051TIP3    H1 3159   4.468   2.349   3.495
 1051TIP3    H2 3160   4.428   2.204   3.478
 1052TIP3   OH2 3161   6.379   2.725   2.414
 1052TIP3    H1 3162   6.451   2.788   2.420
 1052TIP3    H2 3163   6.309   2.762   2.468
 1053TIP3   OH2 3164   5.317   4.246   4.806
 1053TIP3    H1 3165   5.393   4.255   4.863
 1053TIP3    H2 3166   5.355   4.235   4.718
 1054TIP3   OH2 3167   1.463   0.043   3.442
 1054TIP3    H1 3168   1.550   0.003   3.435
 1054TIP3    H2 3169   1.481   0.133   3.470
 1055TIP3   OH2 3170   5.579   0.952   0.175
 1055TIP3    H1 3171   5.610   0.990   0.257
 1055TIP3    H2 3172   5.509   0.892   0.200
 1056TIP3   OH2 3173   5.300   4.930   2.725
 1056TIP3    H1 3174   5.360   5.005   2.727
 1056TIP3    H2 3175   5.243   4.944   2.800
 1057TIP3   OH2 3176   4.337   5.372   3.999
 1057TIP3    H1 3177   4.302   5.283   4.007
 1057TIP3    H2 3178   4.370   5.376   3.909
 1058TIP3   OH2 3179   4.179   1.091   1.477
 1058TIP3    H1 3180   4.148   1.175   1.509
 1058TIP3    H2 3181   4.104   1.033   1.485
 1059TIP3   OH2 3182   3.906   2.011   1.750
 1059TIP3    H1 3183   3.816   2.032   1.775
 1059TIP3    H2 3184   3.915   2.042   1.660
 1060TIP3   OH2 3185   5.969   2.341   1.955
 1060TIP3    H1 3186   6.021   2.314   1.879
 1060TIP3    H2 3187   6.028   2.330   2.030
 1061TIP3   OH2 3188   3.219   1.036   0.798
 1061TIP3    H1 3189   3.158   1.105   0.771
 1061TIP3    H2 3190   3.256   1.067   0.880
 1062TIP3   OH2 3191   5.444   3.806   3.548
 1062TIP3    H1 3192   5.465   3.890   3.590
 1062TIP3    H2 3193   5.438   3.827   3.455
 1063TIP3   OH2 3194   0.155   3.962   2.519
 1063TIP3    H1 3195   0.110   3.904   2.458
 1063TIP3    H2 3196   0.214   3.904   2.568
 1064TIP3   OH2 3197   0.618   5.448   3.864
 1064TIP3    H1 3198   0.705   5.464   3.901
 1064TIP3    H2 3199   0.635   5.417   3.776
 1065TIP3   OH2 3200   6.057   0.288   5.009
 1065TIP3    H1 3201   6.128   0.299   5.072
 1065TIP3    H2 3202   5.978   0.309   5.058
 1066TIP3   OH2 3203   3.715   1.195   4.442
 1066TIP3    H1 3204   3.798   1.178   4.486
 1066TIP3    H2 3205   3.703   1.290   4.449
 1067TIP3   OH2 3206   3.365   5.001   1.060
 1067TIP3    H1 3207   3.399   5.086   1.030
 1067TIP3    H2 3208   3.279   4.994   1.020
 1068TIP3   OH2 3209   5.567   4.965   0.059
 1068TIP3    H1 3210   5.536   5.048   0.023
 1068TIP3    H2 3211   5.613   4.989   0.139
 1069TIP3   OH2 3212   1.738   5.552   3.268
 1069TIP3    H1 3213   1.660   5.504   3.296
 1069TIP3    H2 3214   1.809   5.515   3.321
 1070TIP3   OH2 3215   0.484   5.718   0.139
 1070TIP3    H1 3216   0.442   5.784   0.195
 1070TIP3    H2 3217   0.560   5.689   0.190
 1071TIP3   OH2 3218   2.667   5.106   2.803
 1071TIP3    H1 3219   2.736   5.119   2.737
 1071TIP3    H2 3220   2.601   5.053   2.758
 1072TIP3   OH2 3221   5.323   2.023   0.580
 1072TIP3    H1 3222   5.379   2.004   0.655
 1072TIP3    H2 3223   5.363   1.973   0.508
 1073TIP3   OH2 3224   0.630   0.475   3.489
 1073TIP3    H1 3225   0.697   0.515   3.544
 1073TIP3    H2 3226   0.636   0.521   3.405
 1074TIP3   OH2 3227   2.054   0.477   4.594
 1074TIP3    H1 3228   2.099   0.458   4.512
 1074TIP3    H2 3229   1.961   0.467   4.574
 1075TIP3   OH2 3230   6.376   5.041   4.707
 1075TIP3    H1 3231   6.352   5.026   4.615
 1075TIP3    H2 3232   6.292   5.050   4.752
 1076TIP3   OH2 3233   5.714   5.504   3.832
 1076TIP3    H1 3234   5.658   5.427   3.817
 1076TIP3    H2 3235   5.690   5.534   3.920
 1077TIP3   OH2 3236   4.832   0.159   1.610
 1077TIP3    H1 3237   4.896   0.211   1.659
 1077TIP3    H2 3238   4.880   0.130   1.532
 1078TIP3   OH2 3239   0.751   5.400   2.935
 1078TIP3    H1 3240   0.825   5.422   2.991
 1078TIP3    H2 3241   0.733   5.480   2.885
 1079TIP3   OH2 3242   5.066   4.823   0.153
 1079TIP3    H1 3243   5.064   4.895   0.090
 1079TIP3    H2 3244   5.155   4.825   0.189
 1080TIP3   OH2 3245   0.766   2.555   0.697
 1080TIP3    H1 3246   0.823   2.595   0.763
 1080TIP3    H2 3247   0.801   2.467   0.686
 1081TIP3   OH2 3248   5.922   4.735   2.495
 1081TIP3    H1 3249   5.828   4.720   2.506
 1081TIP3    H2 3250   5.929   4.780   2.411
 1082TIP3   OH2 3251   4.392   1.991   0.791
 1082TIP3    H1 3252   4.451   1.946   0.851
 1082TIP3    H2 3253   4.342   1.920   0.750
 1083TIP3   OH2 3254   3.319   0.675   4.530
 1083TIP3    H1 3255   3.407   0.711   4.541
 1083TIP3    H2 3256   3.271   0.743   4.483
 1084TIP3   OH2 3257   4.364   2.674   4.216
 1084TIP3    H1 3258   4.346   2.619   4.140
 1084TIP3    H2 3259   4.277   2.698   4.249
 1085TIP3   OH2 3260   2.769   3.060   4.287
 1085TIP3    H1 3261   2.732   3.101   4.364
 1085TIP3    H2 3262   2.775   3.130   4.222
 1086TIP3   OH2 3263   2.453   4.591   3.638
 1086TIP3    H1 3264   2.462   4.588   3.542
 1086TIP3    H2 3265   2.472   4.683   3.660
 1087TIP3   OH2 3266   3.735   4.412   0.295
 1087TIP3    H1 3267   3.789   4.335   0.311
 1087TIP3    H2 3268   3.645   4.379   0.297
 1088TIP3   OH2 3269   6.016   5.277   1.114
 1088TIP3    H1 3270   6.024   5.372   1.110
 1088TIP3    H2 3271   6.088   5.245   1.059
 1089TIP3   OH2 3272   4.661   0.691   1.601
 1089TIP3    H1 3273   4.743   0.738   1.591
 1089TIP3    H2 3274   4.686   0.601   1.617
 1090TIP3   OH2 3275   0.384   3.942   4.338
 1090TIP3    H1 3276   0.395   4.031   4.372
 1090TIP3    H2 3277   0.401   3.950   4.244
 1091TIP3   OH2 3278   4.174   5.565   1.602
 1091TIP3    H1 3279   4.106   5.602   1.547
 1091TIP3    H2 3280   4.222   5.505   1.545
 1092TIP3   OH2 3281   4.595   1.872   4.124
 1092TIP3    H1 3282   4.572   1.910   4.039
 1092TIP3    H2 3283   4.604   1.947   4.182
 1093TIP3   OH2 3284   4.485   1.399   3.518
 1093TIP3    H1 3285   4.537   1.322   3.541
 1093TIP3    H2 3286   4.436   1.419   3.598
 1094TIP3   OH2 3287   2.374   0.424   3.773
 1094TIP3    H1 3288   2.318   0.471   3.711
 1094TIP3    H2 3289   2.327   0.342   3.789
 1095TIP3   OH2 3290   0.117   4.328   1.956
 1095TIP3    H1 3291   0.107   4.345   2.050
 1095TIP3    H2 3292   0.155   4.240   1.952
 1096TIP3   OH2 3293   4.924   1.771   3.597
 1096TIP3    H1 3294   4.995   1.806   3.652
 1096TIP3    H2 3295   4.910   1.840   3.532
 1097TIP3   OH2 3296   1.920   4.899   2.594
 1097TIP3    H1 3297   1.974   4.841   2.540
 1097TIP3    H2 3298   1.857   4.937   2.532
 1098TIP3   OH2 3299   4.121   2.033   0.043
 1098TIP3    H1 3300   4.166   1.948   0.048
 1098TIP3    H2 3301   4.192   2.097   0.037
 1099TIP3   OH2 3302   5.187   4.796   4.783
 1099TIP3    H1 3303   5.168   4.779   4.691
 1099TIP3    H2 3304   5.218   4.711   4.816
 1100TIP3   OH2 3305   1.688   3.941   0.309
 1100TIP3    H1 3306   1.720   3.914   0.223
 1100TIP3    H2 3307   1.765   3.978   0.353
 1101TIP3   OH2 3308   3.090   4.623   1.155
 1101TIP3    H1 3309   3.036   4.544   1.157
 1101TIP3    H2 3310   3.044   4.682   1.095
 1102TIP3   OH2 3311   1.820   5.799   0.596
 1102TIP3    H1 3312   1.841   5.788   0.689
 1102TIP3    H2 3313   1.841   5.714   0.556
 1103TIP3   OH2 3314   1.353   3.773   2.066
 1103TIP3    H1 3315   1.276   3.810   2.023
 1103TIP3    H2 3316   1.425   3.830   2.038
 1104TIP3   OH2 3317   0.071   1.161   3.363
 1104TIP3    H1 3318   0.011   1.091   3.339
 1104TIP3    H2 3319   0.092   1.145   3.454
 1105TIP3   OH2 3320   0.669   2.103   2.766
 1105TIP3    H1 3321   0.613   2.028   2.745
 1105TIP3    H2 3322   0.679   2.099   2.861
 1106TIP3   OH2 3323   1.836   3.365   3.563
 1106TIP3    H1 3324   1.829   3.299   3.631
 1106TIP3    H2 3325   1.838   3.449   3.610
 1107TIP3   OH2 3326   5.347   1.283   4.076
 1107TIP3    H1 3327   5.345   1.204   4.021
 1107TIP3    H2 3328   5.335   1.355   4.015
 1108TIP3   OH2 3329   0.254   3.278   2.158
 1108TIP3    H1 3330   0.248   3.183   2.170
 1108TIP3    H2 3331   0.304   3.289   2.078
 1109TIP3   OH2 3332   2.666   1.811   2.709
 1109TIP3    H1 3333   2.682   1.861   2.789
 1109TIP3    H2 3334   2.739   1.750   2.704
 1110TIP3   OH2 3335   2.227   3.904   1.731
 1110TIP3    H1 3336   2.301   3.957   1.702
 1110TIP3    H2 3337   2.267   3.833   1.781
 1111TIP3   OH2 3338   6.038   2.859   4.819
 1111TIP3    H1 3339   6.080   2.779   4.787
 1111TIP3    H2 3340   5.949   2.832   4.842
 1112TIP3   OH2 3341   5.342   3.405   4.009
 1112TIP3    H1 3342   5.426   3.359   3.998
 1112TIP3    H2 3343   5.282   3.359   3.950
 1113TIP3   OH2 3344   0.003   3.337   4.871
 1113TIP3    H1 3345  -0.017   3.244   4.883
 1113TIP3    H2 3346   0.071   3.355   4.936
 1114TIP3   OH2 3347   2.677   3.095   1.353
 1114TIP3    H1 3348   2.695   3.003   1.335
 1114TIP3    H2 3349   2.648   3.096   1.445
 1115TIP3   OH2 3350   4.759   5.050   1.562
 1115TIP3    H1 3351   4.728   5.036   1.472
 1115TIP3    H2 3352   4.848   5.015   1.563
 1116TIP3   OH2 3353   5.694   1.466   0.974
 1116TIP3    H1 3354   5.764   1.446   0.912
 1116TIP3    H2 3355   5.623   1.502   0.921
 1117TIP3   OH2 3356   5.995   1.498   3.851
 1117TIP3    H1 3357   6.036   1.501   3.765
 1117TIP3    H2 3358   5.977   1.590   3.871
 1118TIP3   OH2 3359   5.011   0.639   0.588
 1118TIP3    H1 3360   4.932   0.673   0.546
 1118TIP3    H2 3361   5.065   0.607   0.515
 1119TIP3   OH2 3362   4.573   2.321   4.075
 1119TIP3    H1 3363   4.645   2.259   4.085
 1119TIP3    H2 3364   4.567   2.335   3.980
 1120TIP3   OH2 3365   0.139   0.916   0.489
 1120TIP3    H1 3366   0.148   0.888   0.398
 1120TIP3    H2 3367   0.154   1.010   0.486
 1121TIP3   OH2 3368   6.094   0.812   0.809
 1121TIP3    H1 3369   6.135   0.804   0.723
 1121TIP3    H2 3370   6.111   0.903   0.835
 1122TIP3   OH2 3371   2.938   1.662   2.169
 1122TIP3    H1 3372   2.861   1.629   2.217
 1122TIP3    H2 3373   3.002   1.681   2.237
 1123TIP3   OH2 3374   5.187   4.455   3.613
 1123TIP3    H1 3375   5.203   4.474   3.521
 1123TIP3    H2 3376   5.200   4.539   3.658
 1124TIP3   OH2 3377   5.015   4.402   0.856
 1124TIP3    H1 3378   5.004   4.398   0.761
 1124TIP3    H2 3379   5.093   4.349   0.873
 1125TIP3   OH2 3380   4.439   1.977   3.458
 1125TIP3    H1 3381   4.384   1.967   3.380
 1125TIP3    H2 3382   4.382   1.950   3.530
 1126TIP3   OH2 3383   5.789   3.276   3.307
 1126TIP3    H1 3384   5.819   3.326   3.231
 1126TIP3    H2 3385   5.823   3.188   3.293
 1127TIP3   OH2 3386   3.145   3.771   2.550
 1127TIP3    H1 3387   3.216   3.771   2.614
 1127TIP3    H2 3388   3.075   3.820   2.591
 1128TIP3   OH2 3389   2.758   1.503   0.131
 1128TIP3    H1 3390   2.723   1.443   0.065
 1128TIP3    H2 3391   2.783   1.446   0.204
 1129TIP3   OH2 3392   5.879   3.298   4.577
 1129TIP3    H1 3393   5.841   3.214   4.601
 1129TIP3    H2 3394   5.904   3.289   4.485
 1130TIP3   OH2 3395   1.445   4.548   3.643
 1130TIP3    H1 3396   1.444   4.633   3.687
 1130TIP3    H2 3397   1.537   4.520   3.647
 1131TIP3   OH2 3398   2.100   2.439   1.464
 1131TIP3    H1 3399   2.078   2.458   1.555
 1131TIP3    H2 3400   2.040   2.368   1.439
 1132TIP3   OH2 3401   0.403   1.734   4.713
 1132TIP3    H1 3402   0.378   1.653   4.669
 1132TIP3    H2 3403   0.497   1.726   4.730
 1133TIP3   OH2 3404   5.980   4.083   2.290
 1133TIP3    H1 3405   6.017   4.049   2.372
 1133TIP3    H2 3406   5.904   4.028   2.272
 1134TIP3   OH2 3407   2.370   1.350   3.301
 1134TIP3    H1 3408   2.441   1.296   3.267
 1134TIP3    H2 3409   2.346   1.309   3.384
 1135TIP3   OH2 3410   4.921   5.790   1.906
 1135TIP3    H1 3411   4.931   5.876   1.947
 1135TIP3    H2 3412   5.010   5.759   1.893
 1136TIP3   OH2 3413   5.630   0.177   0.606
 1136TIP3    H1 3414   5.557   0.133   0.562
 1136TIP3    H2 3415   5.688   0.203   0.535
 1137TIP3   OH2 3416   4.748   2.051   0.498
 1137TIP3    H1 3417   4.842   2.046   0.517
 1137TIP3    H2 3418   4.743   2.065   0.404
 1138TIP3   OH2 3419   3.957   2.598   4.108
 1138TIP3    H1 3420   3.925   2.532   4.170
 1138TIP3    H2 3421   3.999   2.664   4.163
 1139TIP3   OH2 3422   4.972   0.157   1.941
 1139TIP3    H1 3423   5.022   0.129   1.864
 1139TIP3    H2 3424   5.036   0.161   2.011
 1140TIP3   OH2 3425   3.237   0.407   4.400
 1140TIP3    H1 3426   3.142   0.404   4.397
 1140TIP3    H2 3427   3.257   0.487   4.450
 1141TIP3   OH2 3428   5.617   0.399   5.089
 1141TIP3    H1 3429   5.537   0.402   5.036
 1141TIP3    H2 3430   5.588   0.424   5.177
 1142TIP3   OH2 3431   4.423   1.030   1.638
 1142TIP3    H1 3432   4.332   1.037   1.610
 1142TIP3    H2 3433   4.465   0.977   1.570
 1143TIP3   OH2 3434   0.725   3.342   0.757
 1143TIP3    H1 3435   0.713   3.247   0.759
 1143TIP3    H2 3436   0.820   3.353   0.756
 1144TIP3   OH2 3437   1.149   3.931   4.292
 1144TIP3    H1 3438   1.075   3.927   4.232
 1144TIP3    H2 3439   1.126   3.873   4.364
 1145TIP3   OH2 3440   2.704   3.801   3.574
 1145TIP3    H1 3441   2.611   3.781   3.562
 1145TIP3    H2 3442   2.709   3.848   3.657
 1146TIP3   OH2 3443   4.586   1.059   3.858
 1146TIP3    H1 3444   4.551   1.091   3.941
 1146TIP3    H2 3445   4.679   1.044   3.875
 1147TIP3   OH2 3446   6.000   2.228   4.027
 1147TIP3    H1 3447   6.032   2.301   4.080
 1147TIP3    H2 3448   6.009   2.258   3.936
 1148TIP3   OH2 3449   0.592   2.910   2.138
 1148TIP3    H1 3450   0.616   2.843   2.074
 1148TIP3    H2 3451   0.572   2.987   2.085
 1149TIP3   OH2 3452   2.024   1.894   5.141
 1149TIP3    H1 3453   2.088   1.956   5.175
 1149TIP3    H2 3454   2.052   1.809   5.176
 1150TIP3   OH2 3455   0.811   3.438   3.563
 1150TIP3    H1 3456   0.777   3.527   3.563
 1150TIP3    H2 3457   0.820   3.415   3.656
 1151TIP3   OH2 3458   2.553   1.809   3.842
 1151TIP3    H1 3459   2.583   1.843   3.758
 1151TIP3    H2 3460   2.604   1.729   3.855
 1152TIP3   OH2 3461   5.876   2.224   0.613
 1152TIP3    H1 3462   5.821   2.159   0.570
 1152TIP3    H2 3463   5.950   2.175   0.646
 1153TIP3   OH2 3464   5.314   5.319   3.306
 1153TIP3    H1 3465   5.372   5.332   3.231
 1153TIP3    H2 3466   5.324   5.399   3.358
 1154TIP3   OH2 3467   4.325   3.499   1.427
 1154TIP3    H1 3468   4.317   3.591   1.402
 1154TIP3    H2 3469   4.279   3.492   1.510
 1155TIP3   OH2 3470   3.277   2.382   5.010
 1155TIP3    H1 3471   3.249   2.440   5.081
 1155TIP3    H2 3472   3.256   2.430   4.930
 1156TIP3   OH2 3473   0.837   3.083   4.094
 1156TIP3    H1 3474   0.800   2.998   4.072
 1156TIP3    H2 3475   0.767   3.146   4.078
 1157TIP3   OH2 3476   2.787   0.965   1.915
 1157TIP3    H1 3477   2.760   0.876   1.897
 1157TIP3    H2 3478   2.876   0.957   1.949
 1158TIP3   OH2 3479   1.447   1.725   1.612
 1158TIP3    H1 3480   1.533   1.742   1.650
 1158TIP3    H2 3481   1.385   1.751   1.681
 1159TIP3   OH2 3482   3.208   5.127   2.277
 1159TIP3    H1 3483   3.206   5.165   2.189
 1159TIP3    H2 3484   3.116   5.117   2.301
 1160TIP3   OH2 3485   5.445   2.972   2.485
 1160TIP3    H1 3486   5.408   2.913   2.419
 1160TIP3    H2 3487   5.450   3.057   2.441
 1161TIP3   OH2 3488   0.156   3.184   4.209
 1161TIP3    H1 3489   0.063   3.178   4.232
 1161TIP3    H2 3490   0.169   3.275   4.183
 1162TIP3   OH2 3491   1.833   4.804   1.711
 1162TIP3    H1 3492   1.912   4.768   1.669
 1162TIP3    H2 3493   1.807   4.737   1.774
 1163TIP3   OH2 3494   3.841   0.194   1.928
 1163TIP3    H1 3495   3.913   0.135   1.907
 1163TIP3    H2 3496   3.883   0.266   1.976
 1164TIP3   OH2 3497   1.702   1.517   2.946
 1164TIP3    H1 3498   1.755   1.466   2.885
 1164TIP3    H2 3499   1.718   1.608   2.921
 1165TIP3   OH2 3500   6.246   1.435   1.317
 1165TIP3    H1 3501   6.166   1.401   1.279
 1165TIP3    H2 3502   6.263   1.378   1.393
 1166TIP3   OH2 3503   0.251   2.335   1.950
 1166TIP3    H1 3504   0.181   2.394   1.977
 1166TIP3    H2 3505   0.208   2.251   1.935
 1167TIP3   OH2 3506   3.939   0.169   2.635
 1167TIP3    H1 3507   4.027   0.190   2.602
 1167TIP3    H2 3508   3.951   0.158   2.729
 1168TIP3   OH2 3509   6.061   2.115   1.054
 1168TIP3    H1 3510   6.046   2.196   1.103
 1168TIP3    H2 3511   5.974   2.077   1.042
 1169TIP3   OH2 3512   1.441   0.726   2.561
 1169TIP3    H1 3513   1.507   0.794   2.550
 1169TIP3    H2 3514   1.416   0.730   2.653
 1170TIP3   OH2 3515   4.261   0.928   2.634
 1170TIP3    H1 3516   4.308   0.976   2.566
 1170TIP3    H2 3517   4.322   0.860   2.662
 1171TIP3   OH2 3518   3.410   5.921   1.256
 1171TIP3    H1 3519   3.406   6.006   1.300
 1171TIP3    H2 3520   3.325   5.913   1.213
 1172TIP3   OH2 3521   1.751   3.619   5.006
 1172TIP3    H1 3522   1.836   3.657   5.026
 1172TIP3    H2 3523   1.719   3.669   4.931
 1173TIP3   OH2 3524   3.783   4.845   5.102
 1173TIP3    H1 3525   3.875   4.846   5.076
 1173TIP3    H2 3526   3.783   4.808   5.190
 1174TIP3   OH2 3527   5.966   4.473   2.957
 1174TIP3    H1 3528   6.025   4.399   2.971
 1174TIP3    H2 3529   6.022   4.550   2.968
 1175TIP3   OH2 3530   4.741   1.557   2.249
 1175TIP3    H1 3531   4.816   1.499   2.263
 1175TIP3    H2 3532   4.780   1.641   2.224
 1176TIP3   OH2 3533   0.856   1.358   3.591
 1176TIP3    H1 3534   0.871   1.283   3.648
 1176TIP3    H2 3535   0.899   1.334   3.509
 1177TIP3   OH2 3536   0.568   4.610   1.935
 1177TIP3    H1 3537   0.598   4.519   1.928
 1177TIP3    H2 3538   0.485   4.612   1.888
 1178TIP3   OH2 3539   2.227   3.686   1.333
 1178TIP3    H1 3540   2.185   3.679   1.247
 1178TIP3    H2 3541   2.321   3.678   1.313
 1179TIP3   OH2 3542   2.140   4.810   4.612
 1179TIP3    H1 3543   2.234   4.792   4.608
 1179TIP3    H2 3544   2.125   4.878   4.546
 1180TIP3   OH2 3545   5.247   3.325   3.734
 1180TIP3    H1 3546   5.259   3.409   3.689
 1180TIP3    H2 3547   5.153   3.317   3.745
 1181TIP3   OH2 3548   6.274   4.712   0.572
 1181TIP3    H1 3549   6.299   4.720   0.480
 1181TIP3    H2 3550   6.180   4.691   0.569
 1182TIP3   OH2 3551   4.237   1.300   4.015
 1182TIP3    H1 3552   4.190   1.306   4.098
 1182TIP3    H2 3553   4.192   1.361   3.957
 1183TIP3   OH2 3554   2.299   0.349   2.583
 1183TIP3    H1 3555   2.278   0.265   2.541
 1183TIP3    H2 3556   2.390   0.365   2.559
 1184TIP3   OH2 3557   0.939   2.968   2.167
 1184TIP3    H1 3558   1.008   2.905   2.189
 1184TIP3    H2 3559   0.859   2.929   2.201
 1185TIP3   OH2 3560   6.276   3.430   1.973
 1185TIP3    H1 3561   6.206   3.434   2.038
 1185TIP3    H2 3562   6.356   3.444   2.023
 1186TIP3   OH2 3563   1.593   3.620   3.331
 1186TIP3    H1 3564   1.532   3.688   3.303
 1186TIP3    H2 3565   1.662   3.621   3.264
 1187TIP3   OH2 3566   3.557   4.856   1.989
 1187TIP3    H1 3567   3.528   4.815   2.070
 1187TIP3    H2 3568   3.632   4.803   1.961
 1188TIP3   OH2 3569   4.172   3.090   2.452
 1188TIP3    H1 3570   4.239   3.087   2.520
 1188TIP3    H2 3571   4.211   3.044   2.378
 1189TIP3   OH2 3572   2.506   0.486   1.549
 1189TIP3    H1 3573   2.579   0.427   1.570
 1189TIP3    H2 3574   2.548   0.568   1.524
 1190TIP3   OH2 3575   1.646   0.389   0.238
 1190TIP3    H1 3576   1.599   0.307   0.251
 1190TIP3    H2 3577   1.735   0.362   0.216
 1191TIP3   OH2 3578   3.526   4.048   4.341
 1191TIP3    H1 3579   3.593   4.111   4.314
 1191TIP3    H2 3580   3.517   4.060   4.435
 1192TIP3   OH2 3581   0.849   4.839   5.015
 1192TIP3    H1 3582   0.890   4.895   4.949
 1192TIP3    H2 3583   0.920   4.820   5.076
 1193TIP3   OH2 3584   2.069   3.674   0.722
 1193TIP3    H1 3585   1.982   3.713   0.720
 1193TIP3    H2 3586   2.052   3.579   0.718
 1194TIP3   OH2 3587   2.666   2.103   0.489
 1194TIP3    H1 3588   2.714   2.022   0.469
 1194TIP3    H2 3589   2.578   2.088   0.454
 1195TIP3   OH2 3590   2.217   4.339   0.264
 1195TIP3    H1 3591   2.273   4.413   0.289
 1195TIP3    H2 3592   2.132   4.360   0.301
 1196TIP3   OH2 3593   4.806   3.530   3.779
 1196TIP3    H1 3594   4.757   3.488   3.708
 1196TIP3    H2 3595   4.858   3.598   3.736
 1197TIP3   OH2 3596   6.062   5.743   0.201
 1197TIP3    H1 3597   5.999   5.706   0.263
 1197TIP3    H2 3598   6.127   5.785   0.257
 1198TIP3   OH2 3599   2.353   1.329   0.032
 1198TIP3    H1 3600   2.413   1.398   0.060
 1198TIP3    H2 3601   2.301   1.370  -0.038
 1199TIP3   OH2 3602   0.114   1.054   2.527
 1199TIP3    H1 3603   0.019   1.044   2.540
 1199TIP3    H2 3604   0.126   1.053   2.432
 1200TIP3   OH2 3605   3.470   3.904   1.116
 1200TIP3    H1 3606   3.456   3.877   1.025
 1200TIP3    H2 3607   3.412   3.847   1.167
 1201TIP3   OH2 3608   4.449   5.684   4.854
 1201TIP3    H1 3609   4.501   5.609   4.884
 1201TIP3    H2 3610   4.512   5.755   4.849
 1202TIP3   OH2 3611   5.655   1.621   1.955
 1202TIP3    H1 3612   5.665   1.658   2.042
 1202TIP3    H2 3613   5.652   1.526   1.969
 1203TIP3   OH2 3614   0.275   0.632   4.109
 1203TIP3    H1 3615   0.227   0.708   4.077
 1203TIP3    H2 3616   0.337   0.613   4.039
 1204TIP3   OH2 3617   0.039   5.002   1.767
 1204TIP3    H1 3618   0.126   5.003   1.728
 1204TIP3    H2 3619   0.053   4.973   1.857
 1205TIP3   OH2 3620   0.255   5.671   0.438
 1205TIP3    H1 3621   0.306   5.739   0.394
 1205TIP3    H2 3622   0.317   5.599   0.452
 1206TIP3   OH2 3623   1.398   5.758   2.436
 1206TIP3    H1 3624   1.428   5.667   2.439
 1206TIP3    H2 3625   1.352   5.771   2.519
 1207TIP3   OH2 3626   5.574   0.247   1.782
 1207TIP3    H1 3627   5.669   0.232   1.782
 1207TIP3    H2 3628   5.536   0.160   1.788
 1208TIP3   OH2 3629   4.860   3.694   4.914
 1208TIP3    H1 3630   4.837   3.724   5.001
 1208TIP3    H2 3631   4.948   3.729   4.899
 1209TIP3   OH2 3632   5.999   5.672   0.894
 1209TIP3    H1 3633   5.962   5.660   0.806
 1209TIP3    H2 3634   6.086   5.708   0.878
 1210TIP3   OH2 3635   4.960   5.303   2.079
 1210TIP3    H1 3636   4.924   5.283   1.992
 1210TIP3    H2 3637   5.054   5.286   2.070
 1211TIP3   OH2 3638   3.346   4.074   4.796
 1211TIP3    H1 3639   3.363   4.168   4.799
 1211TIP3    H2 3640   3.361   4.045   4.886
 1212TIP3   OH2 3641   4.303   5.453   1.391
 1212TIP3    H1 3642   4.227   5.409   1.353
 1212TIP3    H2 3643   4.346   5.495   1.317
 1213TIP3   OH2 3644   5.805   2.913   3.945
 1213TIP3    H1 3645   5.853   2.831   3.944
 1213TIP3    H2 3646   5.755   2.912   3.863
 1214TIP3   OH2 3647   3.277   5.238   4.971
 1214TIP3    H1 3648   3.316   5.252   5.057
 1214TIP3    H2 3649   3.187   5.270   4.980
 1215TIP3   OH2 3650   1.786   4.863   5.090
 1215TIP3    H1 3651   1.787   4.955   5.064
 1215TIP3    H2 3652   1.865   4.826   5.049
 1216TIP3   OH2 3653   4.906   2.696   2.064
 1216TIP3    H1 3654   4.949   2.612   2.045
 1216TIP3    H2 3655   4.974   2.762   2.049
 1217TIP3   OH2 3656   1.968   3.608   3.651
 1217TIP3    H1 3657   2.053   3.570   3.628
 1217TIP3    H2 3658   1.987   3.670   3.722
 1218TIP3   OH2 3659   5.725   1.255   1.249
 1218TIP3    H1 3660   5.770   1.332   1.214
 1218TIP3    H2 3661   5.635   1.284   1.263
 1219TIP3   OH2 3662   0.811   2.531   1.271
 1219TIP3    H1 3663   0.784   2.606   1.323
 1219TIP3    H2 3664   0.742   2.520   1.206
 1220TIP3   OH2 3665   1.967   5.143   0.301
 1220TIP3    H1 3666   1.922   5.117   0.382
 1220TIP3    H2 3667   1.912   5.107   0.231
 1221TIP3   OH2 3668   4.004   1.180   2.651
 1221TIP3    H1 3669   4.082   1.211   2.696
 1221TIP3    H2 3670   3.947   1.147   2.720
 1222TIP3   OH2 3671   4.835   3.198   1.409
 1222TIP3    H1 3672   4.785   3.252   1.470
 1222TIP3    H2 3673   4.918   3.244   1.397
 1223TIP3   OH2 3674   2.508   2.167   3.839
 1223TIP3    H1 3675   2.558   2.106   3.785
 1223TIP3    H2 3676   2.447   2.208   3.778
 1224TIP3   OH2 3677   2.860   4.399   1.799
 1224TIP3    H1 3678   2.916   4.473   1.776
 1224TIP3    H2 3679   2.783   4.409   1.744
 1225TIP3   OH2 3680   2.965   5.406   2.760
 1225TIP3    H1 3681   2.961   5.402   2.856
 1225TIP3    H2 3682   2.933   5.321   2.731
 1226TIP3   OH2 3683   3.756   1.515   3.076
 1226TIP3    H1 3684   3.782   1.424   3.061
 1226TIP3    H2 3685   3.786   1.561   2.997
 1227TIP3   OH2 3686   5.905   5.272   2.365
 1227TIP3    H1 3687   5.946   5.271   2.278
 1227TIP3    H2 3688   5.967   5.320   2.420
 1228TIP3   OH2 3689   2.352   3.342   1.205
 1228TIP3    H1 3690   2.285   3.377   1.146
 1228TIP3    H2 3691   2.404   3.419   1.230
 1229TIP3   OH2 3692   1.790   1.960   0.535
 1229TIP3    H1 3693   1.746   1.886   0.492
 1229TIP3    H2 3694   1.881   1.953   0.507
 1230TIP3   OH2 3695   0.640   0.432   5.076
 1230TIP3    H1 3696   0.556   0.478   5.075
 1230TIP3    H2 3697   0.703   0.498   5.108
 1231TIP3   OH2 3698   1.016   0.899   3.464
 1231TIP3    H1 3699   0.974   0.901   3.550
 1231TIP3    H2 3700   1.044   0.808   3.453
 1232TIP3   OH2 3701   2.894   2.678   0.557
 1232TIP3    H1 3702   2.823   2.741   0.544
 1232TIP3    H2 3703   2.926   2.659   0.469
 1233TIP3   OH2 3704   1.444   1.184   4.737
 1233TIP3    H1 3705   1.474   1.201   4.826
 1233TIP3    H2 3706   1.349   1.176   4.745
 1234TIP3   OH2 3707   1.020   2.521   0.094
 1234TIP3    H1 3708   0.932   2.485   0.078
 1234TIP3    H2 3709   1.046   2.559   0.011
 1235TIP3   OH2 3710   0.009   1.032   0.846
 1235TIP3    H1 3711   0.013   1.128   0.850
 1235TIP3    H2 3712   0.097   1.005   0.821
 1236TIP3   OH2 3713   4.168   3.356   2.695
 1236TIP3    H1 3714   4.075   3.334   2.695
 1236TIP3    H2 3715   4.201   3.320   2.613
 1237TIP3   OH2 3716   3.610   4.192   2.694
 1237TIP3    H1 3717   3.546   4.250   2.653
 1237TIP3    H2 3718   3.619   4.118   2.634
 1238TIP3   OH2 3719   3.691   2.537   3.961
 1238TIP3    H1 3720   3.603   2.573   3.969
 1238TIP3    H2 3721   3.745   2.594   4.015
 1239TIP3   OH2 3722   1.922   1.707   1.540
 1239TIP3    H1 3723   1.939   1.751   1.457
 1239TIP3    H2 3724   1.842   1.748   1.573
 1240TIP3   OH2 3725   0.667   0.885   4.638
 1240TIP3    H1 3726   0.644   0.839   4.718
 1240TIP3    H2 3727   0.759   0.864   4.623
 1241TIP3   OH2 3728   3.051   1.196   2.465
 1241TIP3    H1 3729   3.030   1.112   2.423
 1241TIP3    H2 3730   3.138   1.218   2.433
 1242TIP3   OH2 3731   5.481   3.480   4.227
 1242TIP3    H1 3732   5.407   3.476   4.166
 1242TIP3    H2 3733   5.532   3.402   4.208
 1243TIP3   OH2 3734   5.825   1.609   1.400
 1243TIP3    H1 3735   5.894   1.572   1.455
 1243TIP3    H2 3736   5.745   1.602   1.453
 1244TIP3   OH2 3737   4.158   0.502   1.777
 1244TIP3    H1 3738   4.212   0.478   1.852
 1244TIP3    H2 3739   4.210   0.565   1.729
 1245TIP3   OH2 3740   4.112   2.401   4.365
 1245TIP3    H1 3741   4.190   2.392   4.419
 1245TIP3    H2 3742   4.144   2.391   4.275
 1246TIP3   OH2 3743   0.682   0.973   3.341
 1246TIP3    H1 3744   0.658   0.970   3.433
 1246TIP3    H2 3745   0.701   1.065   3.324
 1247TIP3   OH2 3746   1.511   2.070   3.908
 1247TIP3    H1 3747   1.463   2.132   3.963
 1247TIP3    H2 3748   1.519   1.991   3.963
 1248TIP3   OH2 3749   6.132   3.633   4.453
 1248TIP3    H1 3750   6.077   3.580   4.510
 1248TIP3    H2 3751   6.123   3.722   4.485
 1249TIP3   OH2 3752   0.872   3.093   0.039
 1249TIP3    H1 3753   0.946   3.036   0.057
 1249TIP3    H2 3754   0.817   3.086   0.116
 1250TIP3   OH2 3755   1.917   1.371   4.590
 1250TIP3    H1 3756   1.999   1.380   4.541
 1250TIP3    H2 3757   1.858   1.435   4.549
 1251TIP3   OH2 3758   3.613   5.523   0.684
 1251TIP3    H1 3759   3.601   5.512   0.778
 1251TIP3    H2 3760   3.684   5.462   0.662
 1252TIP3   OH2 3761   2.383   1.520   1.641
 1252TIP3    H1 3762   2.416   1.538   1.729
 1252TIP3    H2 3763   2.333   1.439   1.651
 1253TIP3   OH2 3764   5.236   0.070   1.047
 1253TIP3    H1 3765   5.258   0.060   1.140
 1253TIP3    H2 3766   5.173  -0.001   1.030
 1254TIP3   OH2 3767   4.498   1.975   5.006
 1254TIP3    H1 3768   4.408   2.003   5.022
 1254TIP3    H2 3769   4.548   2.012   5.079
 1255TIP3   OH2 3770   3.847   5.394   3.939
 1255TIP3    H1 3771   3.845   5.463   3.873
 1255TIP3    H2 3772   3.789   5.326   3.905
 1256TIP3   OH2 3773   4.574   1.305   4.279
 1256TIP3    H1 3774   4.580   1.323   4.373
 1256TIP3    H2 3775   4.661   1.328   4.244
 1257TIP3   OH2 3776   4.780   2.143   0.248
 1257TIP3    H1 3777   4.743   2.232   0.250
 1257TIP3    H2 3778   4.754   2.109   0.162
 1258TIP3   OH2 3779   2.626   5.498   0.557
 1258TIP3    H1 3780   2.636   5.593   0.565
 1258TIP3    H2 3781   2.588   5.470   0.640
 1259TIP3   OH2 3782   0.725   5.977   3.864
 1259TIP3    H1 3783   0.718   6.036   3.939
 1259TIP3    H2 3784   0.649   5.919   3.873
 1260TIP3   OH2 3785   3.741   4.761   0.700
 1260TIP3    H1 3786   3.746   4.751   0.795
 1260TIP3    H2 3787   3.654   4.797   0.684
 1261TIP3   OH2 3788   3.359   2.674   4.236
 1261TIP3    H1 3789   3.284   2.615   4.226
 1261TIP3    H2 3790   3.384   2.698   4.147
 1262TIP3   OH2 3791   4.793   1.387   0.536
 1262TIP3    H1 3792   4.840   1.439   0.602
 1262TIP3    H2 3793   4.725   1.446   0.504
 1263TIP3   OH2 3794   2.133   2.414   0.749
 1263TIP3    H1 3795   2.088   2.493   0.778
 1263TIP3    H2 3796   2.211   2.446   0.704
 1264TIP3   OH2 3797   1.498   4.735   1.199
 1264TIP3    H1 3798   1.430   4.792   1.163
 1264TIP3    H2 3799   1.459   4.697   1.278
 1265TIP3   OH2 3800   2.463   3.209   1.858
 1265TIP3    H1 3801   2.414   3.155   1.921
 1265TIP3    H2 3802   2.534   3.246   1.909
 1266TIP3   OH2 3803   4.679   4.940   0.195
 1266TIP3    H1 3804   4.719   4.966   0.112
 1266TIP3    H2 3805   4.711   4.852   0.212
 1267TIP3   OH2 3806   5.362   3.121   3.880
 1267TIP3    H1 3807   5.323   3.045   3.837
 1267TIP3    H2 3808   5.327   3.196   3.832
 1268TIP3   OH2 3809   0.315   3.810   2.722
 1268TIP3    H1 3810   0.351   3.729   2.758
 1268TIP3    H2 3811   0.325   3.874   2.793
 1269TIP3   OH2 3812   0.460   3.334   0.581
 1269TIP3    H1 3813   0.438   3.315   0.672
 1269TIP3    H2 3814   0.384   3.383   0.548
 1270TIP3   OH2 3815   2.655   0.464   4.920
 1270TIP3    H1 3816   2.746   0.493   4.924
 1270TIP3    H2 3817   2.604   0.544   4.937
 1271TIP3   OH2 3818   2.113   5.417   0.032
 1271TIP3    H1 3819   2.128   5.322   0.035
 1271TIP3    H2 3820   2.182   5.454   0.086
 1272TIP3   OH2 3821   1.044   5.498   1.987
 1272TIP3    H1 3822   1.062   5.587   1.957
 1272TIP3    H2 3823   1.100   5.443   1.934
 1273TIP3   OH2 3824   3.179   1.755   4.995
 1273TIP3    H1 3825   3.101   1.701   4.986
 1273TIP3    H2 3826   3.150   1.833   5.042
 1274TIP3   OH2 3827   1.633   2.938   0.359
 1274TIP3    H1 3828   1.671   2.883   0.290
 1274TIP3    H2 3829   1.694   2.930   0.432
 1275TIP3   OH2 3830   2.182   2.558   0.227
 1275TIP3    H1 3831   2.266   2.517   0.208
 1275TIP3    H2 3832   2.182   2.638   0.174
 1276TIP3   OH2 3833   0.010   4.570   4.923
 1276TIP3    H1 3834   0.066   4.633   4.969
 1276TIP3    H2 3835  -0.051   4.538   4.989
 1277TIP3   OH2 3836   4.081   3.937   3.387
 1277TIP3    H1 3837   4.145   3.914   3.454
 1277TIP3    H2 3838   3.998   3.904   3.420
 1278TIP3   OH2 3839   2.815   1.358   0.362
 1278TIP3    H1 3840   2.732   1.327   0.326
 1278TIP3    H2 3841   2.876   1.287   0.347
 1279TIP3   OH2 3842   1.771   4.825   0.395
 1279TIP3    H1 3843   1.795   4.760   0.461
 1279TIP3    H2 3844   1.845   4.827   0.335
 1280TIP3   OH2 3845   0.459   1.199   0.522
 1280TIP3    H1 3846   0.433   1.291   0.532
 1280TIP3    H2 3847   0.435   1.158   0.605
 1281TIP3   OH2 3848   4.649   1.232   2.854
 1281TIP3    H1 3849   4.601   1.180   2.919
 1281TIP3    H2 3850   4.643   1.181   2.773
 1282TIP3   OH2 3851   3.191   2.788   0.261
 1282TIP3    H1 3852   3.163   2.825   0.345
 1282TIP3    H2 3853   3.235   2.860   0.217
 1283TIP3   OH2 3854   3.132   3.119   3.428
 1283TIP3    H1 3855   3.224   3.107   3.452
 1283TIP3    H2 3856   3.092   3.154   3.508
 1284TIP3   OH2 3857   2.845   3.211   3.374
 1284TIP3    H1 3858   2.862   3.117   3.363
 1284TIP3    H2 3859   2.919   3.254   3.331
 1285TIP3   OH2 3860   5.391   2.536   0.205
 1285TIP3    H1 3861   5.486   2.542   0.191
 1285TIP3    H2 3862   5.382   2.533   0.300
 1286TIP3   OH2 3863   1.749   2.815   4.332
 1286TIP3    H1 3864   1.797   2.768   4.264
 1286TIP3    H2 3865   1.719   2.746   4.392
 1287TIP3   OH2 3866   2.938   5.799   5.139
 1287TIP3    H1 3867   3.016   5.820   5.190
 1287TIP3    H2 3868   2.878   5.872   5.155
 1288TIP3   OH2 3869   4.073   3.178   1.234
 1288TIP3    H1 3870   3.993   3.203   1.280
 1288TIP3    H2 3871   4.069   3.083   1.229
 1289TIP3   OH2 3872   1.506   4.844   2.977
 1289TIP3    H1 3873   1.591   4.825   3.015
 1289TIP3    H2 3874   1.466   4.758   2.962
 1290TIP3   OH2 3875   2.988   3.112   1.520
 1290TIP3    H1 3876   2.911   3.164   1.495
 1290TIP3    H2 3877   2.954   3.050   1.585
 1291TIP3   OH2 3878   2.723   0.872   3.645
 1291TIP3    H1 3879   2.735   0.794   3.700
 1291TIP3    H2 3880   2.781   0.857   3.570
 1292TIP3   OH2 3881   3.589   5.496   3.011
 1292TIP3    H1 3882   3.561   5.587   3.010
 1292TIP3    H2 3883   3.535   5.453   2.944
 1293TIP3   OH2 3884   1.168   3.428   2.179
 1293TIP3    H1 3885   1.083   3.473   2.188
 1293TIP3    H2 3886   1.196   3.413   2.269
 1294TIP3   OH2 3887   4.258   5.730   4.661
 1294TIP3    H1 3888   4.315   5.794   4.619
 1294TIP3    H2 3889   4.300   5.713   4.745
 1295TIP3   OH2 3890   0.736   3.340   0.180
 1295TIP3    H1 3891   0.754   3.301   0.266
 1295TIP3    H2 3892   0.803   3.407   0.170
 1296TIP3   OH2 3893   5.724   0.843   4.714
 1296TIP3    H1 3894   5.690   0.847   4.624
 1296TIP3    H2 3895   5.683   0.766   4.752
 1297TIP3   OH2 3896   5.708   2.399   1.215
 1297TIP3    H1 3897   5.662   2.431   1.292
 1297TIP3    H2 3898   5.677   2.308   1.205
 1298TIP3   OH2 3899   5.829   0.696   0.447
 1298TIP3    H1 3900   5.753   0.638   0.444
 1298TIP3    H2 3901   5.871   0.676   0.531
 1299TIP3   OH2 3902   3.973   5.824   1.534
 1299TIP3    H1 3903   4.051   5.871   1.562
 1299TIP3    H2 3904   3.901   5.872   1.576
 1300TIP3   OH2 3905   0.639   5.944   2.432
 1300TIP3    H1 3906   0.701   5.871   2.439
 1300TIP3    H2 3907   0.690   6.014   2.391
 1301TIP3   OH2 3908   6.253   0.770   1.280
 1301TIP3    H1 3909   6.269   0.770   1.186
 1301TIP3    H2 3910   6.162   0.798   1.289
 1302TIP3   OH2 3911   5.133   5.831   1.580
 1302TIP3    H1 3912   5.120   5.842   1.486
 1302TIP3    H2 3913   5.114   5.739   1.596
 1303TIP3   OH2 3914   2.192   4.264   2.482
 1303TIP3    H1 3915   2.264   4.234   2.426
 1303TIP3    H2 3916   2.113   4.248   2.431
 1304TIP3   OH2 3917   4.038   0.930   2.794
 1304TIP3    H1 3918   4.111   0.945   2.733
 1304TIP3    H2 3919   3.994   0.852   2.759
 1305TIP3   OH2 3920   1.295   1.963   4.780
 1305TIP3    H1 3921   1.201   1.950   4.768
 1305TIP3    H2 3922   1.317   2.037   4.723
 1306TIP3   OH2 3923   0.513   1.012   1.672
 1306TIP3    H1 3924   0.603   0.985   1.686
 1306TIP3    H2 3925   0.463   0.931   1.667
 1307TIP3   OH2 3926   5.293   4.413   3.307
 1307TIP3    H1 3927   5.250   4.462   3.236
 1307TIP3    H2 3928   5.280   4.321   3.284
 1308TIP3   OH2 3929   4.369   4.427   2.710
 1308TIP3    H1 3930   4.331   4.362   2.769
 1308TIP3    H2 3931   4.351   4.394   2.622
 1309TIP3   OH2 3932   1.260   4.133   4.740
 1309TIP3    H1 3933   1.285   4.225   4.747
 1309TIP3    H2 3934   1.321   4.087   4.799
 1310TIP3   OH2 3935   1.137   3.194   3.365
 1310TIP3    H1 3936   1.060   3.154   3.406
 1310TIP3    H2 3937   1.143   3.280   3.407
 1311TIP3   OH2 3938   4.035   4.911   2.798
 1311TIP3    H1 3939   4.026   4.949   2.886
 1311TIP3    H2 3940   4.102   4.964   2.756
 1312TIP3   OH2 3941   0.938   1.452   0.832
 1312TIP3    H1 3942   0.854   1.449   0.786
 1312TIP3    H2 3943   0.953   1.546   0.846
 1313TIP3   OH2 3944   1.315   3.983   5.021
 1313TIP3    H1 3945   1.348   3.894   5.033
 1313TIP3    H2 3946   1.355   4.034   5.092
 1314TIP3   OH2 3947   3.615   1.051   1.564
 1314TIP3    H1 3948   3.683   0.990   1.536
 1314TIP3    H2 3949   3.540   0.995   1.585
 1315TIP3   OH2 3950   4.013   4.382   3.543
 1315TIP3    H1 3951   4.044   4.322   3.611
 1315TIP3    H2 3952   4.034   4.338   3.461
 1316TIP3   OH2 3953   4.193   3.895   0.650
 1316TIP3    H1 3954   4.177   3.884   0.557
 1316TIP3    H2 3955   4.107   3.916   0.687
 1317TIP3   OH2 3956   0.383   4.002   1.111
 1317TIP3    H1 3957   0.304   3.948   1.106
 1317TIP3    H2 3958   0.354   4.084   1.149
 1318TIP3   OH2 3959   6.016   0.318   1.951
 1318TIP3    H1 3960   5.972   0.237   1.975
 1318TIP3    H2 3961   6.107   0.306   1.980
 1319TIP3   OH2 3962   1.655   2.143   3.690
 1319TIP3    H1 3963   1.707   2.071   3.655
 1319TIP3    H2 3964   1.593   2.102   3.749
 1320TIP3   OH2 3965   0.376   3.266   1.921
 1320TIP3    H1 3966   0.391   3.305   1.835
 1320TIP3    H2 3967   0.440   3.194   1.926
 1321TIP3   OH2 3968   0.760   4.139   1.261
 1321TIP3    H1 3969   0.759   4.233   1.247
 1321TIP3    H2 3970   0.785   4.129   1.354
 1322TIP3   OH2 3971   0.802   4.322   2.901
 1322TIP3    H1 3972   0.807   4.338   2.806
 1322TIP3    H2 3973   0.771   4.405   2.937
 1323TIP3   OH2 3974   1.083   2.916   4.913
 1323TIP3    H1 3975   1.010   2.883   4.861
 1323TIP3    H2 3976   1.153   2.853   4.900
 1324TIP3   OH2 3977   6.216   3.041   3.145
 1324TIP3    H1 3978   6.124   3.025   3.124
 1324TIP3    H2 3979   6.214   3.076   3.234
 1325TIP3   OH2 3980   0.285   3.480   4.400
 1325TIP3    H1 3981   0.286   3.514   4.490
 1325TIP3    H2 3982   0.194   3.450   4.387
 1326TIP3   OH2 3983   6.284   3.287   4.610
 1326TIP3    H1 3984   6.310   3.348   4.542
 1326TIP3    H2 3985   6.301   3.334   4.692
 1327TIP3   OH2 3986   0.091   0.977   3.966
 1327TIP3    H1 3987   0.173   1.014   3.998
 1327TIP3    H2 3988   0.066   0.912   4.032
 1328TIP3   OH2 3989   5.625   3.440   3.826
 1328TIP3    H1 3990   5.631   3.535   3.814
 1328TIP3    H2 3991   5.590   3.407   3.743
 1329TIP3   OH2 3992   5.510   2.036   3.874
 1329TIP3    H1 3993   5.436   1.981   3.846
 1329TIP3    H2 3994   5.560   1.980   3.933
 1330TIP3   OH2 3995   3.641   1.032   4.209
 1330TIP3    H1 3996   3.650   1.069   4.297
 1330TIP3    H2 3997   3.573   1.084   4.168
 1331TIP3   OH2 3998   1.102   2.629   2.807
 1331TIP3    H1 3999   1.144   2.598   2.888
 1331TIP3    H2 4000   1.083   2.721   2.823
 1332TIP3   OH2 4001   0.766   3.070   1.068
 1332TIP3    H1 4002   0.788   3.162   1.081
 1332TIP3    H2 4003   0.782   3.055   0.974
 1333TIP3   OH2 4004   2.172   1.779   4.072
 1333TIP3    H1 4005   2.125   1.698   4.093
 1333TIP3    H2 4006   2.116   1.849   4.105
 1334TIP3   OH2 4007   0.654   5.202   2.768
 1334TIP3    H1 4008   0.658   5.283   2.820
 1334TIP3    H2 4009   0.644   5.133   2.833
 1335TIP3   OH2 4010   4.277   2.911   0.734
 1335TIP3    H1 4011   4.331   2.990   0.740
 1335TIP3    H2 4012   4.340   2.840   0.721
 1336TIP3   OH2 4013   3.638   2.458   4.724
 1336TIP3    H1 4014   3.633   2.378   4.670
 1336TIP3    H2 4015   3.552   2.498   4.716
 1337TIP3   OH2 4016   5.456   2.695   4.962
 1337TIP3    H1 4017   5.493   2.606   4.959
 1337TIP3    H2 4018   5.529   2.750   4.991
 1338TIP3   OH2 4019   4.489   4.618   2.350
 1338TIP3    H1 4020   4.538   4.607   2.432
 1338TIP3    H2 4021   4.552   4.599   2.281
 1339TIP3   OH2 4022   5.005   3.656   2.931
 1339TIP3    H1 4023   5.067   3.729   2.928
 1339TIP3    H2 4024   5.060   3.579   2.941
 1340TIP3   OH2 4025   4.565   4.098   3.999
 1340TIP3    H1 4026   4.603   4.018   3.962
 1340TIP3    H2 4027   4.567   4.084   4.094
 1341TIP3   OH2 4028   3.559   2.958   2.833
 1341TIP3    H1 4029   3.626   2.993   2.774
 1341TIP3    H2 4030   3.564   2.863   2.820
 1342TIP3   OH2 4031   1.263   3.193   2.024
 1342TIP3    H1 4032   1.259   3.203   2.119
 1342TIP3    H2 4033   1.174   3.167   1.999
 1343TIP3   OH2 4034   5.195   2.254   2.865
 1343TIP3    H1 4035   5.238   2.200   2.799
 1343TIP3    H2 4036   5.113   2.209   2.885
 1344TIP3   OH2 4037   1.119   1.052   1.305
 1344TIP3    H1 4038   1.099   1.125   1.363
 1344TIP3    H2 4039   1.038   1.002   1.299
 1345TIP3   OH2 4040   4.103   1.799   1.775
 1345TIP3    H1 4041   4.112   1.754   1.692
 1345TIP3    H2 4042   4.048   1.875   1.756
 1346TIP3   OH2 4043   4.954   4.659   0.949
 1346TIP3    H1 4044   4.971   4.569   0.923
 1346TIP3    H2 4045   5.030   4.708   0.918
 1347TIP3   OH2 4046   1.764   5.566   1.689
 1347TIP3    H1 4047   1.774   5.575   1.594
 1347TIP3    H2 4048   1.729   5.477   1.700
 1348TIP3   OH2 4049   6.060   0.593   1.452
 1348TIP3    H1 4050   5.980   0.589   1.504
 1348TIP3    H2 4051   6.031   0.623   1.365
 1349TIP3   OH2 4052   2.552   5.303   0.813
 1349TIP3    H1 4053   2.581   5.341   0.896
 1349TIP3    H2 4054   2.634   5.282   0.767
 1350TIP3   OH2 4055   4.455   4.286   1.952
 1350TIP3    H1 4056   4.421   4.310   1.865
 1350TIP3    H2 4057   4.376   4.266   2.003
 1351TIP3   OH2 4058   0.737   0.072   0.521
 1351TIP3    H1 4059   0.652   0.116   0.518
 1351TIP3    H2 4060   0.732   0.006   0.453
 1352TIP3   OH2 4061   5.631   4.812   2.944
 1352TIP3    H1 4062   5.599   4.801   3.033
 1352TIP3    H2 4063   5.727   4.810   2.953
 1353TIP3   OH2 4064   0.898   1.547   4.860
 1353TIP3    H1 4065   0.877   1.542   4.953
 1353TIP3    H2 4066   0.824   1.506   4.816
 1354TIP3   OH2 4067   1.824   0.492   5.025
 1354TIP3    H1 4068   1.881   0.524   4.955
 1354TIP3    H2 4069   1.842   0.550   5.099
 1355TIP3   OH2 4070   0.726   1.517   3.082
 1355TIP3    H1 4071   0.656   1.455   3.104
 1355TIP3    H2 4072   0.752   1.554   3.166
 1356TIP3   OH2 4073   5.913   3.210   3.049
 1356TIP3    H1 4074   5.993   3.260   3.031
 1356TIP3    H2 4075   5.888   3.174   2.964
 1357TIP3   OH2 4076   0.761   1.956   0.887
 1357TIP3    H1 4077   0.762   2.049   0.863
 1357TIP3    H2 4078   0.771   1.956   0.982
 1358TIP3   OH2 4079   0.854   2.692   4.482
 1358TIP3    H1 4080   0.894   2.637   4.549
 1358TIP3    H2 4081   0.796   2.751   4.531
 1359TIP3   OH2 4082   5.928   2.258   3.287
 1359TIP3    H1 4083   5.861   2.194   3.311
 1359TIP3    H2 4084   5.952   2.299   3.370
 1360TIP3   OH2 4085   6.117   4.925   4.229
 1360TIP3    H1 4086   6.094   5.000   4.175
 1360TIP3    H2 4087   6.038   4.907   4.281
 1361TIP3   OH2 4088   4.372   0.030   2.122
 1361TIP3    H1 4089   4.382   0.084   2.044
 1361TIP3    H2 4090   4.281   0.000   2.118
 1362TIP3   OH2 4091   2.841   2.205   2.986
 1362TIP3    H1 4092   2.782   2.131   2.970
 1362TIP3    H2 4093   2.893   2.212   2.907
 1363TIP3   OH2 4094   0.299   1.342   1.207
 1363TIP3    H1 4095   0.303   1.436   1.191
 1363TIP3    H2 4096   0.267   1.335   1.297
 1364TIP3   OH2 4097   6.118   1.980   1.654
 1364TIP3    H1 4098   6.163   1.926   1.589
 1364TIP3    H2 4099   6.170   2.061   1.658
 1365TIP3   OH2 4100   3.838   5.286   3.338
 1365TIP3    H1 4101   3.884   5.280   3.254
 1365TIP3    H2 4102   3.754   5.326   3.317
 1366TIP3   OH2 4103   0.436   4.253   3.054
 1366TIP3    H1 4104   0.499   4.250   3.127
 1366TIP3    H2 4105   0.423   4.161   3.030
 1367TIP3   OH2 4106   4.503   2.736   0.843
 1367TIP3    H1 4107   4.512   2.727   0.748
 1367TIP3    H2 4108   4.476   2.649   0.873
 1368TIP3   OH2 4109   3.834   2.573   2.083
 1368TIP3    H1 4110   3.928   2.579   2.099
 1368TIP3    H2 4111   3.810   2.659   2.049
 1369TIP3   OH2 4112   2.457   1.850   2.468
 1369TIP3    H1 4113   2.542   1.851   2.512
 1369TIP3    H2 4114   2.397   1.889   2.532
 1370TIP3   OH2 4115   5.229   2.931   3.748
 1370TIP3    H1 4116   5.216   2.869   3.676
 1370TIP3    H2 4117   5.141   2.960   3.771
 1371TIP3   OH2 4118   5.905   4.922   4.403
 1371TIP3    H1 4119   5.872   4.968   4.480
 1371TIP3    H2 4120   5.862   4.837   4.405
 1372TIP3   OH2 4121   5.924   1.049   2.361
 1372TIP3    H1 4122   5.994   1.106   2.393
 1372TIP3    H2 4123   5.851   1.108   2.344
 1373TIP3   OH2 4124   3.136   4.270   1.566
 1373TIP3    H1 4125   3.160   4.220   1.644
 1373TIP3    H2 4126   3.210   4.260   1.507
 1374TIP3   OH2 4127   4.067   2.291   3.493
 1374TIP3    H1 4128   4.074   2.319   3.584
 1374TIP3    H2 4129   4.074   2.372   3.442
 1375TIP3   OH2 4130   2.277   5.569   4.457
 1375TIP3    H1 4131   2.299   5.598   4.546
 1375TIP3    H2 4132   2.268   5.649   4.406
 1376TIP3   OH2 4133   5.266   4.641   1.903
 1376TIP3    H1 4134   5.216   4.567   1.868
 1376TIP3    H2 4135   5.357   4.611   1.903
 1377TIP3   OH2 4136   3.902   3.332   3.804
 1377TIP3    H1 4137   3.828   3.302   3.856
 1377TIP3    H2 4138   3.960   3.375   3.867
 1378TIP3   OH2 4139   2.079   5.044   4.503
 1378TIP3    H1 4140   2.020   5.054   4.577
 1378TIP3    H2 4141   2.139   5.119   4.510
 1379TIP3   OH2 4142   0.437   2.011   3.938
 1379TIP3    H1 4143   0.421   1.960   4.018
 1379TIP3    H2 4144   0.523   1.983   3.908
 1380TIP3   OH2 4145   1.979   3.387   1.073
 1380TIP3    H1 4146   1.931   3.407   1.154
 1380TIP3    H2 4147   2.038   3.462   1.061
 1381TIP3   OH2 4148   1.459   5.806   0.742
 1381TIP3    H1 4149   1.396   5.877   0.734
 1381TIP3    H2 4150   1.489   5.810   0.833
 1382TIP3   OH2 4151   2.533   2.344   2.999
 1382TIP3    H1 4152   2.457   2.330   2.942
 1382TIP3    H2 4153   2.597   2.387   2.942
 1383TIP3   OH2 4154   3.888   1.068   5.147
 1383TIP3    H1 4155   3.968   1.041   5.101
 1383TIP3    H2 4156   3.817   1.039   5.091
 1384TIP3   OH2 4157   3.280   5.544   3.703
 1384TIP3    H1 4158   3.304   5.613   3.765
 1384TIP3    H2 4159   3.344   5.474   3.720
 1385TIP3   OH2 4160   6.267   3.874   1.674
 1385TIP3    H1 4161   6.339   3.832   1.628
 1385TIP3    H2 4162   6.308   3.928   1.741
 1386TIP3   OH2 4163   5.897   5.528   1.097
 1386TIP3    H1 4164   5.874   5.463   1.030
 1386TIP3    H2 4165   5.957   5.588   1.052
 1387TIP3   OH2 4166   0.747   3.932   2.168
 1387TIP3    H1 4167   0.768   3.885   2.087
 1387TIP3    H2 4168   0.681   3.877   2.210
 1388TIP3   OH2 4169   3.320   0.355   0.096
 1388TIP3    H1 4170   3.245   0.323   0.046
 1388TIP3    H2 4171   3.309   0.450   0.098
 1389TIP3   OH2 4172   1.775   5.132   5.013
 1389TIP3    H1 4173   1.868   5.127   5.036
 1389TIP3    H2 4174   1.769   5.207   4.954
 1390TIP3   OH2 4175   1.068   3.533   4.334
 1390TIP3    H1 4176   1.025   3.448   4.344
 1390TIP3    H2 4177   1.003   3.596   4.363
 1391TIP3   OH2 4178   2.179   1.594   2.941
 1391TIP3    H1 4179   2.241   1.608   3.013
 1391TIP3    H2 4180   2.134   1.513   2.965
 1392TIP3   OH2 4181   0.590   0.356   4.441
 1392TIP3    H1 4182   0.660   0.292   4.447
 1392TIP3    H2 4183   0.579   0.389   4.530
 1393TIP3   OH2 4184   0.748   3.897   0.524
 1393TIP3    H1 4185   0.753   3.820   0.581
 1393TIP3    H2 4186   0.661   3.935   0.542
 1394TIP3   OH2 4187   2.396   4.065   2.285
 1394TIP3    H1 4188   2.459   4.100   2.348
 1394TIP3    H2 4189   2.446   4.002   2.233
 1395TIP3   OH2 4190   3.693   3.136   3.277
 1395TIP3    H1 4191   3.663   3.221   3.310
 1395TIP3    H2 4192   3.632   3.072   3.314
 1396TIP3   OH2 4193   0.513   4.733   1.567
 1396TIP3    H1 4194   0.531   4.794   1.638
 1396TIP3    H2 4195   0.419   4.714   1.575
 1397TIP3   OH2 4196   1.352   4.997   4.158
 1397TIP3    H1 4197   1.290   5.068   4.175
 1397TIP3    H2 4198   1.434   5.042   4.137
 1398TIP3   OH2 4199   1.018   1.809   0.143
 1398TIP3    H1 4200   1.079   1.761   0.199
 1398TIP3    H2 4201   1.067   1.885   0.113
 1399TIP3   OH2 4202   4.642   1.177   1.372
 1399TIP3    H1 4203   4.593   1.096   1.356
 1399TIP3    H2 4204   4.732   1.148   1.382
 1400TIP3   OH2 4205   5.973   2.033   4.238
 1400TIP3    H1 4206   6.060   2.031   4.278
 1400TIP3    H2 4207   5.984   2.087   4.159
 1401TIP3   OH2 4208   0.782   5.097   1.931
 1401TIP3    H1 4209   0.796   5.068   2.021
 1401TIP3    H2 4210   0.796   5.192   1.934
 1402TIP3   OH2 4211   4.658   3.128   1.861
 1402TIP3    H1 4212   4.700   3.203   1.819
 1402TIP3    H2 4213   4.712   3.110   1.937
 1403TIP3   OH2 4214   4.182   0.449   2.737
 1403TIP3    H1 4215   4.227   0.508   2.676
 1403TIP3    H2 4216   4.238   0.446   2.814
 1404TIP3   OH2 4217   5.778   2.957   2.634
 1404TIP3    H1 4218   5.747   2.883   2.687
 1404TIP3    H2 4219   5.860   2.983   2.675
 1405TIP3   OH2 4220   4.203   5.705   5.014
 1405TIP3    H1 4221   4.191   5.799   5.029
 1405TIP3    H2 4222   4.290   5.697   4.976
 1406TIP3   OH2 4223   0.657   3.088   1.675
 1406TIP3    H1 4224   0.661   3.176   1.639
 1406TIP3    H2 4225   0.719   3.037   1.622
 1407TIP3   OH2 4226   5.042   1.277   1.925
 1407TIP3    H1 4227   4.972   1.282   1.860
 1407TIP3    H2 4228   5.036   1.359   1.973
 1408TIP3   OH2 4229   1.047   2.918   0.116
 1408TIP3    H1 4230   1.069   2.852   0.182
 1408TIP3    H2 4231   1.128   2.969   0.106
 1409TIP3   OH2 4232   1.824   3.425   2.867
 1409TIP3    H1 4233   1.766   3.422   2.942
 1409TIP3    H2 4234   1.874   3.506   2.877
 1410TIP3   OH2 4235   0.738   4.345   0.464
 1410TIP3    H1 4236   0.798   4.383   0.400
 1410TIP3    H2 4237   0.758   4.252   0.464
 1411TIP3   OH2 4238   2.576   1.379   0.845
 1411TIP3    H1 4239   2.486   1.356   0.818
 1411TIP3    H2 4240   2.567   1.408   0.935
 1412TIP3   OH2 4241   1.510   1.330   1.361
 1412TIP3    H1 4242   1.551   1.416   1.357
 1412TIP3    H2 4243   1.471   1.326   1.448
 1413TIP3   OH2 4244   5.829   5.695   2.962
 1413TIP3    H1 4245   5.832   5.776   2.910
 1413TIP3    H2 4246   5.749   5.652   2.934
 1414TIP3   OH2 4247   3.729   2.388   0.552
 1414TIP3    H1 4248   3.675   2.334   0.609
 1414TIP3    H2 4249   3.783   2.440   0.611
 1415TIP3   OH2 4250   2.467   5.884   2.560
 1415TIP3    H1 4251   2.499   5.812   2.614
 1415TIP3    H2 4252   2.408   5.842   2.497
 1416TIP3   OH2 4253   0.839   1.630   3.618
 1416TIP3    H1 4254   0.901   1.642   3.690
 1416TIP3    H2 4255   0.834   1.535   3.607
 1417TIP3   OH2 4256   3.119   3.853   5.113
 1417TIP3    H1 4257   3.077   3.814   5.189
 1417TIP3    H2 4258   3.060   3.924   5.087
 1418TIP3   OH2 4259   6.046   4.550   4.877
 1418TIP3    H1 4260   6.110   4.614   4.846
 1418TIP3    H2 4261   5.980   4.602   4.923
 1419TIP3   OH2 4262   4.974   1.554   2.597
 1419TIP3    H1 4263   4.918   1.499   2.541
 1419TIP3    H2 4264   5.007   1.622   2.539
 1420TIP3   OH2 4265   2.127   3.614   2.815
 1420TIP3    H1 4266   2.184   3.684   2.843
 1420TIP3    H2 4267   2.088   3.580   2.895
 1421TIP3   OH2 4268   0.296   2.768   2.499
 1421TIP3    H1 4269   0.300   2.769   2.403
 1421TIP3    H2 4270   0.357   2.836   2.527
 1422TIP3   OH2 4271   1.929   0.649   3.242
 1422TIP3    H1 4272   1.915   0.626   3.150
 1422TIP3    H2 4273   1.857   0.607   3.288
 1423TIP3   OH2 4274   2.911   4.254   4.902
 1423TIP3    H1 4275   2.903   4.192   4.974
 1423TIP3    H2 4276   3.000   4.241   4.869
 1424TIP3   OH2 4277   6.159   3.340   3.050
 1424TIP3    H1 4278   6.204   3.391   2.983
 1424TIP3    H2 4279   6.204   3.363   3.132
 1425TIP3   OH2 4280   4.796   3.553   0.543
 1425TIP3    H1 4281   4.891   3.556   0.536
 1425TIP3    H2 4282   4.777   3.462   0.568
 1426TIP3   OH2 4283   2.813   1.128   2.238
 1426TIP3    H1 4284   2.855   1.042   2.233
 1426TIP3    H2 4285   2.871   1.185   2.188
 1427TIP3   OH2 4286   5.640   3.362   0.391
 1427TIP3    H1 4287   5.732   3.343   0.370
 1427TIP3    H2 4288   5.639   3.376   0.485
 1428TIP3   OH2 4289   0.260   1.217   4.846
 1428TIP3    H1 4290   0.185   1.208   4.904
 1428TIP3    H2 4291   0.234   1.284   4.783
 1429TIP3   OH2 4292   1.093   2.840   3.491
 1429TIP3    H1 4293   1.088   2.763   3.434
 1429TIP3    H2 4294   1.002   2.856   3.518
 1430TIP3   OH2 4295   1.911   5.937   2.352
 1430TIP3    H1 4296   1.893   5.843   2.360
 1430TIP3    H2 4297   1.937   5.964   2.440
 1431TIP3   OH2 4298   2.516   1.781   0.587
 1431TIP3    H1 4299   2.584   1.800   0.653
 1431TIP3    H2 4300   2.436   1.770   0.638
 1432TIP3   OH2 4301   3.233   0.374   2.355
 1432TIP3    H1 4302   3.142   0.344   2.351
 1432TIP3    H2 4303   3.268   0.357   2.267
 1433TIP3   OH2 4304   1.747   4.351   1.592
 1433TIP3    H1 4305   1.694   4.309   1.660
 1433TIP3    H2 4306   1.778   4.279   1.537
 1434TIP3   OH2 4307   4.415   3.917   4.937
 1434TIP3    H1 4308   4.392   4.001   4.978
 1434TIP3    H2 4309   4.510   3.916   4.938
 1435TIP3   OH2 4310   3.529   2.060   1.318
 1435TIP3    H1 4311   3.616   2.063   1.277
 1435TIP3    H2 4312   3.539   1.999   1.391
 1436TIP3   OH2 4313   3.190   5.922   1.534
 1436TIP3    H1 4314   3.219   5.831   1.538
 1436TIP3    H2 4315   3.214   5.958   1.619
 1437TIP3   OH2 4316   4.162   5.632   0.731
 1437TIP3    H1 4317   4.074   5.657   0.702
 1437TIP3    H2 4318   4.187   5.561   0.673
 1438TIP3   OH2 4319   1.086   5.465   0.807
 1438TIP3    H1 4320   1.016   5.400   0.808
 1438TIP3    H2 4321   1.068   5.521   0.883
 1439TIP3   OH2 4322   2.573   1.496   0.500
 1439TIP3    H1 4323   2.660   1.479   0.462
 1439TIP3    H2 4324   2.570   1.591   0.510
 1440TIP3   OH2 4325   5.421   5.226   1.680
 1440TIP3    H1 4326   5.403   5.286   1.608
 1440TIP3    H2 4327   5.510   5.195   1.664
 1441TIP3   OH2 4328   4.681   5.221   4.805
 1441TIP3    H1 4329   4.673   5.194   4.714
 1441TIP3    H2 4330   4.683   5.139   4.854
 1442TIP3   OH2 4331   5.899   0.435   3.843
 1442TIP3    H1 4332   5.904   0.349   3.802
 1442TIP3    H2 4333   5.815   0.471   3.813
 1443TIP3   OH2 4334   1.836   4.558   0.176
 1443TIP3    H1 4335   1.808   4.609   0.100
 1443TIP3    H2 4336   1.914   4.604   0.209
 1444TIP3   OH2 4337   3.412   4.459   0.956
 1444TIP3    H1 4338   3.473   4.477   0.884
 1444TIP3    H2 4339   3.339   4.412   0.915
 1445TIP3   OH2 4340   1.556   3.335   2.004
 1445TIP3    H1 4341   1.565   3.330   2.099
 1445TIP3    H2 4342   1.461   3.338   1.990
 1446TIP3   OH2 4343   4.428   0.384   3.343
 1446TIP3    H1 4344   4.343   0.427   3.330
 1446TIP3    H2 4345   4.459   0.366   3.254
 1447TIP3   OH2 4346   1.770   3.814   0.075
 1447TIP3    H1 4347   1.790   3.721   0.060
 1447TIP3    H2 4348   1.731   3.844  -0.007
 1448TIP3   OH2 4349   4.576   4.746   3.668
 1448TIP3    H1 4350   4.499   4.695   3.640
 1448TIP3    H2 4351   4.644   4.681   3.682
 1449TIP3   OH2 4352   2.008   3.935   4.195
 1449TIP3    H1 4353   2.004   3.897   4.283
 1449TIP3    H2 4354   1.980   3.864   4.137
 1450TIP3   OH2 4355   4.184   5.938   2.576
 1450TIP3    H1 4356   4.265   5.896   2.546
 1450TIP3    H2 4357   4.114   5.879   2.547
 1451TIP3   OH2 4358   6.015   0.194   2.233
 1451TIP3    H1 4359   6.096   0.166   2.191
 1451TIP3    H2 4360   6.033   0.184   2.327
 1452TIP3   OH2 4361   3.038   1.315   4.205
 1452TIP3    H1 4362   3.081   1.302   4.290
 1452TIP3    H2 4363   3.059   1.405   4.181
 1453TIP3   OH2 4364   3.771   1.121   2.830
 1453TIP3    H1 4365   3.689   1.147   2.873
 1453TIP3    H2 4366   3.838   1.135   2.898
 1454TIP3   OH2 4367   2.169   2.075   2.070
 1454TIP3    H1 4368   2.187   2.163   2.101
 1454TIP3    H2 4369   2.075   2.063   2.084
 1455TIP3   OH2 4370   2.133   3.100   2.673
 1455TIP3    H1 4371   2.081   3.159   2.727
 1455TIP3    H2 4372   2.155   3.152   2.595
 1456TIP3   OH2 4373   4.011   5.630   1.312
 1456TIP3    H1 4374   3.996   5.707   1.368
 1456TIP3    H2 4375   4.039   5.667   1.228
 1457TIP3   OH2 4376   6.116   3.533   4.902
 1457TIP3    H1 4377   6.193   3.562   4.853
 1457TIP3    H2 4378   6.135   3.442   4.924
 1458TIP3   OH2 4379   5.468   1.287   0.213
 1458TIP3    H1 4380   5.504   1.374   0.229
 1458TIP3    H2 4381   5.540   1.239   0.171
 1459TIP3   OH2 4382   1.442   2.385   2.585
 1459TIP3    H1 4383   1.505   2.432   2.640
 1459TIP3    H2 4384   1.484   2.301   2.568
 1460TIP3   OH2 4385   5.292   5.061   4.794
 1460TIP3    H1 4386   5.220   5.117   4.765
 1460TIP3    H2 4387   5.256   4.972   4.792
 1461TIP3   OH2 4388   5.210   2.403   4.799
 1461TIP3    H1 4389   5.172   2.444   4.877
 1461TIP3    H2 4390   5.207   2.309   4.817
 1462TIP3   OH2 4391   2.061   4.451   1.276
 1462TIP3    H1 4392   2.041   4.377   1.333
 1462TIP3    H2 4393   2.114   4.413   1.206
 1463TIP3   OH2 4394   4.766   3.566   1.244
 1463TIP3    H1 4395   4.747   3.581   1.337
 1463TIP3    H2 4396   4.849   3.519   1.244
 1464TIP3   OH2 4397   4.817   4.699   2.886
 1464TIP3    H1 4398   4.838   4.605   2.891
 1464TIP3    H2 4399   4.858   4.728   2.805
 1465TIP3   OH2 4400   4.601   5.022   3.555
 1465TIP3    H1 4401   4.515   5.028   3.513
 1465TIP3    H2 4402   4.596   4.944   3.609
 1466TIP3   OH2 4403   0.098   5.425   0.895
 1466TIP3    H1 4404   0.042   5.502   0.892
 1466TIP3    H2 4405   0.144   5.425   0.811
 1467TIP3   OH2 4406   5.239   0.983   3.270
 1467TIP3    H1 4407   5.263   0.922   3.340
 1467TIP3    H2 4408   5.152   1.014   3.294
 1468TIP3   OH2 4409   1.553   3.194   2.806
 1468TIP3    H1 4410   1.584   3.250   2.877
 1468TIP3    H2 4411   1.497   3.129   2.849
 1469TIP3   OH2 4412   4.564   2.385   3.825
 1469TIP3    H1 4413   4.473   2.359   3.811
 1469TIP3    H2 4414   4.600   2.394   3.737
 1470TIP3   OH2 4415   5.779   2.585   3.814
 1470TIP3    H1 4416   5.849   2.520   3.817
 1470TIP3    H2 4417   5.722   2.562   3.888
 1471TIP3   OH2 4418   3.271   5.172   4.318
 1471TIP3    H1 4419   3.339   5.239   4.325
 1471TIP3    H2 4420   3.189   5.219   4.327
 1472TIP3   OH2 4421   3.823   3.949   1.978
 1472TIP3    H1 4422   3.849   4.034   1.944
 1472TIP3    H2 4423   3.903   3.912   2.015
 1473TIP3   OH2 4424   5.056   1.411   1.354
 1473TIP3    H1 4425   5.135   1.365   1.381
 1473TIP3    H2 4426   5.024   1.453   1.433
 1474TIP3   OH2 4427   0.189   1.604   1.761
 1474TIP3    H1 4428   0.254   1.643   1.820
 1474TIP3    H2 4429   0.164   1.522   1.804
 1475TIP3   OH2 4430   5.229   0.107   3.659
 1475TIP3    H1 4431   5.163   0.144   3.600
 1475TIP3    H2 4432   5.187   0.031   3.698
 1476TIP3   OH2 4433   3.274   3.494   0.977
 1476TIP3    H1 4434   3.299   3.525   0.890
 1476TIP3    H2 4435   3.255   3.574   1.026
 1477TIP3   OH2 4436   4.705   5.881   4.911
 1477TIP3    H1 4437   4.717   5.924   4.827
 1477TIP3    H2 4438   4.682   5.951   4.972
 1478TIP3   OH2 4439   2.284   2.958   3.108
 1478TIP3    H1 4440   2.189   2.959   3.094
 1478TIP3    H2 4441   2.298   3.012   3.185
 1479TIP3   OH2 4442   1.125   5.269   5.050
 1479TIP3    H1 4443   1.151   5.226   5.132
 1479TIP3    H2 4444   1.199   5.325   5.027
 1480TIP3   OH2 4445   3.855   5.151   0.301
 1480TIP3    H1 4446   3.813   5.223   0.347
 1480TIP3    H2 4447   3.901   5.192   0.228
 1481TIP3   OH2 4448   3.235   5.566   5.036
 1481TIP3    H1 4449   3.202   5.481   5.005
 1481TIP3    H2 4450   3.245   5.618   4.957
 1482TIP3   OH2 4451   2.297   3.697   2.542
 1482TIP3    H1 4452   2.206   3.723   2.558
 1482TIP3    H2 4453   2.304   3.610   2.582
 1483TIP3   OH2 4454   2.454   2.542   5.076
 1483TIP3    H1 4455   2.543   2.572   5.057
 1483TIP3    H2 4456   2.399   2.590   5.014
 1484TIP3   OH2 4457   2.811   1.031   4.449
 1484TIP3    H1 4458   2.901   1.032   4.417
 1484TIP3    H2 4459   2.779   0.943   4.429
 1485TIP3   OH2 4460   0.250   1.753   0.306
 1485TIP3    H1 4461   0.342   1.762   0.330
 1485TIP3    H2 4462   0.211   1.705   0.379
 1486TIP3   OH2 4463   3.485   3.288   4.811
 1486TIP3    H1 4464   3.391   3.284   4.830
 1486TIP3    H2 4465   3.506   3.382   4.815
 1487TIP3   OH2 4466   5.896   4.344   4.136
 1487TIP3    H1 4467   5.935   4.404   4.199
 1487TIP3    H2 4468   5.801   4.359   4.145
 1488TIP3   OH2 4469   1.543   1.626   3.833
 1488TIP3    H1 4470   1.573   1.663   3.750
 1488TIP3    H2 4471   1.550   1.531   3.820
 1489TIP3   OH2 4472   3.669   2.388   2.964
 1489TIP3    H1 4473   3.694   2.475   2.995
 1489TIP3    H2 4474   3.586   2.370   3.009
 1490TIP3   OH2 4475   3.425   4.377   2.087
 1490TIP3    H1 4476   3.473   4.294   2.082
 1490TIP3    H2 4477   3.446   4.423   2.006
 1491TIP3   OH2 4478   5.555   3.777   4.356
 1491TIP3    H1 4479   5.461   3.787   4.370
 1491TIP3    H2 4480   5.580   3.705   4.413
 1492TIP3   OH2 4481   3.050   2.909   0.473
 1492TIP3    H1 4482   3.024   2.850   0.543
 1492TIP3    H2 4483   3.005   2.991   0.493
 1493TIP3   OH2 4484   3.657   5.337   2.598
 1493TIP3    H1 4485   3.602   5.403   2.639
 1493TIP3    H2 4486   3.624   5.254   2.633
 1494TIP3   OH2 4487   3.330   5.959   2.585
 1494TIP3    H1 4488   3.243   5.934   2.555
 1494TIP3    H2 4489   3.326   6.054   2.592
 1495TIP3   OH2 4490   4.504   5.642   1.313
 1495TIP3    H1 4491   4.473   5.725   1.350
 1495TIP3    H2 4492   4.485   5.649   1.220
 1496TIP3   OH2 4493   4.900   2.918   0.452
 1496TIP3    H1 4494   4.914   3.010   0.474
 1496TIP3    H2 4495   4.806   2.904   0.465
 1497TIP3   OH2 4496   2.220   1.322   0.255
 1497TIP3    H1 4497   2.262   1.321   0.169
 1497TIP3    H2 4498   2.284   1.281   0.313
 1498TIP3   OH2 4499   1.505   2.233   4.510
 1498TIP3    H1 4500   1.421   2.271   4.535
 1498TIP3    H2 4501   1.492   2.203   4.421
 1499TIP3   OH2 4502   6.353   5.722   1.655
 1499TIP3    H1 4503   6.269   5.694   1.618
 1499TIP3    H2 4504   6.419   5.686   1.596
 1500TIP3   OH2 4505   5.261   3.838   1.917
 1500TIP3    H1 4506   5.267   3.843   2.013
 1500TIP3    H2 4507   5.339   3.883   1.885
 1501TIP3   OH2 4508   6.273   1.552   2.041
 1501TIP3    H1 4509   6.181   1.530   2.052
 1501TIP3    H2 4510   6.296   1.514   1.956
 1502TIP3   OH2 4511   5.260   5.704   1.860
 1502TIP3    H1 4512   5.268   5.772   1.794
 1502TIP3    H2 4513   5.253   5.622   1.810
 1503TIP3   OH2 4514   2.044   3.254   4.183
 1503TIP3    H1 4515   2.014   3.238   4.094
 1503TIP3    H2 4516   1.965   3.249   4.236
 1504TIP3   OH2 4517   1.220   1.057   1.963
 1504TIP3    H1 4518   1.247   0.983   1.910
 1504TIP3    H2 4519   1.204   1.021   2.050
 1505TIP3   OH2 4520   0.843   3.605   0.173
 1505TIP3    H1 4521   0.784   3.602   0.248
 1505TIP3    H2 4522   0.919   3.654   0.205
 1506TIP3   OH2 4523   4.202   2.876   3.732
 1506TIP3    H1 4524   4.165   2.957   3.766
 1506TIP3    H2 4525   4.128   2.830   3.691
 1507TIP3   OH2 4526   0.504   4.733   4.180
 1507TIP3    H1 4527   0.425   4.786   4.173
 1507TIP3    H2 4528   0.554   4.774   4.251
 1508TIP3   OH2 4529   1.944   3.797   2.707
 1508TIP3    H1 4530   1.909   3.821   2.792
 1508TIP3    H2 4531   1.997   3.719   2.723
 1509TIP3   OH2 4532   6.228   5.578   2.781
 1509TIP3    H1 4533   6.210   5.591   2.875
 1509TIP3    H2 4534   6.141   5.572   2.741
 1510TIP3   OH2 4535   5.864   4.106   1.106
 1510TIP3    H1 4536   5.801   4.068   1.167
 1510TIP3    H2 4537   5.895   4.186   1.149
 1511TIP3   OH2 4538   5.369   5.519   0.751
 1511TIP3    H1 4539   5.350   5.444   0.808
 1511TIP3    H2 4540   5.428   5.574   0.802
 1512TIP3   OH2 4541   1.306   3.826   0.800
 1512TIP3    H1 4542   1.324   3.863   0.714
 1512TIP3    H2 4543   1.393   3.817   0.840
 1513TIP3   OH2 4544   1.833   0.477   2.699
 1513TIP3    H1 4545   1.848   0.394   2.655
 1513TIP3    H2 4546   1.750   0.466   2.746
 1514TIP3   OH2 4547   4.771   1.884   4.659
 1514TIP3    H1 4548   4.680   1.912   4.649
 1514TIP3    H2 4549   4.793   1.906   4.750
 1515TIP3   OH2 4550   5.923   3.896   1.734
 1515TIP3    H1 4551   5.923   3.982   1.693
 1515TIP3    H2 4552   6.016   3.877   1.749
 1516TIP3   OH2 4553   5.097   5.887   4.039
 1516TIP3    H1 4554   5.020   5.865   3.986
 1516TIP3    H2 4555   5.078   5.852   4.126
 1517TIP3   OH2 4556   4.885   3.437   0.288
 1517TIP3    H1 4557   4.925   3.496   0.224
 1517TIP3    H2 4558   4.900   3.480   0.372
 1518TIP3   OH2 4559   1.944   4.767   3.548
 1518TIP3    H1 4560   2.028   4.726   3.528
 1518TIP3    H2 4561   1.954   4.858   3.521
 1519TIP3   OH2 4562   2.109   4.867   3.921
 1519TIP3    H1 4563   2.192   4.913   3.911
 1519TIP3    H2 4564   2.114   4.826   4.007
 1520TIP3   OH2 4565   2.175   3.164   0.053
 1520TIP3    H1 4566   2.197   3.181   0.144
 1520TIP3    H2 4567   2.239   3.214   0.003
 1521TIP3   OH2 4568   2.904   1.212   3.331
 1521TIP3    H1 4569   2.869   1.186   3.246
 1521TIP3    H2 4570   2.980   1.267   3.310
 1522TIP3   OH2 4571   1.879   4.658   1.236
 1522TIP3    H1 4572   1.948   4.591   1.240
 1522TIP3    H2 4573   1.806   4.620   1.285
 1523TIP3   OH2 4574   0.354   3.147   2.725
 1523TIP3    H1 4575   0.292   3.076   2.741
 1523TIP3    H2 4576   0.421   3.137   2.792
 1524TIP3   OH2 4577   4.475   1.315   1.030
 1524TIP3    H1 4578   4.554   1.335   0.978
 1524TIP3    H2 4579   4.498   1.235   1.077
 1525TIP3   OH2 4580   5.419   1.802   4.944
 1525TIP3    H1 4581   5.375   1.759   4.871
 1525TIP3    H2 4582   5.486   1.857   4.903
 1526TIP3   OH2 4583   0.846   2.797   2.556
 1526TIP3    H1 4584   0.853   2.742   2.478
 1526TIP3    H2 4585   0.806   2.878   2.525
 1527TIP3   OH2 4586   4.736   5.619   4.977
 1527TIP3    H1 4587   4.812   5.600   4.922
 1527TIP3    H2 4588   4.708   5.706   4.949
 1528TIP3   OH2 4589   5.176   1.413   4.710
 1528TIP3    H1 4590   5.209   1.406   4.800
 1528TIP3    H2 4591   5.083   1.434   4.719
 1529TIP3   OH2 4592   1.651   0.905   3.762
 1529TIP3    H1 4593   1.611   0.864   3.686
 1529TIP3    H2 4594   1.714   0.841   3.794
 1530TIP3   OH2 4595   3.684   4.338   3.291
 1530TIP3    H1 4596   3.751   4.373   3.233
 1530TIP3    H2 4597   3.684   4.244   3.273
 1531TIP3   OH2 4598   5.000   2.971   4.223
 1531TIP3    H1 4599   5.030   2.893   4.270
 1531TIP3    H2 4600   4.943   2.936   4.154
 1532TIP3   OH2 4601   2.007   3.176   1.901
 1532TIP3    H1 4602   2.058   3.178   1.819
 1532TIP3    H2 4603   1.918   3.197   1.874
 1533TIP3   OH2 4604   2.440   4.717   2.921
 1533TIP3    H1 4605   2.451   4.706   3.016
 1533TIP3    H2 4606   2.523   4.752   2.891
 1534TIP3   OH2 4607   0.709   0.951   4.344
 1534TIP3    H1 4608   0.758   0.879   4.303
 1534TIP3    H2 4609   0.689   1.011   4.272
 1535TIP3   OH2 4610   1.055   0.102   2.636
 1535TIP3    H1 4611   1.006   0.156   2.575
 1535TIP3    H2 4612   1.122   0.160   2.672
 1536TIP3   OH2 4613   2.657   4.008   0.178
 1536TIP3    H1 4614   2.565   4.031   0.187
 1536TIP3    H2 4615   2.656   3.926   0.128
 1537TIP3   OH2 4616   6.051   5.578   3.874
 1537TIP3    H1 4617   5.963   5.542   3.861
 1537TIP3    H2 4618   6.109   5.503   3.872
 1538TIP3   OH2 4619   5.365   1.070   4.471
 1538TIP3    H1 4620   5.282   1.061   4.425
 1538TIP3    H2 4621   5.406   1.148   4.433
 1539TIP3   OH2 4622   5.800   2.461   0.082
 1539TIP3    H1 4623   5.803   2.457   0.178
 1539TIP3    H2 4624   5.745   2.537   0.063
 1540TIP3   OH2 4625   4.718   0.191   1.158
 1540TIP3    H1 4626   4.641   0.244   1.137
 1540TIP3    H2 4627   4.766   0.183   1.076
 1541TIP3   OH2 4628   2.812   3.321   4.421
 1541TIP3    H1 4629   2.816   3.404   4.468
 1541TIP3    H2 4630   2.752   3.267   4.473
 1542TIP3   OH2 4631   6.207   4.886   1.339
 1542TIP3    H1 4632   6.268   4.884   1.266
 1542TIP3    H2 4633   6.249   4.942   1.404
 1543TIP3   OH2 4634   6.200   4.035   2.557
 1543TIP3    H1 4635   6.201   3.967   2.625
 1543TIP3    H2 4636   6.153   4.108   2.596
 1544TIP3   OH2 4637   4.762   0.783   4.908
 1544TIP3    H1 4638   4.763   0.748   4.997
 1544TIP3    H2 4639   4.670   0.809   4.893
 1545TIP3   OH2 4640   2.605   3.861   2.834
 1545TIP3    H1 4641   2.674   3.798   2.816
 1545TIP3    H2 4642   2.646   3.946   2.816
 1546TIP3   OH2 4643   4.319   1.487   4.245
 1546TIP3    H1 4644   4.340   1.523   4.159
 1546TIP3    H2 4645   4.404   1.467   4.284
 1547TIP3   OH2 4646   0.240   1.069   3.081
 1547TIP3    H1 4647   0.181   1.079   3.156
 1547TIP3    H2 4648   0.288   0.988   3.100
 1548TIP3   OH2 4649   2.918   4.638   2.191
 1548TIP3    H1 4650   2.970   4.677   2.120
 1548TIP3    H2 4651   2.907   4.710   2.254
 1549TIP3   OH2 4652   0.441   1.990   1.088
 1549TIP3    H1 4653   0.448   2.046   1.011
 1549TIP3    H2 4654   0.356   1.947   1.079
 1550TIP3   OH2 4655   6.252   5.638   4.697
 1550TIP3    H1 4656   6.203   5.716   4.675
 1550TIP3    H2 4657   6.293   5.658   4.782
 1551TIP3   OH2 4658   2.642   2.498   0.405
 1551TIP3    H1 4659   2.728   2.475   0.372
 1551TIP3    H2 4660   2.651   2.495   0.500
 1552TIP3   OH2 4661   2.704   3.737   2.456
 1552TIP3    H1 4662   2.626   3.779   2.492
 1552TIP3    H2 4663   2.689   3.643   2.469
 1553TIP3   OH2 4664   3.584   5.044   4.818
 1553TIP3    H1 4665   3.638   5.086   4.884
 1553TIP3    H2 4666   3.494   5.067   4.842
 1554TIP3   OH2 4667   3.459   3.319   1.100
 1554TIP3    H1 4668   3.414   3.359   1.025
 1554TIP3    H2 4669   3.439   3.377   1.173
 1555TIP3   OH2 4670   2.366   1.940   3.969
 1555TIP3    H1 4671   2.434   1.882   3.934
 1555TIP3    H2 4672   2.297   1.881   3.999
 1556TIP3   OH2 4673   0.246   0.634   0.812
 1556TIP3    H1 4674   0.248   0.539   0.813
 1556TIP3    H2 4675   0.235   0.659   0.904
 1557TIP3   OH2 4676   4.082   1.579   2.225
 1557TIP3    H1 4677   4.138   1.634   2.171
 1557TIP3    H2 4678   4.006   1.634   2.243
 1558TIP3   OH2 4679   1.353   3.611   0.608
 1558TIP3    H1 4680   1.406   3.651   0.539
 1558TIP3    H2 4681   1.306   3.685   0.647
 1559TIP3   OH2 4682   0.471   5.241   1.855
 1559TIP3    H1 4683   0.559   5.278   1.849
 1559TIP3    H2 4684   0.484   5.149   1.877
 1560TIP3   OH2 4685   5.163   2.247   2.240
 1560TIP3    H1 4686   5.254   2.232   2.263
 1560TIP3    H2 4687   5.166   2.301   2.161
 1561TIP3   OH2 4688   5.182   4.843   1.027
 1561TIP3    H1 4689   5.267   4.802   1.014
 1561TIP3    H2 4690   5.200   4.919   1.083
 1562TIP3   OH2 4691   4.025   3.425   0.126
 1562TIP3    H1 4692   3.938   3.459   0.147
 1562TIP3    H2 4693   4.065   3.493   0.073
 1563TIP3   OH2 4694   2.465   0.743   0.098
 1563TIP3    H1 4695   2.412   0.719   0.022
 1563TIP3    H2 4696   2.411   0.718   0.174
 1564TIP3   OH2 4697   4.257   5.634   3.815
 1564TIP3    H1 4698   4.351   5.648   3.821
 1564TIP3    H2 4699   4.247   5.558   3.758
 1565TIP3   OH2 4700   3.887   3.777   4.579
 1565TIP3    H1 4701   3.906   3.736   4.495
 1565TIP3    H2 4702   3.896   3.871   4.562
 1566TIP3   OH2 4703   1.962   2.288   4.434
 1566TIP3    H1 4704   2.047   2.265   4.474
 1566TIP3    H2 4705   1.951   2.381   4.454
 1567TIP3   OH2 4706   2.143   3.340   2.528
 1567TIP3    H1 4707   2.082   3.406   2.496
 1567TIP3    H2 4708   2.223   3.356   2.478
 1568TIP3   OH2 4709   2.113   1.449   5.093
 1568TIP3    H1 4710   2.019   1.430   5.087
 1568TIP3    H2 4711   2.120   1.512   5.165
 1569TIP3   OH2 4712   0.057   1.064   4.569
 1569TIP3    H1 4713   0.097   0.986   4.529
 1569TIP3    H2 4714   0.053   1.044   4.662
 1570TIP3   OH2 4715   4.120   4.449   0.842
 1570TIP3    H1 4716   4.157   4.472   0.927
 1570TIP3    H2 4717   4.106   4.533   0.798
 1571TIP3   OH2 4718   3.681   5.408   4.786
 1571TIP3    H1 4719   3.770   5.400   4.821
 1571TIP3    H2 4720   3.625   5.392   4.861
 1572TIP3   OH2 4721   3.661   3.880   2.814
 1572TIP3    H1 4722   3.637   3.894   2.722
 1572TIP3    H2 4723   3.606   3.807   2.842
 1573TIP3   OH2 4724   6.255  -0.002   3.106
 1573TIP3    H1 4725   6.274  -0.050   3.026
 1573TIP3    H2 4726   6.324   0.064   3.111
 1574TIP3   OH2 4727   1.865   1.852   3.840
 1574TIP3    H1 4728   1.894   1.897   3.919
 1574TIP3    H2 4729   1.841   1.764   3.870
 1575TIP3   OH2 4730   5.274   3.002   1.834
 1575TIP3    H1 4731   5.290   3.045   1.750
 1575TIP3    H2 4732   5.307   3.064   1.899
 1576TIP3   OH2 4733   3.798   4.798   1.324
 1576TIP3    H1 4734   3.766   4.859   1.258
 1576TIP3    H2 4735   3.721   4.749   1.351
 1577TIP3   OH2 4736   1.962   5.105   3.588
 1577TIP3    H1 4737   1.986   5.084   3.678
 1577TIP3    H2 4738   1.878   5.062   3.575
 1578TIP3   OH2 4739   0.467   2.259   3.585
 1578TIP3    H1 4740   0.534   2.197   3.556
 1578TIP3    H2 4741   0.493   2.284   3.674
 1579TIP3   OH2 4742   6.228   0.399   3.548
 1579TIP3    H1 4743   6.150   0.350   3.522
 1579TIP3    H2 4744   6.207   0.433   3.634
 1580TIP3   OH2 4745   1.563   5.280   2.661
 1580TIP3    H1 4746   1.533   5.190   2.647
 1580TIP3    H2 4747   1.528   5.305   2.746
 1581TIP3   OH2 4748  -0.008   2.443   3.543
 1581TIP3    H1 4749  -0.063   2.409   3.614
 1581TIP3    H2 4750  -0.035   2.535   3.534
 1582TIP3   OH2 4751   5.269   5.887   3.609
 1582TIP3    H1 4752   5.345   5.836   3.635
 1582TIP3    H2 4753   5.297   5.933   3.530
 1583TIP3   OH2 4754   5.093   5.696   3.741
 1583TIP3    H1 4755   5.061   5.659   3.659
 1583TIP3    H2 4756   5.147   5.771   3.714
 1584TIP3   OH2 4757   2.751   4.125   2.398
 1584TIP3    H1 4758   2.708   4.202   2.435
 1584TIP3    H2 4759   2.681   4.076   2.355
 1585TIP3   OH2 4760   5.350   2.462   3.475
 1585TIP3    H1 4761   5.435   2.463   3.432
 1585TIP3    H2 4762   5.291   2.501   3.410
 1586TIP3   OH2 4763   5.845   3.887   2.141
 1586TIP3    H1 4764   5.749   3.888   2.139
 1586TIP3    H2 4765   5.868   3.797   2.162
 1587TIP3   OH2 4766   4.773   5.592   0.451
 1587TIP3    H1 4767   4.768   5.648   0.374
 1587TIP3    H2 4768   4.851   5.538   0.437
 1588TIP3   OH2 4769   1.882   1.843   1.852
 1588TIP3    H1 4770   1.811   1.859   1.913
 1588TIP3    H2 4771   1.914   1.756   1.874
 1589TIP3   OH2 4772   0.558   2.784   5.111
 1589TIP3    H1 4773   0.497   2.713   5.134
 1589TIP3    H2 4774   0.551   2.791   5.016
 1590TIP3   OH2 4775   6.344   3.088   2.899
 1590TIP3    H1 4776   6.335   3.159   2.835
 1590TIP3    H2 4777   6.289   3.115   2.972
 1591TIP3   OH2 4778   2.963   2.401   1.217
 1591TIP3    H1 4779   2.877   2.400   1.258
 1591TIP3    H2 4780   3.024   2.401   1.290
 1592TIP3   OH2 4781   3.896   3.564   2.691
 1592TIP3    H1 4782   3.840   3.488   2.710
 1592TIP3    H2 4783   3.948   3.575   2.771
 1593TIP3   OH2 4784   4.471   1.436   2.779
 1593TIP3    H1 4785   4.456   1.457   2.872
 1593TIP3    H2 4786   4.545   1.376   2.780
 1594TIP3   OH2 4787   1.890   2.460   2.775
 1594TIP3    H1 4788   1.965   2.485   2.722
 1594TIP3    H2 4789   1.815   2.474   2.718
 1595TIP3   OH2 4790   1.940   2.727   1.250
 1595TIP3    H1 4791   1.846   2.743   1.258
 1595TIP3    H2 4792   1.948   2.631   1.244
 1596TIP3   OH2 4793   1.819   5.408   2.591
 1596TIP3    H1 4794   1.734   5.386   2.629
 1596TIP3    H2 4795   1.827   5.503   2.604
 1597TIP3   OH2 4796   3.557   1.652   0.694
 1597TIP3    H1 4797   3.490   1.720   0.698
 1597TIP3    H2 4798   3.572   1.638   0.601
 1598TIP3   OH2 4799   3.453   2.438   0.427
 1598TIP3    H1 4800   3.475   2.356   0.383
 1598TIP3    H2 4801   3.530   2.458   0.480
 1599TIP3   OH2 4802   5.244   5.388   0.168
 1599TIP3    H1 4803   5.252   5.408   0.261
 1599TIP3    H2 4804   5.211   5.468   0.128
 1600TIP3   OH2 4805   3.769   3.674   4.816
 1600TIP3    H1 4806   3.807   3.727   4.746
 1600TIP3    H2 4807   3.738   3.595   4.771
 1601TIP3   OH2 4808   4.934   2.937   4.661
 1601TIP3    H1 4809   4.859   2.957   4.605
 1601TIP3    H2 4810   5.010   2.948   4.603
 1602TIP3   OH2 4811   3.440   0.084   0.791
 1602TIP3    H1 4812   3.527   0.113   0.764
 1602TIP3    H2 4813   3.435   0.107   0.884
 1603TIP3   OH2 4814   1.083   1.977   0.381
 1603TIP3    H1 4815   1.134   2.053   0.353
 1603TIP3    H2 4816   1.129   1.902   0.344
 1604TIP3   OH2 4817   2.327   5.316   2.423
 1604TIP3    H1 4818   2.315   5.263   2.344
 1604TIP3    H2 4819   2.377   5.392   2.393
 1605TIP3   OH2 4820   1.069   5.681   2.375
 1605TIP3    H1 4821   1.140   5.638   2.328
 1605TIP3    H2 4822   1.092   5.670   2.467
 1606TIP3   OH2 4823   2.971   5.020   4.338
 1606TIP3    H1 4824   3.053   4.993   4.380
 1606TIP3    H2 4825   2.951   4.950   4.277
 1607TIP3   OH2 4826   3.382   1.987   1.024
 1607TIP3    H1 4827   3.316   2.030   1.078
 1607TIP3    H2 4828   3.375   1.894   1.047
 1608TIP3   OH2 4829   4.378   4.696   0.945
 1608TIP3    H1 4830   4.312   4.727   0.883
 1608TIP3    H2 4831   4.461   4.715   0.901
 1609TIP3   OH2 4832   2.018   4.234   3.832
 1609TIP3    H1 4833   2.042   4.252   3.923
 1609TIP3    H2 4834   2.099   4.203   3.792
 1610TIP3   OH2 4835   5.640   4.790   0.961
 1610TIP3    H1 4836   5.710   4.818   0.902
 1610TIP3    H2 4837   5.579   4.864   0.963
 1611TIP3   OH2 4838   2.843   3.842   4.474
 1611TIP3    H1 4839   2.878   3.898   4.543
 1611TIP3    H2 4840   2.748   3.850   4.483
 1612TIP3   OH2 4841   3.614   3.786   4.280
 1612TIP3    H1 4842   3.587   3.877   4.282
 1612TIP3    H2 4843   3.701   3.787   4.241
 1613TIP3   OH2 4844   0.360   4.339   3.801
 1613TIP3    H1 4845   0.368   4.356   3.895
 1613TIP3    H2 4846   0.451   4.336   3.770
 1614TIP3   OH2 4847   2.672   0.723   1.453
 1614TIP3    H1 4848   2.611   0.789   1.486
 1614TIP3    H2 4849   2.750   0.733   1.507
 1615TIP3   OH2 4850   2.591   4.768   4.716
 1615TIP3    H1 4851   2.684   4.760   4.694
 1615TIP3    H2 4852   2.587   4.762   4.811
 1616TIP3   OH2 4853   2.344   4.191   0.547
 1616TIP3    H1 4854   2.370   4.280   0.568
 1616TIP3    H2 4855   2.261   4.178   0.593
 1617TIP3   OH2 4856   0.384   0.939   4.085
 1617TIP3    H1 4857   0.396   0.871   4.152
 1617TIP3    H2 4858   0.446   1.007   4.110
 1618TIP3   OH2 4859   4.839   2.199   3.391
 1618TIP3    H1 4860   4.887   2.121   3.418
 1618TIP3    H2 4861   4.798   2.175   3.309
 1619TIP3   OH2 4862   4.229   3.913   2.820
 1619TIP3    H1 4863   4.243   3.822   2.793
 1619TIP3    H2 4864   4.136   3.928   2.801
 1620TIP3   OH2 4865   2.308   3.665   4.711
 1620TIP3    H1 4866   2.382   3.656   4.771
 1620TIP3    H2 4867   2.281   3.757   4.720
 1621TIP3   OH2 4868   6.376   4.868   1.110
 1621TIP3    H1 4869   6.457   4.836   1.070
 1621TIP3    H2 4870   6.312   4.869   1.038
 1622TIP3   OH2 4871   5.906   1.257   4.727
 1622TIP3    H1 4872   5.885   1.310   4.650
 1622TIP3    H2 4873   5.821   1.220   4.753
 1623TIP3   OH2 4874   1.351   3.000   3.190
 1623TIP3    H1 4875   1.360   3.011   3.284
 1623TIP3    H2 4876   1.316   2.911   3.180
 1624TIP3   OH2 4877   0.863   1.355   2.203
 1624TIP3    H1 4878   0.784   1.409   2.201
 1624TIP3    H2 4879   0.934   1.417   2.222
 1625TIP3   OH2 4880   1.148   0.938   0.532
 1625TIP3    H1 4881   1.096   1.001   0.483
 1625TIP3    H2 4882   1.086   0.894   0.590
 1626TIP3   OH2 4883   0.338   3.594   3.312
 1626TIP3    H1 4884   0.271   3.660   3.329
 1626TIP3    H2 4885   0.339   3.584   3.217
 1627TIP3   OH2 4886   1.302   2.359   4.325
 1627TIP3    H1 4887   1.224   2.384   4.374
 1627TIP3    H2 4888   1.309   2.423   4.255
 1628TIP3   OH2 4889   0.315   1.799   3.326
 1628TIP3    H1 4890   0.307   1.736   3.254
 1628TIP3    H2 4891   0.231   1.795   3.371
 1629TIP3   OH2 4892   0.458   0.820   4.441
 1629TIP3    H1 4893   0.518   0.774   4.382
 1629TIP3    H2 4894   0.375   0.775   4.430
 1630TIP3   OH2 4895   4.552   1.446   1.396
 1630TIP3    H1 4896   4.599   1.364   1.405
 1630TIP3    H2 4897   4.610   1.501   1.342
 1631TIP3   OH2 4898   1.394  -0.031   2.133
 1631TIP3    H1 4899   1.429   0.018   2.058
 1631TIP3    H2 4900   1.301  -0.039   2.114
 1632TIP3   OH2 4901   0.315   2.049   0.323
 1632TIP3    H1 4902   0.294   1.993   0.247
 1632TIP3    H2 4903   0.232   2.054   0.371
 1633TIP3   OH2 4904   4.615   0.073   0.695
 1633TIP3    H1 4905   4.614   0.042   0.604
 1633TIP3    H2 4906   4.523   0.079   0.720
 1634TIP3   OH2 4907   5.806   0.477   2.351
 1634TIP3    H1 4908   5.790   0.528   2.272
 1634TIP3    H2 4909   5.742   0.406   2.348
 1635TIP3   OH2 4910   0.456   0.773   0.007
 1635TIP3    H1 4911   0.475   0.742   0.096
 1635TIP3    H2 4912   0.522   0.841  -0.009
 1636TIP3   OH2 4913   1.787   1.915   3.058
 1636TIP3    H1 4914   1.828   1.922   3.144
 1636TIP3    H2 4915   1.847   1.861   3.006
 1637TIP3   OH2 4916   3.147   1.986   3.024
 1637TIP3    H1 4917   3.150   1.969   2.930
 1637TIP3    H2 4918   3.238   1.988   3.051
 1638TIP3   OH2 4919   0.472   5.932   0.608
 1638TIP3    H1 4920   0.546   5.949   0.549
 1638TIP3    H2 4921   0.398   5.977   0.567
 1639TIP3   OH2 4922   4.974   5.535   4.052
 1639TIP3    H1 4923   5.069   5.543   4.050
 1639TIP3    H2 4924   4.955   5.496   4.137
 1640TIP3   OH2 4925   5.510   2.566   0.710
 1640TIP3    H1 4926   5.537   2.474   0.709
 1640TIP3    H2 4927   5.530   2.597   0.621
 1641TIP3   OH2 4928   3.663   4.688   2.322
 1641TIP3    H1 4929   3.658   4.623   2.392
 1641TIP3    H2 4930   3.582   4.677   2.273
 1642TIP3   OH2 4931   5.988   4.301   1.256
 1642TIP3    H1 4932   5.913   4.349   1.292
 1642TIP3    H2 4933   6.064   4.337   1.301
 1643TIP3   OH2 4934   2.321   0.609   0.601
 1643TIP3    H1 4935   2.337   0.519   0.627
 1643TIP3    H2 4936   2.251   0.639   0.660
 1644TIP3   OH2 4937   2.318   3.736   3.840
 1644TIP3    H1 4938   2.351   3.823   3.862
 1644TIP3    H2 4939   2.359   3.678   3.904
 1645TIP3   OH2 4940   0.316   3.780   1.416
 1645TIP3    H1 4941   0.264   3.831   1.354
 1645TIP3    H2 4942   0.367   3.845   1.463
 1646TIP3   OH2 4943   5.198   3.076   0.178
 1646TIP3    H1 4944   5.112   3.088   0.139
 1646TIP3    H2 4945   5.183   3.087   0.272
 1647TIP3   OH2 4946   0.478   2.998   2.508
 1647TIP3    H1 4947   0.404   3.012   2.449
 1647TIP3    H2 4948   0.463   3.059   2.580
 1648TIP3   OH2 4949   1.237   5.343   1.863
 1648TIP3    H1 4950   1.305   5.324   1.798
 1648TIP3    H2 4951   1.222   5.259   1.906
 1649TIP3   OH2 4952   0.938   5.615   1.680
 1649TIP3    H1 4953   0.955   5.647   1.591
 1649TIP3    H2 4954   0.962   5.523   1.677
 1650TIP3   OH2 4955   0.842   2.314   0.607
 1650TIP3    H1 4956   0.936   2.316   0.593
 1650TIP3    H2 4957   0.804   2.319   0.519
 1651TIP3   OH2 4958   2.089   2.506   1.063
 1651TIP3    H1 4959   2.172   2.518   1.109
 1651TIP3    H2 4960   2.023   2.521   1.130
 1652TIP3   OH2 4961   3.816   1.774   2.095
 1652TIP3    H1 4962   3.857   1.709   2.037
 1652TIP3    H2 4963   3.876   1.848   2.095
 1653TIP3   OH2 4964   6.208   1.515   1.770
 1653TIP3    H1 4965   6.241   1.605   1.771
 1653TIP3    H2 4966   6.178   1.502   1.681
 1654TIP3   OH2 4967   5.550   4.141   3.082
 1654TIP3    H1 4968   5.558   4.071   3.017
 1654TIP3    H2 4969   5.633   4.189   3.077
 1655TIP3   OH2 4970   5.408   3.337   3.436
 1655TIP3    H1 4971   5.336   3.392   3.406
 1655TIP3    H2 4972   5.486   3.388   3.419
 1656TIP3   OH2 4973   3.476   3.926   3.550
 1656TIP3    H1 4974   3.554   3.950   3.599
 1656TIP3    H2 4975   3.463   3.998   3.488
 1657TIP3   OH2 4976   4.434   2.454   0.843
 1657TIP3    H1 4977   4.508   2.394   0.835
 1657TIP3    H2 4978   4.405   2.468   0.753
 1658TIP3   OH2 4979   5.549   3.770   2.934
 1658TIP3    H1 4980   5.596   3.704   2.984
 1658TIP3    H2 4981   5.562   3.743   2.842
 1659TIP3   OH2 4982   0.446   5.132   0.640
 1659TIP3    H1 4983   0.401   5.062   0.594
 1659TIP3    H2 4984   0.426   5.211   0.589
 1660TIP3   OH2 4985   3.520   2.454   0.783
 1660TIP3    H1 4986   3.512   2.359   0.777
 1660TIP3    H2 4987   3.463   2.479   0.855
 1661TIP3   OH2 4988   2.514   4.976   0.971
 1661TIP3    H1 4989   2.525   4.912   1.042
 1661TIP3    H2 4990   2.541   4.929   0.892
 1662TIP3   OH2 4991   1.856   1.077   4.508
 1662TIP3    H1 4992   1.861   0.988   4.543
 1662TIP3    H2 4993   1.922   1.126   4.558
 1663TIP3   OH2 4994   0.792   1.728   1.873
 1663TIP3    H1 4995   0.762   1.683   1.951
 1663TIP3    H2 4996   0.860   1.671   1.837
 1664TIP3   OH2 4997   1.967   3.944   1.811
 1664TIP3    H1 4998   1.990   4.032   1.840
 1664TIP3    H2 4999   2.051   3.900   1.798
 1665TIP3   OH2 5000   4.596   0.246   0.363
 1665TIP3    H1 5001   4.580   0.229   0.456
 1665TIP3    H2 5002   4.667   0.310   0.362
 1666TIP3   OH2 5003   5.629   4.181   2.708
 1666TIP3    H1 5004   5.568   4.125   2.755
 1666TIP3    H2 5005   5.574   4.243   2.661
 1667TIP3   OH2 5006   5.996   5.538   4.933
 1667TIP3    H1 5007   6.048   5.473   4.886
 1667TIP3    H2 5008   6.042   5.621   4.920
 1668TIP3   OH2 5009   0.364   4.890   2.261
 1668TIP3    H1 5010   0.435   4.827   2.264
 1668TIP3    H2 5011   0.406   4.974   2.243
 1669TIP3   OH2 5012   1.606   2.325   0.276
 1669TIP3    H1 5013   1.617   2.344   0.183
 1669TIP3    H2 5014   1.695   2.327   0.312
 1670TIP3   OH2 5015   2.422   0.589   4.510
 1670TIP3    H1 5016   2.398   0.632   4.428
 1670TIP3    H2 5017   2.504   0.630   4.536
 1671TIP3   OH2 5018   5.649   5.202   2.073
 1671TIP3    H1 5019   5.616   5.290   2.055
 1671TIP3    H2 5020   5.570   5.147   2.075
 1672TIP3   OH2 5021   0.085   2.274   4.143
 1672TIP3    H1 5022   0.046   2.361   4.148
 1672TIP3    H2 5023   0.044   2.224   4.214
 1673TIP3   OH2 5024   6.150   2.440   0.689
 1673TIP3    H1 5025   6.119   2.529   0.673
 1673TIP3    H2 5026   6.195   2.415   0.609
 1674TIP3   OH2 5027   5.723   2.969   0.175
 1674TIP3    H1 5028   5.727   2.967   0.271
 1674TIP3    H2 5029   5.702   3.060   0.153
 1675TIP3   OH2 5030   2.279   0.182   4.961
 1675TIP3    H1 5031   2.254   0.208   5.050
 1675TIP3    H2 5032   2.374   0.193   4.959
 1676TIP3   OH2 5033   1.200   0.721   1.146
 1676TIP3    H1 5034   1.235   0.747   1.060
 1676TIP3    H2 5035   1.253   0.645   1.171
 1677TIP3   OH2 5036   6.129   1.968   1.282
 1677TIP3    H1 5037   6.120   2.016   1.200
 1677TIP3    H2 5038   6.224   1.966   1.298
 1678TIP3   OH2 5039   2.418   1.602   2.355
 1678TIP3    H1 5040   2.513   1.586   2.354
 1678TIP3    H2 5041   2.406   1.670   2.421
 1679TIP3   OH2 5042   5.131   2.451   2.028
 1679TIP3    H1 5043   5.193   2.524   2.027
 1679TIP3    H2 5044   5.169   2.386   1.969
 1680TIP3   OH2 5045   3.923   1.839   0.092
 1680TIP3    H1 5046   3.984   1.784   0.043
 1680TIP3    H2 5047   3.960   1.927   0.087
 1681TIP3   OH2 5048   2.234   3.130   0.807
 1681TIP3    H1 5049   2.192   3.046   0.791
 1681TIP3    H2 5050   2.164   3.186   0.840
 1682TIP3   OH2 5051   3.286   3.555   0.071
 1682TIP3    H1 5052   3.216   3.528   0.131
 1682TIP3    H2 5053   3.318   3.473   0.034
 1683TIP3   OH2 5054   4.090   0.763   1.984
 1683TIP3    H1 5055   4.136   0.728   2.061
 1683TIP3    H2 5056   4.044   0.841   2.017
 1684TIP3   OH2 5057   3.759   2.292   1.810
 1684TIP3    H1 5058   3.705   2.370   1.824
 1684TIP3    H2 5059   3.845   2.315   1.844
 1685TIP3   OH2 5060   0.189   1.869   1.072
 1685TIP3    H1 5061   0.141   1.825   1.002
 1685TIP3    H2 5062   0.154   1.958   1.072
 1686TIP3   OH2 5063   3.873   5.959   0.990
 1686TIP3    H1 5064   3.874   6.015   0.912
 1686TIP3    H2 5065   3.780   5.943   1.007
 1687TIP3   OH2 5066   0.646   3.960   1.088
 1687TIP3    H1 5067   0.655   4.033   1.149
 1687TIP3    H2 5068   0.552   3.942   1.087
 1688TIP3   OH2 5069   5.678   3.430   0.661
 1688TIP3    H1 5070   5.659   3.397   0.749
 1688TIP3    H2 5071   5.690   3.524   0.674
 1689TIP3   OH2 5072   4.822   3.574   2.261
 1689TIP3    H1 5073   4.910   3.609   2.275
 1689TIP3    H2 5074   4.833   3.505   2.196
 1690TIP3   OH2 5075   4.532   5.417   4.941
 1690TIP3    H1 5076   4.557   5.366   4.864
 1690TIP3    H2 5077   4.611   5.468   4.962
 1691TIP3   OH2 5078   1.184   3.883   3.701
 1691TIP3    H1 5079   1.193   3.974   3.673
 1691TIP3    H2 5080   1.164   3.889   3.795
 1692TIP3   OH2 5081   1.071   2.655   0.655
 1692TIP3    H1 5082   1.158   2.686   0.683
 1692TIP3    H2 5083   1.017   2.662   0.734
 1693TIP3   OH2 5084   0.501   4.830   2.825
 1693TIP3    H1 5085   0.451   4.880   2.888
 1693TIP3    H2 5086   0.436   4.781   2.774
 1694TIP3   OH2 5087   5.996   3.330   3.492
 1694TIP3    H1 5088   5.926   3.309   3.431
 1694TIP3    H2 5089   5.986   3.266   3.563
 1695TIP3   OH2 5090   4.598   2.696   1.137
 1695TIP3    H1 5091   4.592   2.697   1.233
 1695TIP3    H2 5092   4.663   2.628   1.118
 1696TIP3   OH2 5093   2.976   0.187   2.765
 1696TIP3    H1 5094   2.906   0.229   2.715
 1696TIP3    H2 5095   2.958   0.212   2.856
 1697TIP3   OH2 5096   2.651   1.872   2.039
 1697TIP3    H1 5097   2.691   1.859   1.952
 1697TIP3    H2 5098   2.672   1.792   2.086
 1698TIP3   OH2 5099   2.662   5.626   1.740
 1698TIP3    H1 5100   2.704   5.708   1.768
 1698TIP3    H2 5101   2.648   5.638   1.645
 1699TIP3   OH2 5102   0.866   5.939   4.785
 1699TIP3    H1 5103   0.855   5.967   4.694
 1699TIP3    H2 5104   0.919   6.008   4.825
 1700TIP3   OH2 5105   5.683   3.398   1.306
 1700TIP3    H1 5106   5.661   3.491   1.302
 1700TIP3    H2 5107   5.676   3.368   1.216
 1701TIP3   OH2 5108   5.574   2.345   0.390
 1701TIP3    H1 5109   5.611   2.281   0.452
 1701TIP3    H2 5110   5.495   2.377   0.432
 1702TIP3   OH2 5111   2.684   5.087   0.131
 1702TIP3    H1 5112   2.654   5.173   0.101
 1702TIP3    H2 5113   2.694   5.036   0.051
 1703TIP3   OH2 5114   3.283   1.731   4.736
 1703TIP3    H1 5115   3.260   1.731   4.830
 1703TIP3    H2 5116   3.307   1.822   4.718
 1704TIP3   OH2 5117   0.745   3.353   0.457
 1704TIP3    H1 5118   0.805   3.319   0.523
 1704TIP3    H2 5119   0.663   3.368   0.504
 1705TIP3   OH2 5120   0.729   4.437   0.735
 1705TIP3    H1 5121   0.722   4.435   0.640
 1705TIP3    H2 5122   0.776   4.356   0.758
 1706TIP3   OH2 5123   3.576   3.703   2.613
 1706TIP3    H1 5124   3.619   3.618   2.624
 1706TIP3    H2 5125   3.588   3.724   2.521
 1707TIP3   OH2 5126   6.075   4.589   2.237
 1707TIP3    H1 5127   6.046   4.503   2.208
 1707TIP3    H2 5128   6.074   4.583   2.333
 1708TIP3   OH2 5129   1.040   2.303   2.958
 1708TIP3    H1 5130   1.071   2.277   3.045
 1708TIP3    H2 5131   1.109   2.274   2.898
 1709TIP3   OH2 5132   4.782   2.328   3.104
 1709TIP3    H1 5133   4.760   2.320   3.011
 1709TIP3    H2 5134   4.730   2.259   3.146
 1710TIP3   OH2 5135   4.920   5.577   2.156
 1710TIP3    H1 5136   4.933   5.637   2.083
 1710TIP3    H2 5137   4.908   5.491   2.114
 1711TIP3   OH2 5138   1.737   5.189   4.585
 1711TIP3    H1 5139   1.735   5.254   4.656
 1711TIP3    H2 5140   1.696   5.111   4.624
 1712TIP3   OH2 5141   4.052   2.525   3.381
 1712TIP3    H1 5142   4.093   2.560   3.302
 1712TIP3    H2 5143   4.066   2.593   3.447
 1713TIP3   OH2 5144   6.053   2.950   0.609
 1713TIP3    H1 5145   6.122   3.007   0.643
 1713TIP3    H2 5146   6.090   2.862   0.615
 1714TIP3   OH2 5147   2.334   0.928   3.328
 1714TIP3    H1 5148   2.418   0.918   3.282
 1714TIP3    H2 5149   2.290   0.844   3.314
 1715TIP3   OH2 5150   1.374   5.542   1.974
 1715TIP3    H1 5151   1.454   5.493   1.993
 1715TIP3    H2 5152   1.320   5.481   1.925
 1716TIP3   OH2 5153   2.027   5.106   3.148
 1716TIP3    H1 5154   1.978   5.031   3.180
 1716TIP3    H2 5155   2.024   5.099   3.053
 1717TIP3   OH2 5156   3.145   0.388   1.327
 1717TIP3    H1 5157   3.127   0.459   1.265
 1717TIP3    H2 5158   3.223   0.416   1.374
 1718TIP3   OH2 5159   2.412   1.693   0.981
 1718TIP3    H1 5160   2.436   1.675   1.072
 1718TIP3    H2 5161   2.471   1.764   0.955
 1719TIP3   OH2 5162   4.320   2.461   3.233
 1719TIP3    H1 5163   4.297   2.372   3.260
 1719TIP3    H2 5164   4.393   2.485   3.290
 1720TIP3   OH2 5165   0.493   0.159   1.388
 1720TIP3    H1 5166   0.476   0.188   1.478
 1720TIP3    H2 5167   0.475   0.235   1.334
 1721TIP3   OH2 5168   4.663   5.132   4.538
 1721TIP3    H1 5169   4.596   5.069   4.513
 1721TIP3    H2 5170   4.654   5.203   4.475
 1722TIP3   OH2 5171   0.370   2.774   3.605
 1722TIP3    H1 5172   0.412   2.749   3.687
 1722TIP3    H2 5173   0.328   2.694   3.573
 1723TIP3   OH2 5174   6.066   1.196   1.177
 1723TIP3    H1 5175   6.080   1.166   1.266
 1723TIP3    H2 5176   6.017   1.278   1.187
 1724TIP3   OH2 5177   5.455   0.420   0.297
 1724TIP3    H1 5178   5.361   0.406   0.295
 1724TIP3    H2 5179   5.491   0.353   0.239
 1725TIP3   OH2 5180   4.237   0.668   3.927
 1725TIP3    H1 5181   4.263   0.717   4.004
 1725TIP3    H2 5182   4.249   0.576   3.951
 1726TIP3   OH2 5183   2.976   1.873   3.407
 1726TIP3    H1 5184   2.913   1.859   3.336
 1726TIP3    H2 5185   3.013   1.786   3.424
 1727TIP3   OH2 5186   6.118   1.974   3.389
 1727TIP3    H1 5187   6.036   1.926   3.380
 1727TIP3    H2 5188   6.109   2.023   3.471
 1728TIP3   OH2 5189   4.665   3.862   4.812
 1728TIP3    H1 5190   4.727   3.793   4.836
 1728TIP3    H2 5191   4.656   3.854   4.717
 1729TIP3   OH2 5192   4.341   3.561   2.673
 1729TIP3    H1 5193   4.281   3.533   2.742
 1729TIP3    H2 5194   4.407   3.613   2.720
 1730TIP3   OH2 5195   2.485   2.887   0.223
 1730TIP3    H1 5196   2.537   2.964   0.243
 1730TIP3    H2 5197   2.476   2.841   0.307
 1731TIP3   OH2 5198   4.943   4.778   2.661
 1731TIP3    H1 5199   4.926   4.838   2.589
 1731TIP3    H2 5200   4.940   4.691   2.622
 1732TIP3   OH2 5201   1.274   4.436   0.507
 1732TIP3    H1 5202   1.358   4.409   0.546
 1732TIP3    H2 5203   1.213   4.437   0.581
 1733TIP3   OH2 5204   5.060   4.201   3.971
 1733TIP3    H1 5205   4.997   4.130   3.978
 1733TIP3    H2 5206   5.145   4.158   3.981
 1734TIP3   OH2 5207   2.536   3.324   3.955
 1734TIP3    H1 5208   2.564   3.364   3.872
 1734TIP3    H2 5209   2.449   3.361   3.972
 1735TIP3   OH2 5210   0.406   3.028   3.615
 1735TIP3    H1 5211   0.389   2.935   3.602
 1735TIP3    H2 5212   0.456   3.055   3.538
 1736TIP3   OH2 5213   5.185   1.457   4.974
 1736TIP3    H1 5214   5.151   1.528   5.028
 1736TIP3    H2 5215   5.184   1.381   5.032
 1737TIP3   OH2 5216   2.982   2.774   1.137
 1737TIP3    H1 5217   2.933   2.708   1.087
 1737TIP3    H2 5218   2.956   2.857   1.097
 1738TIP3   OH2 5219   5.025   1.070   2.697
 1738TIP3    H1 5220   5.088   1.011   2.655
 1738TIP3    H2 5221   4.939   1.035   2.675
 1739TIP3   OH2 5222   2.716   5.667   2.396
 1739TIP3    H1 5223   2.706   5.703   2.308
 1739TIP3    H2 5224   2.643   5.606   2.406
 1740TIP3   OH2 5225   2.558   1.310   4.507
 1740TIP3    H1 5226   2.537   1.398   4.538
 1740TIP3    H2 5227   2.632   1.323   4.447
 1741TIP3   OH2 5228   5.804   0.853   0.048
 1741TIP3    H1 5229   5.788   0.768   0.005
 1741TIP3    H2 5230   5.721   0.875   0.090
 1742TIP3   OH2 5231   1.065   3.161   5.064
 1742TIP3    H1 5232   1.084   3.097   4.995
 1742TIP3    H2 5233   1.116   3.131   5.140
 1743TIP3   OH2 5234   5.720   3.279   0.117
 1743TIP3    H1 5235   5.673   3.350   0.073
 1743TIP3    H2 5236   5.797   3.322   0.155
 1744TIP3   OH2 5237   4.612   0.066   2.813
 1744TIP3    H1 5238   4.690   0.045   2.865
 1744TIP3    H2 5239   4.624   0.019   2.731
 1745TIP3   OH2 5240   5.942   5.907   3.400
 1745TIP3    H1 5241   5.905   5.820   3.386
 1745TIP3    H2 5242   6.036   5.891   3.412
 1746TIP3   OH2 5243   3.838   0.802   4.004
 1746TIP3    H1 5244   3.794   0.718   3.988
 1746TIP3    H2 5245   3.778   0.849   4.061
 1747TIP3   OH2 5246   0.056   4.885   3.473
 1747TIP3    H1 5247  -0.007   4.813   3.478
 1747TIP3    H2 5248   0.119   4.866   3.543
 1748TIP3   OH2 5249   5.087   5.036   2.236
 1748TIP3    H1 5250   4.992   5.023   2.230
 1748TIP3    H2 5251   5.111   5.075   2.152
 1749TIP3   OH2 5252   2.910   0.140   2.350
 1749TIP3    H1 5253   2.989   0.107   2.307
 1749TIP3    H2 5254   2.911   0.234   2.332
 1750TIP3   OH2 5255   3.201   3.481   5.088
 1750TIP3    H1 5256   3.245   3.565   5.099
 1750TIP3    H2 5257   3.171   3.458   5.176
 1751TIP3   OH2 5258   5.423   3.978   1.754
 1751TIP3    H1 5259   5.416   4.073   1.760
 1751TIP3    H2 5260   5.517   3.961   1.758
 1752TIP3   OH2 5261   1.181   0.862   3.047
 1752TIP3    H1 5262   1.246   0.923   3.081
 1752TIP3    H2 5263   1.099   0.886   3.091
 1753TIP3   OH2 5264   2.679   4.851   3.327
 1753TIP3    H1 5265   2.764   4.851   3.283
 1753TIP3    H2 5266   2.685   4.922   3.391
 1754TIP3   OH2 5267   5.938   4.832   3.813
 1754TIP3    H1 5268   5.994   4.905   3.787
 1754TIP3    H2 5269   5.849   4.860   3.789
 1755TIP3   OH2 5270   4.613   5.396   0.240
 1755TIP3    H1 5271   4.633   5.318   0.293
 1755TIP3    H2 5272   4.694   5.412   0.191
 1756TIP3   OH2 5273   2.543   3.962   0.738
 1756TIP3    H1 5274   2.603   3.890   0.719
 1756TIP3    H2 5275   2.540   4.013   0.656
 1757TIP3   OH2 5276   1.934   5.580   3.709
 1757TIP3    H1 5277   1.956   5.506   3.652
 1757TIP3    H2 5278   1.860   5.623   3.666
 1758TIP3   OH2 5279   5.668   4.604   2.470
 1758TIP3    H1 5280   5.587   4.579   2.514
 1758TIP3    H2 5281   5.690   4.527   2.416
 1759TIP3   OH2 5282   5.836   4.986   2.308
 1759TIP3    H1 5283   5.857   4.987   2.401
 1759TIP3    H2 5284   5.846   5.077   2.280
 1760TIP3   OH2 5285   1.511   4.134   3.351
 1760TIP3    H1 5286   1.520   4.224   3.322
 1760TIP3    H2 5287   1.576   4.125   3.422
 1761TIP3   OH2 5288   5.692   1.026   2.910
 1761TIP3    H1 5289   5.639   0.963   2.862
 1761TIP3    H2 5290   5.643   1.108   2.907
 1762TIP3   OH2 5291   2.916   5.824   3.069
 1762TIP3    H1 5292   2.964   5.820   3.152
 1762TIP3    H2 5293   2.983   5.835   3.002
 1763TIP3   OH2 5294   5.687   1.978   0.036
 1763TIP3    H1 5295   5.637   2.055   0.062
 1763TIP3    H2 5296   5.751   2.011  -0.028
 1764TIP3   OH2 5297   6.090   3.732   1.036
 1764TIP3    H1 5298   6.040   3.715   0.956
 1764TIP3    H2 5299   6.122   3.821   1.026
 1765TIP3   OH2 5300   4.661   5.155   0.393
 1765TIP3    H1 5301   4.632   5.089   0.330
 1765TIP3    H2 5302   4.747   5.125   0.422
 1766TIP3   OH2 5303   6.285   5.869   0.869
 1766TIP3    H1 5304   6.357   5.927   0.892
 1766TIP3    H2 5305   6.325   5.801   0.815
 1767TIP3   OH2 5306   6.217   5.068   3.491
 1767TIP3    H1 5307   6.312   5.054   3.486
 1767TIP3    H2 5308   6.208   5.158   3.520
 1768TIP3   OH2 5309   4.493   5.968   0.939
 1768TIP3    H1 5310   4.408   5.933   0.964
 1768TIP3    H2 5311   4.546   5.960   1.018
 1769TIP3   OH2 5312   2.170   1.153   3.603
 1769TIP3    H1 5313   2.203   1.097   3.674
 1769TIP3    H2 5314   2.141   1.092   3.536
 1770TIP3   OH2 5315   4.841   0.985   0.099
 1770TIP3    H1 5316   4.801   1.068   0.072
 1770TIP3    H2 5317   4.935   1.004   0.104
 1771TIP3   OH2 5318   1.130   5.976   2.263
 1771TIP3    H1 5319   1.119   5.981   2.358
 1771TIP3    H2 5320   1.134   5.882   2.245
 1772TIP3   OH2 5321   1.780   3.485   0.860
 1772TIP3    H1 5322   1.751   3.565   0.816
 1772TIP3    H2 5323   1.708   3.463   0.919
 1773TIP3   OH2 5324   2.721   5.398   3.212
 1773TIP3    H1 5325   2.733   5.324   3.152
 1773TIP3    H2 5326   2.627   5.404   3.226
 1774TIP3   OH2 5327   3.740   2.602   3.104
 1774TIP3    H1 5328   3.705   2.686   3.076
 1774TIP3    H2 5329   3.701   2.587   3.190
 1775TIP3   OH2 5330   3.882   2.099   3.431
 1775TIP3    H1 5331   3.834   2.126   3.352
 1775TIP3    H2 5332   3.940   2.172   3.450
 1776TIP3   OH2 5333   4.316   3.711   0.249
 1776TIP3    H1 5334   4.403   3.750   0.250
 1776TIP3    H2 5335   4.318   3.647   0.321
 1777TIP3   OH2 5336   2.789   1.843   0.421
 1777TIP3    H1 5337   2.856   1.841   0.489
 1777TIP3    H2 5338   2.790   1.755   0.383
 1778TIP3   OH2 5339   2.864   3.856   2.648
 1778TIP3    H1 5340   2.791   3.839   2.589
 1778TIP3    H2 5341   2.862   3.782   2.709
 1779TIP3   OH2 5342   4.063   5.359   4.622
 1779TIP3    H1 5343   4.002   5.312   4.565
 1779TIP3    H2 5344   4.114   5.290   4.665
 1780TIP3   OH2 5345   3.461   1.672   1.072
 1780TIP3    H1 5346   3.503   1.594   1.036
 1780TIP3    H2 5347   3.532   1.736   1.082
 1781TIP3   OH2 5348   1.518   5.372   4.535
 1781TIP3    H1 5349   1.455   5.385   4.606
 1781TIP3    H2 5350   1.531   5.277   4.532
 1782TIP3   OH2 5351   2.764   2.265   4.231
 1782TIP3    H1 5352   2.768   2.315   4.312
 1782TIP3    H2 5353   2.790   2.176   4.256
 1783TIP3   OH2 5354   0.948   0.771   0.624
 1783TIP3    H1 5355   0.880   0.802   0.564
 1783TIP3    H2 5356   0.957   0.678   0.602
 1784TIP3   OH2 5357   5.225   2.397   2.623
 1784TIP3    H1 5358   5.252   2.402   2.531
 1784TIP3    H2 5359   5.307   2.386   2.671
 1785TIP3   OH2 5360   0.145   4.522   3.696
 1785TIP3    H1 5361   0.196   4.480   3.765
 1785TIP3    H2 5362   0.069   4.466   3.684
 1786TIP3   OH2 5363   3.255   3.111   1.426
 1786TIP3    H1 5364   3.164   3.110   1.454
 1786TIP3    H2 5365   3.282   3.202   1.433
 1787TIP3   OH2 5366   2.779   3.356   2.733
 1787TIP3    H1 5367   2.749   3.416   2.802
 1787TIP3    H2 5368   2.742   3.271   2.758
 1788TIP3   OH2 5369   4.681   1.717   1.841
 1788TIP3    H1 5370   4.684   1.812   1.835
 1788TIP3    H2 5371   4.643   1.699   1.927
 1789TIP3   OH2 5372   5.981   2.213   2.799
 1789TIP3    H1 5373   6.068   2.173   2.807
 1789TIP3    H2 5374   5.923   2.141   2.776
 1790TIP3   OH2 5375   1.283   5.568   2.222
 1790TIP3    H1 5376   1.288   5.553   2.128
 1790TIP3    H2 5377   1.370   5.601   2.245
 1791TIP3   OH2 5378   3.428   2.611   1.361
 1791TIP3    H1 5379   3.351   2.556   1.358
 1791TIP3    H2 5380   3.395   2.700   1.352
 1792TIP3   OH2 5381   1.933   5.006   4.267
 1792TIP3    H1 5382   1.977   5.014   4.352
 1792TIP3    H2 5383   1.853   5.057   4.277
 1793TIP3   OH2 5384   6.251   0.536   4.154
 1793TIP3    H1 5385   6.241   0.441   4.147
 1793TIP3    H2 5386   6.162   0.570   4.144
 1794TIP3   OH2 5387   2.605   0.975   5.137
 1794TIP3    H1 5388   2.577   0.993   5.047
 1794TIP3    H2 5389   2.678   1.034   5.153
 1795TIP3   OH2 5390   0.763   0.904   1.699
 1795TIP3    H1 5391   0.786   0.812   1.702
 1795TIP3    H2 5392   0.846   0.951   1.707
 1796TIP3   OH2 5393   2.355   4.068   2.834
 1796TIP3    H1 5394   2.343   3.979   2.866
 1796TIP3    H2 5395   2.433   4.100   2.880
 1797TIP3   OH2 5396   1.620   0.800   1.619
 1797TIP3    H1 5397   1.557   0.852   1.569
 1797TIP3    H2 5398   1.584   0.712   1.618
 1798TIP3   OH2 5399   4.778   2.955   0.794
 1798TIP3    H1 5400   4.733   3.011   0.857
 1798TIP3    H2 5401   4.734   2.972   0.711
 1799TIP3   OH2 5402   3.768  -0.011   4.467
 1799TIP3    H1 5403   3.690   0.040   4.446
 1799TIP3    H2 5404   3.834   0.055   4.487
 1800TIP3   OH2 5405   6.292   1.348   0.798
 1800TIP3    H1 5406   6.360   1.310   0.741
 1800TIP3    H2 5407   6.274   1.434   0.760
 1801TIP3   OH2 5408   0.896   4.877   4.728
 1801TIP3    H1 5409   0.983   4.838   4.718
 1801TIP3    H2 5410   0.898   4.954   4.671
 1802TIP3   OH2 5411   2.186   1.481   1.336
 1802TIP3    H1 5412   2.167   1.481   1.430
 1802TIP3    H2 5413   2.176   1.390   1.309
 1803TIP3   OH2 5414   1.768   4.616   2.462
 1803TIP3    H1 5415   1.786   4.708   2.445
 1803TIP3    H2 5416   1.684   4.616   2.508
 1804TIP3   OH2 5417   1.171   5.985   5.078
 1804TIP3    H1 5418   1.188   5.927   5.152
 1804TIP3    H2 5419   1.257   6.023   5.057
 1805TIP3   OH2 5420   0.781   2.432   5.184
 1805TIP3    H1 5421   0.834   2.365   5.227
 1805TIP3    H2 5422   0.842   2.503   5.165
 1806TIP3   OH2 5423   3.301   0.616   1.026
 1806TIP3    H1 5424   3.370   0.578   1.081
 1806TIP3    H2 5425   3.337   0.613   0.937
 1807TIP3   OH2 5426   3.597   0.398   2.350
 1807TIP3    H1 5427   3.543   0.326   2.382
 1807TIP3    H2 5428   3.550   0.432   2.274
 1808TIP3   OH2 5429   4.760   4.088   3.714
 1808TIP3    H1 5430   4.747   4.176   3.679
 1808TIP3    H2 5431   4.855   4.074   3.710
 1809TIP3   OH2 5432   3.682   2.916   1.283
 1809TIP3    H1 5433   3.692   3.007   1.253
 1809TIP3    H2 5434   3.710   2.864   1.208
 1810TIP3   OH2 5435   4.295   4.783   4.808
 1810TIP3    H1 5436   4.209   4.774   4.767
 1810TIP3    H2 5437   4.350   4.720   4.762
 1811TIP3   OH2 5438   5.052   1.995   2.223
 1811TIP3    H1 5439   5.076   2.087   2.216
 1811TIP3    H2 5440   5.003   1.989   2.305
 1812TIP3   OH2 5441   4.212   5.092   3.993
 1812TIP3    H1 5442   4.125   5.055   4.009
 1812TIP3    H2 5443   4.254   5.092   4.079
 1813TIP3   OH2 5444   0.336   2.613   5.143
 1813TIP3    H1 5445   0.271   2.623   5.073
 1813TIP3    H2 5446   0.383   2.533   5.120
 1814TIP3   OH2 5447   3.501   1.605   0.431
 1814TIP3    H1 5448   3.456   1.688   0.443
 1814TIP3    H2 5449   3.589   1.630   0.400
 1815TIP3   OH2 5450   0.757   1.930   2.355
 1815TIP3    H1 5451   0.797   1.864   2.412
 1815TIP3    H2 5452   0.665   1.931   2.380
 1816TIP3   OH2 5453   0.208   2.114   1.770
 1816TIP3    H1 5454   0.262   2.183   1.731
 1816TIP3    H2 5455   0.195   2.051   1.700
 1817TIP3   OH2 5456   1.856   0.951   4.891
 1817TIP3    H1 5457   1.934   0.899   4.868
 1817TIP3    H2 5458   1.798   0.943   4.815
 1818TIP3   OH2 5459   4.512   2.082   2.576
 1818TIP3    H1 5460   4.548   2.148   2.516
 1818TIP3    H2 5461   4.522   2.122   2.663
 1819TIP3   OH2 5462   2.123   0.872   0.344
 1819TIP3    H1 5463   2.138   0.884   0.438
 1819TIP3    H2 5464   2.034   0.837   0.338
 1820TIP3   OH2 5465   3.318   4.122   1.072
 1820TIP3    H1 5466   3.373   4.079   1.138
 1820TIP3    H2 5467   3.350   4.087   0.988
 1821TIP3   OH2 5468   0.579   5.772   3.704
 1821TIP3    H1 5469   0.670   5.775   3.676
 1821TIP3    H2 5470   0.578   5.711   3.778
 1822TIP3   OH2 5471   0.455   2.948   1.526
 1822TIP3    H1 5472   0.382   2.990   1.571
 1822TIP3    H2 5473   0.527   3.010   1.535
 1823TIP3   OH2 5474   4.221   3.556   4.393
 1823TIP3    H1 5475   4.231   3.462   4.380
 1823TIP3    H2 5476   4.272   3.575   4.472
 1824TIP3   OH2 5477   3.514   3.573   4.622
 1824TIP3    H1 5478   3.498   3.589   4.715
 1824TIP3    H2 5479   3.463   3.495   4.602
 1825TIP3   OH2 5480   3.589   1.072   2.406
 1825TIP3    H1 5481   3.529   1.020   2.352
 1825TIP3    H2 5482   3.627   1.009   2.467
 1826TIP3   OH2 5483   1.770   1.621   4.514
 1826TIP3    H1 5484   1.755   1.677   4.438
 1826TIP3    H2 5485   1.850   1.655   4.554
 1827TIP3   OH2 5486   1.310   3.004   0.102
 1827TIP3    H1 5487   1.385   2.946   0.093
 1827TIP3    H2 5488   1.310   3.029   0.195
 1828TIP3   OH2 5489   4.684   2.040   3.203
 1828TIP3    H1 5490   4.713   1.961   3.249
 1828TIP3    H2 5491   4.593   2.023   3.180
 1829TIP3   OH2 5492   4.648   2.136   5.184
 1829TIP3    H1 5493   4.609   2.221   5.162
 1829TIP3    H2 5494   4.737   2.140   5.149
 1830TIP3   OH2 5495   3.138   6.026   4.989
 1830TIP3    H1 5496   3.046   6.036   5.011
 1830TIP3    H2 5497   3.169   5.957   5.047
 1831TIP3   OH2 5498   0.427   0.736   1.692
 1831TIP3    H1 5499   0.403   0.647   1.668
 1831TIP3    H2 5500   0.470   0.728   1.777
 1832TIP3   OH2 5501   4.410   4.464   0.221
 1832TIP3    H1 5502   4.470   4.390   0.231
 1832TIP3    H2 5503   4.340   4.447   0.284
 1833TIP3   OH2 5504   0.318   5.397   2.828
 1833TIP3    H1 5505   0.301   5.393   2.734
 1833TIP3    H2 5506   0.355   5.312   2.851
 1834TIP3   OH2 5507   4.462   5.850   1.807
 1834TIP3    H1 5508   4.554   5.827   1.819
 1834TIP3    H2 5509   4.414   5.770   1.826
 1835TIP3   OH2 5510   4.848   0.340   0.444
 1835TIP3    H1 5511   4.866   0.254   0.406
 1835TIP3    H2 5512   4.906   0.399   0.396
 1836TIP3   OH2 5513   6.051   3.576   4.128
 1836TIP3    H1 5514   6.096   3.636   4.069
 1836TIP3    H2 5515   6.027   3.630   4.203
 1837TIP3   OH2 5516   4.883   4.051   0.261
 1837TIP3    H1 5517   4.798   4.089   0.239
 1837TIP3    H2 5518   4.869   3.956   0.259
 1838TIP3   OH2 5519   1.993   2.681   0.818
 1838TIP3    H1 5520   1.907   2.650   0.845
 1838TIP3    H2 5521   2.045   2.680   0.899
 1839TIP3   OH2 5522   3.315   0.657   0.125
 1839TIP3    H1 5523   3.316   0.676   0.219
 1839TIP3    H2 5524   3.267   0.730   0.086
 1840TIP3   OH2 5525   3.570   0.795   2.560
 1840TIP3    H1 5526   3.493   0.783   2.504
 1840TIP3    H2 5527   3.533   0.805   2.648
 1841TIP3   OH2 5528   4.507   1.587   3.092
 1841TIP3    H1 5529   4.565   1.564   3.020
 1841TIP3    H2 5530   4.560   1.575   3.171
 1842TIP3   OH2 5531   0.589   3.717   3.338
 1842TIP3    H1 5532   0.503   3.676   3.343
 1842TIP3    H2 5533   0.638   3.678   3.411
 1843TIP3   OH2 5534   2.126   4.901   2.400
 1843TIP3    H1 5535   2.177   4.830   2.437
 1843TIP3    H2 5536   2.084   4.864   2.322
 1844TIP3   OH2 5537   3.286   0.582   1.870
 1844TIP3    H1 5538   3.360   0.635   1.899
 1844TIP3    H2 5539   3.323   0.524   1.803
 1845TIP3   OH2 5540   0.926   4.004   3.822
 1845TIP3    H1 5541   0.902   4.096   3.834
 1845TIP3    H2 5542   0.981   4.004   3.744
 1846TIP3   OH2 5543   0.456   3.108   0.394
 1846TIP3    H1 5544   0.423   3.187   0.435
 1846TIP3    H2 5545   0.388   3.042   0.410
 1847TIP3   OH2 5546   3.087   0.257   1.778
 1847TIP3    H1 5547   3.047   0.339   1.808
 1847TIP3    H2 5548   3.033   0.188   1.817
 1848TIP3   OH2 5549   5.277   4.658   3.054
 1848TIP3    H1 5550   5.238   4.741   3.026
 1848TIP3    H2 5551   5.350   4.644   2.994
 1849TIP3   OH2 5552   3.600   0.191   4.157
 1849TIP3    H1 5553   3.540   0.265   4.147
 1849TIP3    H2 5554   3.669   0.206   4.092
 1850TIP3   OH2 5555   1.535   3.302   2.274
 1850TIP3    H1 5556   1.452   3.260   2.297
 1850TIP3    H2 5557   1.533   3.387   2.319
 1851TIP3   OH2 5558   3.222   4.989   0.148
 1851TIP3    H1 5559   3.297   4.962   0.200
 1851TIP3    H2 5560   3.152   5.005   0.212
 1852TIP3   OH2 5561   0.112   0.816   3.020
 1852TIP3    H1 5562   0.053   0.783   3.087
 1852TIP3    H2 5563   0.062   0.810   2.939
 1853TIP3   OH2 5564   6.037   1.740   3.225
 1853TIP3    H1 5565   5.978   1.721   3.152
 1853TIP3    H2 5566   6.120   1.699   3.200
 1854TIP3   OH2 5567   5.515   0.895   1.320
 1854TIP3    H1 5568   5.601   0.860   1.299
 1854TIP3    H2 5569   5.533   0.969   1.379
 1855TIP3   OH2 5570   3.556   5.005   0.075
 1855TIP3    H1 5571   3.490   5.003   0.006
 1855TIP3    H2 5572   3.571   4.912   0.096
 1856TIP3   OH2 5573   2.513   2.300   4.089
 1856TIP3    H1 5574   2.588   2.296   4.148
 1856TIP3    H2 5575   2.453   2.362   4.130
 1857TIP3   OH2 5576   0.458   0.075   4.333
 1857TIP3    H1 5577   0.528   0.102   4.274
 1857TIP3    H2 5578   0.465  -0.020   4.338
 1858TIP3   OH2 5579   4.169   5.347   2.727
 1858TIP3    H1 5580   4.255   5.308   2.744
 1858TIP3    H2 5581   4.120   5.278   2.683
 1859TIP3   OH2 5582   6.284   1.396   2.289
 1859TIP3    H1 5583   6.362   1.451   2.291
 1859TIP3    H2 5584   6.291   1.347   2.206
 1860TIP3   OH2 5585   1.711   0.583   3.670
 1860TIP3    H1 5586   1.666   0.501   3.653
 1860TIP3    H2 5587   1.666   0.648   3.616
 1861TIP3   OH2 5588   3.137   3.997   2.041
 1861TIP3    H1 5589   3.063   3.992   2.101
 1861TIP3    H2 5590   3.134   4.087   2.006
 1862TIP3   OH2 5591   3.981   1.842   4.722
 1862TIP3    H1 5592   3.927   1.854   4.644
 1862TIP3    H2 5593   4.071   1.852   4.691
 1863TIP3   OH2 5594   2.855   4.679   4.691
 1863TIP3    H1 5595   2.864   4.771   4.664
 1863TIP3    H2 5596   2.930   4.664   4.748
 1864TIP3   OH2 5597   0.499   2.779   3.346
 1864TIP3    H1 5598   0.579   2.741   3.382
 1864TIP3    H2 5599   0.447   2.800   3.424
 1865TIP3   OH2 5600   5.313   2.982   2.218
 1865TIP3    H1 5601   5.399   2.959   2.252
 1865TIP3    H2 5602   5.328   3.057   2.161
 1866TIP3   OH2 5603   4.183   0.229   1.220
 1866TIP3    H1 5604   4.175   0.320   1.249
 1866TIP3    H2 5605   4.137   0.178   1.286
 1867TIP3   OH2 5606   1.174   2.529   5.020
 1867TIP3    H1 5607   1.225   2.585   4.961
 1867TIP3    H2 5608   1.096   2.507   4.970
 1868TIP3   OH2 5609   3.422   1.073   4.901
 1868TIP3    H1 5610   3.503   1.021   4.899
 1868TIP3    H2 5611   3.401   1.081   4.994
 1869TIP3   OH2 5612   0.951   0.722   0.200
 1869TIP3    H1 5613   0.859   0.711   0.226
 1869TIP3    H2 5614   1.000   0.673   0.266
 1870TIP3   OH2 5615   5.673   1.574   3.492
 1870TIP3    H1 5616   5.768   1.564   3.497
 1870TIP3    H2 5617   5.653   1.642   3.558
 1871TIP3   OH2 5618   5.589   5.659   0.249
 1871TIP3    H1 5619   5.538   5.666   0.330
 1871TIP3    H2 5620   5.678   5.640   0.279
 1872TIP3   OH2 5621   2.290   3.410   3.320
 1872TIP3    H1 5622   2.260   3.346   3.384
 1872TIP3    H2 5623   2.237   3.488   3.337
 1873TIP3   OH2 5624   4.314   2.954   2.239
 1873TIP3    H1 5625   4.322   2.881   2.300
 1873TIP3    H2 5626   4.378   3.018   2.269
 1874TIP3   OH2 5627   4.829   5.455   4.763
 1874TIP3    H1 5628   4.794   5.367   4.781
 1874TIP3    H2 5629   4.917   5.439   4.730
 1875TIP3   OH2 5630   2.754   1.227   4.231
 1875TIP3    H1 5631   2.684   1.281   4.195
 1875TIP3    H2 5632   2.715   1.187   4.309
 1876TIP3   OH2 5633   1.964   5.657   2.364
 1876TIP3    H1 5634   1.893   5.609   2.323
 1876TIP3    H2 5635   1.955   5.636   2.458
 1877TIP3   OH2 5636   4.743   5.843   3.435
 1877TIP3    H1 5637   4.680   5.890   3.381
 1877TIP3    H2 5638   4.746   5.891   3.517
 1878TIP3   OH2 5639   0.521   2.305   1.704
 1878TIP3    H1 5640   0.462   2.329   1.633
 1878TIP3    H2 5641   0.539   2.212   1.689
 1879TIP3   OH2 5642   4.877   1.593   5.019
 1879TIP3    H1 5643   4.887   1.619   5.111
 1879TIP3    H2 5644   4.823   1.661   4.980
 1880TIP3   OH2 5645   5.643   2.891   3.700
 1880TIP3    H1 5646   5.601   2.968   3.661
 1880TIP3    H2 5647   5.642   2.825   3.631
 1881TIP3   OH2 5648   4.498   4.700   1.882
 1881TIP3    H1 5649   4.562   4.735   1.821
 1881TIP3    H2 5650   4.420   4.684   1.828
 1882TIP3   OH2 5651   3.072   1.288   3.009
 1882TIP3    H1 5652   3.065   1.216   2.947
 1882TIP3    H2 5653   3.159   1.326   2.992
 1883TIP3   OH2 5654   5.342   3.205   0.892
 1883TIP3    H1 5655   5.348   3.249   0.808
 1883TIP3    H2 5656   5.368   3.114   0.874
 1884TIP3   OH2 5657   1.457   2.469   0.815
 1884TIP3    H1 5658   1.551   2.482   0.829
 1884TIP3    H2 5659   1.435   2.390   0.865
 1885TIP3   OH2 5660   4.442   2.766   0.581
 1885TIP3    H1 5661   4.421   2.674   0.564
 1885TIP3    H2 5662   4.452   2.804   0.493
 1886TIP3   OH2 5663   1.248   0.602   3.824
 1886TIP3    H1 5664   1.333   0.591   3.866
 1886TIP3    H2 5665   1.260   0.675   3.763
 1887TIP3   OH2 5666   0.647   3.636   5.070
 1887TIP3    H1 5667   0.685   3.668   4.988
 1887TIP3    H2 5668   0.556   3.614   5.047
 1888TIP3   OH2 5669   1.740   4.605   5.246
 1888TIP3    H1 5670   1.804   4.669   5.214
 1888TIP3    H2 5671   1.661   4.621   5.194
 1889TIP3   OH2 5672   3.554   3.128   4.603
 1889TIP3    H1 5673   3.529   3.170   4.686
 1889TIP3    H2 5674   3.478   3.140   4.546
 1890TIP3   OH2 5675   5.627   3.663   1.330
 1890TIP3    H1 5676   5.533   3.674   1.319
 1890TIP3    H2 5677   5.641   3.660   1.424
 1891TIP3   OH2 5678   3.456   0.686   3.438
 1891TIP3    H1 5679   3.398   0.685   3.514
 1891TIP3    H2 5680   3.462   0.778   3.413
 1892TIP3   OH2 5681   6.164   2.008   4.427
 1892TIP3    H1 5682   6.226   1.943   4.393
 1892TIP3    H2 5683   6.130   1.968   4.507
 1893TIP3   OH2 5684   5.644   1.165   4.082
 1893TIP3    H1 5685   5.644   1.250   4.127
 1893TIP3    H2 5686   5.573   1.116   4.125
 1894TIP3   OH2 5687   5.545   5.490   4.103
 1894TIP3    H1 5688   5.537   5.395   4.095
 1894TIP3    H2 5689   5.621   5.502   4.159
 1895TIP3   OH2 5690   2.058   0.013   3.184
 1895TIP3    H1 5691   2.073  -0.072   3.144
 1895TIP3    H2 5692   2.111   0.074   3.134
 1896TIP3   OH2 5693   5.610   5.245   2.466
 1896TIP3    H1 5694   5.699   5.245   2.432
 1896TIP3    H2 5695   5.560   5.191   2.404
 1897TIP3   OH2 5696   4.026   0.148   4.769
 1897TIP3    H1 5697   4.072   0.123   4.849
 1897TIP3    H2 5698   3.942   0.103   4.775
 1898TIP3   OH2 5699   0.127   0.321   0.516
 1898TIP3    H1 5700   0.103   0.241   0.562
 1898TIP3    H2 5701   0.086   0.391   0.567
 1899TIP3   OH2 5702   2.578   5.736   4.766
 1899TIP3    H1 5703   2.586   5.832   4.761
 1899TIP3    H2 5704   2.597   5.715   4.857
 1900TIP3   OH2 5705   4.691   1.858   3.417
 1900TIP3    H1 5706   4.626   1.925   3.436
 1900TIP3    H2 5707   4.656   1.778   3.456
 1901TIP3   OH2 5708   4.455   3.316   4.769
 1901TIP3    H1 5709   4.373   3.346   4.729
 1901TIP3    H2 5710   4.429   3.274   4.850
 1902TIP3   OH2 5711   5.393   5.511   1.397
 1902TIP3    H1 5712   5.474   5.503   1.347
 1902TIP3    H2 5713   5.408   5.586   1.454
 1903TIP3   OH2 5714   1.988   5.024   4.768
 1903TIP3    H1 5715   2.012   4.947   4.716
 1903TIP3    H2 5716   2.002   4.997   4.858
 1904TIP3   OH2 5717   3.918   4.255   4.735
 1904TIP3    H1 5718   3.979   4.198   4.781
 1904TIP3    H2 5719   3.885   4.202   4.663
 1905TIP3   OH2 5720   2.329   3.612   2.207
 1905TIP3    H1 5721   2.337   3.565   2.290
 1905TIP3    H2 5722   2.240   3.594   2.177
 1906TIP3   OH2 5723   0.552   3.364   4.416
 1906TIP3    H1 5724   0.580   3.432   4.478
 1906TIP3    H2 5725   0.472   3.397   4.377
 1907TIP3   OH2 5726   2.214   2.012   4.815
 1907TIP3    H1 5727   2.231   1.919   4.803
 1907TIP3    H2 5728   2.120   2.017   4.833
 1908TIP3   OH2 5729   1.760   4.869   2.294
 1908TIP3    H1 5730   1.707   4.935   2.339
 1908TIP3    H2 5731   1.809   4.918   2.229
 1909TIP3   OH2 5732   5.766   1.929   4.415
 1909TIP3    H1 5733   5.685   1.939   4.365
 1909TIP3    H2 5734   5.830   1.980   4.366
 1910TIP3   OH2 5735   0.869   5.687   4.701
 1910TIP3    H1 5736   0.942   5.630   4.726
 1910TIP3    H2 5737   0.870   5.757   4.766
 1911TIP3   OH2 5738   1.009   4.417   2.007
 1911TIP3    H1 5739   1.091   4.439   1.963
 1911TIP3    H2 5740   0.956   4.374   1.939
 1912TIP3   OH2 5741   5.345   1.207   3.145
 1912TIP3    H1 5742   5.338   1.159   3.062
 1912TIP3    H2 5743   5.310   1.146   3.210
 1913TIP3   OH2 5744   4.503   5.509   2.762
 1913TIP3    H1 5745   4.503   5.581   2.826
 1913TIP3    H2 5746   4.574   5.531   2.702
 1914TIP3   OH2 5747   6.011   0.328   4.093
 1914TIP3    H1 5748   6.001   0.394   4.024
 1914TIP3    H2 5749   6.035   0.248   4.046
 1915TIP3   OH2 5750   2.940   1.922   4.821
 1915TIP3    H1 5751   2.997   1.869   4.765
 1915TIP3    H2 5752   2.862   1.868   4.834
 1916TIP3   OH2 5753   4.447   5.235   1.485
 1916TIP3    H1 5754   4.387   5.309   1.479
 1916TIP3    H2 5755   4.477   5.234   1.576
 1917TIP3   OH2 5756   4.443   1.149   4.107
 1917TIP3    H1 5757   4.467   1.212   4.174
 1917TIP3    H2 5758   4.375   1.192   4.055
 1918TIP3   OH2 5759   5.440   5.492   4.556
 1918TIP3    H1 5760   5.400   5.488   4.642
 1918TIP3    H2 5761   5.513   5.553   4.566
 1919TIP3   OH2 5762   3.564   1.250   3.191
 1919TIP3    H1 5763   3.501   1.204   3.248
 1919TIP3    H2 5764   3.596   1.322   3.244
 1920TIP3   OH2 5765   1.194   4.164   0.985
 1920TIP3    H1 5766   1.149   4.246   1.006
 1920TIP3    H2 5767   1.152   4.098   1.040
 1921TIP3   OH2 5768   3.199   5.603   0.557
 1921TIP3    H1 5769   3.106   5.616   0.577
 1921TIP3    H2 5770   3.244   5.672   0.605
 1922TIP3   OH2 5771   4.601   0.274   4.690
 1922TIP3    H1 5772   4.523   0.259   4.744
 1922TIP3    H2 5773   4.665   0.314   4.750
 1923TIP3   OH2 5774   1.961   1.805   2.126
 1923TIP3    H1 5775   2.038   1.813   2.069
 1923TIP3    H2 5776   1.928   1.895   2.133
 1924TIP3   OH2 5777   4.928   4.094   1.896
 1924TIP3    H1 5778   4.892   4.179   1.873
 1924TIP3    H2 5779   4.972   4.064   1.816
 1925TIP3   OH2 5780   0.800   3.317   2.043
 1925TIP3    H1 5781   0.852   3.387   2.083
 1925TIP3    H2 5782   0.862   3.269   1.989
 1926TIP3   OH2 5783   2.978   2.170   1.018
 1926TIP3    H1 5784   3.042   2.113   1.060
 1926TIP3    H2 5785   2.950   2.231   1.087
 1927TIP3   OH2 5786   3.086   3.415   0.231
 1927TIP3    H1 5787   3.107   3.325   0.205
 1927TIP3    H2 5788   2.994   3.412   0.256
 1928TIP3   OH2 5789   5.731   4.455   3.518
 1928TIP3    H1 5790   5.814   4.500   3.502
 1928TIP3    H2 5791   5.744   4.408   3.600
 1929TIP3   OH2 5792   1.283   0.466   4.845
 1929TIP3    H1 5793   1.216   0.532   4.868
 1929TIP3    H2 5794   1.323   0.443   4.929
 1930TIP3   OH2 5795   1.467   4.151   1.145
 1930TIP3    H1 5796   1.398   4.100   1.102
 1930TIP3    H2 5797   1.524   4.180   1.073
 1931TIP3   OH2 5798   3.607   0.198   3.584
 1931TIP3    H1 5799   3.553   0.271   3.553
 1931TIP3    H2 5800   3.683   0.198   3.526
 1932TIP3   OH2 5801   3.749   1.924   0.533
 1932TIP3    H1 5802   3.789   1.987   0.472
 1932TIP3    H2 5803   3.723   1.850   0.478
 1933TIP3   OH2 5804   5.990   4.351   2.180
 1933TIP3    H1 5805   5.992   4.261   2.213
 1933TIP3    H2 5806   6.047   4.350   2.103
 1934TIP3   OH2 5807   3.123   1.369   3.289
 1934TIP3    H1 5808   3.126   1.342   3.198
 1934TIP3    H2 5809   3.210   1.405   3.307
 1935TIP3   OH2 5810   1.510   1.528   3.155
 1935TIP3    H1 5811   1.423   1.561   3.130
 1935TIP3    H2 5812   1.564   1.544   3.078
 1936TIP3   OH2 5813   6.218   3.212   1.305
 1936TIP3    H1 5814   6.274   3.153   1.254
 1936TIP3    H2 5815   6.239   3.191   1.396
 1937TIP3   OH2 5816   0.097   4.614   0.962
 1937TIP3    H1 5817   0.104   4.519   0.950
 1937TIP3    H2 5818   0.016   4.638   0.917
 1938TIP3   OH2 5819   2.714   2.658   3.754
 1938TIP3    H1 5820   2.648   2.590   3.744
 1938TIP3    H2 5821   2.681   2.732   3.703
 1939TIP3   OH2 5822   3.137   2.480   2.322
 1939TIP3    H1 5823   3.140   2.572   2.296
 1939TIP3    H2 5824   3.125   2.482   2.417
 1940TIP3   OH2 5825   6.380   0.814   4.196
 1940TIP3    H1 5826   6.288   0.830   4.178
 1940TIP3    H2 5827   6.387   0.718   4.203
 1941TIP3   OH2 5828   3.140   3.185   2.249
 1941TIP3    H1 5829   3.222   3.179   2.299
 1941TIP3    H2 5830   3.071   3.188   2.315
 1942TIP3   OH2 5831   5.646   2.711   4.615
 1942TIP3    H1 5832   5.618   2.761   4.538
 1942TIP3    H2 5833   5.709   2.648   4.581
 1943TIP3   OH2 5834   0.814   1.523   1.145
 1943TIP3    H1 5835   0.739   1.566   1.104
 1943TIP3    H2 5836   0.822   1.440   1.098
 1944TIP3   OH2 5837   5.326   3.481   2.031
 1944TIP3    H1 5838   5.417   3.508   2.023
 1944TIP3    H2 5839   5.283   3.518   1.953
 1945TIP3   OH2 5840   2.564   4.472   1.129
 1945TIP3    H1 5841   2.521   4.506   1.051
 1945TIP3    H2 5842   2.657   4.472   1.107
 1946TIP3   OH2 5843   2.746   3.609   0.214
 1946TIP3    H1 5844   2.795   3.653   0.284
 1946TIP3    H2 5845   2.807   3.608   0.140
 1947TIP3   OH2 5846   0.043   1.924   1.315
 1947TIP3    H1 5847   0.086   1.885   1.238
 1947TIP3    H2 5848   0.007   1.848   1.362
 1948TIP3   OH2 5849   5.042   2.309   3.194
 1948TIP3    H1 5850   4.950   2.306   3.167
 1948TIP3    H2 5851   5.047   2.247   3.267
 1949TIP3   OH2 5852   4.896   4.188   2.167
 1949TIP3    H1 5853   4.931   4.152   2.085
 1949TIP3    H2 5854   4.801   4.185   2.155
 1950TIP3   OH2 5855   5.699   0.728   5.060
 1950TIP3    H1 5856   5.727   0.808   5.015
 1950TIP3    H2 5857   5.685   0.755   5.151
 1951TIP3   OH2 5858   2.443   0.900   3.619
 1951TIP3    H1 5859   2.535   0.923   3.628
 1951TIP3    H2 5860   2.427   0.901   3.524
 1952TIP3   OH2 5861   3.955   5.580   4.986
 1952TIP3    H1 5862   3.911   5.647   4.935
 1952TIP3    H2 5863   4.032   5.624   5.022
 1953TIP3   OH2 5864   4.728   2.424   0.292
 1953TIP3    H1 5865   4.713   2.477   0.214
 1953TIP3    H2 5866   4.640   2.397   0.320
 1954TIP3   OH2 5867   1.031   3.431   2.470
 1954TIP3    H1 5868   1.116   3.473   2.478
 1954TIP3    H2 5869   1.051   3.338   2.458
 1955TIP3   OH2 5870   6.345   2.397   0.477
 1955TIP3    H1 5871   6.313   2.454   0.407
 1955TIP3    H2 5872   6.398   2.455   0.532
 1956TIP3   OH2 5873   1.099   0.063   4.515
 1956TIP3    H1 5874   1.163   0.120   4.474
 1956TIP3    H2 5875   1.150  -0.012   4.547
 1957TIP3   OH2 5876   5.838   0.494  -0.005
 1957TIP3    H1 5877   5.911   0.532  -0.055
 1957TIP3    H2 5878   5.759   0.528  -0.047
 1958TIP3   OH2 5879   3.654   4.084   3.209
 1958TIP3    H1 5880   3.629   4.095   3.117
 1958TIP3    H2 5881   3.694   3.997   3.212
 1959TIP3   OH2 5882   1.605   0.109   2.528
 1959TIP3    H1 5883   1.634   0.056   2.454
 1959TIP3    H2 5884   1.526   0.153   2.497
 1960TIP3   OH2 5885   3.337   0.569   0.619
 1960TIP3    H1 5886   3.371   0.608   0.700
 1960TIP3    H2 5887   3.320   0.477   0.642
 1961TIP3   OH2 5888   2.972   5.993   3.877
 1961TIP3    H1 5889   2.938   6.007   3.966
 1961TIP3    H2 5890   3.021   5.911   3.883
 1962TIP3   OH2 5891   1.304   5.538   0.632
 1962TIP3    H1 5892   1.233   5.505   0.687
 1962TIP3    H2 5893   1.298   5.488   0.551
 1963TIP3   OH2 5894   3.374   4.180   0.043
 1963TIP3    H1 5895   3.446   4.123   0.016
 1963TIP3    H2 5896   3.359   4.237  -0.033
 1964TIP3   OH2 5897   3.995   0.726   1.460
 1964TIP3    H1 5898   4.054   0.772   1.519
 1964TIP3    H2 5899   3.972   0.645   1.506
 1965TIP3   OH2 5900   4.626   0.994   4.498
 1965TIP3    H1 5901   4.567   0.923   4.527
 1965TIP3    H2 5902   4.616   0.995   4.403
 1966TIP3   OH2 5903   6.283   4.357   3.567
 1966TIP3    H1 5904   6.231   4.291   3.520
 1966TIP3    H2 5905   6.337   4.306   3.628
 1967TIP3   OH2 5906   4.272   4.872   3.048
 1967TIP3    H1 5907   4.305   4.947   3.098
 1967TIP3    H2 5908   4.346   4.844   2.995
 1968TIP3   OH2 5909   0.714   1.095   3.612
 1968TIP3    H1 5910   0.789   1.066   3.664
 1968TIP3    H2 5911   0.638   1.074   3.666
 1969TIP3   OH2 5912   0.733   2.266   1.951
 1969TIP3    H1 5913   0.820   2.261   1.991
 1969TIP3    H2 5914   0.704   2.175   1.947
 1970TIP3   OH2 5915   1.679   1.363   4.212
 1970TIP3    H1 5916   1.689   1.269   4.221
 1970TIP3    H2 5917   1.586   1.379   4.229
 1971TIP3   OH2 5918   5.662   3.876   1.799
 1971TIP3    H1 5919   5.755   3.868   1.776
 1971TIP3    H2 5920   5.661   3.877   1.895
 1972TIP3   OH2 5921   2.971   3.808   1.214
 1972TIP3    H1 5922   3.031   3.805   1.289
 1972TIP3    H2 5923   2.888   3.778   1.250
 1973TIP3   OH2 5924   2.842   4.555   3.573
 1973TIP3    H1 5925   2.892   4.476   3.594
 1973TIP3    H2 5926   2.907   4.617   3.541
 1974TIP3   OH2 5927   5.612   1.302   3.254
 1974TIP3    H1 5928   5.677   1.241   3.288
 1974TIP3    H2 5929   5.553   1.248   3.202
 1975TIP3   OH2 5930   1.358   3.849   2.501
 1975TIP3    H1 5931   1.288   3.785   2.490
 1975TIP3    H2 5932   1.376   3.849   2.595
 1976TIP3   OH2 5933   1.675   2.334   3.904
 1976TIP3    H1 5934   1.678   2.241   3.885
 1976TIP3    H2 5935   1.744   2.372   3.850
 1977TIP3   OH2 5936   5.848   0.976   5.089
 1977TIP3    H1 5937   5.899   1.043   5.044
 1977TIP3    H2 5938   5.762   1.016   5.101
 1978TIP3   OH2 5939   6.309   3.660   1.182
 1978TIP3    H1 5940   6.368   3.649   1.108
 1978TIP3    H2 5941   6.231   3.700   1.144
 1979TIP3   OH2 5942   3.859   0.275   2.311
 1979TIP3    H1 5943   3.765   0.291   2.305
 1979TIP3    H2 5944   3.870   0.223   2.391
 1980TIP3   OH2 5945   5.911   5.145   4.607
 1980TIP3    H1 5946   5.950   5.087   4.673
 1980TIP3    H2 5947   5.847   5.198   4.656
 1981TIP3   OH2 5948   5.030   1.944   0.526
 1981TIP3    H1 5949   5.112   1.988   0.549
 1981TIP3    H2 5950   5.043   1.853   0.551
 1982TIP3   OH2 5951   2.543   5.683   2.707
 1982TIP3    H1 5952   2.556   5.678   2.802
 1982TIP3    H2 5953   2.625   5.650   2.670
 1983TIP3   OH2 5954   3.268   3.034   0.899
 1983TIP3    H1 5955   3.293   2.987   0.979
 1983TIP3    H2 5956   3.230   3.116   0.931
 1984TIP3   OH2 5957   1.837   1.430   3.478
 1984TIP3    H1 5958   1.842   1.411   3.385
 1984TIP3    H2 5959   1.921   1.471   3.499
 1985TIP3   OH2 5960   3.453   4.518   1.859
 1985TIP3    H1 5961   3.392   4.580   1.819
 1985TIP3    H2 5962   3.535   4.567   1.867
 1986TIP3   OH2 5963   0.964   5.003   0.644
 1986TIP3    H1 5964   0.891   5.024   0.703
 1986TIP3    H2 5965   1.022   4.947   0.696
 1987TIP3   OH2 5966   0.555   0.301   2.625
 1987TIP3    H1 5967   0.637   0.311   2.576
 1987TIP3    H2 5968   0.503   0.241   2.571
 1988TIP3   OH2 5969   2.917   5.038   3.367
 1988TIP3    H1 5970   2.893   5.002   3.453
 1988TIP3    H2 5971   2.921   5.133   3.381
 1989TIP3   OH2 5972   6.146   3.084   5.063
 1989TIP3    H1 5973   6.087   3.128   5.001
 1989TIP3    H2 5974   6.223   3.140   5.065
 1990TIP3   OH2 5975   5.394   4.363   3.911
 1990TIP3    H1 5976   5.388   4.354   3.816
 1990TIP3    H2 5977   5.323   4.423   3.934
 1991TIP3   OH2 5978   2.343   2.310   5.165
 1991TIP3    H1 5979   2.371   2.401   5.155
 1991TIP3    H2 5980   2.255   2.308   5.127
 1992TIP3   OH2 5981   5.039   0.675   2.398
 1992TIP3    H1 5982   5.076   0.636   2.319
 1992TIP3    H2 5983   5.043   0.769   2.383
 1993TIP3   OH2 5984   5.663   5.803   2.354
 1993TIP3    H1 5985   5.568   5.811   2.363
 1993TIP3    H2 5986   5.684   5.844   2.270
 1994TIP3   OH2 5987   6.218   3.297   0.268
 1994TIP3    H1 5988   6.250   3.354   0.337
 1994TIP3    H2 5989   6.187   3.219   0.314
 1995TIP3   OH2 5990   1.072   2.956   0.784
 1995TIP3    H1 5991   1.147   3.014   0.797
 1995TIP3    H2 5992   1.079   2.893   0.855
 1996TIP3   OH2 5993   4.053   5.540   3.459
 1996TIP3    H1 5994   4.054   5.602   3.532
 1996TIP3    H2 5995   4.017   5.460   3.496
 1997TIP3   OH2 5996   1.876   4.173   4.876
 1997TIP3    H1 5997   1.853   4.132   4.793
 1997TIP3    H2 5998   1.811   4.139   4.938
 1998TIP3   OH2 5999   0.071   0.110   2.301
 1998TIP3    H1 6000   0.152   0.093   2.254
 1998TIP3    H2 6001   0.090   0.188   2.353
 1999TIP3   OH2 6002   1.397   3.741   1.131
 1999TIP3    H1 6003   1.308   3.742   1.095
 1999TIP3    H2 6004   1.387   3.772   1.220
 2000TIP3   OH2 6005   6.267   3.163   2.385
 2000TIP3    H1 6006   6.221   3.243   2.411
 2000TIP3    H2 6007   6.293   3.179   2.294
 2001TIP3   OH2 6008   3.925   5.284   4.936
 2001TIP3    H1 6009   4.019   5.289   4.921
 2001TIP3    H2 6010   3.905   5.363   4.987
 2002TIP3   OH2 6011   0.389   0.124   2.497
 2002TIP3    H1 6012   0.306   0.161   2.466
 2002TIP3    H2 6013   0.451   0.142   2.426
 2003TIP3   OH2 6014   4.478   2.175   2.024
 2003TIP3    H1 6015   4.433   2.230   1.960
 2003TIP3    H2 6016   4.540   2.123   1.973
 2004TIP3   OH2 6017   0.234   4.888   4.503
 2004TIP3    H1 6018   0.232   4.964   4.445
 2004TIP3    H2 6019   0.302   4.908   4.568
 2005TIP3   OH2 6020   0.458   4.849   0.426
 2005TIP3    H1 6021   0.398   4.917   0.456
 2005TIP3    H2 6022   0.545   4.880   0.451
 2006TIP3   OH2 6023   2.082   5.225   2.128
 2006TIP3    H1 6024   2.139   5.294   2.094
 2006TIP3    H2 6025   2.133   5.187   2.201
 2007TIP3   OH2 6026   5.225   0.549   0.087
 2007TIP3    H1 6027   5.316   0.578   0.094
 2007TIP3    H2 6028   5.221   0.498   0.006
 2008TIP3   OH2 6029   4.842   5.682   1.602
 2008TIP3    H1 6030   4.764   5.637   1.635
 2008TIP3    H2 6031   4.817   5.714   1.516
 2009TIP3   OH2 6032   5.149   3.590   4.551
 2009TIP3    H1 6033   5.094   3.615   4.625
 2009TIP3    H2 6034   5.087   3.563   4.483
 2010TIP3   OH2 6035   2.493   0.286   2.296
 2010TIP3    H1 6036   2.428   0.236   2.345
 2010TIP3    H2 6037   2.545   0.221   2.250
 2011TIP3   OH2 6038   6.140   0.061   4.597
 2011TIP3    H1 6039   6.139   0.154   4.575
 2011TIP3    H2 6040   6.195   0.021   4.530
 2012TIP3   OH2 6041   2.287   0.519   2.029
 2012TIP3    H1 6042   2.301   0.543   2.120
 2012TIP3    H2 6043   2.199   0.549   2.009
 2013TIP3   OH2 6044   4.563   0.533   1.302
 2013TIP3    H1 6045   4.507   0.574   1.236
 2013TIP3    H2 6046   4.637   0.593   1.311
 2014TIP3   OH2 6047   5.962   1.113   4.217
 2014TIP3    H1 6048   5.888   1.055   4.234
 2014TIP3    H2 6049   6.029   1.056   4.179
 2015TIP3   OH2 6050   3.078   4.088   2.951
 2015TIP3    H1 6051   3.055   4.080   2.858
 2015TIP3    H2 6052   2.996   4.115   2.993
 2016TIP3   OH2 6053   4.738   3.824   2.171
 2016TIP3    H1 6054   4.822   3.826   2.125
 2016TIP3    H2 6055   4.740   3.744   2.223
 2017TIP3   OH2 6056   3.183   4.183   1.818
 2017TIP3    H1 6057   3.177   4.268   1.861
 2017TIP3    H2 6058   3.099   4.140   1.838
 2018TIP3   OH2 6059   4.319   3.768   4.727
 2018TIP3    H1 6060   4.349   3.798   4.641
 2018TIP3    H2 6061   4.385   3.802   4.788
 2019TIP3   OH2 6062   0.078   1.549   4.420
 2019TIP3    H1 6063   0.001   1.496   4.443
 2019TIP3    H2 6064   0.091   1.533   4.327
 2020TIP3   OH2 6065   0.359   5.583   0.953
 2020TIP3    H1 6066   0.314   5.645   0.896
 2020TIP3    H2 6067   0.336   5.612   1.042
 2021TIP3   OH2 6068   1.927   2.926   2.651
 2021TIP3    H1 6069   1.866   2.994   2.622
 2021TIP3    H2 6070   2.012   2.970   2.657
 2022TIP3   OH2 6071   4.416   3.367   0.479
 2022TIP3    H1 6072   4.481   3.408   0.422
 2022TIP3    H2 6073   4.336   3.365   0.426
 2023TIP3   OH2 6074   2.961   5.736   4.477
 2023TIP3    H1 6075   2.995   5.777   4.556
 2023TIP3    H2 6076   2.887   5.791   4.450
 2024TIP3   OH2 6077   1.018   3.430   4.995
 2024TIP3    H1 6078   0.989   3.433   4.904
 2024TIP3    H2 6079   1.007   3.338   5.021
 2025TIP3   OH2 6080   5.450   5.701   3.870
 2025TIP3    H1 6081   5.511   5.694   3.943
 2025TIP3    H2 6082   5.502   5.738   3.798
 2026TIP3   OH2 6083   3.297   3.973   0.217
 2026TIP3    H1 6084   3.283   4.058   0.174
 2026TIP3    H2 6085   3.338   3.918   0.150
 2027TIP3   OH2 6086   5.854   2.435   4.565
 2027TIP3    H1 6087   5.883   2.370   4.501
 2027TIP3    H2 6088   5.909   2.512   4.547
 2028TIP3   OH2 6089   4.418   5.834   0.117
 2028TIP3    H1 6090   4.423   5.893   0.193
 2028TIP3    H2 6091   4.497   5.852   0.067
 2029TIP3   OH2 6092   0.315   1.636   1.237
 2029TIP3    H1 6093   0.264   1.700   1.187
 2029TIP3    H2 6094   0.388   1.687   1.272
 2030TIP3   OH2 6095   5.902   4.796   4.068
 2030TIP3    H1 6096   5.988   4.787   4.109
 2030TIP3    H2 6097   5.921   4.812   3.975
 2031TIP3   OH2 6098   3.022  -0.014   0.168
 2031TIP3    H1 6099   3.067   0.043   0.230
 2031TIP3    H2 6100   3.093  -0.053   0.116
 2032TIP3   OH2 6101   3.434   0.820   0.814
 2032TIP3    H1 6102   3.398   0.907   0.829
 2032TIP3    H2 6103   3.463   0.821   0.723
 2033TIP3   OH2 6104   4.668   2.381   3.552
 2033TIP3    H1 6105   4.677   2.464   3.505
 2033TIP3    H2 6106   4.736   2.325   3.516
 2034TIP3   OH2 6107   1.382   0.954   4.380
 2034TIP3    H1 6108   1.407   1.040   4.413
 2034TIP3    H2 6109   1.416   0.952   4.290
 2035TIP3   OH2 6110   2.415   3.157   0.615
 2035TIP3    H1 6111   2.379   3.114   0.537
 2035TIP3    H2 6112   2.355   3.133   0.685
 2036TIP3   OH2 6113   2.250   3.410   0.918
 2036TIP3    H1 6114   2.233   3.426   0.825
 2036TIP3    H2 6115   2.327   3.353   0.919
 2037TIP3   OH2 6116   4.834   6.005   2.749
 2037TIP3    H1 6117   4.897   5.936   2.728
 2037TIP3    H2 6118   4.842   6.068   2.677
 2038TIP3   OH2 6119   6.181   1.655   0.908
 2038TIP3    H1 6120   6.241   1.619   0.973
 2038TIP3    H2 6121   6.238   1.697   0.843
 2039TIP3   OH2 6122   1.406   5.880   1.995
 2039TIP3    H1 6123   1.426   5.968   2.028
 2039TIP3    H2 6124   1.483   5.828   2.018
 2040TIP3   OH2 6125   1.992   3.826   2.094
 2040TIP3    H1 6126   2.023   3.914   2.070
 2040TIP3    H2 6127   1.906   3.818   2.053
 2041TIP3   OH2 6128   2.147   0.855   0.047
 2041TIP3    H1 6129   2.149   0.878   0.139
 2041TIP3    H2 6130   2.132   0.938   0.001
 2042TIP3   OH2 6131   2.357   4.191   4.658
 2042TIP3    H1 6132   2.354   4.156   4.569
 2042TIP3    H2 6133   2.272   4.233   4.670
 2043TIP3   OH2 6134   3.997   1.178   4.523
 2043TIP3    H1 6135   3.997   1.272   4.507
 2043TIP3    H2 6136   4.019   1.169   4.615
 2044TIP3   OH2 6137   4.624   4.090   1.836
 2044TIP3    H1 6138   4.586   4.150   1.900
 2044TIP3    H2 6139   4.698   4.050   1.881
 2045TIP3   OH2 6140   4.282   4.491   1.088
 2045TIP3    H1 6141   4.313   4.577   1.061
 2045TIP3    H2 6142   4.360   4.447   1.123
 2046TIP3   OH2 6143   4.810   5.870   5.176
 2046TIP3    H1 6144   4.827   5.859   5.083
 2046TIP3    H2 6145   4.747   5.942   5.182
 2047TIP3   OH2 6146   1.763   3.826   1.959
 2047TIP3    H1 6147   1.712   3.746   1.946
 2047TIP3    H2 6148   1.803   3.843   1.874
 2048TIP3   OH2 6149   1.015   4.186   2.982
 2048TIP3    H1 6150   1.018   4.146   2.895
 2048TIP3    H2 6151   0.937   4.240   2.981
 2049TIP3   OH2 6152   5.259   1.978   3.763
 2049TIP3    H1 6153   5.191   1.996   3.699
 2049TIP3    H2 6154   5.231   1.897   3.807
 2050TIP3   OH2 6155   4.253   3.079   0.384
 2050TIP3    H1 6156   4.228   3.117   0.469
 2050TIP3    H2 6157   4.190   3.116   0.322
 2051TIP3   OH2 6158   0.405   2.172   2.698
 2051TIP3    H1 6159   0.414   2.192   2.791
 2051TIP3    H2 6160   0.476   2.221   2.656
 2052TIP3   OH2 6161   2.029   3.758   3.852
 2052TIP3    H1 6162   2.124   3.750   3.837
 2052TIP3    H2 6163   2.017   3.737   3.944
 2053TIP3   OH2 6164   1.097   3.841   1.346
 2053TIP3    H1 6165   1.137   3.889   1.418
 2053TIP3    H2 6166   1.053   3.767   1.388
 2054TIP3   OH2 6167   0.257   2.313   1.553
 2054TIP3    H1 6168   0.268   2.407   1.541
 2054TIP3    H2 6169   0.194   2.287   1.486
 2055TIP3   OH2 6170   0.749   4.672   0.066
 2055TIP3    H1 6171   0.757   4.660   0.160
 2055TIP3    H2 6172   0.838   4.693   0.037
 2056TIP3   OH2 6173   4.006   0.736   0.054
 2056TIP3    H1 6174   3.929   0.779   0.017
 2056TIP3    H2 6175   4.071   0.741  -0.017
 2057TIP3   OH2 6176   4.352   3.090   2.651
 2057TIP3    H1 6177   4.325   3.090   2.743
 2057TIP3    H2 6178   4.372   2.999   2.632
 2058TIP3   OH2 6179   2.639   0.477   3.764
 2058TIP3    H1 6180   2.573   0.415   3.794
 2058TIP3    H2 6181   2.616   0.495   3.672
 2059TIP3   OH2 6182   3.104   4.739   2.739
 2059TIP3    H1 6183   3.180   4.705   2.693
 2059TIP3    H2 6184   3.139   4.786   2.815
 2060TIP3   OH2 6185   0.313   3.521   4.667
 2060TIP3    H1 6186   0.399   3.562   4.675
 2060TIP3    H2 6187   0.259   3.564   4.734
 2061TIP3   OH2 6188   3.011   5.552   1.981
 2061TIP3    H1 6189   3.019   5.639   2.021
 2061TIP3    H2 6190   3.090   5.543   1.928
 2062TIP3   OH2 6191   4.706   1.779   2.531
 2062TIP3    H1 6192   4.620   1.801   2.495
 2062TIP3    H2 6193   4.702   1.685   2.548
 2063TIP3   OH2 6194   2.176   3.123   3.704
 2063TIP3    H1 6195   2.256   3.145   3.657
 2063TIP3    H2 6196   2.173   3.027   3.703
 2064TIP3   OH2 6197   3.516   1.355   1.114
 2064TIP3    H1 6198   3.537   1.349   1.207
 2064TIP3    H2 6199   3.433   1.307   1.105
 2065TIP3   OH2 6200   5.739   1.971   2.821
 2065TIP3    H1 6201   5.670   2.037   2.823
 2065TIP3    H2 6202   5.710   1.904   2.883
 2066TIP3   OH2 6203   6.052   3.239   4.798
 2066TIP3    H1 6204   5.975   3.231   4.742
 2066TIP3    H2 6205   6.126   3.223   4.739
 2067TIP3   OH2 6206   3.306   1.349   0.077
 2067TIP3    H1 6207   3.314   1.373   0.169
 2067TIP3    H2 6208   3.214   1.328   0.065
 2068TIP3   OH2 6209   4.336   4.074   1.270
 2068TIP3    H1 6210   4.304   4.015   1.201
 2068TIP3    H2 6211   4.423   4.042   1.291
 2069TIP3   OH2 6212   4.708   2.141   3.816
 2069TIP3    H1 6213   4.744   2.145   3.904
 2069TIP3    H2 6214   4.665   2.225   3.804
 2070TIP3   OH2 6215   3.684   5.406   0.922
 2070TIP3    H1 6216   3.711   5.492   0.955
 2070TIP3    H2 6217   3.766   5.366   0.892
 2071TIP3   OH2 6218   0.336   0.369   0.828
 2071TIP3    H1 6219   0.284   0.319   0.892
 2071TIP3    H2 6220   0.333   0.316   0.748
 2072TIP3   OH2 6221   3.454   0.485   5.141
 2072TIP3    H1 6222   3.376   0.428   5.145
 2072TIP3    H2 6223   3.429   0.562   5.191
 2073TIP3   OH2 6224   6.340   5.530   1.958
 2073TIP3    H1 6225   6.289   5.560   2.033
 2073TIP3    H2 6226   6.389   5.607   1.930
 2074TIP3   OH2 6227   6.104   0.383   4.716
 2074TIP3    H1 6228   6.121   0.477   4.719
 2074TIP3    H2 6229   6.127   0.352   4.804
 2075TIP3   OH2 6230   5.958   5.864   2.691
 2075TIP3    H1 6231   5.920   5.907   2.614
 2075TIP3    H2 6232   6.041   5.909   2.705
 2076TIP3   OH2 6233   5.151   0.242   1.563
 2076TIP3    H1 6234   5.178   0.229   1.472
 2076TIP3    H2 6235   5.099   0.323   1.561
 2077TIP3   OH2 6236   3.159   1.397   1.941
 2077TIP3    H1 6237   3.165   1.383   1.847
 2077TIP3    H2 6238   3.163   1.492   1.952
 2078TIP3   OH2 6239   4.274   3.266   0.951
 2078TIP3    H1 6240   4.196   3.319   0.934
 2078TIP3    H2 6241   4.280   3.261   1.046
 2079TIP3   OH2 6242   0.698   4.627   1.396
 2079TIP3    H1 6243   0.764   4.584   1.450
 2079TIP3    H2 6244   0.641   4.672   1.459
 2080TIP3   OH2 6245   2.751   3.758   0.731
 2080TIP3    H1 6246   2.770   3.788   0.819
 2080TIP3    H2 6247   2.825   3.703   0.707
 2081TIP3   OH2 6248   2.432   3.417   5.060
 2081TIP3    H1 6249   2.459   3.500   5.023
 2081TIP3    H2 6250   2.375   3.440   5.133
 2082TIP3   OH2 6251   2.462   1.156   1.211
 2082TIP3    H1 6252   2.493   1.239   1.174
 2082TIP3    H2 6253   2.524   1.091   1.176
 2083TIP3   OH2 6254   4.487   4.196   4.912
 2083TIP3    H1 6255   4.483   4.229   4.823
 2083TIP3    H2 6256   4.395   4.182   4.937
 2084TIP3   OH2 6257   6.009   0.577   1.188
 2084TIP3    H1 6258   5.930   0.615   1.148
 2084TIP3    H2 6259   5.994   0.483   1.185
 2085TIP3   OH2 6260   5.972   1.269   1.756
 2085TIP3    H1 6261   5.886   1.240   1.726
 2085TIP3    H2 6262   6.016   1.187   1.781
 2086TIP3   OH2 6263   6.221   0.417   2.999
 2086TIP3    H1 6264   6.299   0.369   3.028
 2086TIP3    H2 6265   6.188   0.366   2.925
 2087TIP3   OH2 6266   2.177   4.643   2.709
 2087TIP3    H1 6267   2.131   4.560   2.714
 2087TIP3    H2 6268   2.229   4.647   2.789
 2088TIP3   OH2 6269   5.364   1.765   0.160
 2088TIP3    H1 6270   5.303   1.692   0.158
 2088TIP3    H2 6271   5.309   1.843   0.150
 2089TIP3   OH2 6272   0.885   5.286   4.666
 2089TIP3    H1 6273   0.968   5.332   4.654
 2089TIP3    H2 6274   0.819   5.343   4.626
 2090TIP3   OH2 6275   4.372   5.788   4.195
 2090TIP3    H1 6276   4.323   5.845   4.254
 2090TIP3    H2 6277   4.310   5.763   4.127
 2091TIP3   OH2 6278   1.106   3.590   2.814
 2091TIP3    H1 6279   1.157   3.598   2.894
 2091TIP3    H2 6280   1.087   3.496   2.807
 2092TIP3   OH2 6281   5.557   5.481   3.395
 2092TIP3    H1 6282   5.518   5.430   3.466
 2092TIP3    H2 6283   5.645   5.444   3.384
 2093TIP3   OH2 6284   0.239   5.640   1.508
 2093TIP3    H1 6285   0.164   5.604   1.460
 2093TIP3    H2 6286   0.303   5.569   1.507
 2094TIP3   OH2 6287   1.893   5.686   2.956
 2094TIP3    H1 6288   1.885   5.782   2.958
 2094TIP3    H2 6289   1.861   5.662   2.869
 2095TIP3   OH2 6290   2.515   5.180   0.424
 2095TIP3    H1 6291   2.572   5.248   0.387
 2095TIP3    H2 6292   2.439   5.178   0.366
 2096TIP3   OH2 6293   2.839   0.813   5.109
 2096TIP3    H1 6294   2.911   0.875   5.097
 2096TIP3    H2 6295   2.760   0.868   5.112
 2097TIP3   OH2 6296   1.232   0.816   4.078
 2097TIP3    H1 6297   1.191   0.860   4.003
 2097TIP3    H2 6298   1.316   0.859   4.088
 2098TIP3   OH2 6299   5.768   0.786   3.604
 2098TIP3    H1 6300   5.736   0.872   3.628
 2098TIP3    H2 6301   5.862   0.799   3.589
 2099TIP3   OH2 6302   2.784   5.695   4.032
 2099TIP3    H1 6303   2.799   5.789   4.038
 2099TIP3    H2 6304   2.692   5.686   4.008
 2100TIP3   OH2 6305   5.592   0.404   0.752
 2100TIP3    H1 6306   5.535   0.368   0.820
 2100TIP3    H2 6307   5.599   0.333   0.688
 2101TIP3   OH2 6308   1.334   5.405   3.139
 2101TIP3    H1 6309   1.297   5.486   3.105
 2101TIP3    H2 6310   1.311   5.339   3.074
 2102TIP3   OH2 6311   0.383   0.108   0.677
 2102TIP3    H1 6312   0.444   0.052   0.628
 2102TIP3    H2 6313   0.339   0.048   0.737
 2103TIP3   OH2 6314   1.284   1.276   2.528
 2103TIP3    H1 6315   1.296   1.192   2.572
 2103TIP3    H2 6316   1.365   1.324   2.546
 2104TIP3   OH2 6317   5.685   0.154   0.883
 2104TIP3    H1 6318   5.664   0.154   0.789
 2104TIP3    H2 6319   5.615   0.206   0.923
 2105TIP3   OH2 6320   0.977   5.734   1.434
 2105TIP3    H1 6321   0.920   5.811   1.442
 2105TIP3    H2 6322   1.054   5.767   1.386
 2106TIP3   OH2 6323   5.323   2.724   1.656
 2106TIP3    H1 6324   5.233   2.737   1.686
 2106TIP3    H2 6325   5.317   2.647   1.599
 2107TIP3   OH2 6326   4.699   2.915   3.835
 2107TIP3    H1 6327   4.609   2.894   3.811
 2107TIP3    H2 6328   4.726   2.844   3.894
 2108TIP3   OH2 6329   0.759   0.075   2.494
 2108TIP3    H1 6330   0.684   0.109   2.445
 2108TIP3    H2 6331   0.831   0.134   2.472
 2109TIP3   OH2 6332   2.285   1.402   3.682
 2109TIP3    H1 6333   2.259   1.399   3.774
 2109TIP3    H2 6334   2.284   1.310   3.653
 2110TIP3   OH2 6335   2.738   4.430   4.778
 2110TIP3    H1 6336   2.793   4.375   4.834
 2110TIP3    H2 6337   2.796   4.500   4.749
 2111TIP3   OH2 6338   3.729   2.636   4.905
 2111TIP3    H1 6339   3.702   2.573   4.838
 2111TIP3    H2 6340   3.816   2.607   4.932
 2112TIP3   OH2 6341   6.305   3.569   3.861
 2112TIP3    H1 6342   6.238   3.621   3.817
 2112TIP3    H2 6343   6.286   3.478   3.835
 2113TIP3   OH2 6344   2.632   3.202   5.062
 2113TIP3    H1 6345   2.602   3.112   5.071
 2113TIP3    H2 6346   2.552   3.255   5.070
 2114TIP3   OH2 6347   6.226   5.712   4.977
 2114TIP3    H1 6348   6.251   5.781   5.039
 2114TIP3    H2 6349   6.265   5.633   5.014
 2115TIP3   OH2 6350   2.433   2.308   1.274
 2115TIP3    H1 6351   2.432   2.403   1.278
 2115TIP3    H2 6352   2.407   2.280   1.362
 2116TIP3   OH2 6353   5.632   3.981   0.235
 2116TIP3    H1 6354   5.649   4.023   0.150
 2116TIP3    H2 6355   5.539   3.996   0.250
 2117TIP3   OH2 6356   5.451   5.737   1.553
 2117TIP3    H1 6357   5.445   5.819   1.604
 2117TIP3    H2 6358   5.525   5.690   1.592
 2118TIP3   OH2 6359   2.738   0.378   1.026
 2118TIP3    H1 6360   2.688   0.457   1.046
 2118TIP3    H2 6361   2.829   0.402   1.046
 2119TIP3   OH2 6362  -0.032   0.553   1.742
 2119TIP3    H1 6363   0.054   0.564   1.782
 2119TIP3    H2 6364  -0.014   0.550   1.648
 2120TIP3   OH2 6365   0.309   4.615   4.812
 2120TIP3    H1 6366   0.306   4.536   4.758
 2120TIP3    H2 6367   0.256   4.593   4.889
 2121TIP3   OH2 6368   3.084   2.867   4.014
 2121TIP3    H1 6369   3.066   2.789   3.961
 2121TIP3    H2 6370   3.069   2.838   4.104
 2122TIP3   OH2 6371   6.099   5.615   3.032
 2122TIP3    H1 6372   6.099   5.530   3.076
 2122TIP3    H2 6373   6.006   5.633   3.016
 2123TIP3   OH2 6374   3.993   5.153   3.747
 2123TIP3    H1 6375   3.922   5.216   3.747
 2123TIP3    H2 6376   3.986   5.108   3.831
 2124TIP3   OH2 6377   4.444   2.972   4.741
 2124TIP3    H1 6378   4.442   2.876   4.740
 2124TIP3    H2 6379   4.420   2.995   4.831
 2125TIP3   OH2 6380   2.390   0.941   0.808
 2125TIP3    H1 6381   2.374   0.854   0.844
 2125TIP3    H2 6382   2.473   0.931   0.760
 2126TIP3   OH2 6383   1.834   5.816   1.141
 2126TIP3    H1 6384   1.826   5.911   1.135
 2126TIP3    H2 6385   1.824   5.796   1.234
 2127TIP3   OH2 6386   5.159   1.290   0.222
 2127TIP3    H1 6387   5.236   1.253   0.264
 2127TIP3    H2 6388   5.088   1.228   0.242
 2128TIP3   OH2 6389   3.235   3.861   4.331
 2128TIP3    H1 6390   3.251   3.772   4.362
 2128TIP3    H2 6391   3.322   3.899   4.319
 2129TIP3   OH2 6392   5.416   0.789   3.948
 2129TIP3    H1 6393   5.402   0.737   4.027
 2129TIP3    H2 6394   5.449   0.727   3.884
 2130TIP3   OH2 6395   5.213   2.805   4.077
 2130TIP3    H1 6396   5.266   2.754   4.017
 2130TIP3    H2 6397   5.244   2.895   4.067
 2131TIP3   OH2 6398   4.215   5.007   3.696
 2131TIP3    H1 6399   4.267   4.995   3.776
 2131TIP3    H2 6400   4.154   5.077   3.718
 2132TIP3   OH2 6401   1.783   3.043   4.500
 2132TIP3    H1 6402   1.786   2.999   4.415
 2132TIP3    H2 6403   1.705   3.008   4.542
 2133TIP3   OH2 6404   4.414   2.009   3.168
 2133TIP3    H1 6405   4.376   1.922   3.173
 2133TIP3    H2 6406   4.351   2.061   3.119
 2134TIP3   OH2 6407   1.899   1.353   4.023
 2134TIP3    H1 6408   1.815   1.340   4.068
 2134TIP3    H2 6409   1.946   1.271   4.037
 2135TIP3   OH2 6410   1.909   1.150   2.373
 2135TIP3    H1 6411   1.951   1.094   2.309
 2135TIP3    H2 6412   1.979   1.207   2.405
 2136TIP3   OH2 6413   5.436   3.860   2.434
 2136TIP3    H1 6414   5.528   3.885   2.434
 2136TIP3    H2 6415   5.389   3.944   2.436
 2137TIP3   OH2 6416   3.199   1.932   2.769
 2137TIP3    H1 6417   3.162   1.928   2.681
 2137TIP3    H2 6418   3.257   1.855   2.773
 2138TIP3   OH2 6419   0.182   5.086   4.286
 2138TIP3    H1 6420   0.193   5.154   4.353
 2138TIP3    H2 6421   0.139   5.130   4.213
 2139TIP3   OH2 6422   1.023   3.095   4.320
 2139TIP3    H1 6423   0.970   3.091   4.241
 2139TIP3    H2 6424   1.102   3.045   4.299
 2140TIP3   OH2 6425   4.385   1.713   0.323
 2140TIP3    H1 6426   4.443   1.767   0.376
 2140TIP3    H2 6427   4.382   1.629   0.369
 2141TIP3   OH2 6428   1.259   5.187   4.418
 2141TIP3    H1 6429   1.280   5.099   4.387
 2141TIP3    H2 6430   1.231   5.175   4.509
 2142TIP3   OH2 6431   4.075   1.309   1.247
 2142TIP3    H1 6432   4.170   1.310   1.236
 2142TIP3    H2 6433   4.050   1.218   1.232
 2143TIP3   OH2 6434   2.361   0.734   0.964
 2143TIP3    H1 6435   2.365   0.798   1.036
 2143TIP3    H2 6436   2.275   0.692   0.974
 2144TIP3   OH2 6437   3.878   0.079   3.197
 2144TIP3    H1 6438   3.845   0.014   3.135
 2144TIP3    H2 6439   3.966   0.099   3.165
 2145TIP3   OH2 6440   1.822   5.271   3.890
 2145TIP3    H1 6441   1.897   5.214   3.872
 2145TIP3    H2 6442   1.824   5.285   3.985
 2146TIP3   OH2 6443   0.512   1.137   4.451
 2146TIP3    H1 6444   0.472   1.222   4.471
 2146TIP3    H2 6445   0.533   1.141   4.358
 2147TIP3   OH2 6446   4.512   5.195   5.117
 2147TIP3    H1 6447   4.516   5.129   5.047
 2147TIP3    H2 6448   4.549   5.274   5.077
 2148TIP3   OH2 6449   5.007   5.349   3.645
 2148TIP3    H1 6450   4.950   5.351   3.568
 2148TIP3    H2 6451   4.954   5.389   3.714
 2149TIP3   OH2 6452   2.793   5.297   0.531
 2149TIP3    H1 6453   2.744   5.380   0.528
 2149TIP3    H2 6454   2.866   5.310   0.471
 2150TIP3   OH2 6455   2.771   5.527   4.680
 2150TIP3    H1 6456   2.846   5.559   4.730
 2150TIP3    H2 6457   2.720   5.606   4.661
 2151TIP3   OH2 6458   2.953   1.189   1.351
 2151TIP3    H1 6459   3.026   1.172   1.291
 2151TIP3    H2 6460   2.956   1.116   1.413
 2152TIP3   OH2 6461   4.922   5.039   4.627
 2152TIP3    H1 6462   4.886   4.956   4.658
 2152TIP3    H2 6463   4.857   5.071   4.564
 2153TIP3   OH2 6464   4.818   0.735   4.489
 2153TIP3    H1 6465   4.732   0.774   4.477
 2153TIP3    H2 6466   4.852   0.777   4.568
 2154TIP3   OH2 6467   3.055   0.485   0.993
 2154TIP3    H1 6468   3.037   0.476   0.899
 2154TIP3    H2 6469   3.145   0.518   0.997
 2155TIP3   OH2 6470   2.876   2.814   5.160
 2155TIP3    H1 6471   2.845   2.848   5.076
 2155TIP3    H2 6472   2.880   2.891   5.217
 2156TIP3   OH2 6473   1.901   5.799   0.876
 2156TIP3    H1 6474   1.987   5.842   0.876
 2156TIP3    H2 6475   1.875   5.797   0.968
 2157TIP3   OH2 6476   4.674   5.728   1.955
 2157TIP3    H1 6477   4.693   5.712   2.047
 2157TIP3    H2 6478   4.756   5.761   1.919
 2158TIP3   OH2 6479   4.669   5.160   2.875
 2158TIP3    H1 6480   4.715   5.234   2.916
 2158TIP3    H2 6481   4.717   5.083   2.907
 2159TIP3   OH2 6482   6.236   2.914   4.549
 2159TIP3    H1 6483   6.240   2.923   4.454
 2159TIP3    H2 6484   6.315   2.864   4.572
 2160TIP3   OH2 6485   3.867   3.250   2.614
 2160TIP3    H1 6486   3.880   3.245   2.709
 2160TIP3    H2 6487   3.837   3.163   2.590
 2161TIP3   OH2 6488   6.092   4.292   2.606
 2161TIP3    H1 6489   6.038   4.365   2.638
 2161TIP3    H2 6490   6.172   4.333   2.575
 2162TIP3   OH2 6491   2.863   2.317   0.134
 2162TIP3    H1 6492   2.829   2.383   0.073
 2162TIP3    H2 6493   2.856   2.235   0.086
 2163TIP3   OH2 6494   1.650   4.351   5.061
 2163TIP3    H1 6495   1.616   4.439   5.078
 2163TIP3    H2 6496   1.719   4.364   4.996
 2164TIP3   OH2 6497  -0.002   4.046   0.236
 2164TIP3    H1 6498  -0.051   4.118   0.275
 2164TIP3    H2 6499   0.024   4.079   0.150
 2165TIP3   OH2 6500   0.064   2.053   4.850
 2165TIP3    H1 6501   0.063   2.132   4.904
 2165TIP3    H2 6502   0.122   1.993   4.897
 2166TIP3   OH2 6503   0.446   5.691   5.000
 2166TIP3    H1 6504   0.354   5.685   4.974
 2166TIP3    H2 6505   0.477   5.773   4.960
 2167TIP3   OH2 6506   3.989   4.459   1.484
 2167TIP3    H1 6507   4.036   4.527   1.436
 2167TIP3    H2 6508   3.926   4.424   1.420
 2168TIP3   OH2 6509   2.192   0.182   4.296
 2168TIP3    H1 6510   2.113   0.144   4.335
 2168TIP3    H2 6511   2.249   0.107   4.281
 2169TIP3   OH2 6512   3.251   5.876   0.712
 2169TIP3    H1 6513   3.161   5.898   0.735
 2169TIP3    H2 6514   3.279   5.946   0.653
 2170TIP3   OH2 6515   4.608   4.690   1.179
 2170TIP3    H1 6516   4.666   4.620   1.211
 2170TIP3    H2 6517   4.627   4.696   1.085
 2171TIP3   OH2 6518   1.269   1.835   1.800
 2171TIP3    H1 6519   1.216   1.794   1.732
 2171TIP3    H2 6520   1.265   1.773   1.874
 2172TIP3   OH2 6521   1.737   2.881   3.988
 2172TIP3    H1 6522   1.648   2.859   3.960
 2172TIP3    H2 6523   1.733   2.975   4.007
 2173TIP3   OH2 6524   4.182   5.218   1.603
 2173TIP3    H1 6525   4.145   5.186   1.520
 2173TIP3    H2 6526   4.229   5.143   1.639
 2174TIP3   OH2 6527   2.375   3.033   2.431
 2174TIP3    H1 6528   2.423   3.062   2.353
 2174TIP3    H2 6529   2.283   3.043   2.407
 2175TIP3   OH2 6530   4.202   4.673   0.134
 2175TIP3    H1 6531   4.259   4.694   0.209
 2175TIP3    H2 6532   4.123   4.724   0.150
 2176TIP3   OH2 6533   1.323   1.470   0.738
 2176TIP3    H1 6534   1.267   1.393   0.725
 2176TIP3    H2 6535   1.365   1.454   0.822
 2177TIP3   OH2 6536   0.161   3.048   2.451
 2177TIP3    H1 6537   0.073   3.017   2.470
 2177TIP3    H2 6538   0.167   3.044   2.355
 2178TIP3   OH2 6539   4.957   1.564   0.711
 2178TIP3    H1 6540   5.049   1.569   0.684
 2178TIP3    H2 6541   4.956   1.597   0.800
 2179TIP3   OH2 6542   4.472   1.903   4.416
 2179TIP3    H1 6543   4.420   1.868   4.343
 2179TIP3    H2 6544   4.417   1.890   4.493
 2180TIP3   OH2 6545   4.006   0.215   0.843
 2180TIP3    H1 6546   3.992   0.208   0.749
 2180TIP3    H2 6547   4.043   0.303   0.856
 2181TIP3   OH2 6548   1.152   5.441   4.704
 2181TIP3    H1 6549   1.215   5.405   4.766
 2181TIP3    H2 6550   1.122   5.523   4.744
 2182TIP3   OH2 6551   5.921   1.441   1.149
 2182TIP3    H1 6552   5.859   1.448   1.076
 2182TIP3    H2 6553   5.959   1.528   1.157
 2183TIP3   OH2 6554   5.716   2.254   3.886
 2183TIP3    H1 6555   5.679   2.329   3.838
 2183TIP3    H2 6556   5.640   2.212   3.927
 2184TIP3   OH2 6557   6.230   0.993   3.276
 2184TIP3    H1 6558   6.274   0.911   3.299
 2184TIP3    H2 6559   6.144   0.966   3.243
 2185TIP3   OH2 6560   2.674   0.487   0.232
 2185TIP3    H1 6561   2.728   0.507   0.156
 2185TIP3    H2 6562   2.600   0.549   0.226
 2186TIP3   OH2 6563   2.314   5.953   4.508
 2186TIP3    H1 6564   2.225   5.988   4.500
 2186TIP3    H2 6565   2.321   5.889   4.438
 2187TIP3   OH2 6566   0.275   0.407   0.265
 2187TIP3    H1 6567   0.232   0.393   0.350
 2187TIP3    H2 6568   0.358   0.449   0.287
 2188TIP3   OH2 6569   3.612   4.569   5.096
 2188TIP3    H1 6570   3.629   4.632   5.025
 2188TIP3    H2 6571   3.697   4.560   5.140
 2189TIP3   OH2 6572   2.439   3.439   2.424
 2189TIP3    H1 6573   2.427   3.440   2.519
 2189TIP3    H2 6574   2.534   3.451   2.412
 2190TIP3   OH2 6575   4.556   1.140   4.818
 2190TIP3    H1 6576   4.544   1.230   4.848
 2190TIP3    H2 6577   4.468   1.105   4.810
 2191TIP3   OH2 6578   5.378   4.266   4.518
 2191TIP3    H1 6579   5.310   4.332   4.529
 2191TIP3    H2 6580   5.342   4.206   4.453
 2192TIP3   OH2 6581   3.599   0.209   4.477
 2192TIP3    H1 6582   3.645   0.268   4.417
 2192TIP3    H2 6583   3.517   0.255   4.496
 2193TIP3   OH2 6584   1.115   4.545   3.949
 2193TIP3    H1 6585   1.156   4.518   3.867
 2193TIP3    H2 6586   1.156   4.490   4.016
 2194TIP3   OH2 6587   3.297   5.726   3.353
 2194TIP3    H1 6588   3.338   5.804   3.391
 2194TIP3    H2 6589   3.370   5.670   3.328
 2195TIP3   OH2 6590   5.808   3.114   2.397
 2195TIP3    H1 6591   5.854   3.046   2.349
 2195TIP3    H2 6592   5.789   3.075   2.483
 2196TIP3   OH2 6593   1.130   3.719   1.080
 2196TIP3    H1 6594   1.048   3.746   1.036
 2196TIP3    H2 6595   1.105   3.708   1.172
 2197TIP3   OH2 6596   4.199   1.687   4.974
 2197TIP3    H1 6597   4.206   1.782   4.974
 2197TIP3    H2 6598   4.108   1.670   5.000
 2198TIP3   OH2 6599   2.811   5.355   1.883
 2198TIP3    H1 6600   2.886   5.386   1.934
 2198TIP3    H2 6601   2.810   5.410   1.805
 2199TIP3   OH2 6602   5.148   1.722   3.910
 2199TIP3    H1 6603   5.087   1.773   3.964
 2199TIP3    H2 6604   5.133   1.631   3.936
 2200TIP3   OH2 6605   2.819   3.543   4.561
 2200TIP3    H1 6606   2.888   3.554   4.626
 2200TIP3    H2 6607   2.801   3.632   4.529
 2201TIP3   OH2 6608   1.492   5.913   0.386
 2201TIP3    H1 6609   1.542   5.983   0.429
 2201TIP3    H2 6610   1.408   5.913   0.432
 2202TIP3   OH2 6611   5.175   5.183   4.496
 2202TIP3    H1 6612   5.082   5.159   4.490
 2202TIP3    H2 6613   5.176   5.277   4.480
 2203TIP3   OH2 6614   6.077   2.079   0.766
 2203TIP3    H1 6615   6.093   2.081   0.861
 2203TIP3    H2 6616   6.162   2.099   0.727
 2204TIP3   OH2 6617   3.757   4.864   3.599
 2204TIP3    H1 6618   3.741   4.867   3.693
 2204TIP3    H2 6619   3.845   4.899   3.589
 2205TIP3   OH2 6620   5.585   1.076   1.525
 2205TIP3    H1 6621   5.608   1.097   1.615
 2205TIP3    H2 6622   5.665   1.040   1.487
 2206TIP3   OH2 6623   0.454   5.073   3.857
 2206TIP3    H1 6624   0.400   5.118   3.793
 2206TIP3    H2 6625   0.397   5.006   3.895
 2207TIP3   OH2 6626   0.198   5.008   4.947
 2207TIP3    H1 6627   0.119   5.035   4.900
 2207TIP3    H2 6628   0.250   4.963   4.881
 2208TIP3   OH2 6629   5.609   4.167   4.815
 2208TIP3    H1 6630   5.696   4.129   4.825
 2208TIP3    H2 6631   5.599   4.223   4.892
 2209TIP3   OH2 6632   3.681   0.540   4.680
 2209TIP3    H1 6633   3.741   0.575   4.614
 2209TIP3    H2 6634   3.726   0.462   4.714
 2210TIP3   OH2 6635   4.758   2.586   0.053
 2210TIP3    H1 6636   4.853   2.576   0.058
 2210TIP3    H2 6637   4.744   2.644  -0.022
 2211TIP3   OH2 6638   0.814   1.210   1.203
 2211TIP3    H1 6639   0.899   1.228   1.163
 2211TIP3    H2 6640   0.803   1.115   1.195
 2212TIP3   OH2 6641   4.630   4.329   0.662
 2212TIP3    H1 6642   4.626   4.238   0.689
 2212TIP3    H2 6643   4.545   4.347   0.621
 2213TIP3   OH2 6644   0.628   3.458   2.260
 2213TIP3    H1 6645   0.608   3.414   2.343
 2213TIP3    H2 6646   0.594   3.399   2.193
 2214TIP3   OH2 6647   1.725   5.040   1.877
 2214TIP3    H1 6648   1.761   4.967   1.826
 2214TIP3    H2 6649   1.644   5.005   1.914
 2215TIP3   OH2 6650   5.817   2.577   4.961
 2215TIP3    H1 6651   5.889   2.626   4.922
 2215TIP3    H2 6652   5.784   2.634   5.031
 2216TIP3   OH2 6653   1.934   1.121   3.365
 2216TIP3    H1 6654   2.010   1.111   3.308
 2216TIP3    H2 6655   1.934   1.214   3.389
 2217TIP3   OH2 6656   4.989   5.665   3.488
 2217TIP3    H1 6657   4.970   5.585   3.439
 2217TIP3    H2 6658   4.950   5.735   3.436
 2218TIP3   OH2 6659   2.193   1.284   1.736
 2218TIP3    H1 6660   2.109   1.307   1.776
 2218TIP3    H2 6661   2.253   1.274   1.811
 2219TIP3   OH2 6662   2.386   4.560   5.200
 2219TIP3    H1 6663   2.443   4.605   5.262
 2219TIP3    H2 6664   2.430   4.569   5.116
 2220TIP3   OH2 6665   0.823   1.846   3.206
 2220TIP3    H1 6666   0.899   1.804   3.245
 2220TIP3    H2 6667   0.748   1.808   3.253
 2221TIP3   OH2 6668   3.554   0.452   2.073
 2221TIP3    H1 6669   3.618   0.522   2.058
 2221TIP3    H2 6670   3.475   0.482   2.029
 2222TIP3   OH2 6671   5.746   1.644   0.593
 2222TIP3    H1 6672   5.793   1.699   0.530
 2222TIP3    H2 6673   5.814   1.592   0.635
 2223TIP3   OH2 6674   1.517   5.355   2.935
 2223TIP3    H1 6675   1.481   5.398   3.013
 2223TIP3    H2 6676   1.595   5.309   2.968
 2224TIP3   OH2 6677   4.728   3.266   2.562
 2224TIP3    H1 6678   4.783   3.295   2.634
 2224TIP3    H2 6679   4.653   3.325   2.564
 2225TIP3   OH2 6680   2.754   2.544   4.692
 2225TIP3    H1 6681   2.740   2.467   4.637
 2225TIP3    H2 6682   2.761   2.508   4.781
 2226TIP3   OH2 6683   5.889   1.329   3.658
 2226TIP3    H1 6684   5.905   1.405   3.713
 2226TIP3    H2 6685   5.930   1.256   3.704
 2227TIP3   OH2 6686   2.034   1.163   4.750
 2227TIP3    H1 6687   2.013   1.252   4.722
 2227TIP3    H2 6688   2.125   1.151   4.722
 2228TIP3   OH2 6689   2.352   0.332   1.367
 2228TIP3    H1 6690   2.414   0.359   1.435
 2228TIP3    H2 6691   2.282   0.397   1.372
 2229TIP3   OH2 6692   1.670   5.366   0.952
 2229TIP3    H1 6693   1.698   5.276   0.934
 2229TIP3    H2 6694   1.705   5.384   1.039
 2230TIP3   OH2 6695   3.016   4.100   2.675
 2230TIP3    H1 6696   3.075   4.119   2.602
 2230TIP3    H2 6697   2.987   4.010   2.658
 2231TIP3   OH2 6698   1.057   3.706   0.337
 2231TIP3    H1 6699   1.141   3.719   0.294
 2231TIP3    H2 6700   1.068   3.744   0.424
 2232TIP3   OH2 6701   1.791   0.107   3.032
 2232TIP3    H1 6702   1.790   0.114   3.127
 2232TIP3    H2 6703   1.698   0.104   3.007
 2233TIP3   OH2 6704   0.256   4.516   5.098
 2233TIP3    H1 6705   0.269   4.494   5.190
 2233TIP3    H2 6706   0.259   4.612   5.095
 2234TIP3   OH2 6707   6.007   1.718   2.164
 2234TIP3    H1 6708   6.049   1.784   2.109
 2234TIP3    H2 6709   6.015   1.637   2.114
 2235TIP3   OH2 6710   3.228  -0.001   1.976
 2235TIP3    H1 6711   3.272  -0.084   1.954
 2235TIP3    H2 6712   3.248   0.012   2.069
 2236TIP3   OH2 6713   6.046   2.752   2.520
 2236TIP3    H1 6714   6.036   2.788   2.608
 2236TIP3    H2 6715   6.017   2.661   2.528
 2237TIP3   OH2 6716   5.587   4.591   4.974
 2237TIP3    H1 6717   5.595   4.654   5.046
 2237TIP3    H2 6718   5.620   4.638   4.898
 2238TIP3   OH2 6719   3.503   0.048   1.693
 2238TIP3    H1 6720   3.439  -0.014   1.727
 2238TIP3    H2 6721   3.475   0.064   1.602
 2239TIP3   OH2 6722   4.328   5.784   2.090
 2239TIP3    H1 6723   4.417   5.802   2.121
 2239TIP3    H2 6724   4.341   5.733   2.009
 2240TIP3   OH2 6725   3.588   1.736   2.966
 2240TIP3    H1 6726   3.668   1.721   2.916
 2240TIP3    H2 6727   3.583   1.661   3.026
 2241TIP3   OH2 6728   4.034   2.839   0.081
 2241TIP3    H1 6729   3.962   2.891   0.115
 2241TIP3    H2 6730   4.010   2.749   0.102
 2242TIP3   OH2 6731   5.476   0.679   0.196
 2242TIP3    H1 6732   5.556   0.657   0.245
 2242TIP3    H2 6733   5.405   0.650   0.253
 2243TIP3   OH2 6734   4.652   0.440   4.255
 2243TIP3    H1 6735   4.680   0.441   4.346
 2243TIP3    H2 6736   4.567   0.485   4.256
 2244TIP3   OH2 6737   0.061   5.864   2.101
 2244TIP3    H1 6738   0.100   5.808   2.168
 2244TIP3    H2 6739  -0.033   5.852   2.111
 2245TIP3   OH2 6740   5.274   3.794   2.951
 2245TIP3    H1 6741   5.350   3.840   2.987
 2245TIP3    H2 6742   5.291   3.701   2.970
 2246TIP3   OH2 6743   4.678   5.806   1.070
 2246TIP3    H1 6744   4.762   5.817   1.115
 2246TIP3    H2 6745   4.700   5.811   0.977
 2247TIP3   OH2 6746   5.174   5.043   1.217
 2247TIP3    H1 6747   5.104   5.082   1.270
 2247TIP3    H2 6748   5.255   5.081   1.252
 2248TIP3   OH2 6749   1.773   1.257   4.825
 2248TIP3    H1 6750   1.789   1.305   4.744
 2248TIP3    H2 6751   1.834   1.184   4.823
 2249TIP3   OH2 6752   0.734   4.863   1.257
 2249TIP3    H1 6753   0.648   4.900   1.237
 2249TIP3    H2 6754   0.715   4.775   1.289
 2250TIP3   OH2 6755   0.153   5.819   4.633
 2250TIP3    H1 6756   0.095   5.894   4.619
 2250TIP3    H2 6757   0.235   5.844   4.592
 2251TIP3   OH2 6758   3.739   4.577   3.980
 2251TIP3    H1 6759   3.808   4.593   4.044
 2251TIP3    H2 6760   3.658   4.600   4.025
 2252TIP3   OH2 6761   3.039   3.312   2.685
 2252TIP3    H1 6762   3.093   3.391   2.694
 2252TIP3    H2 6763   2.949   3.345   2.690
 2253TIP3   OH2 6764   2.183   2.951   4.421
 2253TIP3    H1 6765   2.102   2.991   4.453
 2253TIP3    H2 6766   2.165   2.931   4.329
 2254TIP3   OH2 6767   5.841   3.918   5.176
 2254TIP3    H1 6768   5.803   3.951   5.096
 2254TIP3    H2 6769   5.932   3.949   5.174
 2255TIP3   OH2 6770   2.951   0.491   1.904
 2255TIP3    H1 6771   2.958   0.581   1.872
 2255TIP3    H2 6772   2.858   0.481   1.926
 2256TIP3   OH2 6773   0.056   0.318   4.298
 2256TIP3    H1 6774   0.146   0.286   4.289
 2256TIP3    H2 6775   0.053   0.396   4.242
 2257TIP3   OH2 6776   4.065   1.435   3.838
 2257TIP3    H1 6777   4.113   1.380   3.776
 2257TIP3    H2 6778   3.979   1.395   3.845
 2258TIP3   OH2 6779   3.165   4.201   3.509
 2258TIP3    H1 6780   3.254   4.199   3.474
 2258TIP3    H2 6781   3.117   4.137   3.457
 2259TIP3   OH2 6782   3.157   4.425   1.960
 2259TIP3    H1 6783   3.096   4.498   1.963
 2259TIP3    H2 6784   3.234   4.455   2.009
 2260TIP3   OH2 6785   0.654   1.585   2.821
 2260TIP3    H1 6786   0.566   1.621   2.831
 2260TIP3    H2 6787   0.685   1.573   2.911
 2261TIP3   OH2 6788   2.675   0.675   3.064
 2261TIP3    H1 6789   2.763   0.709   3.081
 2261TIP3    H2 6790   2.689   0.583   3.040
 2262TIP3   OH2 6791   2.707   4.735   2.813
 2262TIP3    H1 6792   2.766   4.808   2.831
 2262TIP3    H2 6793   2.757   4.657   2.835
 2263TIP3   OH2 6794   4.497   4.724   4.079
 2263TIP3    H1 6795   4.426   4.667   4.109
 2263TIP3    H2 6796   4.564   4.663   4.049
 2264TIP3   OH2 6797   3.898   3.506   2.050
 2264TIP3    H1 6798   3.839   3.520   2.124
 2264TIP3    H2 6799   3.841   3.493   1.975
 2265TIP3   OH2 6800   0.646   1.256   1.417
 2265TIP3    H1 6801   0.706   1.248   1.343
 2265TIP3    H2 6802   0.621   1.349   1.417
 2266TIP3   OH2 6803   2.514   1.743   1.607
 2266TIP3    H1 6804   2.460   1.665   1.594
 2266TIP3    H2 6805   2.457   1.816   1.581
 2267TIP3   OH2 6806   6.413   3.378   0.059
 2267TIP3    H1 6807   6.365   3.368   0.142
 2267TIP3    H2 6808   6.396   3.296   0.012
 2268TIP3   OH2 6809   4.179   1.769   2.030
 2268TIP3    H1 6810   4.149   1.848   2.075
 2268TIP3    H2 6811   4.132   1.770   1.947
 2269TIP3   OH2 6812   5.449   3.083   0.527
 2269TIP3    H1 6813   5.356   3.075   0.506
 2269TIP3    H2 6814   5.471   3.174   0.504
 2270TIP3   OH2 6815   0.304   0.105   2.778
 2270TIP3    H1 6816   0.380   0.123   2.833
 2270TIP3    H2 6817   0.340   0.093   2.690
 2271TIP3   OH2 6818   2.722   5.026   3.568
 2271TIP3    H1 6819   2.741   5.001   3.659
 2271TIP3    H2 6820   2.702   5.120   3.573
 2272TIP3   OH2 6821   3.963   2.642   1.307
 2272TIP3    H1 6822   3.937   2.710   1.369
 2272TIP3    H2 6823   4.015   2.581   1.360
 2273TIP3   OH2 6824   2.417   0.298   4.573
 2273TIP3    H1 6825   2.408   0.393   4.570
 2273TIP3    H2 6826   2.485   0.283   4.638
 2274TIP3   OH2 6827   4.388   3.899   4.511
 2274TIP3    H1 6828   4.458   3.950   4.470
 2274TIP3    H2 6829   4.311   3.916   4.457
 2275TIP3   OH2 6830   5.878   1.979   1.800
 2275TIP3    H1 6831   5.905   2.022   1.881
 2275TIP3    H2 6832   5.945   2.003   1.736
 2276TIP3   OH2 6833   1.586   5.884   1.568
 2276TIP3    H1 6834   1.575   5.805   1.621
 2276TIP3    H2 6835   1.532   5.950   1.611
 2277TIP3   OH2 6836   3.249   0.554   3.033
 2277TIP3    H1 6837   3.337   0.555   2.994
 2277TIP3    H2 6838   3.210   0.472   3.002
 2278TIP3   OH2 6839   1.611   4.399   3.353
 2278TIP3    H1 6840   1.616   4.411   3.258
 2278TIP3    H2 6841   1.643   4.482   3.389
 2279TIP3   OH2 6842   6.191   1.149   2.439
 2279TIP3    H1 6843   6.220   1.196   2.360
 2279TIP3    H2 6844   6.158   1.217   2.497
 2280TIP3   OH2 6845   2.018   2.773   2.221
 2280TIP3    H1 6846   1.993   2.822   2.143
 2280TIP3    H2 6847   2.089   2.716   2.192
 2281TIP3   OH2 6848   2.479   2.602   0.061
 2281TIP3    H1 6849   2.524   2.615  -0.022
 2281TIP3    H2 6850   2.491   2.685   0.109
 2282TIP3   OH2 6851   1.159   0.234   1.856
 2282TIP3    H1 6852   1.092   0.249   1.924
 2282TIP3    H2 6853   1.241   0.230   1.904
 2283TIP3   OH2 6854   6.182   5.632   3.408
 2283TIP3    H1 6855   6.172   5.727   3.415
 2283TIP3    H2 6856   6.103   5.597   3.449
 2284TIP3   OH2 6857   0.851   2.180   4.995
 2284TIP3    H1 6858   0.899   2.227   5.063
 2284TIP3    H2 6859   0.781   2.135   5.042
 2285TIP3   OH2 6860   4.197   4.949   2.030
 2285TIP3    H1 6861   4.264   5.011   2.003
 2285TIP3    H2 6862   4.139   4.942   1.955
 2286TIP3   OH2 6863   6.086   4.264   0.095
 2286TIP3    H1 6864   6.122   4.214   0.168
 2286TIP3    H2 6865   6.050   4.198   0.036
 2287TIP3   OH2 6866   1.365   2.387   0.558
 2287TIP3    H1 6867   1.379   2.303   0.601
 2287TIP3    H2 6868   1.425   2.447   0.603
 2288TIP3   OH2 6869   5.870   0.424   5.152
 2288TIP3    H1 6870   5.778   0.417   5.125
 2288TIP3    H2 6871   5.869   0.487   5.223
 2289TIP3   OH2 6872   1.389   2.729   4.382
 2289TIP3    H1 6873   1.372   2.687   4.298
 2289TIP3    H2 6874   1.483   2.716   4.397
 2290TIP3   OH2 6875   4.170   2.379   0.311
 2290TIP3    H1 6876   4.142   2.287   0.307
 2290TIP3    H2 6877   4.115   2.418   0.379
 2291TIP3   OH2 6878   1.687   3.291   4.766
 2291TIP3    H1 6879   1.705   3.328   4.680
 2291TIP3    H2 6880   1.591   3.290   4.773
 2292TIP3   OH2 6881   1.582   1.588   1.260
 2292TIP3    H1 6882   1.577   1.530   1.183
 2292TIP3    H2 6883   1.630   1.664   1.229
 2293TIP3   OH2 6884   5.236   3.658   3.693
 2293TIP3    H1 6885   5.307   3.706   3.651
 2293TIP3    H2 6886   5.207   3.715   3.764
 2294TIP3   OH2 6887   3.532   1.399   4.322
 2294TIP3    H1 6888   3.497   1.327   4.269
 2294TIP3    H2 6889   3.485   1.392   4.405
 2295TIP3   OH2 6890   4.149   1.192   4.943
 2295TIP3    H1 6891   4.087   1.264   4.929
 2295TIP3    H2 6892   4.208   1.197   4.868
 2296TIP3   OH2 6893   3.965   4.617   0.379
 2296TIP3    H1 6894   3.976   4.710   0.356
 2296TIP3    H2 6895   3.895   4.587   0.322
 2297TIP3   OH2 6896   3.480   4.713   3.529
 2297TIP3    H1 6897   3.436   4.741   3.609
 2297TIP3    H2 6898   3.526   4.791   3.498
 2298TIP3   OH2 6899   1.363   4.627   3.012
 2298TIP3    H1 6900   1.342   4.535   2.999
 2298TIP3    H2 6901   1.281   4.667   3.038
 2299TIP3   OH2 6902   4.197   0.214   2.572
 2299TIP3    H1 6903   4.180   0.294   2.622
 2299TIP3    H2 6904   4.290   0.221   2.548
 2300TIP3   OH2 6905   4.688   2.033   4.336
 2300TIP3    H1 6906   4.727   2.092   4.401
 2300TIP3    H2 6907   4.607   2.003   4.377
 2301TIP3   OH2 6908   0.173   5.703   1.856
 2301TIP3    H1 6909   0.128   5.740   1.779
 2301TIP3    H2 6910   0.193   5.779   1.910
 2302TIP3   OH2 6911   5.611   1.338   5.070
 2302TIP3    H1 6912   5.704   1.356   5.055
 2302TIP3    H2 6913   5.568   1.362   4.988
 2303TIP3   OH2 6914   1.107   3.699   2.307
 2303TIP3    H1 6915   1.159   3.640   2.362
 2303TIP3    H2 6916   1.171   3.740   2.248
 2304TIP3   OH2 6917   3.427   1.546   3.157
 2304TIP3    H1 6918   3.379   1.628   3.170
 2304TIP3    H2 6919   3.461   1.524   3.244
 2305TIP3   OH2 6920   4.764   4.341   5.105
 2305TIP3    H1 6921   4.775   4.289   5.026
 2305TIP3    H2 6922   4.695   4.403   5.084
 2306TIP3   OH2 6923   1.633   2.773   4.625
 2306TIP3    H1 6924   1.561   2.802   4.681
 2306TIP3    H2 6925   1.605   2.687   4.593
 2307TIP3   OH2 6926   1.408   3.190   2.597
 2307TIP3    H1 6927   1.428   3.099   2.573
 2307TIP3    H2 6928   1.450   3.202   2.682
 2308TIP3   OH2 6929   0.613   5.026   4.304
 2308TIP3    H1 6930   0.639   5.116   4.324
 2308TIP3    H2 6931   0.522   5.033   4.276
 2309TIP3   OH2 6932   3.161   5.093   0.469
 2309TIP3    H1 6933   3.088   5.150   0.447
 2309TIP3    H2 6934   3.218   5.147   0.525
 2310TIP3   OH2 6935   1.299   0.531   0.622
 2310TIP3    H1 6936   1.332   0.509   0.709
 2310TIP3    H2 6937   1.365   0.498   0.561
 2311TIP3   OH2 6938   4.985   5.210   1.016
 2311TIP3    H1 6939   4.956   5.202   1.107
 2311TIP3    H2 6940   4.956   5.298   0.989
 2312TIP3   OH2 6941   3.858   0.921   0.946
 2312TIP3    H1 6942   3.871   1.005   0.902
 2312TIP3    H2 6943   3.906   0.858   0.892
 2313TIP3   OH2 6944   4.878   1.217   3.603
 2313TIP3    H1 6945   4.821   1.154   3.559
 2313TIP3    H2 6946   4.907   1.276   3.533
 2314TIP3   OH2 6947   0.088   0.480   4.779
 2314TIP3    H1 6948   0.058   0.540   4.711
 2314TIP3    H2 6949   0.165   0.437   4.741
 2315TIP3   OH2 6950   3.611   2.018   4.360
 2315TIP3    H1 6951   3.545   1.953   4.383
 2315TIP3    H2 6952   3.561   2.094   4.329
 2316TIP3   OH2 6953   5.690   5.913   0.424
 2316TIP3    H1 6954   5.626   5.921   0.354
 2316TIP3    H2 6955   5.733   5.829   0.408
 2317TIP3   OH2 6956   0.245   3.219   3.212
 2317TIP3    H1 6957   0.219   3.259   3.129
 2317TIP3    H2 6958   0.235   3.125   3.198
 2318TIP3   OH2 6959   1.150   1.656   1.631
 2318TIP3    H1 6960   1.145   1.590   1.700
 2318TIP3    H2 6961   1.080   1.633   1.571
 2319TIP3   OH2 6962   3.199   5.261   3.335
 2319TIP3    H1 6963   3.110   5.283   3.309
 2319TIP3    H2 6964   3.188   5.207   3.413
 2320TIP3   OH2 6965   4.219   1.420   2.429
 2320TIP3    H1 6966   4.184   1.442   2.515
 2320TIP3    H2 6967   4.158   1.461   2.367
 2321TIP3   OH2 6968   4.167   0.232   3.168
 2321TIP3    H1 6969   4.224   0.160   3.194
 2321TIP3    H2 6970   4.191   0.250   3.077
 2322TIP3   OH2 6971   5.395   3.440   0.992
 2322TIP3    H1 6972   5.363   3.352   0.972
 2322TIP3    H2 6973   5.489   3.436   0.976
 2323TIP3   OH2 6974   5.449   1.523   0.826
 2323TIP3    H1 6975   5.443   1.608   0.869
 2323TIP3    H2 6976   5.457   1.544   0.733
 2324TIP3   OH2 6977   2.554   1.554   2.665
 2324TIP3    H1 6978   2.639   1.511   2.671
 2324TIP3    H2 6979   2.574   1.648   2.669
 2325TIP3   OH2 6980   4.266   1.788   3.194
 2325TIP3    H1 6981   4.252   1.709   3.141
 2325TIP3    H2 6982   4.197   1.786   3.259
 2326TIP3   OH2 6983   4.574   2.732   4.814
 2326TIP3    H1 6984   4.584   2.755   4.906
 2326TIP3    H2 6985   4.661   2.746   4.776
 2327TIP3   OH2 6986   2.451   5.868   0.105
 2327TIP3    H1 6987   2.485   5.835   0.022
 2327TIP3    H2 6988   2.466   5.963   0.100
 2328TIP3   OH2 6989   0.359   5.718   4.192
 2328TIP3    H1 6990   0.325   5.628   4.186
 2328TIP3    H2 6991   0.439   5.710   4.245
 2329TIP3   OH2 6992   0.713   4.395   4.305
 2329TIP3    H1 6993   0.683   4.443   4.228
 2329TIP3    H2 6994   0.645   4.409   4.371
 2330TIP3   OH2 6995   0.159   0.274   4.000
 2330TIP3    H1 6996   0.166   0.360   3.958
 2330TIP3    H2 6997   0.249   0.249   4.019
 2331TIP3   OH2 6998   2.693   1.643   1.784
 2331TIP3    H1 6999   2.624   1.670   1.722
 2331TIP3    H2 7000   2.736   1.725   1.808
 2332TIP3   OH2 7001   4.343   0.976   4.710
 2332TIP3    H1 7002   4.298   1.051   4.671
 2332TIP3    H2 7003   4.341   0.909   4.642
 2333TIP3   OH2 7004   4.646  -0.003   4.012
 2333TIP3    H1 7005   4.604  -0.010   3.926
 2333TIP3    H2 7006   4.600   0.069   4.055
 2334TIP3   OH2 7007   5.775   4.063   0.485
 2334TIP3    H1 7008   5.864   4.029   0.475
 2334TIP3    H2 7009   5.728   4.030   0.408
 2335TIP3   OH2 7010   4.642   5.788   4.346
 2335TIP3    H1 7011   4.556   5.814   4.379
 2335TIP3    H2 7012   4.676   5.728   4.413
 2336TIP3   OH2 7013   1.682   4.338   0.954
 2336TIP3    H1 7014   1.648   4.424   0.977
 2336TIP3    H2 7015   1.693   4.341   0.859
 2337TIP3   OH2 7016   6.018   3.648   1.537
 2337TIP3    H1 7017   5.997   3.570   1.484
 2337TIP3    H2 7018   6.092   3.620   1.591
 2338TIP3   OH2 7019   1.110   0.635   3.461
 2338TIP3    H1 7020   1.183   0.616   3.521
 2338TIP3    H2 7021   1.102   0.556   3.408
 2339TIP3   OH2 7022   0.833   0.225   3.826
 2339TIP3    H1 7023   0.900   0.158   3.836
 2339TIP3    H2 7024   0.795   0.208   3.740
 2340TIP3   OH2 7025   2.561   0.015   3.624
 2340TIP3    H1 7026   2.592  -0.071   3.652
 2340TIP3    H2 7027   2.492   0.036   3.687
 2341TIP3   OH2 7028   5.962   3.060   1.283
 2341TIP3    H1 7029   6.021   3.134   1.269
 2341TIP3    H2 7030   5.922   3.076   1.369
 2342TIP3   OH2 7031   0.783   1.672   4.002
 2342TIP3    H1 7032   0.691   1.657   3.983
 2342TIP3    H2 7033   0.804   1.608   4.071
 2343TIP3   OH2 7034   2.839   2.831   4.879
 2343TIP3    H1 7035   2.793   2.791   4.804
 2343TIP3    H2 7036   2.915   2.873   4.840
 2344TIP3   OH2 7037   4.986   2.963   0.016
 2344TIP3    H1 7038   4.937   3.014   0.081
 2344TIP3    H2 7039   4.957   2.997  -0.069
 2345TIP3   OH2 7040   2.437   3.967   3.960
 2345TIP3    H1 7041   2.424   4.061   3.968
 2345TIP3    H2 7042   2.415   3.932   4.046
 2346TIP3   OH2 7043   3.764   1.912   4.076
 2346TIP3    H1 7044   3.680   1.923   4.121
 2346TIP3    H2 7045   3.758   1.969   4.000
 2347TIP3   OH2 7046   0.202   2.690   3.223
 2347TIP3    H1 7047   0.216   2.620   3.286
 2347TIP3    H2 7048   0.239   2.657   3.141
 2348TIP3   OH2 7049   1.873   5.514   4.969
 2348TIP3    H1 7050   1.912   5.525   5.055
 2348TIP3    H2 7051   1.924   5.444   4.928
 2349TIP3   OH2 7052   3.302   0.714   2.466
 2349TIP3    H1 7053   3.242   0.786   2.482
 2349TIP3    H2 7054   3.267   0.671   2.387
 2350TIP3   OH2 7055   1.579   0.914   0.737
 2350TIP3    H1 7056   1.523   0.883   0.666
 2350TIP3    H2 7057   1.668   0.904   0.704
 2351TIP3   OH2 7058   5.230   5.254   2.414
 2351TIP3    H1 7059   5.322   5.232   2.403
 2351TIP3    H2 7060   5.183   5.186   2.366
 2352TIP3   OH2 7061   1.054   0.981   3.930
 2352TIP3    H1 7062   1.117   1.052   3.920
 2352TIP3    H2 7063   1.004   1.004   4.009
 2353TIP3   OH2 7064   1.794   0.473   4.488
 2353TIP3    H1 7065   1.734   0.511   4.553
 2353TIP3    H2 7066   1.764   0.508   4.404
 2354TIP3   OH2 7067   5.544   5.772   2.833
 2354TIP3    H1 7068   5.606   5.845   2.842
 2354TIP3    H2 7069   5.512   5.780   2.743
 2355TIP3   OH2 7070   5.477   1.348   1.257
 2355TIP3    H1 7071   5.409   1.411   1.232
 2355TIP3    H2 7072   5.429   1.278   1.302
 2356TIP3   OH2 7073   4.339   2.493   0.590
 2356TIP3    H1 7074   4.355   2.430   0.519
 2356TIP3    H2 7075   4.244   2.502   0.593
 2357TIP3   OH2 7076   2.160   1.488   4.822
 2357TIP3    H1 7077   2.151   1.470   4.916
 2357TIP3    H2 7078   2.189   1.405   4.785
 2358TIP3   OH2 7079   4.449   3.331   2.548
 2358TIP3    H1 7080   4.424   3.265   2.612
 2358TIP3    H2 7081   4.403   3.411   2.575
 2359TIP3   OH2 7082   3.184   2.386   1.828
 2359TIP3    H1 7083   3.211   2.374   1.919
 2359TIP3    H2 7084   3.109   2.445   1.833
 2360TIP3   OH2 7085   1.587   5.439   4.036
 2360TIP3    H1 7086   1.564   5.446   4.128
 2360TIP3    H2 7087   1.677   5.470   4.030
 2361TIP3   OH2 7088   4.054   4.877   5.070
 2361TIP3    H1 7089   4.038   4.789   5.038
 2361TIP3    H2 7090   4.148   4.879   5.090
 2362TIP3   OH2 7091   5.817   1.806   0.358
 2362TIP3    H1 7092   5.840   1.899   0.354
 2362TIP3    H2 7093   5.795   1.783   0.267
 2363TIP3   OH2 7094   0.333   5.545   3.820
 2363TIP3    H1 7095   0.420   5.534   3.783
 2363TIP3    H2 7096   0.325   5.473   3.883
 2364TIP3   OH2 7097   2.683   1.008   1.174
 2364TIP3    H1 7098   2.682   0.912   1.168
 2364TIP3    H2 7099   2.718   1.025   1.261
 2365TIP3   OH2 7100   2.553   1.024   4.573
 2365TIP3    H1 7101   2.562   1.117   4.551
 2365TIP3    H2 7102   2.632   0.983   4.537
 2366TIP3   OH2 7103   4.791   3.384   1.690
 2366TIP3    H1 7104   4.754   3.471   1.709
 2366TIP3    H2 7105   4.844   3.397   1.612
 2367TIP3   OH2 7106   4.225   3.771   3.521
 2367TIP3    H1 7107   4.228   3.711   3.447
 2367TIP3    H2 7108   4.198   3.717   3.596
 2368TIP3   OH2 7109   1.400   4.250   1.967
 2368TIP3    H1 7110   1.493   4.228   1.979
 2368TIP3    H2 7111   1.390   4.335   2.010
 2369TIP3   OH2 7112   6.311   4.688   2.120
 2369TIP3    H1 7113   6.233   4.642   2.149
 2369TIP3    H2 7114   6.343   4.733   2.198
 2370TIP3   OH2 7115   6.126   1.014   1.766
 2370TIP3    H1 7116   6.161   0.952   1.702
 2370TIP3    H2 7117   6.189   1.086   1.767
 2371TIP3   OH2 7118   4.778   2.488   2.330
 2371TIP3    H1 7119   4.767   2.513   2.421
 2371TIP3    H2 7120   4.697   2.517   2.288
 2372TIP3   OH2 7121   3.233   3.210   4.900
 2372TIP3    H1 7122   3.208   3.117   4.899
 2372TIP3    H2 7123   3.225   3.236   4.991
 2373TIP3   OH2 7124   2.710   0.330   1.625
 2373TIP3    H1 7125   2.794   0.367   1.597
 2373TIP3    H2 7126   2.723   0.310   1.718
 2374TIP3   OH2 7127   0.216   5.019   0.484
 2374TIP3    H1 7128   0.122   5.040   0.479
 2374TIP3    H2 7129   0.253   5.059   0.406
 2375TIP3   OH2 7130   3.067   0.310   3.026
 2375TIP3    H1 7131   3.115   0.286   3.105
 2375TIP3    H2 7132   2.994   0.364   3.057
 2376TIP3   OH2 7133   1.848   3.564   0.101
 2376TIP3    H1 7134   1.869   3.543   0.192
 2376TIP3    H2 7135   1.907   3.510   0.049
 2377TIP3   OH2 7136   0.428   3.716   3.779
 2377TIP3    H1 7137   0.383   3.723   3.695
 2377TIP3    H2 7138   0.428   3.805   3.815
 2378TIP3   OH2 7139   3.341   2.259   1.602
 2378TIP3    H1 7140   3.300   2.281   1.685
 2378TIP3    H2 7141   3.322   2.165   1.591
 2379TIP3   OH2 7142   4.194   4.993   4.518
 2379TIP3    H1 7143   4.116   4.979   4.572
 2379TIP3    H2 7144   4.267   4.967   4.575
 2380TIP3   OH2 7145   3.160   0.730   1.482
 2380TIP3    H1 7146   3.245   0.758   1.449
 2380TIP3    H2 7147   3.107   0.714   1.404
 2381TIP3   OH2 7148   1.964   4.383   1.001
 2381TIP3    H1 7149   1.879   4.388   0.958
 2381TIP3    H2 7150   1.953   4.317   1.069
 2382TIP3   OH2 7151   5.064   3.531   0.489
 2382TIP3    H1 7152   5.146   3.482   0.499
 2382TIP3    H2 7153   5.088   3.607   0.438
 2383TIP3   OH2 7154   2.677   5.844   2.164
 2383TIP3    H1 7155   2.585   5.821   2.146
 2383TIP3    H2 7156   2.680   5.939   2.155
 2384TIP3   OH2 7157   3.530   1.026   1.082
 2384TIP3    H1 7158   3.443   1.064   1.091
 2384TIP3    H2 7159   3.572   1.077   1.013
 2385TIP3   OH2 7160   3.485   5.972   3.052
 2385TIP3    H1 7161   3.550   6.030   3.092
 2385TIP3    H2 7162   3.407   5.981   3.107
 2386TIP3   OH2 7163   6.345   0.198   0.727
 2386TIP3    H1 7164   6.320   0.187   0.819
 2386TIP3    H2 7165   6.297   0.129   0.681
 2387TIP3   OH2 7166   0.204   3.713   0.287
 2387TIP3    H1 7167   0.121   3.679   0.320
 2387TIP3    H2 7168   0.188   3.730   0.194
 2388TIP3   OH2 7169   3.442   3.365   1.754
 2388TIP3    H1 7170   3.467   3.446   1.797
 2388TIP3    H2 7171   3.455   3.382   1.661
 2389TIP3   OH2 7172   0.872   5.412   1.117
 2389TIP3    H1 7173   0.786   5.395   1.080
 2389TIP3    H2 7174   0.855   5.470   1.191
 2390TIP3   OH2 7175   0.258   3.543   0.538
 2390TIP3    H1 7176   0.199   3.618   0.539
 2390TIP3    H2 7177   0.303   3.549   0.454
 2391TIP3   OH2 7178   1.484   4.861   0.366
 2391TIP3    H1 7179   1.577   4.838   0.361
 2391TIP3    H2 7180   1.438   4.778   0.354
 2392TIP3   OH2 7181   3.692   2.771   1.897
 2392TIP3    H1 7182   3.764   2.834   1.898
 2392TIP3    H2 7183   3.624   2.810   1.953
 2393TIP3   OH2 7184   0.505   5.441   0.756
 2393TIP3    H1 7185   0.444   5.486   0.814
 2393TIP3    H2 7186   0.573   5.407   0.815
 2394TIP3   OH2 7187   4.882   0.526   0.914
 2394TIP3    H1 7188   4.911   0.502   0.827
 2394TIP3    H2 7189   4.820   0.458   0.939
 2395TIP3   OH2 7190   4.940   1.657   4.555
 2395TIP3    H1 7191   4.873   1.719   4.584
 2395TIP3    H2 7192   4.952   1.598   4.629
 2396TIP3   OH2 7193   1.453   2.914   2.485
 2396TIP3    H1 7194   1.519   2.857   2.446
 2396TIP3    H2 7195   1.423   2.866   2.562
 2397TIP3   OH2 7196   5.357   5.595   4.298
 2397TIP3    H1 7197   5.419   5.563   4.233
 2397TIP3    H2 7198   5.389   5.561   4.382
 2398TIP3   OH2 7199   3.874   5.110   4.233
 2398TIP3    H1 7200   3.890   5.068   4.318
 2398TIP3    H2 7201   3.907   5.199   4.243
 2399TIP3   OH2 7202   2.512   3.508   0.272
 2399TIP3    H1 7203   2.602   3.538   0.263
 2399TIP3    H2 7204   2.479   3.553   0.350
 2400TIP3   OH2 7205   5.204   2.681   3.600
 2400TIP3    H1 7206   5.266   2.613   3.627
 2400TIP3    H2 7207   5.140   2.635   3.546
 2401TIP3   OH2 7208   3.408   3.994   0.843
 2401TIP3    H1 7209   3.365   3.921   0.798
 2401TIP3    H2 7210   3.447   4.046   0.773
 2402TIP3   OH2 7211   1.513   4.340   2.466
 2402TIP3    H1 7212   1.471   4.256   2.447
 2402TIP3    H2 7213   1.446   4.405   2.446
 2403TIP3   OH2 7214   4.839   2.539   1.392
 2403TIP3    H1 7215   4.905   2.608   1.405
 2403TIP3    H2 7216   4.757   2.586   1.383
 2404TIP3   OH2 7217   6.280   3.129   0.050
 2404TIP3    H1 7218   6.335   3.076   0.109
 2404TIP3    H2 7219   6.235   3.190   0.108
 2405TIP3   OH2 7220   4.728   0.405   3.789
 2405TIP3    H1 7221   4.777   0.328   3.816
 2405TIP3    H2 7222   4.687   0.380   3.706
 2406TIP3   OH2 7223   2.684   4.013   3.809
 2406TIP3    H1 7224   2.636   4.082   3.853
 2406TIP3    H2 7225   2.664   3.934   3.859
 2407TIP3   OH2 7226   0.059   4.602   1.882
 2407TIP3    H1 7227   0.076   4.510   1.902
 2407TIP3    H2 7228   0.026   4.638   1.964
 2408TIP3   OH2 7229   1.737   4.600   3.489
 2408TIP3    H1 7230   1.763   4.536   3.556
 2408TIP3    H2 7231   1.794   4.675   3.504
 2409TIP3   OH2 7232   1.953   1.076   4.032
 2409TIP3    H1 7233   1.974   1.046   4.121
 2409TIP3    H2 7234   1.954   0.996   3.980
 2410TIP3   OH2 7235   3.946   0.941   0.312
 2410TIP3    H1 7236   3.880   0.993   0.265
 2410TIP3    H2 7237   3.903   0.857   0.328
 2411TIP3   OH2 7238   1.280   1.682   3.502
 2411TIP3    H1 7239   1.325   1.752   3.550
 2411TIP3    H2 7240   1.346   1.613   3.492
 2412TIP3   OH2 7241   5.870   5.160   1.857
 2412TIP3    H1 7242   5.788   5.153   1.906
 2412TIP3    H2 7243   5.873   5.252   1.829
 2413TIP3   OH2 7244   0.996   4.048   3.218
 2413TIP3    H1 7245   0.941   3.970   3.213
 2413TIP3    H2 7246   0.978   4.095   3.137
 2414TIP3   OH2 7247   2.511   3.324   0.960
 2414TIP3    H1 7248   2.563   3.376   1.020
 2414TIP3    H2 7249   2.554   3.334   0.875
 2415TIP3   OH2 7250   4.701   5.671   4.077
 2415TIP3    H1 7251   4.641   5.636   4.143
 2415TIP3    H2 7252   4.788   5.650   4.111
 2416TIP3   OH2 7253   3.860   5.086   2.559
 2416TIP3    H1 7254   3.787   5.039   2.519
 2416TIP3    H2 7255   3.834   5.178   2.556
 2417TIP3   OH2 7256   5.694   4.945   4.579
 2417TIP3    H1 7257   5.619   4.997   4.551
 2417TIP3    H2 7258   5.689   4.865   4.526
 2418TIP3   OH2 7259   6.210   5.460   4.150
 2418TIP3    H1 7260   6.129   5.497   4.186
 2418TIP3    H2 7261   6.268   5.451   4.226
 2419TIP3   OH2 7262   3.466   3.230   2.069
 2419TIP3    H1 7263   3.399   3.299   2.064
 2419TIP3    H2 7264   3.419   3.150   2.047
 2420TIP3   OH2 7265   4.657   3.116   3.628
 2420TIP3    H1 7266   4.671   3.067   3.710
 2420TIP3    H2 7267   4.572   3.158   3.640
 2421TIP3   OH2 7268   4.244   1.227   2.202
 2421TIP3    H1 7269   4.309   1.290   2.234
 2421TIP3    H2 7270   4.186   1.213   2.277
 2422TIP3   OH2 7271   3.365   1.978   4.644
 2422TIP3    H1 7272   3.336   1.970   4.553
 2422TIP3    H2 7273   3.461   1.980   4.638
 2423TIP3   OH2 7274   5.192   3.008   0.452
 2423TIP3    H1 7275   5.103   3.035   0.476
 2423TIP3    H2 7276   5.215   2.941   0.516
 2424TIP3   OH2 7277   1.368   3.886   2.998
 2424TIP3    H1 7278   1.346   3.966   3.046
 2424TIP3    H2 7279   1.394   3.824   3.066
 2425TIP3   OH2 7280   4.605   3.001   1.067
 2425TIP3    H1 7281   4.586   3.095   1.061
 2425TIP3    H2 7282   4.632   2.988   1.158
 2426TIP3   OH2 7283   3.723   2.537   0.306
 2426TIP3    H1 7284   3.784   2.597   0.347
 2426TIP3    H2 7285   3.717   2.463   0.366
 2427TIP3   OH2 7286   4.112   2.780   4.232
 2427TIP3    H1 7287   4.098   2.831   4.312
 2427TIP3    H2 7288   4.141   2.845   4.167
 2428TIP3   OH2 7289   4.386   5.549   0.188
 2428TIP3    H1 7290   4.407   5.634   0.150
 2428TIP3    H2 7291   4.470   5.504   0.195
 2429TIP3   OH2 7292   2.187   5.522   3.399
 2429TIP3    H1 7293   2.138   5.564   3.328
 2429TIP3    H2 7294   2.183   5.429   3.379
 2430TIP3   OH2 7295   6.113   1.573   2.814
 2430TIP3    H1 7296   6.184   1.515   2.842
 2430TIP3    H2 7297   6.121   1.576   2.719
 2431TIP3   OH2 7298   4.573   0.735   4.030
 2431TIP3    H1 7299   4.551   0.649   3.995
 2431TIP3    H2 7300   4.494   0.787   4.018
 2432TIP3   OH2 7301   3.885   3.857   0.779
 2432TIP3    H1 7302   3.843   3.898   0.703
 2432TIP3    H2 7303   3.833   3.778   0.795
 2433TIP3   OH2 7304   5.790   4.178   1.836
 2433TIP3    H1 7305   5.694   4.183   1.838
 2433TIP3    H2 7306   5.813   4.206   1.747
 2434TIP3   OH2 7307   1.927   4.156   2.947
 2434TIP3    H1 7308   1.925   4.251   2.940
 2434TIP3    H2 7309   1.980   4.128   2.872
 2435TIP3   OH2 7310   0.699   4.086   4.658
 2435TIP3    H1 7311   0.700   4.182   4.663
 2435TIP3    H2 7312   0.780   4.059   4.701
 2436TIP3   OH2 7313   4.035   2.889   4.498
 2436TIP3    H1 7314   3.943   2.910   4.485
 2436TIP3    H2 7315   4.035   2.796   4.524
 2437TIP3   OH2 7316   1.269   3.606   3.752
 2437TIP3    H1 7317   1.222   3.685   3.725
 2437TIP3    H2 7318   1.359   3.620   3.721
 2438TIP3   OH2 7319   3.757   1.709   3.359
 2438TIP3    H1 7320   3.734   1.616   3.353
 2438TIP3    H2 7321   3.836   1.717   3.306
 2439TIP3   OH2 7322   0.784   0.364   1.350
 2439TIP3    H1 7323   0.723   0.353   1.277
 2439TIP3    H2 7324   0.829   0.447   1.332
 2440TIP3   OH2 7325   1.381   4.083   2.354
 2440TIP3    H1 7326   1.389   4.006   2.410
 2440TIP3    H2 7327   1.296   4.074   2.312
 2441TIP3   OH2 7328   2.840   3.628   3.751
 2441TIP3    H1 7329   2.893   3.548   3.759
 2441TIP3    H2 7330   2.811   3.646   3.840
 2442TIP3   OH2 7331   5.095   4.826   4.529
 2442TIP3    H1 7332   5.028   4.889   4.553
 2442TIP3    H2 7333   5.169   4.880   4.499
 2443TIP3   OH2 7334   2.044   3.580   4.996
 2443TIP3    H1 7335   1.989   3.549   4.924
 2443TIP3    H2 7336   2.036   3.511   5.063
 2444TIP3   OH2 7337   5.243   1.670   3.422
 2444TIP3    H1 7338   5.325   1.710   3.451
 2444TIP3    H2 7339   5.207   1.629   3.501
 2445TIP3   OH2 7340   6.297   1.744   1.491
 2445TIP3    H1 7341   6.226   1.688   1.459
 2445TIP3    H2 7342   6.299   1.728   1.585
 2446TIP3   OH2 7343   4.632   5.096   4.061
 2446TIP3    H1 7344   4.570   5.038   4.016
 2446TIP3    H2 7345   4.672   5.042   4.128
 2447TIP3   OH2 7346   2.465   2.117   2.392
 2447TIP3    H1 7347   2.436   2.123   2.301
 2447TIP3    H2 7348   2.451   2.025   2.415
 2448TIP3   OH2 7349   0.150   0.373   1.419
 2448TIP3    H1 7350   0.217   0.410   1.362
 2448TIP3    H2 7351   0.075   0.431   1.409
 2449TIP3   OH2 7352   5.995   5.670   4.334
 2449TIP3    H1 7353   5.983   5.696   4.425
 2449TIP3    H2 7354   6.081   5.703   4.310
 2450TIP3   OH2 7355   1.824   3.018   1.425
 2450TIP3    H1 7356   1.784   3.072   1.493
 2450TIP3    H2 7357   1.877   3.079   1.374
 2451TIP3   OH2 7358   4.463   5.471   4.610
 2451TIP3    H1 7359   4.412   5.402   4.651
 2451TIP3    H2 7360   4.432   5.552   4.651
 2452TIP3   OH2 7361   2.197   3.389   3.841
 2452TIP3    H1 7362   2.139   3.316   3.819
 2452TIP3    H2 7363   2.208   3.436   3.758
 2453TIP3   OH2 7364   0.842   3.756   1.962
 2453TIP3    H1 7365   0.749   3.742   1.945
 2453TIP3    H2 7366   0.886   3.714   1.887
 2454TIP3   OH2 7367   6.094   0.814   0.075
 2454TIP3    H1 7368   6.101   0.749   0.146
 2454TIP3    H2 7369   6.002   0.812   0.050
 2455TIP3   OH2 7370   6.229   6.011   2.456
 2455TIP3    H1 7371   6.250   6.065   2.379
 2455TIP3    H2 7372   6.147   5.968   2.434
 2456TIP3   OH2 7373   5.203   3.282   4.392
 2456TIP3    H1 7374   5.179   3.265   4.483
 2456TIP3    H2 7375   5.290   3.242   4.383
 2457TIP3   OH2 7376   1.257   0.861   5.100
 2457TIP3    H1 7377   1.305   0.810   5.165
 2457TIP3    H2 7378   1.324   0.914   5.057
 2458TIP3   OH2 7379   1.300   3.061   3.524
 2458TIP3    H1 7380   1.259   3.105   3.449
 2458TIP3    H2 7381   1.244   2.985   3.541
 2459TIP3   OH2 7382   5.952   3.423   1.385
 2459TIP3    H1 7383   5.858   3.403   1.380
 2459TIP3    H2 7384   5.985   3.403   1.298
 2460TIP3   OH2 7385   4.867   2.434   1.769
 2460TIP3    H1 7386   4.852   2.383   1.849
 2460TIP3    H2 7387   4.784   2.432   1.723
 2461TIP3   OH2 7388   1.042   2.803   4.144
 2461TIP3    H1 7389   0.950   2.813   4.121
 2461TIP3    H2 7390   1.049   2.712   4.173
 2462TIP3   OH2 7391   0.293   1.479   2.479
 2462TIP3    H1 7392   0.290   1.574   2.486
 2462TIP3    H2 7393   0.361   1.451   2.541
 2463TIP3   OH2 7394   3.658   4.102   1.139
 2463TIP3    H1 7395   3.589   4.038   1.126
 2463TIP3    H2 7396   3.700   4.077   1.221
 2464TIP3   OH2 7397   4.647   5.840   0.547
 2464TIP3    H1 7398   4.565   5.791   0.543
 2464TIP3    H2 7399   4.712   5.780   0.511
 2465TIP3   OH2 7400   2.455   2.089   4.896
 2465TIP3    H1 7401   2.361   2.072   4.889
 2465TIP3    H2 7402   2.488   2.017   4.951
 2466TIP3   OH2 7403   3.093   5.005   0.981
 2466TIP3    H1 7404   3.016   4.981   1.033
 2466TIP3    H2 7405   3.073   4.974   0.893
 2467TIP3   OH2 7406   2.754   2.178   1.230
 2467TIP3    H1 7407   2.752   2.087   1.199
 2467TIP3    H2 7408   2.667   2.212   1.210
 2468TIP3   OH2 7409   5.979   1.739   4.385
 2468TIP3    H1 7410   5.897   1.787   4.392
 2468TIP3    H2 7411   5.953   1.653   4.351
 2469TIP3   OH2 7412   3.321   4.600   0.190
 2469TIP3    H1 7413   3.327   4.691   0.219
 2469TIP3    H2 7414   3.347   4.603   0.098
 2470TIP3   OH2 7415   4.817   4.970   1.895
 2470TIP3    H1 7416   4.822   4.890   1.843
 2470TIP3    H2 7417   4.742   4.956   1.953
 2471TIP3   OH2 7418   0.353   0.479   2.499
 2471TIP3    H1 7419   0.308   0.550   2.545
 2471TIP3    H2 7420   0.436   0.469   2.545
 2472TIP3   OH2 7421   2.446   2.819   4.344
 2472TIP3    H1 7422   2.386   2.890   4.370
 2472TIP3    H2 7423   2.462   2.771   4.425
 2473TIP3   OH2 7424   3.629   2.099   3.841
 2473TIP3    H1 7425   3.574   2.083   3.764
 2473TIP3    H2 7426   3.713   2.059   3.819
 2474TIP3   OH2 7427   3.408   4.166   3.363
 2474TIP3    H1 7428   3.440   4.103   3.298
 2474TIP3    H2 7429   3.435   4.251   3.329
 2475TIP3   OH2 7430   4.271   2.204   0.637
 2475TIP3    H1 7431   4.318   2.144   0.695
 2475TIP3    H2 7432   4.240   2.274   0.695
 2476TIP3   OH2 7433   2.456   1.215   1.880
 2476TIP3    H1 7434   2.380   1.162   1.903
 2476TIP3    H2 7435   2.490   1.173   1.800
 2477TIP3   OH2 7436   2.836   1.764   1.297
 2477TIP3    H1 7437   2.903   1.832   1.292
 2477TIP3    H2 7438   2.861   1.711   1.372
 2478TIP3   OH2 7439   4.714   0.433   1.570
 2478TIP3    H1 7440   4.803   0.455   1.543
 2478TIP3    H2 7441   4.677   0.386   1.495
 2479TIP3   OH2 7442   4.429   1.879   2.437
 2479TIP3    H1 7443   4.367   1.927   2.381
 2479TIP3    H2 7444   4.473   1.947   2.488
 2480TIP3   OH2 7445   1.201   1.664   0.936
 2480TIP3    H1 7446   1.123   1.712   0.911
 2480TIP3    H2 7447   1.263   1.681   0.865
 2481TIP3   OH2 7448   3.601   2.052   1.746
 2481TIP3    H1 7449   3.617   2.143   1.771
 2481TIP3    H2 7450   3.525   2.026   1.797
 2482TIP3   OH2 7451   5.824   2.557   3.278
 2482TIP3    H1 7452   5.872   2.571   3.196
 2482TIP3    H2 7453   5.892   2.539   3.343
 2483TIP3   OH2 7454   5.584   4.381   3.280
 2483TIP3    H1 7455   5.489   4.388   3.294
 2483TIP3    H2 7456   5.623   4.419   3.359
 2484TIP3   OH2 7457   2.686   4.309   3.452
 2484TIP3    H1 7458   2.747   4.287   3.522
 2484TIP3    H2 7459   2.736   4.364   3.392
 2485TIP3   OH2 7460   2.567   4.025   0.462
 2485TIP3    H1 7461   2.548   3.956   0.398
 2485TIP3    H2 7462   2.490   4.083   0.458
 2486TIP3   OH2 7463   3.812   4.617   0.935
 2486TIP3    H1 7464   3.794   4.525   0.917
 2486TIP3    H2 7465   3.892   4.616   0.988
 2487TIP3   OH2 7466   4.738   4.558   3.766
 2487TIP3    H1 7467   4.739   4.465   3.747
 2487TIP3    H2 7468   4.764   4.564   3.858
 2488TIP3   OH2 7469   0.801   3.686   4.835
 2488TIP3    H1 7470   0.852   3.748   4.783
 2488TIP3    H2 7471   0.789   3.611   4.777
 2489TIP3   OH2 7472   3.185   5.298   3.866
 2489TIP3    H1 7473   3.269   5.284   3.910
 2489TIP3    H2 7474   3.204   5.281   3.773
 2490TIP3   OH2 7475   2.407   1.646   3.644
 2490TIP3    H1 7476   2.347   1.572   3.649
 2490TIP3    H2 7477   2.404   1.685   3.732
 2491TIP3   OH2 7478   6.180   4.634   4.438
 2491TIP3    H1 7479   6.206   4.649   4.348
 2491TIP3    H2 7480   6.257   4.657   4.490
 2492TIP3   OH2 7481   5.765   1.586   2.462
 2492TIP3    H1 7482   5.763   1.667   2.514
 2492TIP3    H2 7483   5.783   1.517   2.526
 2493TIP3   OH2 7484   4.029   2.278   4.009
 2493TIP3    H1 7485   3.936   2.274   4.034
 2493TIP3    H2 7486   4.075   2.233   4.080
 2494TIP3   OH2 7487   4.838   5.898   1.304
 2494TIP3    H1 7488   4.930   5.920   1.288
 2494TIP3    H2 7489   4.793   5.982   1.300
 2495TIP3   OH2 7490   2.354   3.237   1.479
 2495TIP3    H1 7491   2.316   3.295   1.545
 2495TIP3    H2 7492   2.345   3.285   1.397
 2496TIP3   OH2 7493   6.093   4.019   5.175
 2496TIP3    H1 7494   6.169   4.012   5.233
 2496TIP3    H2 7495   6.085   4.112   5.157
 2497TIP3   OH2 7496   6.001   5.879   1.587
 2497TIP3    H1 7497   5.940   5.891   1.514
 2497TIP3    H2 7498   6.083   5.915   1.556
 2498TIP3   OH2 7499   0.972   0.835   5.152
 2498TIP3    H1 7500   0.941   0.925   5.139
 2498TIP3    H2 7501   1.061   0.836   5.116
 2499TIP3   OH2 7502   5.664   1.819   4.000
 2499TIP3    H1 7503   5.640   1.809   4.092
 2499TIP3    H2 7504   5.623   1.743   3.957
 2500TIP3   OH2 7505   4.844   5.466   3.832
 2500TIP3    H1 7506   4.912   5.510   3.882
 2500TIP3    H2 7507   4.786   5.428   3.899
 2501TIP3   OH2 7508   1.682   5.991   4.909
 2501TIP3    H1 7509   1.692   5.900   4.882
 2501TIP3    H2 7510   1.708   5.992   5.002
 2502TIP3   OH2 7511   4.595   1.282   4.560
 2502TIP3    H1 7512   4.594   1.187   4.566
 2502TIP3    H2 7513   4.628   1.311   4.646
 2503TIP3   OH2 7514   1.190   0.564   4.411
 2503TIP3    H1 7515   1.201   0.495   4.477
 2503TIP3    H2 7516   1.117   0.533   4.357
 2504TIP3   OH2 7517   5.784   1.249   1.999
 2504TIP3    H1 7518   5.840   1.187   2.046
 2504TIP3    H2 7519   5.779   1.325   2.057
 2505TIP3   OH2 7520   2.393   5.909   1.804
 2505TIP3    H1 7521   2.466   5.949   1.851
 2505TIP3    H2 7522   2.428   5.891   1.717
 2506TIP3   OH2 7523   2.645   3.476   4.782
 2506TIP3    H1 7524   2.647   3.498   4.689
 2506TIP3    H2 7525   2.601   3.550   4.824
 2507TIP3   OH2 7526   1.688   3.162   4.017
 2507TIP3    H1 7527   1.727   3.200   4.095
 2507TIP3    H2 7528   1.594   3.169   4.031
 2508TIP3   OH2 7529   2.502   5.470   3.907
 2508TIP3    H1 7530   2.591   5.435   3.909
 2508TIP3    H2 7531   2.448   5.396   3.879
 2509TIP3   OH2 7532   5.103   5.572   0.010
 2509TIP3    H1 7533   5.174   5.553  -0.051
 2509TIP3    H2 7534   5.073   5.659  -0.013
 2510TIP3   OH2 7535   6.045   2.287   4.398
 2510TIP3    H1 7536   6.079   2.283   4.487
 2510TIP3    H2 7537   6.060   2.199   4.362
 2511TIP3   OH2 7538   4.538   2.741   0.150
 2511TIP3    H1 7539   4.597   2.675   0.113
 2511TIP3    H2 7540   4.455   2.694   0.164
 2512TIP3   OH2 7541   4.281   0.785   0.995
 2512TIP3    H1 7542   4.228   0.822   0.924
 2512TIP3    H2 7543   4.217   0.754   1.059
 2513TIP3   OH2 7544   2.773   4.172   0.608
 2513TIP3    H1 7545   2.742   4.113   0.539
 2513TIP3    H2 7546   2.851   4.129   0.643
 2514TIP3   OH2 7547   2.238   4.476   2.226
 2514TIP3    H1 7548   2.194   4.499   2.143
 2514TIP3    H2 7549   2.173   4.496   2.293
 2515TIP3   OH2 7550   6.000   1.512   1.596
 2515TIP3    H1 7551   5.981   1.438   1.655
 2515TIP3    H2 7552   5.948   1.584   1.630
 2516TIP3   OH2 7553   2.465   3.243   2.213
 2516TIP3    H1 7554   2.558   3.243   2.194
 2516TIP3    H2 7555   2.459   3.275   2.304
 2517TIP3   OH2 7556   0.958   4.003   1.073
 2517TIP3    H1 7557   0.931   3.912   1.061
 2517TIP3    H2 7558   0.887   4.042   1.125
 2518TIP3   OH2 7559   0.268   5.847   1.120
 2518TIP3    H1 7560   0.338   5.874   1.179
 2518TIP3    H2 7561   0.310   5.839   1.034
 2519TIP3   OH2 7562   3.675   0.639   3.646
 2519TIP3    H1 7563   3.653   0.716   3.699
 2519TIP3    H2 7564   3.619   0.646   3.569
 2520TIP3   OH2 7565   0.713   3.662   3.832
 2520TIP3    H1 7566   0.632   3.708   3.854
 2520TIP3    H2 7567   0.720   3.592   3.897
 2521TIP3   OH2 7568  -0.018   3.270   0.909
 2521TIP3    H1 7569   0.041   3.248   0.981
 2521TIP3    H2 7570   0.020   3.348   0.869
 2522TIP3   OH2 7571   6.291   5.353   2.297
 2522TIP3    H1 7572   6.229   5.349   2.224
 2522TIP3    H2 7573   6.245   5.403   2.364
 2523TIP3   OH2 7574   0.534   4.807  -0.017
 2523TIP3    H1 7575   0.600   4.769   0.041
 2523TIP3    H2 7576   0.460   4.826   0.041
 2524TIP3   OH2 7577   5.669   5.916   4.420
 2524TIP3    H1 7578   5.640   6.007   4.428
 2524TIP3    H2 7579   5.617   5.881   4.347
 2525TIP3   OH2 7580   5.804   5.496   1.429
 2525TIP3    H1 7581   5.796   5.411   1.387
 2525TIP3    H2 7582   5.770   5.559   1.365
 2526TIP3   OH2 7583   6.075   0.401   0.980
 2526TIP3    H1 7584   6.039   0.489   0.996
 2526TIP3    H2 7585   6.101   0.402   0.888
 2527TIP3   OH2 7586   2.733   2.973   0.395
 2527TIP3    H1 7587   2.728   2.933   0.482
 2527TIP3    H2 7588   2.682   3.053   0.402
 2528TIP3   OH2 7589   2.749   5.654   1.295
 2528TIP3    H1 7590   2.826   5.707   1.312
 2528TIP3    H2 7591   2.697   5.659   1.375
 2529TIP3   OH2 7592   1.793   1.061   0.205
 2529TIP3    H1 7593   1.776   1.155   0.197
 2529TIP3    H2 7594   1.761   1.024   0.123
 2530TIP3   OH2 7595   5.357   0.783   0.829
 2530TIP3    H1 7596   5.268   0.750   0.819
 2530TIP3    H2 7597   5.363   0.806   0.922
 2531TIP3   OH2 7598   4.186   2.122   4.169
 2531TIP3    H1 7599   4.230   2.042   4.197
 2531TIP3    H2 7600   4.249   2.192   4.186
 2532TIP3   OH2 7601   6.331   0.113   3.409
 2532TIP3    H1 7602   6.257   0.074   3.363
 2532TIP3    H2 7603   6.332   0.070   3.494
 2533TIP3   OH2 7604   5.084   2.746   2.472
 2533TIP3    H1 7605   5.079   2.684   2.400
 2533TIP3    H2 7606   5.029   2.708   2.541
 2534TIP3   OH2 7607   0.360   3.656   2.024
 2534TIP3    H1 7608   0.268   3.670   2.001
 2534TIP3    H2 7609   0.370   3.560   2.025
 2535TIP3   OH2 7610   2.946   5.172   0.135
 2535TIP3    H1 7611   2.888   5.097   0.120
 2535TIP3    H2 7612   2.928   5.199   0.225
 2536TIP3   OH2 7613   2.572   1.338   4.970
 2536TIP3    H1 7614   2.631   1.288   5.027
 2536TIP3    H2 7615   2.484   1.309   4.994
 2537TIP3   OH2 7616   3.782   0.896   1.415
 2537TIP3    H1 7617   3.739   0.861   1.337
 2537TIP3    H2 7618   3.866   0.850   1.419
 2538TIP3   OH2 7619   3.672   4.564   4.614
 2538TIP3    H1 7620   3.601   4.587   4.554
 2538TIP3    H2 7621   3.746   4.542   4.557
 2539TIP3   OH2 7622   3.485   1.491   2.707
 2539TIP3    H1 7623   3.514   1.490   2.798
 2539TIP3    H2 7624   3.529   1.415   2.668
 2540TIP3   OH2 7625   2.996   0.663   4.524
 2540TIP3    H1 7626   2.965   0.736   4.578
 2540TIP3    H2 7627   3.020   0.595   4.586
 2541TIP3   OH2 7628   4.819   4.885   1.027
 2541TIP3    H1 7629   4.874   4.807   1.036
 2541TIP3    H2 7630   4.760   4.866   0.954
 2542TIP3   OH2 7631   2.111   2.477   4.982
 2542TIP3    H1 7632   2.072   2.549   5.032
 2542TIP3    H2 7633   2.098   2.400   5.037
 2543TIP3   OH2 7634   0.131   0.314   2.463
 2543TIP3    H1 7635   0.063   0.339   2.525
 2543TIP3    H2 7636   0.206   0.368   2.487
 2544TIP3   OH2 7637   4.898   1.678   3.096
 2544TIP3    H1 7638   4.889   1.599   3.043
 2544TIP3    H2 7639   4.819   1.729   3.076
 2545TIP3   OH2 7640   4.278   4.741   0.395
 2545TIP3    H1 7641   4.363   4.714   0.429
 2545TIP3    H2 7642   4.284   4.836   0.385
 2546TIP3   OH2 7643   3.990   5.658   4.667
 2546TIP3    H1 7644   4.040   5.582   4.694
 2546TIP3    H2 7645   4.050   5.732   4.679
 2547TIP3   OH2 7646   3.255   3.666   0.763
 2547TIP3    H1 7647   3.246   3.702   0.675
 2547TIP3    H2 7648   3.194   3.717   0.816
 2548TIP3   OH2 7649   3.339   3.051   1.811
 2548TIP3    H1 7650   3.257   3.079   1.850
 2548TIP3    H2 7651   3.383   3.133   1.787
 2549TIP3   OH2 7652   2.043   3.122   3.944
 2549TIP3    H1 7653   2.106   3.094   3.879
 2549TIP3    H2 7654   1.963   3.140   3.894
 2550TIP3   OH2 7655   1.967   0.890   3.793
 2550TIP3    H1 7656   1.932   0.889   3.704
 2550TIP3    H2 7657   2.057   0.920   3.782
 2551TIP3   OH2 7658   5.851   4.936   1.714
 2551TIP3    H1 7659   5.870   5.005   1.778
 2551TIP3    H2 7660   5.901   4.960   1.636
 2552TIP3   OH2 7661   1.616   4.455   3.057
 2552TIP3    H1 7662   1.613   4.377   3.002
 2552TIP3    H2 7663   1.551   4.514   3.019
 2553TIP3   OH2 7664   0.945   3.802   4.050
 2553TIP3    H1 7665   0.866   3.837   4.010
 2553TIP3    H2 7666   1.016   3.825   3.990
 2554TIP3   OH2 7667   2.251   0.697   1.557
 2554TIP3    H1 7668   2.172   0.751   1.556
 2554TIP3    H2 7669   2.220   0.609   1.578
 2555TIP3   OH2 7670   4.193   1.238   3.706
 2555TIP3    H1 7671   4.142   1.163   3.738
 2555TIP3    H2 7672   4.211   1.217   3.614
 2556TIP3   OH2 7673   0.757   0.061   0.095
 2556TIP3    H1 7674   0.694   0.126   0.127
 2556TIP3    H2 7675   0.779   0.090   0.006
 2557TIP3   OH2 7676   2.962   1.572   4.873
 2557TIP3    H1 7677   2.930   1.604   4.958
 2557TIP3    H2 7678   2.892   1.516   4.841
 2558TIP3   OH2 7679   2.847   3.131   2.989
 2558TIP3    H1 7680   2.844   3.044   2.949
 2558TIP3    H2 7681   2.903   3.183   2.931
 2559TIP3   OH2 7682   5.507   1.248   2.858
 2559TIP3    H1 7683   5.429   1.293   2.889
 2559TIP3    H2 7684   5.510   1.267   2.764
 2560TIP3   OH2 7685   4.627   3.282   1.186
 2560TIP3    H1 7686   4.541   3.322   1.195
 2560TIP3    H2 7687   4.666   3.288   1.273
 2561TIP3   OH2 7688   5.169   5.439   1.155
 2561TIP3    H1 7689   5.116   5.454   1.233
 2561TIP3    H2 7690   5.251   5.404   1.188
 2562TIP3   OH2 7691   2.434   0.289   1.909
 2562TIP3    H1 7692   2.391   0.275   1.824
 2562TIP3    H2 7693   2.372   0.342   1.959
 2563TIP3   OH2 7694   5.038   2.967   0.838
 2563TIP3    H1 7695   4.949   2.962   0.804
 2563TIP3    H2 7696   5.090   2.916   0.775
 2564TIP3   OH2 7697   1.310   2.118   0.290
 2564TIP3    H1 7698   1.364   2.054   0.335
 2564TIP3    H2 7699   1.371   2.188   0.265
 2565TIP3   OH2 7700   2.039   4.184   1.923
 2565TIP3    H1 7701   2.081   4.159   2.006
 2565TIP3    H2 7702   2.000   4.269   1.941
 2566TIP3   OH2 7703   5.701   1.116   1.784
 2566TIP3    H1 7704   5.753   1.168   1.845
 2566TIP3    H2 7705   5.625   1.088   1.834
 2567TIP3   OH2 7706   5.932   3.292   1.641
 2567TIP3    H1 7707   5.854   3.242   1.618
 2567TIP3    H2 7708   5.976   3.309   1.558
 2568TIP3   OH2 7709   3.140   0.983   3.868
 2568TIP3    H1 7710   3.109   0.952   3.954
 2568TIP3    H2 7711   3.112   0.915   3.807
 2569TIP3   OH2 7712   4.741   4.243   2.760
 2569TIP3    H1 7713   4.726   4.261   2.668
 2569TIP3    H2 7714   4.750   4.330   2.800
 2570TIP3   OH2 7715   3.816   4.466   4.875
 2570TIP3    H1 7716   3.752   4.490   4.808
 2570TIP3    H2 7717   3.850   4.381   4.848
 2571TIP3   OH2 7718   6.203   5.336   1.476
 2571TIP3    H1 7719   6.219   5.335   1.571
 2571TIP3    H2 7720   6.287   5.361   1.438
 2572TIP3   OH2 7721   4.422   0.211   3.555
 2572TIP3    H1 7722   4.436   0.276   3.487
 2572TIP3    H2 7723   4.416   0.261   3.636
 2573TIP3   OH2 7724   2.181   5.715   0.387
 2573TIP3    H1 7725   2.187   5.804   0.423
 2573TIP3    H2 7726   2.132   5.666   0.452
 2574TIP3   OH2 7727   3.160   5.862   2.220
 2574TIP3    H1 7728   3.234   5.816   2.182
 2574TIP3    H2 7729   3.088   5.848   2.158
 2575TIP3   OH2 7730   3.203   4.632   3.700
 2575TIP3    H1 7731   3.127   4.619   3.756
 2575TIP3    H2 7732   3.171   4.615   3.612
 2576TIP3   OH2 7733   2.983   0.545   4.288
 2576TIP3    H1 7734   3.040   0.589   4.226
 2576TIP3    H2 7735   2.993   0.594   4.370
 2577TIP3   OH2 7736   1.263   1.425   1.056
 2577TIP3    H1 7737   1.358   1.412   1.053
 2577TIP3    H2 7738   1.251   1.518   1.037
 2578TIP3   OH2 7739   5.783   5.935   1.385
 2578TIP3    H1 7740   5.721   5.981   1.329
 2578TIP3    H2 7741   5.783   5.845   1.351
 2579TIP3   OH2 7742   3.851   1.974   3.687
 2579TIP3    H1 7743   3.860   2.020   3.604
 2579TIP3    H2 7744   3.935   1.987   3.731
 2580TIP3   OH2 7745   5.951   3.546   4.678
 2580TIP3    H1 7746   5.922   3.456   4.666
 2580TIP3    H2 7747   6.010   3.543   4.752
 2581TIP3   OH2 7748   2.636   0.847   0.276
 2581TIP3    H1 7749   2.586   0.816   0.200
 2581TIP3    H2 7750   2.592   0.807   0.351
 2582TIP3   OH2 7751   3.135   3.398   4.624
 2582TIP3    H1 7752   3.103   3.308   4.620
 2582TIP3    H2 7753   3.102   3.432   4.706
 2583TIP3   OH2 7754   0.984   4.271   5.142
 2583TIP3    H1 7755   0.935   4.250   5.221
 2583TIP3    H2 7756   0.993   4.188   5.096
 2584TIP3   OH2 7757   0.961   4.381   4.608
 2584TIP3    H1 7758   1.008   4.455   4.569
 2584TIP3    H2 7759   0.904   4.422   4.673
 2585TIP3   OH2 7760   5.018   0.200   0.235
 2585TIP3    H1 7761   5.028   0.109   0.261
 2585TIP3    H2 7762   5.042   0.200   0.142
 2586TIP3   OH2 7763   4.009   1.333   4.222
 2586TIP3    H1 7764   4.007   1.427   4.209
 2586TIP3    H2 7765   3.922   1.303   4.198
 2587TIP3   OH2 7766   1.448   1.064   3.005
 2587TIP3    H1 7767   1.446   1.034   2.915
 2587TIP3    H2 7768   1.479   0.988   3.055
 2588TIP3   OH2 7769   3.224   5.489   4.201
 2588TIP3    H1 7770   3.194   5.580   4.203
 2588TIP3    H2 7771   3.159   5.441   4.253
 2589TIP3   OH2 7772   6.305   2.067   2.307
 2589TIP3    H1 7773   6.261   1.990   2.343
 2589TIP3    H2 7774   6.306   2.130   2.379
 2590TIP3   OH2 7775   0.673   2.728   1.403
 2590TIP3    H1 7776   0.660   2.720   1.497
 2590TIP3    H2 7777   0.595   2.688   1.364
 2591TIP3   OH2 7778   5.178   2.977   4.476
 2591TIP3    H1 7779   5.173   3.033   4.553
 2591TIP3    H2 7780   5.153   3.033   4.403
 2592TIP3   OH2 7781   0.302   4.542   3.025
 2592TIP3    H1 7782   0.353   4.533   2.945
 2592TIP3    H2 7783   0.324   4.464   3.077
 2593TIP3   OH2 7784   4.059   1.452   5.108
 2593TIP3    H1 7785   4.055   1.372   5.162
 2593TIP3    H2 7786   3.971   1.457   5.069
 2594TIP3   OH2 7787   2.281   5.385   0.475
 2594TIP3    H1 7788   2.361   5.388   0.423
 2594TIP3    H2 7789   2.289   5.458   0.536
 2595TIP3   OH2 7790   0.039   0.163   2.712
 2595TIP3    H1 7791   0.133   0.154   2.731
 2595TIP3    H2 7792   0.018   0.085   2.661
 2596TIP3   OH2 7793   5.449   0.448   1.658
 2596TIP3    H1 7794   5.488   0.374   1.705
 2596TIP3    H2 7795   5.364   0.460   1.701
 2597TIP3   OH2 7796   1.747   1.398   0.080
 2597TIP3    H1 7797   1.759   1.444   0.163
 2597TIP3    H2 7798   1.708   1.314   0.104
 2598TIP3   OH2 7799   3.581   2.270   1.485
 2598TIP3    H1 7800   3.558   2.220   1.407
 2598TIP3    H2 7801   3.500   2.276   1.535
 2599TIP3   OH2 7802   3.694   3.676   2.356
 2599TIP3    H1 7803   3.657   3.703   2.272
 2599TIP3    H2 7804   3.689   3.580   2.355
 2600TIP3   OH2 7805   2.315   1.766   4.813
 2600TIP3    H1 7806   2.279   1.678   4.821
 2600TIP3    H2 7807   2.319   1.782   4.718
 2601TIP3   OH2 7808   5.681   4.502   2.973
 2601TIP3    H1 7809   5.675   4.480   3.066
 2601TIP3    H2 7810   5.766   4.468   2.946
 2602TIP3   OH2 7811   0.541   1.251   4.911
 2602TIP3    H1 7812   0.573   1.213   4.993
 2602TIP3    H2 7813   0.455   1.287   4.933
 2603TIP3   OH2 7814   0.685   1.406   0.691
 2603TIP3    H1 7815   0.608   1.425   0.745
 2603TIP3    H2 7816   0.661   1.329   0.641
 2604TIP3   OH2 7817   2.347   5.485   2.659
 2604TIP3    H1 7818   2.273   5.542   2.635
 2604TIP3    H2 7819   2.419   5.546   2.673
 2605TIP3   OH2 7820   1.598   4.024   2.078
 2605TIP3    H1 7821   1.653   3.952   2.048
 2605TIP3    H2 7822   1.584   4.007   2.171
 2606TIP3   OH2 7823   6.282   5.019   3.894
 2606TIP3    H1 7824   6.209   5.046   3.838
 2606TIP3    H2 7825   6.244   4.954   3.953
 2607TIP3   OH2 7826   3.392   3.031   0.165
 2607TIP3    H1 7827   3.427   3.018   0.253
 2607TIP3    H2 7828   3.467   3.054   0.111
 2608TIP3   OH2 7829   5.449   3.871   3.284
 2608TIP3    H1 7830   5.414   3.804   3.225
 2608TIP3    H2 7831   5.541   3.881   3.257
 2609TIP3   OH2 7832   2.656   1.085   1.476
 2609TIP3    H1 7833   2.595   1.012   1.488
 2609TIP3    H2 7834   2.608   1.161   1.508
 2610TIP3   OH2 7835   5.165   3.779   2.695
 2610TIP3    H1 7836   5.203   3.783   2.783
 2610TIP3    H2 7837   5.129   3.691   2.688
 2611TIP3   OH2 7838   2.999   2.616   1.938
 2611TIP3    H1 7839   3.024   2.640   2.027
 2611TIP3    H2 7840   2.971   2.698   1.897
 2612TIP3   OH2 7841   3.515   0.501   1.178
 2612TIP3    H1 7842   3.537   0.465   1.264
 2612TIP3    H2 7843   3.532   0.429   1.117
 2613TIP3   OH2 7844   4.006   3.280   5.115
 2613TIP3    H1 7845   4.013   3.244   5.027
 2613TIP3    H2 7846   3.957   3.362   5.104
 2614TIP3   OH2 7847   5.362   3.203   2.073
 2614TIP3    H1 7848   5.333   3.294   2.079
 2614TIP3    H2 7849   5.441   3.206   2.019
 2615TIP3   OH2 7850   5.424   1.336   1.761
 2615TIP3    H1 7851   5.365   1.262   1.747
 2615TIP3    H2 7852   5.452   1.328   1.852
 2616TIP3   OH2 7853   4.114   2.907   1.208
 2616TIP3    H1 7854   4.189   2.904   1.268
 2616TIP3    H2 7855   4.055   2.838   1.239
 2617TIP3   OH2 7856   1.004   4.127   4.568
 2617TIP3    H1 7857   0.972   4.215   4.552
 2617TIP3    H2 7858   1.055   4.134   4.649
 2618TIP3   OH2 7859   1.700   0.343   2.240
 2618TIP3    H1 7860   1.635   0.397   2.284
 2618TIP3    H2 7861   1.765   0.405   2.208
 2619TIP3   OH2 7862   4.207   0.144   0.276
 2619TIP3    H1 7863   4.146   0.071   0.282
 2619TIP3    H2 7864   4.233   0.146   0.184
 2620TIP3   OH2 7865   5.812   1.413   4.533
 2620TIP3    H1 7866   5.888   1.386   4.481
 2620TIP3    H2 7867   5.741   1.420   4.470
 2621TIP3   OH2 7868   0.879   2.773   4.819
 2621TIP3    H1 7869   0.907   2.688   4.785
 2621TIP3    H2 7870   0.817   2.806   4.754
 2622TIP3   OH2 7871   2.537   3.399   3.475
 2622TIP3    H1 7872   2.609   3.417   3.414
 2622TIP3    H2 7873   2.475   3.471   3.461
 2623TIP3   OH2 7874   3.084   3.117   2.855
 2623TIP3    H1 7875   3.077   3.196   2.801
 2623TIP3    H2 7876   3.178   3.106   2.869
 2624TIP3   OH2 7877   4.263   0.580   0.141
 2624TIP3    H1 7878   4.336   0.635   0.112
 2624TIP3    H2 7879   4.303   0.516   0.201
 2625TIP3   OH2 7880   3.460   0.212   0.267
 2625TIP3    H1 7881   3.541   0.232   0.220
 2625TIP3    H2 7882   3.404   0.287   0.251
 2626TIP3   OH2 7883   0.183   5.319   1.701
 2626TIP3    H1 7884   0.197   5.312   1.606
 2626TIP3    H2 7885   0.091   5.296   1.713
 2627TIP3   OH2 7886   6.191   5.931   2.869
 2627TIP3    H1 7887   6.149   6.000   2.921
 2627TIP3    H2 7888   6.179   5.852   2.921
 2628TIP3   OH2 7889   3.168   3.350   4.209
 2628TIP3    H1 7890   3.208   3.425   4.164
 2628TIP3    H2 7891   3.175   3.370   4.302
 2629TIP3   OH2 7892   2.555   2.322   0.975
 2629TIP3    H1 7893   2.594   2.313   0.888
 2629TIP3    H2 7894   2.489   2.253   0.979
 2630TIP3   OH2 7895   4.002   5.716   2.516
 2630TIP3    H1 7896   3.974   5.639   2.467
 2630TIP3    H2 7897   4.064   5.682   2.581
 2631TIP3   OH2 7898   2.118   1.488   0.584
 2631TIP3    H1 7899   2.184   1.438   0.535
 2631TIP3    H2 7900   2.165   1.525   0.658
 2632TIP3   OH2 7901   1.628   5.901   0.145
 2632TIP3    H1 7902   1.676   5.833   0.192
 2632TIP3    H2 7903   1.548   5.913   0.196
 2633TIP3   OH2 7904   1.150   4.808   3.069
 2633TIP3    H1 7905   1.108   4.828   2.985
 2633TIP3    H2 7906   1.187   4.890   3.099
 2634TIP3   OH2 7907   0.389   3.921   4.054
 2634TIP3    H1 7908   0.420   3.831   4.068
 2634TIP3    H2 7909   0.461   3.964   4.008
 2635TIP3   OH2 7910   5.388   5.837   2.326
 2635TIP3    H1 7911   5.392   5.929   2.299
 2635TIP3    H2 7912   5.349   5.792   2.251
 2636TIP3   OH2 7913   4.368   5.185   1.186
 2636TIP3    H1 7914   4.378   5.173   1.280
 2636TIP3    H2 7915   4.386   5.099   1.148
 2637TIP3   OH2 7916   3.691   5.748   4.195
 2637TIP3    H1 7917   3.784   5.767   4.182
 2637TIP3    H2 7918   3.684   5.653   4.189
 2638TIP3   OH2 7919   1.797   5.202   3.306
 2638TIP3    H1 7920   1.864   5.139   3.281
 2638TIP3    H2 7921   1.719   5.149   3.323
 2639TIP3   OH2 7922   1.965   3.302   0.766
 2639TIP3    H1 7923   1.930   3.376   0.815
 2639TIP3    H2 7924   1.902   3.288   0.695
 2640TIP3   OH2 7925   5.083   0.371   0.678
 2640TIP3    H1 7926   5.144   0.400   0.745
 2640TIP3    H2 7927   5.048   0.452   0.641
 2641TIP3   OH2 7928   1.817   2.858   0.566
 2641TIP3    H1 7929   1.822   2.763   0.559
 2641TIP3    H2 7930   1.836   2.876   0.658
 2642TIP3   OH2 7931   4.140   2.619   3.085
 2642TIP3    H1 7932   4.145   2.710   3.116
 2642TIP3    H2 7933   4.214   2.576   3.128
 2643TIP3   OH2 7934   3.915   0.893   2.186
 2643TIP3    H1 7935   3.947   0.975   2.148
 2643TIP3    H2 7936   3.960   0.886   2.270
 2644TIP3   OH2 7937   2.435   3.308   4.329
 2644TIP3    H1 7938   2.364   3.275   4.384
 2644TIP3    H2 7939   2.405   3.295   4.240
 2645TIP3   OH2 7940   2.807   2.775   4.597
 2645TIP3    H1 7941   2.794   2.684   4.625
 2645TIP3    H2 7942   2.721   2.803   4.566
 2646TIP3   OH2 7943   1.330   1.640   4.491
 2646TIP3    H1 7944   1.368   1.555   4.470
 2646TIP3    H2 7945   1.395   1.704   4.460
 2647TIP3   OH2 7946   2.645   4.651   3.855
 2647TIP3    H1 7947   2.653   4.580   3.791
 2647TIP3    H2 7948   2.554   4.647   3.884
 2648TIP3   OH2 7949   5.035   1.224   2.949
 2648TIP3    H1 7950   5.015   1.194   2.860
 2648TIP3    H2 7951   4.976   1.174   3.005
 2649TIP3   OH2 7952   3.700   4.215   3.535
 2649TIP3    H1 7953   3.656   4.273   3.598
 2649TIP3    H2 7954   3.721   4.273   3.461
 2650TIP3   OH2 7955   5.897   5.140   0.690
 2650TIP3    H1 7956   5.858   5.116   0.774
 2650TIP3    H2 7957   5.971   5.081   0.679
 2651TIP3   OH2 7958   1.380   2.553   4.147
 2651TIP3    H1 7959   1.463   2.536   4.104
 2651TIP3    H2 7960   1.320   2.576   4.077
 2652TIP3   OH2 7961   5.017   3.900   3.455
 2652TIP3    H1 7962   5.050   3.839   3.389
 2652TIP3    H2 7963   4.980   3.972   3.404
 2653TIP3   OH2 7964   5.051   2.810   0.248
 2653TIP3    H1 7965   5.065   2.889   0.196
 2653TIP3    H2 7966   4.983   2.835   0.311
 2654TIP3   OH2 7967   6.032   4.857   2.725
 2654TIP3    H1 7968   6.040   4.775   2.676
 2654TIP3    H2 7969   6.063   4.835   2.813
 2655TIP3   OH2 7970   0.034   4.540   2.891
 2655TIP3    H1 7971  -0.005   4.496   2.967
 2655TIP3    H2 7972   0.121   4.566   2.921
 2656TIP3   OH2 7973   6.243   0.223   3.912
 2656TIP3    H1 7974   6.223   0.304   3.865
 2656TIP3    H2 7975   6.332   0.237   3.946
 2657TIP3   OH2 7976   5.098   0.691   5.065
 2657TIP3    H1 7977   5.038   0.765   5.078
 2657TIP3    H2 7978   5.111   0.655   5.152
 2658TIP3   OH2 7979   5.289   2.503   3.961
 2658TIP3    H1 7980   5.284   2.480   4.054
 2658TIP3    H2 7981   5.320   2.423   3.918
 2659TIP3   OH2 7982   2.298   4.388   3.716
 2659TIP3    H1 7983   2.366   4.453   3.696
 2659TIP3    H2 7984   2.250   4.377   3.634
 2660TIP3   OH2 7985   4.057   4.040   4.121
 2660TIP3    H1 7986   4.066   4.073   4.032
 2660TIP3    H2 7987   4.142   4.054   4.161
 2661TIP3   OH2 7988   6.317   5.047   0.562
 2661TIP3    H1 7989   6.350   5.080   0.645
 2661TIP3    H2 7990   6.261   4.972   0.586
 2662TIP3   OH2 7991   3.345   1.795   2.265
 2662TIP3    H1 7992   3.297   1.722   2.226
 2662TIP3    H2 7993   3.348   1.776   2.358
 2663TIP3   OH2 7994   4.581   2.763   5.087
 2663TIP3    H1 7995   4.618   2.726   5.168
 2663TIP3    H2 7996   4.621   2.850   5.080
 2664TIP3   OH2 7997   4.313   4.082   4.200
 2664TIP3    H1 7998   4.375   4.117   4.264
 2664TIP3    H2 7999   4.322   4.139   4.124
 2665TIP3   OH2 8000   3.245   0.414   3.973
 2665TIP3    H1 8001   3.318   0.386   4.029
 2665TIP3    H2 8002   3.188   0.465   4.030
 2666TIP3   OH2 8003   3.942   5.712   0.271
 2666TIP3    H1 8004   3.904   5.757   0.346
 2666TIP3    H2 8005   3.925   5.770   0.197
 2667TIP3   OH2 8006   5.136   0.538   2.652
 2667TIP3    H1 8007   5.232   0.544   2.650
 2667TIP3    H2 8008   5.109   0.565   2.564
 2668TIP3   OH2 8009   3.375   3.379   4.506
 2668TIP3    H1 8010   3.358   3.296   4.462
 2668TIP3    H2 8011   3.295   3.397   4.556
 2669TIP3   OH2 8012   2.345   1.792   2.840
 2669TIP3    H1 8013   2.398   1.748   2.907
 2669TIP3    H2 8014   2.268   1.736   2.831
 2670TIP3   OH2 8015   4.299   0.167   0.006
 2670TIP3    H1 8016   4.365   0.235   0.017
 2670TIP3    H2 8017   4.343   0.099  -0.045
 2671TIP3   OH2 8018   1.701   0.928   1.263
 2671TIP3    H1 8019   1.689   1.014   1.304
 2671TIP3    H2 8020   1.792   0.906   1.280
 2672TIP3   OH2 8021   6.178   2.589   3.176
 2672TIP3    H1 8022   6.266   2.628   3.171
 2672TIP3    H2 8023   6.188   2.516   3.237
 2673TIP3   OH2 8024   4.268   0.768   4.920
 2673TIP3    H1 8025   4.317   0.830   4.865
 2673TIP3    H2 8026   4.177   0.795   4.912
 2674TIP3   OH2 8027   2.016   0.173   4.841
 2674TIP3    H1 8028   1.956   0.114   4.884
 2674TIP3    H2 8029   2.102   0.150   4.875
 2675TIP3   OH2 8030   2.997   5.679   0.980
 2675TIP3    H1 8031   3.085   5.660   1.012
 2675TIP3    H2 8032   2.983   5.617   0.909
 2676TIP3   OH2 8033   6.340   1.564  -0.020
 2676TIP3    H1 8034   6.291   1.482  -0.025
 2676TIP3    H2 8035   6.432   1.537  -0.013
 2677TIP3   OH2 8036   0.651   3.517   1.826
 2677TIP3    H1 8037   0.726   3.458   1.815
 2677TIP3    H2 8038   0.604   3.512   1.743
 2678TIP3   OH2 8039   5.887   4.325   4.782
 2678TIP3    H1 8040   5.889   4.267   4.859
 2678TIP3    H2 8041   5.947   4.396   4.805
 2679TIP3   OH2 8042   0.685   1.212   5.219
 2679TIP3    H1 8043   0.640   1.295   5.236
 2679TIP3    H2 8044   0.633   1.147   5.267
 2680TIP3   OH2 8045   0.820   2.518   2.715
 2680TIP3    H1 8046   0.764   2.507   2.792
 2680TIP3    H2 8047   0.776   2.584   2.663
 2681TIP3   OH2 8048   0.869   5.444   4.986
 2681TIP3    H1 8049   0.948   5.402   5.021
 2681TIP3    H2 8050   0.868   5.530   5.027
 2682TIP3   OH2 8051   1.137   4.606   4.426
 2682TIP3    H1 8052   1.191   4.664   4.372
 2682TIP3    H2 8053   1.049   4.612   4.389
 2683TIP3   OH2 8054   5.655   5.663   4.547
 2683TIP3    H1 8055   5.677   5.738   4.492
 2683TIP3    H2 8056   5.709   5.675   4.625
 2684TIP3   OH2 8057   4.015   2.399   3.744
 2684TIP3    H1 8058   3.979   2.483   3.771
 2684TIP3    H2 8059   4.036   2.354   3.826
 2685TIP3   OH2 8060   1.364   5.446   1.032
 2685TIP3    H1 8061   1.339   5.416   0.945
 2685TIP3    H2 8062   1.451   5.408   1.047
 2686TIP3   OH2 8063   5.835   0.228   1.464
 2686TIP3    H1 8064   5.869   0.266   1.546
 2686TIP3    H2 8065   5.792   0.147   1.492
 2687TIP3   OH2 8066   4.506   3.909   3.054
 2687TIP3    H1 8067   4.421   3.943   3.081
 2687TIP3    H2 8068   4.525   3.840   3.117
 2688TIP3   OH2 8069   0.997   1.745   1.139
 2688TIP3    H1 8070   0.952   1.661   1.144
 2688TIP3    H2 8071   1.088   1.725   1.161
 2689TIP3   OH2 8072   5.353   3.399   0.700
 2689TIP3    H1 8073   5.359   3.468   0.766
 2689TIP3    H2 8074   5.357   3.446   0.617
 2690TIP3   OH2 8075   1.495   0.677   2.279
 2690TIP3    H1 8076   1.586   0.652   2.293
 2690TIP3    H2 8077   1.453   0.666   2.364
 2691TIP3   OH2 8078   6.249   1.233   0.382
 2691TIP3    H1 8079   6.206   1.319   0.380
 2691TIP3    H2 8080   6.222   1.195   0.466
 2692TIP3   OH2 8081   2.309   5.773   1.342
 2692TIP3    H1 8082   2.229   5.748   1.387
 2692TIP3    H2 8083   2.300   5.868   1.328
 2693TIP3   OH2 8084   1.367   1.123   0.338
 2693TIP3    H1 8085   1.379   1.028   0.343
 2693TIP3    H2 8086   1.279   1.134   0.302
 2694TIP3   OH2 8087   5.608   4.499   4.692
 2694TIP3    H1 8088   5.592   4.413   4.732
 2694TIP3    H2 8089   5.704   4.505   4.688
 2695TIP3   OH2 8090   0.747   5.499   0.497
 2695TIP3    H1 8091   0.687   5.425   0.507
 2695TIP3    H2 8092   0.787   5.510   0.583
 2696TIP3   OH2 8093   1.870   4.030   4.631
 2696TIP3    H1 8094   1.822   4.024   4.549
 2696TIP3    H2 8095   1.962   4.035   4.604
 2697TIP3   OH2 8096   5.934   3.800   2.439
 2697TIP3    H1 8097   5.950   3.758   2.355
 2697TIP3    H2 8098   6.013   3.780   2.491
 2698TIP3   OH2 8099   4.352   2.843   1.361
 2698TIP3    H1 8100   4.353   2.894   1.443
 2698TIP3    H2 8101   4.441   2.809   1.354
 2699TIP3   OH2 8102   1.243   4.342   5.083
 2699TIP3    H1 8103   1.294   4.271   5.121
 2699TIP3    H2 8104   1.153   4.325   5.113
 2700TIP3   OH2 8105   2.073   2.012   1.593
 2700TIP3    H1 8106   2.006   1.956   1.633
 2700TIP3    H2 8107   2.150   1.956   1.584
 2701TIP3   OH2 8108   5.131   0.045   1.745
 2701TIP3    H1 8109   5.151   0.103   1.671
 2701TIP3    H2 8110   5.215   0.009   1.771
 2702TIP3   OH2 8111   3.985   4.866   1.536
 2702TIP3    H1 8112   4.026   4.934   1.483
 2702TIP3    H2 8113   3.937   4.812   1.474
 2703TIP3   OH2 8114   3.744   2.735   4.560
 2703TIP3    H1 8115   3.716   2.677   4.488
 2703TIP3    H2 8116   3.833   2.706   4.581
 2704TIP3   OH2 8117   0.838   5.576   0.082
 2704TIP3    H1 8118   0.911   5.637   0.068
 2704TIP3    H2 8119   0.791   5.613   0.157
 2705TIP3   OH2 8120   1.630   2.172   2.545
 2705TIP3    H1 8121   1.642   2.130   2.630
 2705TIP3    H2 8122   1.551   2.132   2.509
 2706TIP3   OH2 8123   0.857   0.330   4.070
 2706TIP3    H1 8124   0.924   0.398   4.063
 2706TIP3    H2 8125   0.845   0.300   3.980
 2707TIP3   OH2 8126   1.449   0.145   0.011
 2707TIP3    H1 8127   1.501   0.160   0.090
 2707TIP3    H2 8128   1.371   0.100   0.043
 2708TIP3   OH2 8129   0.941   0.921   3.177
 2708TIP3    H1 8130   0.966   0.870   3.254
 2708TIP3    H2 8131   0.852   0.951   3.195
 2709TIP3   OH2 8132   6.035   2.357   1.196
 2709TIP3    H1 8133   6.028   2.445   1.158
 2709TIP3    H2 8134   6.021   2.370   1.290
 2710TIP3   OH2 8135   4.976   4.122   2.783
 2710TIP3    H1 8136   5.021   4.134   2.867
 2710TIP3    H2 8137   4.898   4.178   2.790
 2711TIP3   OH2 8138   5.262   4.440   1.282
 2711TIP3    H1 8139   5.205   4.516   1.288
 2711TIP3    H2 8140   5.350   4.475   1.295
 2712TIP3   OH2 8141   3.988   2.660   5.133
 2712TIP3    H1 8142   3.983   2.733   5.071
 2712TIP3    H2 8143   3.961   2.698   5.216
 2713TIP3   OH2 8144   5.763   5.489   4.261
 2713TIP3    H1 8145   5.733   5.437   4.335
 2713TIP3    H2 8146   5.793   5.572   4.301
 2714TIP3   OH2 8147   3.727   2.104   2.983
 2714TIP3    H1 8148   3.659   2.117   2.916
 2714TIP3    H2 8149   3.751   2.193   3.010
 2715TIP3   OH2 8150   4.557   0.928   1.392
 2715TIP3    H1 8151   4.477   0.911   1.344
 2715TIP3    H2 8152   4.607   0.847   1.386
 2716TIP3   OH2 8153   3.823   5.504   2.454
 2716TIP3    H1 8154   3.775   5.447   2.514
 2716TIP3    H2 8155   3.755   5.544   2.400
 2717TIP3   OH2 8156   0.184   5.390   1.140
 2717TIP3    H1 8157   0.262   5.444   1.147
 2717TIP3    H2 8158   0.158   5.396   1.048
 2718TIP3   OH2 8159   5.260   3.276   2.330
 2718TIP3    H1 8160   5.302   3.200   2.290
 2718TIP3    H2 8161   5.330   3.341   2.338
 2719TIP3   OH2 8162   3.099   1.652   1.940
 2719TIP3    H1 8163   3.143   1.736   1.946
 2719TIP3    H2 8164   3.016   1.665   1.986
 2720TIP3   OH2 8165   5.503   4.412   2.217
 2720TIP3    H1 8166   5.426   4.356   2.226
 2720TIP3    H2 8167   5.577   4.352   2.228
 2721TIP3   OH2 8168   3.400   3.872   3.992
 2721TIP3    H1 8169   3.436   3.804   4.048
 2721TIP3    H2 8170   3.350   3.824   3.926
 2722TIP3   OH2 8171   5.981   4.789   1.905
 2722TIP3    H1 8172   5.988   4.695   1.888
 2722TIP3    H2 8173   5.927   4.823   1.834
 2723TIP3   OH2 8174   1.861   1.587   3.936
 2723TIP3    H1 8175   1.896   1.516   3.990
 2723TIP3    H2 8176   1.782   1.551   3.896
 2724TIP3   OH2 8177   2.029   5.453   2.990
 2724TIP3    H1 8178   2.071   5.460   3.076
 2724TIP3    H2 8179   1.954   5.511   2.995
 2725TIP3   OH2 8180   3.951   1.457   4.550
 2725TIP3    H1 8181   3.871   1.486   4.506
 2725TIP3    H2 8182   3.930   1.462   4.644
 2726TIP3   OH2 8183   0.199   2.979   3.857
 2726TIP3    H1 8184   0.201   3.072   3.879
 2726TIP3    H2 8185   0.170   2.977   3.765
 2727TIP3   OH2 8186   2.282   2.318   3.146
 2727TIP3    H1 8187   2.364   2.366   3.149
 2727TIP3    H2 8188   2.231   2.362   3.077
 2728TIP3   OH2 8189   1.645   3.808   1.053
 2728TIP3    H1 8190   1.626   3.850   0.969
 2728TIP3    H2 8191   1.560   3.772   1.081
 2729TIP3   OH2 8192   0.821   4.871   3.985
 2729TIP3    H1 8193   0.758   4.943   3.986
 2729TIP3    H2 8194   0.824   4.844   3.893
 2730TIP3   OH2 8195   3.422   1.003   0.616
 2730TIP3    H1 8196   3.414   1.032   0.525
 2730TIP3    H2 8197   3.341   1.033   0.657
 2731TIP3   OH2 8198   1.403   3.634   4.846
 2731TIP3    H1 8199   1.321   3.677   4.825
 2731TIP3    H2 8200   1.408   3.637   4.942
 2732TIP3   OH2 8201   6.047   3.968   3.249
 2732TIP3    H1 8202   6.131   4.009   3.273
 2732TIP3    H2 8203   6.063   3.874   3.261
 2733TIP3   OH2 8204   1.566   3.494   0.284
 2733TIP3    H1 8205   1.524   3.518   0.202
 2733TIP3    H2 8206   1.499   3.446   0.333
 2734TIP3   OH2 8207   2.700   4.847   4.375
 2734TIP3    H1 8208   2.782   4.878   4.414
 2734TIP3    H2 8209   2.704   4.876   4.284
 2735TIP3   OH2 8210   5.856   0.056   1.980
 2735TIP3    H1 8211   5.810   0.137   2.001
 2735TIP3    H2 8212   5.842   0.000   2.056
 2736TIP3   OH2 8213   3.027   0.481   4.735
 2736TIP3    H1 8214   3.110   0.473   4.782
 2736TIP3    H2 8215   2.963   0.505   4.802
 2737TIP3   OH2 8216   0.184   1.237   4.130
 2737TIP3    H1 8217   0.166   1.208   4.220
 2737TIP3    H2 8218   0.279   1.237   4.123
 2738TIP3   OH2 8219   4.922   1.171   0.391
 2738TIP3    H1 8220   4.867   1.095   0.371
 2738TIP3    H2 8221   4.867   1.226   0.447
 2739TIP3   OH2 8222   0.093   5.523   3.703
 2739TIP3    H1 8223   0.179   5.550   3.735
 2739TIP3    H2 8224   0.037   5.520   3.781
 2740TIP3   OH2 8225   0.972   3.300   0.636
 2740TIP3    H1 8226   1.056   3.336   0.607
 2740TIP3    H2 8227   0.992   3.252   0.715
 2741TIP3   OH2 8228   4.943   5.051   0.396
 2741TIP3    H1 8229   5.023   5.032   0.445
 2741TIP3    H2 8230   4.969   5.044   0.304
 2742TIP3   OH2 8231   0.029   5.755   1.270
 2742TIP3    H1 8232   0.044   5.836   1.320
 2742TIP3    H2 8233   0.075   5.769   1.187
 2743TIP3   OH2 8234   3.471   1.970   3.646
 2743TIP3    H1 8235   3.517   1.979   3.562
 2743TIP3    H2 8236   3.429   1.884   3.641
 2744TIP3   OH2 8237   4.578   5.927   4.052
 2744TIP3    H1 8238   4.662   5.881   4.050
 2744TIP3    H2 8239   4.524   5.874   4.110
 2745TIP3   OH2 8240   1.570   0.208   1.161
 2745TIP3    H1 8241   1.502   0.153   1.199
 2745TIP3    H2 8242   1.645   0.198   1.219
 2746TIP3   OH2 8243   2.105   1.015   2.223
 2746TIP3    H1 8244   2.044   1.007   2.150
 2746TIP3    H2 8245   2.163   0.939   2.213
 2747TIP3   OH2 8246   0.320   0.862   3.621
 2747TIP3    H1 8247   0.335   0.780   3.667
 2747TIP3    H2 8248   0.363   0.928   3.676
 2748TIP3   OH2 8249   6.315   1.977   3.221
 2748TIP3    H1 8250   6.239   1.953   3.274
 2748TIP3    H2 8251   6.358   2.046   3.271
 2749TIP3   OH2 8252   2.751   3.290   1.639
 2749TIP3    H1 8253   2.720   3.380   1.634
 2749TIP3    H2 8254   2.672   3.238   1.651
 2750TIP3   OH2 8255   3.153   3.258   1.009
 2750TIP3    H1 8256   3.136   3.236   1.101
 2750TIP3    H2 8257   3.198   3.342   1.013
 2751TIP3   OH2 8258   5.986   0.585   4.867
 2751TIP3    H1 8259   5.935   0.528   4.809
 2751TIP3    H2 8260   5.956   0.562   4.955
 2752TIP3   OH2 8261   2.794   0.128   4.089
 2752TIP3    H1 8262   2.700   0.144   4.091
 2752TIP3    H2 8263   2.813   0.082   4.171
 2753TIP3   OH2 8264   2.609   2.251   5.042
 2753TIP3    H1 8265   2.564   2.295   5.115
 2753TIP3    H2 8266   2.540   2.206   4.995
 2754TIP3   OH2 8267   3.942   3.922   2.271
 2754TIP3    H1 8268   3.932   3.837   2.227
 2754TIP3    H2 8269   3.989   3.901   2.352
 2755TIP3   OH2 8270   0.279   5.080   2.586
 2755TIP3    H1 8271   0.277   4.991   2.550
 2755TIP3    H2 8272   0.197   5.119   2.556
 2756TIP3   OH2 8273   0.372   3.015   4.176
 2756TIP3    H1 8274   0.302   3.074   4.203
 2756TIP3    H2 8275   0.326   2.938   4.141
 2757TIP3   OH2 8276   2.698   5.963   5.115
 2757TIP3    H1 8277   2.693   5.942   5.209
 2757TIP3    H2 8278   2.613   5.937   5.080
 2758TIP3   OH2 8279   6.210   4.351   4.956
 2758TIP3    H1 8280   6.171   4.323   5.039
 2758TIP3    H2 8281   6.147   4.412   4.919
 2759TIP3   OH2 8282   3.271   0.092   3.474
 2759TIP3    H1 8283   3.287   0.013   3.526
 2759TIP3    H2 8284   3.323   0.160   3.517
 2760TIP3   OH2 8285   3.398   5.684   2.592
 2760TIP3    H1 8286   3.382   5.779   2.598
 2760TIP3    H2 8287   3.316   5.644   2.619
 2761TIP3   OH2 8288   5.888   4.446   2.677
 2761TIP3    H1 8289   5.869   4.478   2.765
 2761TIP3    H2 8290   5.832   4.499   2.620
 2762TIP3   OH2 8291   0.645   3.341   1.538
 2762TIP3    H1 8292   0.682   3.321   1.452
 2762TIP3    H2 8293   0.667   3.433   1.553
 2763TIP3   OH2 8294   3.429   4.518   3.208
 2763TIP3    H1 8295   3.439   4.514   3.113
 2763TIP3    H2 8296   3.478   4.442   3.240
 2764TIP3   OH2 8297   2.638   1.505   3.543
 2764TIP3    H1 8298   2.558   1.552   3.567
 2764TIP3    H2 8299   2.671   1.552   3.466
 2765TIP3   OH2 8300   5.075   4.464   1.837
 2765TIP3    H1 8301   4.995   4.414   1.850
 2765TIP3    H2 8302   5.078   4.481   1.743
 2766TIP3   OH2 8303   0.298   2.354   1.193
 2766TIP3    H1 8304   0.338   2.290   1.251
 2766TIP3    H2 8305   0.335   2.334   1.107
 2767TIP3   OH2 8306   1.786   0.582   0.840
 2767TIP3    H1 8307   1.721   0.534   0.891
 2767TIP3    H2 8308   1.849   0.614   0.904
 2768TIP3   OH2 8309   1.573   5.375   2.046
 2768TIP3    H1 8310   1.534   5.290   2.065
 2768TIP3    H2 8311   1.666   5.358   2.038
 2769TIP3   OH2 8312   4.988   0.568   1.153
 2769TIP3    H1 8313   4.964   0.558   1.061
 2769TIP3    H2 8314   4.951   0.653   1.179
 2770TIP3   OH2 8315   4.352   1.276   1.275
 2770TIP3    H1 8316   4.368   1.211   1.343
 2770TIP3    H2 8317   4.423   1.340   1.286
 2771TIP3   OH2 8318   4.438   1.725   1.962
 2771TIP3    H1 8319   4.474   1.739   2.050
 2771TIP3    H2 8320   4.343   1.740   1.973
 2772TIP3   OH2 8321   0.987  -0.020   2.915
 2772TIP3    H1 8322   1.034   0.043   2.970
 2772TIP3    H2 8323   0.997   0.014   2.826
 2773TIP3   OH2 8324   2.415   3.654   0.495
 2773TIP3    H1 8325   2.343   3.593   0.507
 2773TIP3    H2 8326   2.454   3.663   0.582
 2774TIP3   OH2 8327   5.147   3.759   3.221
 2774TIP3    H1 8328   5.171   3.676   3.179
 2774TIP3    H2 8329   5.070   3.789   3.172
 2775TIP3   OH2 8330   1.722   3.952   2.379
 2775TIP3    H1 8331   1.773   3.891   2.433
 2775TIP3    H2 8332   1.657   3.897   2.336
 2776TIP3   OH2 8333   0.757   5.899   2.734
 2776TIP3    H1 8334   0.664   5.921   2.738
 2776TIP3    H2 8335   0.791   5.950   2.660
 2777TIP3   OH2 8336   4.401   1.499   3.798
 2777TIP3    H1 8337   4.403   1.537   3.886
 2777TIP3    H2 8338   4.326   1.439   3.799
 2778TIP3   OH2 8339   4.161   3.661   5.045
 2778TIP3    H1 8340   4.187   3.721   4.975
 2778TIP3    H2 8341   4.185   3.706   5.125
 2779TIP3   OH2 8342  -0.022   4.038   1.899
 2779TIP3    H1 8343  -0.094   4.049   1.961
 2779TIP3    H2 8344   0.050   4.004   1.952
 2780TIP3   OH2 8345   1.822   3.956   3.318
 2780TIP3    H1 8346   1.793   3.980   3.406
 2780TIP3    H2 8347   1.869   3.874   3.330
 2781TIP3   OH2 8348   4.649   4.294   2.459
 2781TIP3    H1 8349   4.663   4.366   2.398
 2781TIP3    H2 8350   4.590   4.234   2.413
 2782TIP3   OH2 8351   4.366   5.108   0.746
 2782TIP3    H1 8352   4.302   5.136   0.812
 2782TIP3    H2 8353   4.442   5.163   0.761
 2783TIP3   OH2 8354   4.111   3.176   3.134
 2783TIP3    H1 8355   4.168   3.188   3.210
 2783TIP3    H2 8356   4.169   3.141   3.066
 2784TIP3   OH2 8357   6.243   5.117   0.080
 2784TIP3    H1 8358   6.152   5.141   0.059
 2784TIP3    H2 8359   6.269   5.177   0.149
 2785TIP3   OH2 8360   3.733   5.128   5.048
 2785TIP3    H1 8361   3.761   5.041   5.076
 2785TIP3    H2 8362   3.814   5.173   5.026
 2786TIP3   OH2 8363   3.456   4.853   0.717
 2786TIP3    H1 8364   3.366   4.854   0.750
 2786TIP3    H2 8365   3.460   4.776   0.661
 2787TIP3   OH2 8366   3.937   1.957   1.044
 2787TIP3    H1 8367   3.973   2.013   0.975
 2787TIP3    H2 8368   4.005   1.957   1.112
 2788TIP3   OH2 8369   1.829   3.184   3.795
 2788TIP3    H1 8370   1.768   3.150   3.730
 2788TIP3    H2 8371   1.781   3.181   3.878
 2789TIP3   OH2 8372   5.299   2.784   2.668
 2789TIP3    H1 8373   5.380   2.796   2.618
 2789TIP3    H2 8374   5.234   2.757   2.603
 2790TIP3   OH2 8375   2.039   5.334   0.584
 2790TIP3    H1 8376   2.054   5.255   0.635
 2790TIP3    H2 8377   2.120   5.347   0.535
 2791TIP3   OH2 8378   0.470   3.395   0.907
 2791TIP3    H1 8379   0.500   3.472   0.956
 2791TIP3    H2 8380   0.546   3.370   0.855
 2792TIP3   OH2 8381   2.015   6.019   4.550
 2792TIP3    H1 8382   1.987   5.928   4.550
 2792TIP3    H2 8383   1.961   6.061   4.617
 2793TIP3   OH2 8384   5.562   1.001   0.464
 2793TIP3    H1 8385   5.643   0.994   0.513
 2793TIP3    H2 8386   5.495   1.014   0.531
 2794TIP3   OH2 8387   0.232   0.770   1.063
 2794TIP3    H1 8388   0.187   0.832   1.122
 2794TIP3    H2 8389   0.209   0.684   1.097
 2795TIP3   OH2 8390   0.468   1.474   0.900
 2795TIP3    H1 8391   0.479   1.402   0.963
 2795TIP3    H2 8392   0.533   1.539   0.926
 2796TIP3   OH2 8393   6.223   2.778   5.111
 2796TIP3    H1 8394   6.198   2.851   5.055
 2796TIP3    H2 8395   6.291   2.814   5.168
 2797TIP3   OH2 8396   0.283   1.532   5.185
 2797TIP3    H1 8397   0.246   1.575   5.108
 2797TIP3    H2 8398   0.280   1.599   5.253
 2798TIP3   OH2 8399   6.081   1.772   3.892
 2798TIP3    H1 8400   6.133   1.792   3.814
 2798TIP3    H2 8401   6.019   1.845   3.898
 2799TIP3   OH2 8402   0.156   2.486   4.448
 2799TIP3    H1 8403   0.112   2.472   4.364
 2799TIP3    H2 8404   0.224   2.419   4.451
 2800TIP3   OH2 8405   2.900   4.326   1.440
 2800TIP3    H1 8406   2.836   4.390   1.474
 2800TIP3    H2 8407   2.979   4.343   1.491
 2801TIP3   OH2 8408   6.024   4.081   1.951
 2801TIP3    H1 8409   5.947   4.102   1.898
 2801TIP3    H2 8410   5.989   4.045   2.032
 2802TIP3   OH2 8411   3.667   1.850   2.319
 2802TIP3    H1 8412   3.605   1.778   2.311
 2802TIP3    H2 8413   3.736   1.829   2.256
 2803TIP3   OH2 8414   1.445   2.908   0.911
 2803TIP3    H1 8415   1.487   2.992   0.896
 2803TIP3    H2 8416   1.421   2.910   1.004
 2804TIP3   OH2 8417   5.704   5.695   1.243
 2804TIP3    H1 8418   5.644   5.624   1.220
 2804TIP3    H2 8419   5.774   5.688   1.179
 2805TIP3   OH2 8420   0.616   3.112   3.456
 2805TIP3    H1 8421   0.647   3.203   3.454
 2805TIP3    H2 8422   0.651   3.077   3.538
 2806TIP3   OH2 8423   0.165   1.153   0.374
 2806TIP3    H1 8424   0.192   1.232   0.328
 2806TIP3    H2 8425   0.071   1.147   0.357
 2807TIP3   OH2 8426   0.101   3.510   2.181
 2807TIP3    H1 8427   0.147   3.541   2.258
 2807TIP3    H2 8428   0.135   3.421   2.166
 2808TIP3   OH2 8429   2.824   2.471   1.435
 2808TIP3    H1 8430   2.861   2.391   1.472
 2808TIP3    H2 8431   2.868   2.542   1.482
 2809TIP3   OH2 8432   2.574   0.666   2.546
 2809TIP3    H1 8433   2.568   0.668   2.642
 2809TIP3    H2 8434   2.662   0.698   2.527
 2810TIP3   OH2 8435   0.108   3.148   1.873
 2810TIP3    H1 8436   0.179   3.207   1.899
 2810TIP3    H2 8437   0.134   3.115   1.787
 2811TIP3   OH2 8438   5.468   2.779   2.881
 2811TIP3    H1 8439   5.417   2.759   2.959
 2811TIP3    H2 8440   5.407   2.767   2.808
 2812TIP3   OH2 8441   4.714   4.521   2.243
 2812TIP3    H1 8442   4.713   4.507   2.148
 2812TIP3    H2 8443   4.802   4.554   2.261
 2813TIP3   OH2 8444   6.100   0.828   3.585
 2813TIP3    H1 8445   6.159   0.791   3.519
 2813TIP3    H2 8446   6.111   0.923   3.576
 2814TIP3   OH2 8447   3.217   1.577   1.155
 2814TIP3    H1 8448   3.185   1.499   1.110
 2814TIP3    H2 8449   3.303   1.594   1.115
 2815TIP3   OH2 8450   0.301   0.795   2.576
 2815TIP3    H1 8451   0.367   0.863   2.562
 2815TIP3    H2 8452   0.230   0.817   2.516
 2816TIP3   OH2 8453   3.066   4.971   2.589
 2816TIP3    H1 8454   3.115   5.044   2.628
 2816TIP3    H2 8455   3.072   4.901   2.655
 2817TIP3   OH2 8456   2.288   4.246   3.280
 2817TIP3    H1 8457   2.210   4.204   3.244
 2817TIP3    H2 8458   2.254   4.314   3.339
 2818TIP3   OH2 8459   4.916   3.703   1.743
 2818TIP3    H1 8460   4.822   3.704   1.761
 2818TIP3    H2 8461   4.925   3.754   1.663
 2819TIP3   OH2 8462   3.759   5.835   4.470
 2819TIP3    H1 8463   3.731   5.914   4.518
 2819TIP3    H2 8464   3.701   5.831   4.395
 2820TIP3   OH2 8465   1.341   0.536   3.537
 2820TIP3    H1 8466   1.412   0.475   3.518
 2820TIP3    H2 8467   1.379   0.622   3.520
 2821TIP3   OH2 8468   6.182   5.891   4.010
 2821TIP3    H1 8469   6.135   5.954   4.065
 2821TIP3    H2 8470   6.217   5.944   3.938
 2822TIP3   OH2 8471   1.755   3.236   1.856
 2822TIP3    H1 8472   1.680   3.272   1.903
 2822TIP3    H2 8473   1.719   3.164   1.804
 2823TIP3   OH2 8474   4.979   4.677   3.617
 2823TIP3    H1 8475   4.996   4.747   3.680
 2823TIP3    H2 8476   4.907   4.628   3.654
 2824TIP3   OH2 8477   1.611   0.443   1.003
 2824TIP3    H1 8478   1.531   0.484   0.968
 2824TIP3    H2 8479   1.579   0.366   1.050
 2825TIP3   OH2 8480   0.216   0.999   2.272
 2825TIP3    H1 8481   0.292   1.057   2.266
 2825TIP3    H2 8482   0.234   0.929   2.210
 2826TIP3   OH2 8483   3.315   5.685   1.593
 2826TIP3    H1 8484   3.312   5.593   1.568
 2826TIP3    H2 8485   3.348   5.685   1.683
 2827TIP3   OH2 8486   4.406   5.618   3.043
 2827TIP3    H1 8487   4.399   5.677   2.968
 2827TIP3    H2 8488   4.473   5.658   3.098
 2828TIP3   OH2 8489   6.206   4.396   4.192
 2828TIP3    H1 8490   6.287   4.363   4.154
 2828TIP3    H2 8491   6.178   4.465   4.132
 2829TIP3   OH2 8492   5.009   0.592   4.358
 2829TIP3    H1 8493   5.043   0.617   4.444
 2829TIP3    H2 8494   4.920   0.626   4.356
 2830TIP3   OH2 8495   4.803   4.313   1.042
 2830TIP3    H1 8496   4.881   4.326   0.988
 2830TIP3    H2 8497   4.753   4.246   0.997
 2831TIP3   OH2 8498   5.332   1.027   0.309
 2831TIP3    H1 8499   5.366   1.088   0.244
 2831TIP3    H2 8500   5.409   0.996   0.357
 2832TIP3   OH2 8501   0.575   1.536   1.430
 2832TIP3    H1 8502   0.637   1.601   1.463
 2832TIP3    H2 8503   0.516   1.585   1.373
 2833TIP3   OH2 8504   6.062   2.941   2.771
 2833TIP3    H1 8505   6.078   2.918   2.863
 2833TIP3    H2 8506   6.016   3.025   2.775
 2834TIP3   OH2 8507   5.662   0.122   4.415
 2834TIP3    H1 8508   5.718   0.152   4.343
 2834TIP3    H2 8509   5.713   0.140   4.494
 2835TIP3   OH2 8510   3.049   3.528   2.114
 2835TIP3    H1 8511   3.022   3.585   2.185
 2835TIP3    H2 8512   3.103   3.583   2.058
 2836TIP3   OH2 8513   2.789   4.166   4.637
 2836TIP3    H1 8514   2.847   4.159   4.713
 2836TIP3    H2 8515   2.754   4.255   4.643
 2837TIP3   OH2 8516   2.276   1.730   0.328
 2837TIP3    H1 8517   2.228   1.809   0.305
 2837TIP3    H2 8518   2.265   1.722   0.423
 2838TIP3   OH2 8519   3.691   4.066   2.225
 2838TIP3    H1 8520   3.635   4.072   2.147
 2838TIP3    H2 8521   3.774   4.032   2.191
 2839TIP3   OH2 8522   0.746   0.063   3.582
 2839TIP3    H1 8523   0.835   0.036   3.561
 2839TIP3    H2 8524   0.712   0.100   3.501
 2840TIP3   OH2 8525   4.518   5.336   0.549
 2840TIP3    H1 8526   4.569   5.292   0.480
 2840TIP3    H2 8527   4.536   5.286   0.628
 2841TIP3   OH2 8528   4.862   1.414   0.235
 2841TIP3    H1 8529   4.921   1.464   0.291
 2841TIP3    H2 8530   4.857   1.328   0.277
 2842TIP3   OH2 8531   2.993   2.883   4.441
 2842TIP3    H1 8532   2.925   2.850   4.501
 2842TIP3    H2 8533   3.008   2.811   4.380
 2843TIP3   OH2 8534   1.152   2.151   4.574
 2843TIP3    H1 8535   1.080   2.119   4.629
 2843TIP3    H2 8536   1.195   2.216   4.629
 2844TIP3   OH2 8537   0.040   2.130   0.370
 2844TIP3    H1 8538   0.028   2.225   0.362
 2844TIP3    H2 8539  -0.013   2.093   0.299
 2845TIP3   OH2 8540   0.388   1.612   2.849
 2845TIP3    H1 8541   0.299   1.626   2.884
 2845TIP3    H2 8542   0.375   1.555   2.773
 2846TIP3   OH2 8543   0.495   2.877   3.100
 2846TIP3    H1 8544   0.448   2.827   3.166
 2846TIP3    H2 8545   0.562   2.926   3.149
 2847TIP3   OH2 8546   5.405   2.831   4.733
 2847TIP3    H1 8547   5.434   2.765   4.795
 2847TIP3    H2 8548   5.441   2.801   4.649
 2848TIP3   OH2 8549   4.933   5.812   4.261
 2848TIP3    H1 8550   4.852   5.816   4.311
 2848TIP3    H2 8551   5.001   5.834   4.325
 2849TIP3   OH2 8552   2.019   2.240   1.012
 2849TIP3    H1 8553   1.926   2.259   0.999
 2849TIP3    H2 8554   2.063   2.325   1.005
 2850TIP3   OH2 8555   1.720   1.201   1.230
 2850TIP3    H1 8556   1.662   1.239   1.297
 2850TIP3    H2 8557   1.713   1.261   1.156
 2851TIP3   OH2 8558   4.422   4.610   4.643
 2851TIP3    H1 8559   4.511   4.644   4.631
 2851TIP3    H2 8560   4.374   4.641   4.566
 2852TIP3   OH2 8561   3.877   5.721   2.034
 2852TIP3    H1 8562   3.909   5.665   1.963
 2852TIP3    H2 8563   3.945   5.788   2.044
 2853TIP3   OH2 8564   0.111   0.258   1.677
 2853TIP3    H1 8565   0.095   0.347   1.709
 2853TIP3    H2 8566   0.116   0.267   1.582
 2854TIP3   OH2 8567   3.235   2.037   2.327
 2854TIP3    H1 8568   3.308   2.099   2.334
 2854TIP3    H2 8569   3.274   1.958   2.290
 2855TIP3   OH2 8570   5.077   1.933   1.726
 2855TIP3    H1 8571   5.141   1.917   1.657
 2855TIP3    H2 8572   5.128   1.968   1.799
 2856TIP3   OH2 8573   3.846   5.395   0.650
 2856TIP3    H1 8574   3.913   5.411   0.583
 2856TIP3    H2 8575   3.881   5.324   0.703
 2857TIP3   OH2 8576   4.922   2.790   1.323
 2857TIP3    H1 8577   4.959   2.852   1.386
 2857TIP3    H2 8578   4.928   2.835   1.239
 2858TIP3   OH2 8579   4.593   1.023   1.904
 2858TIP3    H1 8580   4.557   1.002   1.818
 2858TIP3    H2 8581   4.516   1.039   1.959
 2859TIP3   OH2 8582   2.800   2.195   1.828
 2859TIP3    H1 8583   2.881   2.145   1.835
 2859TIP3    H2 8584   2.817   2.275   1.876
 2860TIP3   OH2 8585   5.892   2.621   1.343
 2860TIP3    H1 8586   5.970   2.644   1.292
 2860TIP3    H2 8587   5.853   2.547   1.297
 2861TIP3   OH2 8588   1.544   0.795   3.102
 2861TIP3    H1 8589   1.591   0.817   3.182
 2861TIP3    H2 8590   1.489   0.720   3.127
 2862TIP3   OH2 8591   2.153   3.612   0.193
 2862TIP3    H1 8592   2.116   3.586   0.277
 2862TIP3    H2 8593   2.210   3.540   0.168
 2863TIP3   OH2 8594   3.949   0.074   0.123
 2863TIP3    H1 8595   3.865   0.028   0.121
 2863TIP3    H2 8596   3.988   0.058   0.037
 2864TIP3   OH2 8597   1.844   3.302   1.565
 2864TIP3    H1 8598   1.775   3.273   1.624
 2864TIP3    H2 8599   1.870   3.388   1.599
 2865TIP3   OH2 8600   1.033   0.873   2.777
 2865TIP3    H1 8601   1.014   0.877   2.871
 2865TIP3    H2 8602   0.962   0.923   2.736
 2866TIP3   OH2 8603   1.543   3.446   0.696
 2866TIP3    H1 8604   1.613   3.512   0.695
 2866TIP3    H2 8605   1.467   3.492   0.660
 2867TIP3   OH2 8606   3.118   2.657   4.899
 2867TIP3    H1 8607   3.201   2.705   4.903
 2867TIP3    H2 8608   3.051   2.725   4.899
 2868TIP3   OH2 8609   1.505   5.522   3.782
 2868TIP3    H1 8610   1.536   5.454   3.722
 2868TIP3    H2 8611   1.552   5.506   3.863
 2869TIP3   OH2 8612   2.290   0.162   1.692
 2869TIP3    H1 8613   2.324   0.100   1.627
 2869TIP3    H2 8614   2.210   0.120   1.724
 2870TIP3   OH2 8615   1.645   4.949   0.705
 2870TIP3    H1 8616   1.674   4.868   0.663
 2870TIP3    H2 8617   1.550   4.945   0.702
 2871TIP3   OH2 8618   5.635   1.601   3.202
 2871TIP3    H1 8619   5.604   1.512   3.188
 2871TIP3    H2 8620   5.642   1.609   3.297
 2872TIP3   OH2 8621   4.229   0.429   4.155
 2872TIP3    H1 8622   4.216   0.352   4.211
 2872TIP3    H2 8623   4.144   0.442   4.113
 2873TIP3   OH2 8624   5.762   2.870   4.802
 2873TIP3    H1 8625   5.745   2.962   4.783
 2873TIP3    H2 8626   5.709   2.821   4.739
 2874TIP3   OH2 8627   1.168   3.638   3.090
 2874TIP3    H1 8628   1.158   3.727   3.123
 2874TIP3    H2 8629   1.093   3.590   3.127
 2875TIP3   OH2 8630   0.057   4.001   4.655
 2875TIP3    H1 8631  -0.027   3.962   4.630
 2875TIP3    H2 8632   0.120   3.930   4.647
 2876TIP3   OH2 8633   2.279   5.793   4.279
 2876TIP3    H1 8634   2.282   5.782   4.184
 2876TIP3    H2 8635   2.194   5.834   4.296
 2877TIP3   OH2 8636   4.700   5.607   3.584
 2877TIP3    H1 8637   4.780   5.557   3.600
 2877TIP3    H2 8638   4.730   5.694   3.558
 2878TIP3   OH2 8639   3.856   3.308   4.319
 2878TIP3    H1 8640   3.858   3.298   4.414
 2878TIP3    H2 8641   3.914   3.239   4.286
 2879TIP3   OH2 8642   1.751   1.689   2.722
 2879TIP3    H1 8643   1.715   1.778   2.712
 2879TIP3    H2 8644   1.690   1.634   2.673
 2880TIP3   OH2 8645   5.237   3.385   1.607
 2880TIP3    H1 8646   5.223   3.426   1.693
 2880TIP3    H2 8647   5.221   3.456   1.544
 2881TIP3   OH2 8648   4.746   3.636   0.074
 2881TIP3    H1 8649   4.757   3.541   0.066
 2881TIP3    H2 8650   4.719   3.664  -0.014
 2882TIP3   OH2 8651   2.946   1.560   4.364
 2882TIP3    H1 8652   2.924   1.470   4.388
 2882TIP3    H2 8653   2.889   1.614   4.418
 2883TIP3   OH2 8654   2.055   3.533   1.777
 2883TIP3    H1 8655   2.096   3.545   1.691
 2883TIP3    H2 8656   1.970   3.577   1.770
 2884TIP3   OH2 8657   3.639   1.926   0.216
 2884TIP3    H1 8658   3.551   1.956   0.194
 2884TIP3    H2 8659   3.695   1.968   0.151
 2885TIP3   OH2 8660   1.946   2.037   4.921
 2885TIP3    H1 8661   1.983   1.959   4.961
 2885TIP3    H2 8662   1.852   2.024   4.923
 2886TIP3   OH2 8663   2.853   2.852   1.858
 2886TIP3    H1 8664   2.853   2.911   1.934
 2886TIP3    H2 8665   2.934   2.873   1.811
 2887TIP3   OH2 8666   4.743   1.154   1.041
 2887TIP3    H1 8667   4.813   1.154   0.977
 2887TIP3    H2 8668   4.783   1.186   1.122
 2888TIP3   OH2 8669   3.162   1.834   3.719
 2888TIP3    H1 8670   3.182   1.889   3.643
 2888TIP3    H2 8671   3.239   1.842   3.775
 2889TIP3   OH2 8672   0.493   4.482   1.192
 2889TIP3    H1 8673   0.563   4.502   1.130
 2889TIP3    H2 8674   0.460   4.567   1.221
 2890TIP3   OH2 8675   4.063   3.141   0.200
 2890TIP3    H1 8676   4.038   3.230   0.175
 2890TIP3    H2 8677   3.997   3.085   0.160
 2891TIP3   OH2 8678   5.662   1.824   0.869
 2891TIP3    H1 8679   5.733   1.886   0.886
 2891TIP3    H2 8680   5.702   1.738   0.885
 2892TIP3   OH2 8681   2.524   5.085   1.349
 2892TIP3    H1 8682   2.513   5.085   1.444
 2892TIP3    H2 8683   2.523   4.992   1.325
 2893TIP3   OH2 8684   0.691   2.428   1.007
 2893TIP3    H1 8685   0.718   2.341   0.976
 2893TIP3    H2 8686   0.641   2.465   0.934
 2894TIP3   OH2 8687   3.653   5.100   2.136
 2894TIP3    H1 8688   3.648   5.022   2.080
 2894TIP3    H2 8689   3.569   5.144   2.124
 2895TIP3   OH2 8690   6.224   2.698   3.508
 2895TIP3    H1 8691   6.232   2.766   3.576
 2895TIP3    H2 8692   6.271   2.734   3.433
 2896TIP3   OH2 8693   1.979   3.668   4.107
 2896TIP3    H1 8694   1.914   3.599   4.092
 2896TIP3    H2 8695   2.041   3.630   4.169
 2897TIP3   OH2 8696   6.231   2.657   2.183
 2897TIP3    H1 8697   6.167   2.591   2.211
 2897TIP3    H2 8698   6.274   2.684   2.264
 2898TIP3   OH2 8699   4.385   1.064   1.076
 2898TIP3    H1 8700   4.348   0.988   1.121
 2898TIP3    H2 8701   4.360   1.139   1.129
 2899TIP3   OH2 8702   6.184   0.415   0.723
 2899TIP3    H1 8703   6.240   0.490   0.702
 2899TIP3    H2 8704   6.239   0.339   0.708
 2900TIP3   OH2 8705   5.678   3.983   1.456
 2900TIP3    H1 8706   5.678   3.897   1.499
 2900TIP3    H2 8707   5.760   4.024   1.483
 2901TIP3   OH2 8708   1.249   3.358   3.881
 2901TIP3    H1 8709   1.302   3.306   3.820
 2901TIP3    H2 8710   1.257   3.448   3.848
 2902TIP3   OH2 8711   0.431   1.286   2.937
 2902TIP3    H1 8712   0.506   1.227   2.932
 2902TIP3    H2 8713   0.442   1.333   3.020
 2903TIP3   OH2 8714   4.064   2.688   2.289
 2903TIP3    H1 8715   4.047   2.655   2.377
 2903TIP3    H2 8716   3.980   2.723   2.259
 2904TIP3   OH2 8717   4.535   1.902   3.859
 2904TIP3    H1 8718   4.487   1.862   3.786
 2904TIP3    H2 8719   4.605   1.952   3.817
 2905TIP3   OH2 8720   2.001   5.926   2.096
 2905TIP3    H1 8721   1.977   5.944   2.187
 2905TIP3    H2 8722   1.975   5.834   2.083
 2906TIP3   OH2 8723   0.692   1.963   0.468
 2906TIP3    H1 8724   0.686   1.927   0.380
 2906TIP3    H2 8725   0.635   2.040   0.466
 2907TIP3   OH2 8726   6.100   3.938   1.451
 2907TIP3    H1 8727   6.162   3.921   1.521
 2907TIP3    H2 8728   6.060   3.852   1.434
 2908TIP3   OH2 8729   1.552   1.155   4.475
 2908TIP3    H1 8730   1.643   1.186   4.472
 2908TIP3    H2 8731   1.523   1.174   4.564
 2909TIP3   OH2 8732   5.657   1.462   1.600
 2909TIP3    H1 8733   5.643   1.390   1.538
 2909TIP3    H2 8734   5.607   1.437   1.677
 2910TIP3   OH2 8735   2.205   1.179   1.993
 2910TIP3    H1 8736   2.147   1.250   2.020
 2910TIP3    H2 8737   2.222   1.131   2.075
 2911TIP3   OH2 8738   3.537   2.567   1.100
 2911TIP3    H1 8739   3.596   2.493   1.083
 2911TIP3    H2 8740   3.528   2.569   1.195
 2912TIP3   OH2 8741   5.019   1.618   0.355
 2912TIP3    H1 8742   5.076   1.610   0.279
 2912TIP3    H2 8743   5.069   1.579   0.427
 2913TIP3   OH2 8744   2.031   5.276   4.863
 2913TIP3    H1 8745   2.036   5.188   4.826
 2913TIP3    H2 8746   2.022   5.334   4.787
 2914TIP3   OH2 8747   3.628   4.927   3.360
 2914TIP3    H1 8748   3.620   4.850   3.304
 2914TIP3    H2 8749   3.688   4.900   3.430
 2915TIP3   OH2 8750   0.524   3.363   3.177
 2915TIP3    H1 8751   0.537   3.378   3.270
 2915TIP3    H2 8752   0.493   3.272   3.171
 2916TIP3   OH2 8753   2.196   1.810   4.539
 2916TIP3    H1 8754   2.125   1.770   4.589
 2916TIP3    H2 8755   2.152   1.858   4.469
 2917TIP3   OH2 8756   3.041   5.348   5.022
 2917TIP3    H1 8757   3.012   5.270   5.069
 2917TIP3    H2 8758   2.980   5.416   5.049
 2918TIP3   OH2 8759   4.469   2.925   0.368
 2918TIP3    H1 8760   4.493   2.887   0.283
 2918TIP3    H2 8761   4.393   2.979   0.349
 2919TIP3   OH2 8762   2.636   2.130   0.758
 2919TIP3    H1 8763   2.654   2.138   0.664
 2919TIP3    H2 8764   2.699   2.189   0.800
 2920TIP3   OH2 8765   5.280   2.810   3.299
 2920TIP3    H1 8766   5.281   2.763   3.383
 2920TIP3    H2 8767   5.330   2.889   3.315
 2921TIP3   OH2 8768   0.304   4.695   1.255
 2921TIP3    H1 8769   0.289   4.711   1.348
 2921TIP3    H2 8770   0.217   4.676   1.220
 2922TIP3   OH2 8771   0.838   2.870   3.562
 2922TIP3    H1 8772   0.772   2.800   3.554
 2922TIP3    H2 8773   0.794   2.939   3.610
 2923TIP3   OH2 8774   6.070   3.565   0.442
 2923TIP3    H1 8775   6.036   3.647   0.477
 2923TIP3    H2 8776   6.027   3.497   0.493
 2924TIP3   OH2 8777   0.103   2.761   1.622
 2924TIP3    H1 8778   0.051   2.833   1.658
 2924TIP3    H2 8779   0.096   2.772   1.527
 2925TIP3   OH2 8780   0.797   3.564   2.477
 2925TIP3    H1 8781   0.780   3.622   2.403
 2925TIP3    H2 8782   0.877   3.517   2.454
 2926TIP3   OH2 8783   2.787   1.654   3.917
 2926TIP3    H1 8784   2.834   1.664   3.835
 2926TIP3    H2 8785   2.853   1.621   3.978
 2927TIP3   OH2 8786   2.790   2.930   3.339
 2927TIP3    H1 8787   2.703   2.891   3.329
 2927TIP3    H2 8788   2.850   2.865   3.302
 2928TIP3   OH2 8789   5.759   2.787   5.116
 2928TIP3    H1 8790   5.721   2.867   5.082
 2928TIP3    H2 8791   5.817   2.816   5.186
 2929TIP3   OH2 8792   1.618   1.241   0.273
 2929TIP3    H1 8793   1.560   1.166   0.289
 2929TIP3    H2 8794   1.610   1.295   0.351
 2930TIP3   OH2 8795   4.092  -0.031   2.931
 2930TIP3    H1 8796   4.170  -0.038   2.875
 2930TIP3    H2 8797   4.076   0.063   2.939
 2931TIP3   OH2 8798   5.829   1.013   3.933
 2931TIP3    H1 8799   5.796   0.923   3.941
 2931TIP3    H2 8800   5.770   1.065   3.986
 2932TIP3   OH2 8801   3.897   0.069   0.535
 2932TIP3    H1 8802   3.915  -0.024   0.552
 2932TIP3    H2 8803   3.983   0.107   0.518
 2933TIP3   OH2 8804   2.145   1.861   3.179
 2933TIP3    H1 8805   2.157   1.766   3.185
 2933TIP3    H2 8806   2.052   1.875   3.201
 2934TIP3   OH2 8807   0.941   2.604   3.907
 2934TIP3    H1 8808   0.921   2.556   3.987
 2934TIP3    H2 8809   0.907   2.692   3.923
 2935TIP3   OH2 8810   2.123   0.362   0.913
 2935TIP3    H1 8811   2.103   0.294   0.977
 2935TIP3    H2 8812   2.212   0.389   0.933
 2936TIP3   OH2 8813   5.350   2.841   0.140
 2936TIP3    H1 8814   5.276   2.781   0.148
 2936TIP3    H2 8815   5.320   2.922   0.181
 2937TIP3   OH2 8816   3.835   5.365   2.848
 2937TIP3    H1 8817   3.837   5.391   2.756
 2937TIP3    H2 8818   3.774   5.425   2.889
 2938TIP3   OH2 8819   2.008   4.754   4.970
 2938TIP3    H1 8820   1.982   4.716   4.887
 2938TIP3    H2 8821   2.052   4.683   5.016
 2939TIP3   OH2 8822   4.124   4.804   4.337
 2939TIP3    H1 8823   4.173   4.742   4.392
 2939TIP3    H2 8824   4.152   4.890   4.369
 2940TIP3   OH2 8825   3.115   0.856   2.831
 2940TIP3    H1 8826   3.168   0.932   2.854
 2940TIP3    H2 8827   3.127   0.846   2.737
 2941TIP3   OH2 8828   6.245   2.561   0.295
 2941TIP3    H1 8829   6.191   2.549   0.217
 2941TIP3    H2 8830   6.318   2.615   0.266
 2942TIP3   OH2 8831   2.234   3.050   3.355
 2942TIP3    H1 8832   2.280   3.096   3.426
 2942TIP3    H2 8833   2.184   3.119   3.311
 2943TIP3   OH2 8834   2.567   3.596   1.024
 2943TIP3    H1 8835   2.534   3.686   1.031
 2943TIP3    H2 8836   2.524   3.561   0.946
 2944TIP3   OH2 8837   3.765   2.283   4.017
 2944TIP3    H1 8838   3.742   2.370   3.985
 2944TIP3    H2 8839   3.702   2.224   3.975
 2945TIP3   OH2 8840   4.443   3.270   3.691
 2945TIP3    H1 8841   4.458   3.364   3.677
 2945TIP3    H2 8842   4.355   3.255   3.658
 2946TIP3   OH2 8843   3.144   5.737   4.260
 2946TIP3    H1 8844   3.081   5.746   4.332
 2946TIP3    H2 8845   3.224   5.780   4.292
 2947TIP3   OH2 8846   4.844   2.019   1.835
 2947TIP3    H1 8847   4.816   2.023   1.744
 2947TIP3    H2 8848   4.937   1.996   1.830
 2948TIP3   OH2 8849   6.314   5.622   3.956
 2948TIP3    H1 8850   6.241   5.680   3.932
 2948TIP3    H2 8851   6.274   5.557   4.014
 2949TIP3   OH2 8852   6.244   0.854   0.581
 2949TIP3    H1 8853   6.338   0.865   0.565
 2949TIP3    H2 8854   6.213   0.805   0.505
 2950TIP3   OH2 8855   5.477   3.456   2.349
 2950TIP3    H1 8856   5.517   3.480   2.266
 2950TIP3    H2 8857   5.421   3.531   2.372
 2951TIP3   OH2 8858   0.025   5.172   2.513
 2951TIP3    H1 8859  -0.053   5.119   2.532
 2951TIP3    H2 8860  -0.006   5.238   2.451
 2952TIP3   OH2 8861   5.581   1.900   2.361
 2952TIP3    H1 8862   5.509   1.960   2.380
 2952TIP3    H2 8863   5.657   1.957   2.351
 2953TIP3   OH2 8864   1.137   4.830   0.401
 2953TIP3    H1 8865   1.190   4.867   0.331
 2953TIP3    H2 8866   1.100   4.906   0.446
 2954TIP3   OH2 8867   5.623   3.491   3.369
 2954TIP3    H1 8868   5.682   3.419   3.348
 2954TIP3    H2 8869   5.681   3.566   3.385
 2955TIP3   OH2 8870   2.938   1.068   3.605
 2955TIP3    H1 8871   2.882   1.034   3.674
 2955TIP3    H2 8872   2.893   1.147   3.575
 2956TIP3   OH2 8873   6.215   1.311   0.054
 2956TIP3    H1 8874   6.122   1.322   0.077
 2956TIP3    H2 8875   6.248   1.251   0.120
 2957TIP3   OH2 8876   6.393   3.742   2.801
 2957TIP3    H1 8877   6.468   3.791   2.767
 2957TIP3    H2 8878   6.319   3.801   2.792
 2958TIP3   OH2 8879   0.458   2.439   2.808
 2958TIP3    H1 8880   0.489   2.512   2.861
 2958TIP3    H2 8881   0.374   2.414   2.846
 2959TIP3   OH2 8882   0.597   3.104   4.509
 2959TIP3    H1 8883   0.649   3.173   4.468
 2959TIP3    H2 8884   0.521   3.150   4.546
 2960TIP3   OH2 8885   4.154   3.070   2.015
 2960TIP3    H1 8886   4.101   3.140   2.052
 2960TIP3    H2 8887   4.197   3.030   2.091
 2961TIP3   OH2 8888   5.296   4.156   3.222
 2961TIP3    H1 8889   5.375   4.146   3.169
 2961TIP3    H2 8890   5.311   4.101   3.299
 2962TIP3   OH2 8891   5.412   4.044   2.819
 2962TIP3    H1 8892   5.343   4.084   2.766
 2962TIP3    H2 8893   5.382   3.955   2.834
 2963TIP3   OH2 8894   0.360   5.283   3.700
 2963TIP3    H1 8895   0.436   5.333   3.671
 2963TIP3    H2 8896   0.286   5.342   3.685
 2964TIP3   OH2 8897   4.652   4.078   2.140
 2964TIP3    H1 8898   4.680   3.988   2.156
 2964TIP3    H2 8899   4.600   4.101   2.217
 2965TIP3   OH2 8900   4.996   4.784   4.117
 2965TIP3    H1 8901   5.050   4.713   4.151
 2965TIP3    H2 8902   4.932   4.801   4.185
 2966TIP3   OH2 8903   1.593   4.937   2.544
 2966TIP3    H1 8904   1.541   4.858   2.527
 2966TIP3    H2 8905   1.569   4.962   2.633
 2967TIP3   OH2 8906   2.718   4.196   0.928
 2967TIP3    H1 8907   2.772   4.263   0.885
 2967TIP3    H2 8908   2.629   4.216   0.899
 2968TIP3   OH2 8909   2.332   4.465   0.608
 2968TIP3    H1 8910   2.395   4.534   0.628
 2968TIP3    H2 8911   2.254   4.511   0.578
 2969TIP3   OH2 8912   1.209   5.061   4.654
 2969TIP3    H1 8913   1.264   5.003   4.708
 2969TIP3    H2 8914   1.135   5.006   4.629
 2970TIP3   OH2 8915   5.470   4.805   0.495
 2970TIP3    H1 8916   5.461   4.829   0.588
 2970TIP3    H2 8917   5.494   4.712   0.497
 2971TIP3   OH2 8918   3.999   0.702   4.882
 2971TIP3    H1 8919   3.978   0.625   4.828
 2971TIP3    H2 8920   3.938   0.697   4.955
 2972TIP3   OH2 8921   1.130   3.478   0.511
 2972TIP3    H1 8922   1.214   3.503   0.549
 2972TIP3    H2 8923   1.124   3.529   0.430
 2973TIP3   OH2 8924   6.115   1.409   2.546
 2973TIP3    H1 8925   6.168   1.456   2.482
 2973TIP3    H2 8926   6.025   1.439   2.529
 2974TIP3   OH2 8927   0.270   4.700   2.753
 2974TIP3    H1 8928   0.292   4.688   2.661
 2974TIP3    H2 8929   0.186   4.747   2.752
 2975TIP3   OH2 8930   3.610   4.985   2.513
 2975TIP3    H1 8931   3.595   4.948   2.426
 2975TIP3    H2 8932   3.537   5.046   2.526
 2976TIP3   OH2 8933   0.773   5.567   0.843
 2976TIP3    H1 8934   0.813   5.654   0.841
 2976TIP3    H2 8935   0.759   5.550   0.936
 2977TIP3   OH2 8936   1.476   1.312   1.884
 2977TIP3    H1 8937   1.480   1.237   1.825
 2977TIP3    H2 8938   1.469   1.388   1.826
 2978TIP3   OH2 8939   3.699   4.926   2.774
 2978TIP3    H1 8940   3.640   4.965   2.711
 2978TIP3    H2 8941   3.781   4.974   2.763
 2979TIP3   OH2 8942   4.895   2.653   3.712
 2979TIP3    H1 8943   4.974   2.702   3.737
 2979TIP3    H2 8944   4.898   2.575   3.768
 2980TIP3   OH2 8945   1.817   0.865   5.160
 2980TIP3    H1 8946   1.741   0.808   5.170
 2980TIP3    H2 8947   1.807   0.903   5.073
 2981TIP3   OH2 8948   2.196   3.275   4.434
 2981TIP3    H1 8949   2.144   3.220   4.493
 2981TIP3    H2 8950   2.144   3.279   4.353
 2982TIP3   OH2 8951   1.312   0.271   1.396
 2982TIP3    H1 8952   1.327   0.242   1.486
 2982TIP3    H2 8953   1.311   0.191   1.344
 2983TIP3   OH2 8954   0.958   3.863   4.585
 2983TIP3    H1 8955   0.945   3.825   4.498
 2983TIP3    H2 8956   0.982   3.954   4.567
 2984TIP3   OH2 8957   3.821   2.854   1.004
 2984TIP3    H1 8958   3.881   2.915   0.963
 2984TIP3    H2 8959   3.871   2.773   1.015
 2985TIP3   OH2 8960   4.993   0.294   3.010
 2985TIP3    H1 8961   4.973   0.332   2.924
 2985TIP3    H2 8962   4.931   0.222   3.018
 2986TIP3   OH2 8963   1.835   2.454   1.202
 2986TIP3    H1 8964   1.813   2.395   1.131
 2986TIP3    H2 8965   1.857   2.397   1.276
 2987TIP3   OH2 8966   0.546   1.357   1.963
 2987TIP3    H1 8967   0.614   1.326   1.903
 2987TIP3    H2 8968   0.471   1.299   1.947
 2988TIP3   OH2 8969   5.880   5.361   3.314
 2988TIP3    H1 8970   5.832   5.342   3.233
 2988TIP3    H2 8971   5.971   5.372   3.286
 2989TIP3   OH2 8972   0.654   5.608   2.807
 2989TIP3    H1 8973   0.719   5.646   2.749
 2989TIP3    H2 8974   0.572   5.614   2.758
 2990TIP3   OH2 8975   2.597   3.464   3.727
 2990TIP3    H1 8976   2.585   3.414   3.645
 2990TIP3    H2 8977   2.641   3.544   3.700
 2991TIP3   OH2 8978   4.232   0.335   0.678
 2991TIP3    H1 8979   4.231   0.407   0.740
 2991TIP3    H2 8980   4.150   0.343   0.629
 2992TIP3   OH2 8981   2.250   1.759   0.650
 2992TIP3    H1 8982   2.227   1.709   0.729
 2992TIP3    H2 8983   2.198   1.839   0.656
 2993TIP3   OH2 8984   6.023   4.884   3.365
 2993TIP3    H1 8985   6.061   4.837   3.291
 2993TIP3    H2 8986   6.097   4.930   3.405
 2994TIP3   OH2 8987   2.276   2.353   3.838
 2994TIP3    H1 8988   2.211   2.414   3.874
 2994TIP3    H2 8989   2.360   2.398   3.848
 2995TIP3   OH2 8990   0.647   0.388   3.095
 2995TIP3    H1 8991   0.618   0.305   3.056
 2995TIP3    H2 8992   0.569   0.444   3.095
 2996TIP3   OH2 8993   3.283   2.909   3.824
 2996TIP3    H1 8994   3.242   2.881   3.743
 2996TIP3    H2 8995   3.213   2.907   3.889
 2997TIP3   OH2 8996   2.172   0.078   2.788
 2997TIP3    H1 8997   2.088   0.037   2.808
 2997TIP3    H2 8998   2.162   0.168   2.819
 2998TIP3   OH2 8999   0.382   4.083   0.806
 2998TIP3    H1 9000   0.386   4.070   0.901
 2998TIP3    H2 9001   0.411   4.173   0.793
 2999TIP3   OH2 9002   0.618   0.527   0.625
 2999TIP3    H1 9003   0.672   0.496   0.552
 2999TIP3    H2 9004   0.676   0.525   0.701
 3000TIP3   OH2 9005   4.703   5.354   4.072
 3000TIP3    H1 9006   4.639   5.425   4.062
 3000TIP3    H2 9007   4.652   5.274   4.057
 3001TIP3   OH2 9008   4.027   1.484   2.879
 3001TIP3    H1 9009   4.094   1.516   2.940
 3001TIP3    H2 9010   3.962   1.554   2.877
 3002TIP3   OH2 9011   1.065   2.328   2.656
 3002TIP3    H1 9012   1.151   2.289   2.676
 3002TIP3    H2 9013   1.014   2.255   2.621
 3003TIP3   OH2 9014   5.977   1.376   0.174
 3003TIP3    H1 9015   5.958   1.455   0.123
 3003TIP3    H2 9016   5.893   1.330   0.178
 3004TIP3   OH2 9017   4.941   2.271   2.398
 3004TIP3    H1 9018   4.904   2.353   2.364
 3004TIP3    H2 9019   5.024   2.262   2.352
 3005TIP3   OH2 9020   0.920   3.093   0.326
 3005TIP3    H1 9021   0.947   3.155   0.394
 3005TIP3    H2 9022   0.973   3.015   0.343
 3006TIP3   OH2 9023   5.368   4.870   4.378
 3006TIP3    H1 9024   5.437   4.930   4.407
 3006TIP3    H2 9025   5.339   4.906   4.295
 3007TIP3   OH2 9026   5.697   3.128   4.775
 3007TIP3    H1 9027   5.662   3.130   4.686
 3007TIP3    H2 9028   5.667   3.210   4.814
 3008TIP3   OH2 9029   1.011   3.344   4.035
 3008TIP3    H1 9030   1.027   3.255   4.066
 3008TIP3    H2 9031   1.095   3.373   4.000
 3009TIP3   OH2 9032   4.055   4.279   0.588
 3009TIP3    H1 9033   4.053   4.330   0.669
 3009TIP3    H2 9034   4.106   4.201   0.610
 3010TIP3   OH2 9035   5.422   3.552   4.492
 3010TIP3    H1 9036   5.330   3.576   4.491
 3010TIP3    H2 9037   5.433   3.496   4.415
 3011TIP3   OH2 9038   6.102   3.071   0.980
 3011TIP3    H1 9039   6.153   3.071   1.061
 3011TIP3    H2 9040   6.133   3.148   0.932
 3012TIP3   OH2 9041   4.414   3.110   3.911
 3012TIP3    H1 9042   4.416   3.167   3.834
 3012TIP3    H2 9043   4.504   3.106   3.941
 3013TIP3   OH2 9044   4.121   0.211   2.253
 3013TIP3    H1 9045   4.038   0.255   2.275
 3013TIP3    H2 9046   4.102   0.118   2.265
 3014TIP3   OH2 9047   0.911   3.515   1.616
 3014TIP3    H1 9048   0.975   3.529   1.685
 3014TIP3    H2 9049   0.912   3.420   1.600
 3015TIP3   OH2 9050   1.366   0.213   1.666
 3015TIP3    H1 9051   1.426   0.259   1.725
 3015TIP3    H2 9052   1.280   0.227   1.703
 3016TIP3   OH2 9053  -0.004   5.961   0.140
 3016TIP3    H1 9054   0.067   6.024   0.156
 3016TIP3    H2 9055   0.003   5.898   0.211
 3017TIP3   OH2 9056   5.108   4.564   0.476
 3017TIP3    H1 9057   5.042   4.515   0.524
 3017TIP3    H2 9058   5.181   4.574   0.537
 3018TIP3   OH2 9059   0.868   1.249   4.792
 3018TIP3    H1 9060   0.789   1.300   4.811
 3018TIP3    H2 9061   0.873   1.247   4.697
 3019TIP3   OH2 9062   2.055   0.909   3.005
 3019TIP3    H1 9063   2.093   0.881   3.089
 3019TIP3    H2 9064   1.977   0.856   2.994
 3020TIP3   OH2 9065   1.662   1.705   0.170
 3020TIP3    H1 9066   1.653   1.717   0.264
 3020TIP3    H2 9067   1.749   1.666   0.159
 3021TIP3   OH2 9068   1.731   1.637   2.103
 3021TIP3    H1 9069   1.824   1.659   2.108
 3021TIP3    H2 9070   1.686   1.721   2.115
 3022TIP3   OH2 9071   2.129   4.619   0.526
 3022TIP3    H1 9072   2.054   4.661   0.569
 3022TIP3    H2 9073   2.181   4.692   0.493
 3023TIP3   OH2 9074   5.788   0.611   1.030
 3023TIP3    H1 9075   5.731   0.638   0.958
 3023TIP3    H2 9076   5.731   0.613   1.107
 3024TIP3   OH2 9077   2.856   1.335   4.502
 3024TIP3    H1 9078   2.839   1.241   4.501
 3024TIP3    H2 9079   2.840   1.361   4.593
 3025TIP3   OH2 9080   2.468   4.692   4.379
 3025TIP3    H1 9081   2.542   4.747   4.405
 3025TIP3    H2 9082   2.415   4.685   4.458
 3026TIP3   OH2 9083   5.739   4.684   0.191
 3026TIP3    H1 9084   5.666   4.742   0.170
 3026TIP3    H2 9085   5.768   4.650   0.107
 3027TIP3   OH2 9086   2.662   1.896   1.128
 3027TIP3    H1 9087   2.704   1.846   1.198
 3027TIP3    H2 9088   2.586   1.936   1.170
 3028TIP3   OH2 9089   4.996   1.516   2.869
 3028TIP3    H1 9090   4.991   1.533   2.775
 3028TIP3    H2 9091   5.045   1.434   2.876
 3029TIP3   OH2 9092   0.549   1.727   3.177
 3029TIP3    H1 9093   0.512   1.655   3.125
 3029TIP3    H2 9094   0.482   1.746   3.242
 3030TIP3   OH2 9095   0.163   2.020   0.749
 3030TIP3    H1 9096   0.083   2.063   0.719
 3030TIP3    H2 9097   0.167   1.938   0.701
 3031TIP3   OH2 9098   3.969   4.963   3.991
 3031TIP3    H1 9099   3.901   4.979   4.056
 3031TIP3    H2 9100   4.002   4.876   4.012
 3032TIP3   OH2 9101   0.820   4.396   1.260
 3032TIP3    H1 9102   0.884   4.396   1.331
 3032TIP3    H2 9103   0.769   4.476   1.274
 3033TIP3   OH2 9104   5.757   5.568   2.478
 3033TIP3    H1 9105   5.727   5.649   2.438
 3033TIP3    H2 9106   5.698   5.500   2.445
 3034TIP3   OH2 9107   5.536   5.748   3.265
 3034TIP3    H1 9108   5.535   5.669   3.319
 3034TIP3    H2 9109   5.457   5.741   3.212
 3035TIP3   OH2 9110   3.784   4.252   3.962
 3035TIP3    H1 9111   3.754   4.162   3.947
 3035TIP3    H2 9112   3.728   4.305   3.906
 3036TIP3   OH2 9113   1.246   4.936   0.193
 3036TIP3    H1 9114   1.280   5.019   0.159
 3036TIP3    H2 9115   1.295   4.869   0.145
 3037TIP3   OH2 9116   0.503   2.510   0.062
 3037TIP3    H1 9117   0.480   2.522   0.154
 3037TIP3    H2 9118   0.463   2.427   0.038
 3038TIP3   OH2 9119   2.434   4.235   1.357
 3038TIP3    H1 9120   2.399   4.283   1.283
 3038TIP3    H2 9121   2.513   4.192   1.323
 3039TIP3   OH2 9122   4.650   2.496   4.272
 3039TIP3    H1 9123   4.619   2.420   4.223
 3039TIP3    H2 9124   4.647   2.568   4.209
 3040TIP3   OH2 9125   6.337   0.738   3.868
 3040TIP3    H1 9126   6.359   0.832   3.865
 3040TIP3    H2 9127   6.242   0.736   3.860
 3041TIP3   OH2 9128   0.358   0.265   2.017
 3041TIP3    H1 9129   0.439   0.228   1.982
 3041TIP3    H2 9130   0.385   0.307   2.099
 3042TIP3   OH2 9131   1.187   4.418   3.032
 3042TIP3    H1 9132   1.141   4.340   3.002
 3042TIP3    H2 9133   1.134   4.450   3.105
 3043TIP3   OH2 9134   0.371   1.162   3.425
 3043TIP3    H1 9135   0.307   1.216   3.379
 3043TIP3    H2 9136   0.348   1.072   3.401
 3044TIP3   OH2 9137   2.673   2.711   1.643
 3044TIP3    H1 9138   2.690   2.794   1.686
 3044TIP3    H2 9139   2.760   2.672   1.630
 3045TIP3   OH2 9140   3.092   4.847   5.013
 3045TIP3    H1 9141   3.044   4.792   4.951
 3045TIP3    H2 9142   3.078   4.805   5.098
 3046TIP3   OH2 9143   4.803   0.749   0.431
 3046TIP3    H1 9144   4.718   0.706   0.421
 3046TIP3    H2 9145   4.854   0.720   0.355
 3047TIP3   OH2 9146   4.196   2.372   2.700
 3047TIP3    H1 9147   4.285   2.368   2.735
 3047TIP3    H2 9148   4.199   2.318   2.621
 3048TIP3   OH2 9149   6.340   5.053   1.508
 3048TIP3    H1 9150   6.407   5.114   1.479
 3048TIP3    H2 9151   6.356   5.042   1.601
 3049TIP3   OH2 9152   4.644   5.745   2.584
 3049TIP3    H1 9153   4.701   5.694   2.527
 3049TIP3    H2 9154   4.703   5.789   2.645
 3050TIP3   OH2 9155   5.602   0.614   3.502
 3050TIP3    H1 9156   5.571   0.637   3.414
 3050TIP3    H2 9157   5.657   0.688   3.528
 3051TIP3   OH2 9158   3.161   2.355   2.980
 3051TIP3    H1 9159   3.087   2.412   3.001
 3051TIP3    H2 9160   3.191   2.321   3.064
 3052TIP3   OH2 9161   1.292   5.181   0.089
 3052TIP3    H1 9162   1.261   5.177  -0.002
 3052TIP3    H2 9163   1.215   5.208   0.139
 3053TIP3   OH2 9164   3.630   1.461   1.850
 3053TIP3    H1 9165   3.547   1.446   1.805
 3053TIP3    H2 9166   3.682   1.512   1.787
 3054TIP3   OH2 9167   3.340   0.878   3.625
 3054TIP3    H1 9168   3.309   0.968   3.632
 3054TIP3    H2 9169   3.401   0.868   3.698
 3055TIP3   OH2 9170   5.637   0.648   1.275
 3055TIP3    H1 9171   5.674   0.560   1.279
 3055TIP3    H2 9172   5.606   0.665   1.364
 3056TIP3   OH2 9173   2.124   1.873   3.494
 3056TIP3    H1 9174   2.097   1.875   3.403
 3056TIP3    H2 9175   2.140   1.965   3.516
 3057TIP3   OH2 9176   1.082   2.601   3.360
 3057TIP3    H1 9177   1.049   2.610   3.271
 3057TIP3    H2 9178   1.167   2.558   3.350
 3058TIP3   OH2 9179   0.614   5.704   4.301
 3058TIP3    H1 9180   0.623   5.643   4.374
 3058TIP3    H2 9181   0.702   5.706   4.261
 3059TIP3   OH2 9182   3.105   4.812   1.357
 3059TIP3    H1 9183   3.112   4.730   1.308
 3059TIP3    H2 9184   3.190   4.854   1.346
 3060TIP3   OH2 9185   0.363   5.587   1.234
 3060TIP3    H1 9186   0.312   5.649   1.286
 3060TIP3    H2 9187   0.423   5.547   1.297
 3061TIP3   OH2 9188   1.438   1.093   1.728
 3061TIP3    H1 9189   1.532   1.084   1.742
 3061TIP3    H2 9190   1.405   1.003   1.722
 3062TIP3   OH2 9191   4.655   2.320   1.671
 3062TIP3    H1 9192   4.585   2.255   1.676
 3062TIP3    H2 9193   4.722   2.279   1.617
 3063TIP3   OH2 9194   6.117   5.753   2.106
 3063TIP3    H1 9195   6.070   5.751   2.023
 3063TIP3    H2 9196   6.091   5.672   2.150
 3064TIP3   OH2 9197   5.205   0.075   4.468
 3064TIP3    H1 9198   5.241   0.158   4.501
 3064TIP3    H2 9199   5.137   0.101   4.406
 3065TIP3   OH2 9200   5.937   1.970   3.655
 3065TIP3    H1 9201   5.903   1.973   3.744
 3065TIP3    H2 9202   5.915   2.056   3.618
 3066TIP3   OH2 9203   3.065   0.594   0.485
 3066TIP3    H1 9204   3.145   0.618   0.532
 3066TIP3    H2 9205   3.037   0.674   0.442
 3067TIP3   OH2 9206   4.322   2.577   1.528
 3067TIP3    H1 9207   4.382   2.574   1.603
 3067TIP3    H2 9208   4.336   2.663   1.490
 3068TIP3   OH2 9209   3.197   2.307   3.250
 3068TIP3    H1 9210   3.116   2.258   3.262
 3068TIP3    H2 9211   3.252   2.283   3.325
 3069TIP3   OH2 9212   4.933   5.320   0.316
 3069TIP3    H1 9213   4.955   5.233   0.283
 3069TIP3    H2 9214   4.907   5.305   0.407
 3070TIP3   OH2 9215   3.084   2.440   4.744
 3070TIP3    H1 9216   3.120   2.523   4.773
 3070TIP3    H2 9217   3.005   2.428   4.796
 3071TIP3   OH2 9218   5.346   4.932   3.729
 3071TIP3    H1 9219   5.354   4.943   3.635
 3071TIP3    H2 9220   5.284   4.999   3.757
 3072TIP3   OH2 9221   0.545   3.660   4.705
 3072TIP3    H1 9222   0.605   3.682   4.632
 3072TIP3    H2 9223   0.522   3.745   4.743
 3073TIP3   OH2 9224   2.927   5.661   0.636
 3073TIP3    H1 9225   2.861   5.725   0.662
 3073TIP3    H2 9226   2.903   5.581   0.682
 3074TIP3   OH2 9227   5.020   5.527   3.093
 3074TIP3    H1 9228   5.046   5.619   3.097
 3074TIP3    H2 9229   4.943   5.522   3.148
 3075TIP3   OH2 9230   4.821   5.505   4.284
 3075TIP3    H1 9231   4.780   5.435   4.233
 3075TIP3    H2 9232   4.773   5.504   4.367
 3076TIP3   OH2 9233   2.048   4.028   5.218
 3076TIP3    H1 9234   1.999   3.948   5.234
 3076TIP3    H2 9235   2.073   4.023   5.126
 3077TIP3   OH2 9236   4.513   3.110   4.255
 3077TIP3    H1 9237   4.507   3.082   4.347
 3077TIP3    H2 9238   4.475   3.037   4.206
 3078TIP3   OH2 9239   5.536   2.840   4.316
 3078TIP3    H1 9240   5.492   2.874   4.238
 3078TIP3    H2 9241   5.621   2.885   4.318
 3079TIP3   OH2 9242   4.350   2.818   1.069
 3079TIP3    H1 9243   4.334   2.846   1.159
 3079TIP3    H2 9244   4.276   2.759   1.049
 3080TIP3   OH2 9245   2.064   5.034   5.053
 3080TIP3    H1 9246   2.058   4.970   5.124
 3080TIP3    H2 9247   2.134   5.093   5.080
 3081TIP3   OH2 9248   4.048   0.767   3.187
 3081TIP3    H1 9249   3.975   0.725   3.141
 3081TIP3    H2 9250   4.017   0.775   3.278
 3082TIP3   OH2 9251   5.020   3.993   4.870
 3082TIP3    H1 9252   4.941   3.983   4.924
 3082TIP3    H2 9253   4.991   4.040   4.792
 3083TIP3   OH2 9254   1.853   2.792   3.410
 3083TIP3    H1 9255   1.857   2.872   3.357
 3083TIP3    H2 9256   1.759   2.773   3.418
 3084TIP3   OH2 9257   3.077   5.933   0.301
 3084TIP3    H1 9258   3.147   5.871   0.279
 3084TIP3    H2 9259   3.012   5.881   0.348
 3085TIP3   OH2 9260   5.419   4.955   0.743
 3085TIP3    H1 9261   5.443   4.985   0.830
 3085TIP3    H2 9262   5.406   5.035   0.692
 3086TIP3   OH2 9263   0.456   4.974   1.864
 3086TIP3    H1 9264   0.449   4.919   1.942
 3086TIP3    H2 9265   0.536   4.946   1.821
 3087TIP3   OH2 9266   1.557   5.699   1.763
 3087TIP3    H1 9267   1.637   5.654   1.738
 3087TIP3    H2 9268   1.521   5.648   1.835
 3088TIP3   OH2 9269   4.778   5.673   2.932
 3088TIP3    H1 9270   4.860   5.713   2.962
 3088TIP3    H2 9271   4.806   5.606   2.869
 3089TIP3   OH2 9272   3.972   2.784   1.542
 3089TIP3    H1 9273   4.031   2.856   1.562
 3089TIP3    H2 9274   3.884   2.820   1.555
 3090TIP3   OH2 9275   4.280   0.648   3.488
 3090TIP3    H1 9276   4.246   0.602   3.411
 3090TIP3    H2 9277   4.374   0.653   3.474
 3091TIP3   OH2 9278   3.051   0.431   0.258
 3091TIP3    H1 9279   3.085   0.342   0.260
 3091TIP3    H2 9280   3.077   0.469   0.342
 3092TIP3   OH2 9281   0.191   5.829   3.242
 3092TIP3    H1 9282   0.205   5.819   3.336
 3092TIP3    H2 9283   0.107   5.786   3.225
 3093TIP3   OH2 9284   3.712   5.432   1.816
 3093TIP3    H1 9285   3.757   5.408   1.897
 3093TIP3    H2 9286   3.779   5.474   1.762
 3094TIP3   OH2 9287   6.063   2.528   0.061
 3094TIP3    H1 9288   5.969   2.513   0.054
 3094TIP3    H2 9289   6.103   2.442   0.046
 3095TIP3   OH2 9290   1.551   3.921   0.832
 3095TIP3    H1 9291   1.554   4.005   0.787
 3095TIP3    H2 9292   1.608   3.864   0.780
 3096TIP3   OH2 9293   0.233   5.157   2.204
 3096TIP3    H1 9294   0.174   5.082   2.214
 3096TIP3    H2 9295   0.294   5.130   2.135
 3097TIP3   OH2 9296   0.334   2.267   4.023
 3097TIP3    H1 9297   0.360   2.179   3.995
 3097TIP3    H2 9298   0.240   2.260   4.042
 3098TIP3   OH2 9299   4.870   4.146   3.247
 3098TIP3    H1 9300   4.869   4.152   3.152
 3098TIP3    H2 9301   4.945   4.199   3.274
 3099TIP3   OH2 9302   1.414   5.893   3.008
 3099TIP3    H1 9303   1.474   5.863   3.076
 3099TIP3    H2 9304   1.448   5.977   2.980
 3100TIP3   OH2 9305   3.971   2.086   1.504
 3100TIP3    H1 9306   4.062   2.077   1.476
 3100TIP3    H2 9307   3.950   2.178   1.488
 3101TIP3   OH2 9308   4.844   5.615   2.446
 3101TIP3    H1 9309   4.869   5.523   2.438
 3101TIP3    H2 9310   4.893   5.660   2.377
 3102TIP3   OH2 9311   2.294   0.664   2.425
 3102TIP3    H1 9312   2.265   0.713   2.501
 3102TIP3    H2 9313   2.383   0.637   2.447
 3103TIP3   OH2 9314   2.270   2.595   1.789
 3103TIP3    H1 9315   2.334   2.555   1.730
 3103TIP3    H2 9316   2.287   2.689   1.784
 3104TIP3   OH2 9317   1.002   2.326   4.422
 3104TIP3    H1 9318   0.911   2.335   4.392
 3104TIP3    H2 9319   1.000   2.251   4.481
 3105TIP3   OH2 9320   1.144   1.084   4.689
 3105TIP3    H1 9321   1.157   1.008   4.745
 3105TIP3    H2 9322   1.059   1.119   4.716
 3106TIP3   OH2 9323   5.614   4.311   4.384
 3106TIP3    H1 9324   5.615   4.319   4.289
 3106TIP3    H2 9325   5.522   4.327   4.408
 3107TIP3   OH2 9326   5.906   5.818   3.867
 3107TIP3    H1 9327   5.990   5.772   3.878
 3107TIP3    H2 9328   5.857   5.796   3.946
 3108TIP3   OH2 9329   0.981   3.255   1.498
 3108TIP3    H1 9330   0.988   3.173   1.548
 3108TIP3    H2 9331   1.048   3.247   1.430
 3109TIP3   OH2 9332   3.962   0.441   2.076
 3109TIP3    H1 9333   3.969   0.423   2.170
 3109TIP3    H2 9334   3.944   0.535   2.070
 3110TIP3   OH2 9335   0.307   4.405   1.641
 3110TIP3    H1 9336   0.353   4.391   1.558
 3110TIP3    H2 9337   0.332   4.330   1.695
 3111TIP3   OH2 9338   4.967   0.238   3.768
 3111TIP3    H1 9339   5.006   0.169   3.823
 3111TIP3    H2 9340   5.004   0.319   3.803
 3112TIP3   OH2 9341   2.822   3.174   0.688
 3112TIP3    H1 9342   2.886   3.103   0.686
 3112TIP3    H2 9343   2.866   3.244   0.737
 3113TIP3   OH2 9344   0.757   1.226   1.820
 3113TIP3    H1 9345   0.823   1.245   1.887
 3113TIP3    H2 9346   0.805   1.237   1.737
 3114TIP3   OH2 9347   4.016   2.536   0.467
 3114TIP3    H1 9348   3.946   2.599   0.484
 3114TIP3    H2 9349   4.094   2.589   0.450
 3115TIP3   OH2 9350   1.610   2.792   3.550
 3115TIP3    H1 9351   1.566   2.730   3.608
 3115TIP3    H2 9352   1.586   2.878   3.584
 3116TIP3   OH2 9353   5.061   0.548   0.336
 3116TIP3    H1 9354   4.999   0.566   0.265
 3116TIP3    H2 9355   5.147   0.551   0.294
 3117TIP3   OH2 9356   1.149   3.773   4.765
 3117TIP3    H1 9357   1.104   3.790   4.847
 3117TIP3    H2 9358   1.122   3.843   4.706
 3118TIP3   OH2 9359   3.972   4.623   0.663
 3118TIP3    H1 9360   3.954   4.621   0.570
 3118TIP3    H2 9361   3.903   4.679   0.700
 3119TIP3   OH2 9362   2.328   3.722  -0.020
 3119TIP3    H1 9363   2.263   3.743   0.047
 3119TIP3    H2 9364   2.281   3.731  -0.103
 3120TIP3   OH2 9365   4.218   1.933   1.057
 3120TIP3    H1 9366   4.259   2.017   1.033
 3120TIP3    H2 9367   4.246   1.873   0.988
 3121TIP3   OH2 9368   4.432   5.087   2.025
 3121TIP3    H1 9369   4.369   5.153   1.996
 3121TIP3    H2 9370   4.506   5.139   2.057
 3122TIP3   OH2 9371   5.137   3.260   3.000
 3122TIP3    H1 9372   5.099   3.217   2.923
 3122TIP3    H2 9373   5.220   3.213   3.015
 3123TIP3   OH2 9374   1.092   2.850   1.037
 3123TIP3    H1 9375   1.165   2.806   1.081
 3123TIP3    H2 9376   1.077   2.929   1.090
 3124TIP3   OH2 9377   5.624   2.176   2.561
 3124TIP3    H1 9378   5.629   2.255   2.509
 3124TIP3    H2 9379   5.606   2.207   2.650
 3125TIP3   OH2 9380   5.631   3.542   3.040
 3125TIP3    H1 9381   5.718   3.523   3.074
 3125TIP3    H2 9382   5.595   3.457   3.016
 3126TIP3   OH2 9383   5.468   1.338   2.034
 3126TIP3    H1 9384   5.560   1.314   2.044
 3126TIP3    H2 9385   5.443   1.369   2.121
 3127TIP3   OH2 9386   5.841   3.703   0.569
 3127TIP3    H1 9387   5.750   3.689   0.595
 3127TIP3    H2 9388   5.837   3.717   0.475
 3128TIP3   OH2 9389   0.674   4.525   1.002
 3128TIP3    H1 9390   0.698   4.475   0.924
 3128TIP3    H2 9391   0.718   4.609   0.992
 3129TIP3   OH2 9392   2.176   1.050   0.970
 3129TIP3    H1 9393   2.261   1.020   0.938
 3129TIP3    H2 9394   2.114   1.023   0.902
 3130TIP3   OH2 9395   5.642   3.931   1.152
 3130TIP3    H1 9396   5.549   3.945   1.169
 3130TIP3    H2 9397   5.679   3.909   1.237
 3131TIP3   OH2 9398   5.945   5.645   4.612
 3131TIP3    H1 9399   6.000   5.578   4.653
 3131TIP3    H2 9400   5.935   5.712   4.680
 3132TIP3   OH2 9401   3.051   5.039   3.117
 3132TIP3    H1 9402   2.984   5.035   3.185
 3132TIP3    H2 9403   3.117   5.099   3.151
 3133TIP3   OH2 9404   0.863   3.314   4.337
 3133TIP3    H1 9405   0.807   3.304   4.260
 3133TIP3    H2 9406   0.902   3.227   4.350
 3134TIP3   OH2 9407   5.264   1.370   2.952
 3134TIP3    H1 9408   5.189   1.312   2.959
 3134TIP3    H2 9409   5.296   1.379   3.042
 3135TIP3   OH2 9410   6.054   2.577   1.739
 3135TIP3    H1 9411   6.064   2.654   1.794
 3135TIP3    H2 9412   6.112   2.512   1.778
 3136TIP3   OH2 9413   2.403   4.153   0.235
 3136TIP3    H1 9414   2.349   4.225   0.266
 3136TIP3    H2 9415   2.361   4.074   0.270
 3137TIP3   OH2 9416   2.448   3.830   3.482
 3137TIP3    H1 9417   2.359   3.824   3.518
 3137TIP3    H2 9418   2.474   3.921   3.496
 3138TIP3   OH2 9419   2.979   2.360   4.473
 3138TIP3    H1 9420   2.889   2.344   4.503
 3138TIP3    H2 9421   3.024   2.395   4.549
 3139TIP3   OH2 9422   6.219   0.078   1.557
 3139TIP3    H1 9423   6.178   0.161   1.534
 3139TIP3    H2 9424   6.246   0.089   1.649
 3140TIP3   OH2 9425   4.635   5.338   1.247
 3140TIP3    H1 9426   4.554   5.287   1.251
 3140TIP3    H2 9427   4.610   5.426   1.276
 3141TIP3   OH2 9428   1.046   2.568   2.486
 3141TIP3    H1 9429   0.995   2.622   2.426
 3141TIP3    H2 9430   1.133   2.564   2.447
 3142TIP3   OH2 9431   1.670   1.374   3.711
 3142TIP3    H1 9432   1.740   1.410   3.657
 3142TIP3    H2 9433   1.712   1.308   3.766
 3143TIP3   OH2 9434   5.212   1.977   1.965
 3143TIP3    H1 9435   5.300   1.940   1.963
 3143TIP3    H2 9436   5.181   1.961   2.054
 3144TIP3   OH2 9437   6.225   3.265   3.729
 3144TIP3    H1 9438   6.260   3.254   3.641
 3144TIP3    H2 9439   6.132   3.243   3.721
 3145TIP3   OH2 9440   1.684   4.958   3.569
 3145TIP3    H1 9441   1.607   4.905   3.545
 3145TIP3    H2 9442   1.664   4.989   3.657
 3146TIP3   OH2 9443   6.217   5.359   0.279
 3146TIP3    H1 9444   6.134   5.357   0.231
 3146TIP3    H2 9445   6.267   5.429   0.237
 3147TIP3   OH2 9446   1.678   4.842   4.218
 3147TIP3    H1 9447   1.761   4.794   4.211
 3147TIP3    H2 9448   1.622   4.802   4.152
 3148TIP3   OH2 9449   2.646   1.876   0.828
 3148TIP3    H1 9450   2.634   1.968   0.805
 3148TIP3    H2 9451   2.640   1.875   0.924
 3149TIP3   OH2 9452   6.305   2.104   0.606
 3149TIP3    H1 9453   6.340   2.090   0.518
 3149TIP3    H2 9454   6.269   2.193   0.604
 3150TIP3   OH2 9455   4.476   0.328   1.085
 3150TIP3    H1 9456   4.385   0.303   1.102
 3150TIP3    H2 9457   4.475   0.424   1.088
 3151TIP3   OH2 9458   4.236   1.257   4.390
 3151TIP3    H1 9459   4.301   1.297   4.333
 3151TIP3    H2 9460   4.161   1.241   4.333
 3152TIP3   OH2 9461   4.919   4.715   1.414
 3152TIP3    H1 9462   4.961   4.729   1.330
 3152TIP3    H2 9463   4.949   4.788   1.468
 3153TIP3   OH2 9464   6.148   3.589   3.522
 3153TIP3    H1 9465   6.232   3.558   3.557
 3153TIP3    H2 9466   6.089   3.515   3.533
 3154TIP3   OH2 9467   6.112   1.914   4.695
 3154TIP3    H1 9468   6.066   1.904   4.778
 3154TIP3    H2 9469   6.169   1.837   4.689
 3155TIP3   OH2 9470   4.567   2.222   2.332
 3155TIP3    H1 9471   4.511   2.265   2.267
 3155TIP3    H2 9472   4.576   2.132   2.300
 3156TIP3   OH2 9473   1.442   4.204   5.187
 3156TIP3    H1 9474   1.489   4.227   5.267
 3156TIP3    H2 9475   1.507   4.214   5.118
 3157TIP3   OH2 9476   2.666   0.855   4.139
 3157TIP3    H1 9477   2.753   0.892   4.149
 3157TIP3    H2 9478   2.681   0.773   4.091
 3158TIP3   OH2 9479   0.062   5.500   1.357
 3158TIP3    H1 9480   0.038   5.579   1.309
 3158TIP3    H2 9481   0.105   5.445   1.293
 3159TIP3   OH2 9482   1.302   2.508   3.000
 3159TIP3    H1 9483   1.310   2.430   2.945
 3159TIP3    H2 9484   1.299   2.475   3.089
 3160TIP3   OH2 9485   3.797   4.535   0.038
 3160TIP3    H1 9486   3.786   4.488   0.121
 3160TIP3    H2 9487   3.878   4.501   0.001
 3161TIP3   OH2 9488   4.334   5.256   4.735
 3161TIP3    H1 9489   4.294   5.215   4.812
 3161TIP3    H2 9490   4.362   5.183   4.680
 3162TIP3   OH2 9491   3.051   5.849   2.486
 3162TIP3    H1 9492   2.977   5.908   2.499
 3162TIP3    H2 9493   3.074   5.860   2.394
 3163TIP3   OH2 9494   5.734   1.703   2.194
 3163TIP3    H1 9495   5.701   1.759   2.265
 3163TIP3    H2 9496   5.829   1.718   2.194
 3164TIP3   OH2 9497   4.685   2.119   2.929
 3164TIP3    H1 9498   4.731   2.059   2.869
 3164TIP3    H2 9499   4.636   2.060   2.987
 3165TIP3   OH2 9500   1.355   0.686   2.827
 3165TIP3    H1 9501   1.419   0.689   2.897
 3165TIP3    H2 9502   1.270   0.699   2.871
 3166TIP3   OH2 9503   5.171   2.999   1.322
 3166TIP3    H1 9504   5.266   3.000   1.334
 3166TIP3    H2 9505   5.154   2.920   1.272
 3167TIP3   OH2 9506   4.275   2.783   2.763
 3167TIP3    H1 9507   4.188   2.771   2.802
 3167TIP3    H2 9508   4.336   2.747   2.829
 3168TIP3   OH2 9509   1.048   3.274   3.690
 3168TIP3    H1 9510   1.096   3.312   3.763
 3168TIP3    H2 9511   1.058   3.180   3.701
 3169TIP3   OH2 9512   6.307   5.721   3.190
 3169TIP3    H1 9513   6.256   5.695   3.266
 3169TIP3    H2 9514   6.249   5.704   3.115
 3170TIP3   OH2 9515   4.418   3.877   3.696
 3170TIP3    H1 9516   4.351   3.873   3.628
 3170TIP3    H2 9517   4.374   3.846   3.775
 3171TIP3   OH2 9518   1.940   4.433   3.032
 3171TIP3    H1 9519   1.992   4.511   3.050
 3171TIP3    H2 9520   1.876   4.463   2.966
 3172TIP3   OH2 9521   4.962   0.404   1.771
 3172TIP3    H1 9522   4.905   0.474   1.799
 3172TIP3    H2 9523   4.961   0.341   1.843
 3173TIP3   OH2 9524   2.303   5.593   5.188
 3173TIP3    H1 9525   2.271   5.554   5.107
 3173TIP3    H2 9526   2.335   5.519   5.239
 3174TIP3   OH2 9527   3.539   5.216   2.919
 3174TIP3    H1 9528   3.587   5.180   2.994
 3174TIP3    H2 9529   3.447   5.193   2.936
 3175TIP3   OH2 9530   0.438   1.934   4.221
 3175TIP3    H1 9531   0.439   1.848   4.263
 3175TIP3    H2 9532   0.351   1.969   4.241
 3176TIP3   OH2 9533   5.299   0.852   3.530
 3176TIP3    H1 9534   5.329   0.940   3.555
 3176TIP3    H2 9535   5.231   0.832   3.593
 3177TIP3   OH2 9536   0.257   4.416   0.247
 3177TIP3    H1 9537   0.335   4.457   0.210
 3177TIP3    H2 9538   0.290   4.355   0.313
 3178TIP3   OH2 9539   6.133   5.393   3.202
 3178TIP3    H1 9540   6.198   5.380   3.133
 3178TIP3    H2 9541   6.184   5.415   3.280
 3179TIP3   OH2 9542   0.855   0.937   1.252
 3179TIP3    H1 9543   0.783   0.926   1.314
 3179TIP3    H2 9544   0.835   0.876   1.181
 3180TIP3   OH2 9545   5.513   5.037   0.996
 3180TIP3    H1 9546   5.586   5.032   1.058
 3180TIP3    H2 9547   5.497   5.131   0.987
 3181TIP3   OH2 9548   3.255   4.236   5.099
 3181TIP3    H1 9549   3.304   4.317   5.082
 3181TIP3    H2 9550   3.301   4.195   5.172
 3182TIP3   OH2 9551   0.611   5.079   3.589
 3182TIP3    H1 9552   0.569   5.153   3.632
 3182TIP3    H2 9553   0.705   5.097   3.595
 3183TIP3   OH2 9554   1.242   4.628   2.142
 3183TIP3    H1 9555   1.210   4.555   2.088
 3183TIP3    H2 9556   1.172   4.693   2.138
 3184TIP3   OH2 9557   3.580   2.744   0.214
 3184TIP3    H1 9558   3.635   2.670   0.238
 3184TIP3    H2 9559   3.492   2.707   0.206
 3185TIP3   OH2 9560   0.805   4.476   3.576
 3185TIP3    H1 9561   0.861   4.543   3.538
 3185TIP3    H2 9562   0.782   4.509   3.663
 3186TIP3   OH2 9563   0.290   4.861   0.706
 3186TIP3    H1 9564   0.315   4.789   0.648
 3186TIP3    H2 9565   0.240   4.921   0.651
 3187TIP3   OH2 9566   1.667   0.146   4.800
 3187TIP3    H1 9567   1.695   0.182   4.717
 3187TIP3    H2 9568   1.618   0.067   4.776
 3188TIP3   OH2 9569   5.873   4.191   0.836
 3188TIP3    H1 9570   5.861   4.160   0.926
 3188TIP3    H2 9571   5.856   4.113   0.782
 3189TIP3   OH2 9572   1.747   2.530   0.796
 3189TIP3    H1 9573   1.773   2.550   0.705
 3189TIP3    H2 9574   1.728   2.616   0.834
 3190TIP3   OH2 9575   6.024   0.664   4.489
 3190TIP3    H1 9576   5.958   0.649   4.421
 3190TIP3    H2 9577   5.975   0.697   4.564
 3191TIP3   OH2 9578   0.954   0.619   1.250
 3191TIP3    H1 9579   0.876   0.640   1.198
 3191TIP3    H2 9580   1.015   0.690   1.230
 3192TIP3   OH2 9581   4.901   1.144   4.137
 3192TIP3    H1 9582   4.883   1.232   4.102
 3192TIP3    H2 9583   4.927   1.160   4.228
 3193TIP3   OH2 9584   5.180   5.090   0.520
 3193TIP3    H1 9585   5.273   5.109   0.509
 3193TIP3    H2 9586   5.139   5.176   0.527
 3194TIP3   OH2 9587   2.548   1.441   4.170
 3194TIP3    H1 9588   2.530   1.533   4.192
 3194TIP3    H2 9589   2.547   1.438   4.075
 3195TIP3   OH2 9590   1.091   5.681   0.338
 3195TIP3    H1 9591   1.104   5.745   0.267
 3195TIP3    H2 9592   1.171   5.628   0.337
 3196TIP3   OH2 9593   4.494   4.486   4.237
 3196TIP3    H1 9594   4.502   4.396   4.267
 3196TIP3    H2 9595   4.584   4.512   4.216
 3197TIP3   OH2 9596   6.340   3.049   1.122
 3197TIP3    H1 9597   6.288   2.969   1.115
 3197TIP3    H2 9598   6.409   3.040   1.056
 3198TIP3   OH2 9599   1.583   2.336   1.987
 3198TIP3    H1 9600   1.554   2.409   1.932
 3198TIP3    H2 9601   1.528   2.262   1.960
 3199TIP3   OH2 9602   3.428   4.553   4.479
 3199TIP3    H1 9603   3.434   4.587   4.390
 3199TIP3    H2 9604   3.344   4.586   4.511
 3200TIP3   OH2 9605   5.976   3.962   2.953
 3200TIP3    H1 9606   5.978   3.957   3.049
 3200TIP3    H2 9607   5.904   4.021   2.933
 3201TIP3   OH2 9608   0.271   2.497   3.892
 3201TIP3    H1 9609   0.183   2.480   3.860
 3201TIP3    H2 9610   0.301   2.414   3.928
 3202TIP3   OH2 9611   4.352   5.864   1.378
 3202TIP3    H1 9612   4.375   5.943   1.330
 3202TIP3    H2 9613   4.262   5.877   1.406
 3203TIP3   OH2 9614   4.512   5.326   1.735
 3203TIP3    H1 9615   4.585   5.316   1.796
 3203TIP3    H2 9616   4.435   5.338   1.790
 3204TIP3   OH2 9617   3.099   1.123   4.581
 3204TIP3    H1 9618   3.076   1.145   4.671
 3204TIP3    H2 9619   3.174   1.063   4.589
 3205TIP3   OH2 9620   2.740   4.737   0.061
 3205TIP3    H1 9621   2.742   4.646   0.030
 3205TIP3    H2 9622   2.810   4.780   0.012
 3206TIP3   OH2 9623   4.477   4.090   2.340
 3206TIP3    H1 9624   4.425   4.027   2.291
 3206TIP3    H2 9625   4.485   4.053   2.428
 3207TIP3   OH2 9626   2.576   3.242   0.409
 3207TIP3    H1 9627   2.519   3.296   0.354
 3207TIP3    H2 9628   2.519   3.209   0.478
 3208TIP3   OH2 9629   5.085   1.081   0.629
 3208TIP3    H1 9630   5.002   1.036   0.611
 3208TIP3    H2 9631   5.128   1.086   0.543
 3209TIP3   OH2 9632   3.574   4.147   2.001
 3209TIP3    H1 9633   3.660   4.180   1.977
 3209TIP3    H2 9634   3.533   4.124   1.918
 3210TIP3   OH2 9635   5.404   1.267   0.932
 3210TIP3    H1 9636   5.448   1.350   0.916
 3210TIP3    H2 9637   5.464   1.218   0.988
 3211TIP3   OH2 9638   3.700   3.078   3.650
 3211TIP3    H1 9639   3.624   3.046   3.700
 3211TIP3    H2 9640   3.683   3.171   3.637
 3212TIP3   OH2 9641   1.386   0.843   0.291
 3212TIP3    H1 9642   1.394   0.763   0.240
 3212TIP3    H2 9643   1.384   0.813   0.382
 3213TIP3   OH2 9644   4.437   1.716   1.630
 3213TIP3    H1 9645   4.343   1.707   1.616
 3213TIP3    H2 9646   4.450   1.683   1.719
 3214TIP3   OH2 9647   1.115   4.159   0.586
 3214TIP3    H1 9648   1.048   4.146   0.519
 3214TIP3    H2 9649   1.089   4.102   0.658
 3215TIP3   OH2 9650   1.938   1.467   2.308
 3215TIP3    H1 9651   1.955   1.424   2.391
 3215TIP3    H2 9652   1.856   1.514   2.322
 3216TIP3   OH2 9653   0.361   1.959   4.559
 3216TIP3    H1 9654   0.395   1.928   4.475
 3216TIP3    H2 9655   0.364   1.881   4.616
 3217TIP3   OH2 9656   5.156   1.394   2.310
 3217TIP3    H1 9657   5.187   1.304   2.304
 3217TIP3    H2 9658   5.235   1.446   2.326
 3218TIP3   OH2 9659   2.060   5.089   0.738
 3218TIP3    H1 9660   2.155   5.085   0.728
 3218TIP3    H2 9661   2.044   5.056   0.826
 3219TIP3   OH2 9662   0.460   1.606   3.511
 3219TIP3    H1 9663   0.366   1.607   3.494
 3219TIP3    H2 9664   0.483   1.513   3.511
 3220TIP3   OH2 9665   5.888   2.332   1.478
 3220TIP3    H1 9666   5.819   2.355   1.541
 3220TIP3    H2 9667   5.922   2.416   1.449
 3221TIP3   OH2 9668   2.416   1.062   0.269
 3221TIP3    H1 9669   2.343   1.002   0.282
 3221TIP3    H2 9670   2.493   1.014   0.299
 3222TIP3   OH2 9671   4.494   4.356   1.230
 3222TIP3    H1 9672   4.537   4.277   1.197
 3222TIP3    H2 9673   4.567   4.414   1.255
 3223TIP3   OH2 9674   1.637   4.996   1.214
 3223TIP3    H1 9675   1.571   4.929   1.196
 3223TIP3    H2 9676   1.707   4.978   1.152
 3224TIP3   OH2 9677   1.116   4.119   2.040
 3224TIP3    H1 9678   1.207   4.132   2.014
 3224TIP3    H2 9679   1.066   4.176   1.982
 3225TIP3   OH2 9680   4.393   4.561   3.145
 3225TIP3    H1 9681   4.366   4.583   3.056
 3225TIP3    H2 9682   4.465   4.499   3.134
 3226TIP3   OH2 9683   4.099   4.932   0.859
 3226TIP3    H1 9684   4.058   4.998   0.803
 3226TIP3    H2 9685   4.151   4.878   0.800
 3227TIP3   OH2 9686   2.427   4.569   0.923
 3227TIP3    H1 9687   2.332   4.579   0.920
 3227TIP3    H2 9688   2.457   4.600   0.838
 3228TIP3   OH2 9689   2.591   5.199   1.811
 3228TIP3    H1 9690   2.668   5.255   1.822
 3228TIP3    H2 9691   2.612   5.119   1.859
 3229TIP3   OH2 9692   0.118   5.676   3.478
 3229TIP3    H1 9693   0.034   5.684   3.431
 3229TIP3    H2 9694   0.099   5.619   3.552
 3230TIP3   OH2 9695   6.068   2.277   5.113
 3230TIP3    H1 9696   6.132   2.339   5.078
 3230TIP3    H2 9697   6.034   2.231   5.036
 3231TIP3   OH2 9698   2.176   2.041   1.102
 3231TIP3    H1 9699   2.123   2.115   1.073
 3231TIP3    H2 9700   2.114   1.968   1.106
 3232TIP3   OH2 9701   2.093   0.295   0.659
 3232TIP3    H1 9702   2.098   0.321   0.751
 3232TIP3    H2 9703   2.001   0.271   0.646
 3233TIP3   OH2 9704   3.702   0.146   0.735
 3233TIP3    H1 9705   3.677   0.159   0.643
 3233TIP3    H2 9706   3.793   0.114   0.731
 3234TIP3   OH2 9707   5.963   2.255   4.829
 3234TIP3    H1 9708   5.907   2.318   4.783
 3234TIP3    H2 9709   5.902   2.202   4.880
 3235TIP3   OH2 9710   5.704   2.636   3.539
 3235TIP3    H1 9711   5.682   2.607   3.628
 3235TIP3    H2 9712   5.780   2.583   3.515
 3236TIP3   OH2 9713   2.710   3.463   2.483
 3236TIP3    H1 9714   2.722   3.417   2.566
 3236TIP3    H2 9715   2.798   3.493   2.458
 3237TIP3   OH2 9716   0.165   5.460   0.635
 3237TIP3    H1 9717   0.118   5.530   0.590
 3237TIP3    H2 9718   0.246   5.449   0.585
 3238TIP3   OH2 9719   4.613   4.066   0.690
 3238TIP3    H1 9720   4.612   4.072   0.595
 3238TIP3    H2 9721   4.643   3.977   0.708
 3239TIP3   OH2 9722   1.393   0.044   5.051
 3239TIP3    H1 9723   1.462   0.062   5.115
 3239TIP3    H2 9724   1.437   0.050   4.966
 3240TIP3   OH2 9725   2.844   2.872   2.894
 3240TIP3    H1 9726   2.787   2.795   2.888
 3240TIP3    H2 9727   2.884   2.880   2.808
 3241TIP3   OH2 9728   1.352   0.917   2.170
 3241TIP3    H1 9729   1.389   0.830   2.183
 3241TIP3    H2 9730   1.427   0.972   2.148
 3242TIP3   OH2 9731   4.715   4.204   4.646
 3242TIP3    H1 9732   4.695   4.294   4.670
 3242TIP3    H2 9733   4.650   4.182   4.580
 3243TIP3   OH2 9734   0.839   5.159   2.554
 3243TIP3    H1 9735   0.787   5.173   2.633
 3243TIP3    H2 9736   0.914   5.218   2.564
 3244TIP3   OH2 9737   6.050   4.718   1.500
 3244TIP3    H1 9738   6.065   4.793   1.442
 3244TIP3    H2 9739   6.112   4.730   1.572
 3245TIP3   OH2 9740   3.173   2.324   0.787
 3245TIP3    H1 9741   3.108   2.357   0.725
 3245TIP3    H2 9742   3.177   2.392   0.855
 3246TIP3   OH2 9743   3.108   2.440   2.586
 3246TIP3    H1 9744   3.141   2.352   2.601
 3246TIP3    H2 9745   3.013   2.432   2.593
 3247TIP3   OH2 9746   1.914   2.248   1.369
 3247TIP3    H1 9747   1.842   2.238   1.431
 3247TIP3    H2 9748   1.974   2.175   1.389
 3248TIP3   OH2 9749   5.377   4.667   3.420
 3248TIP3    H1 9750   5.347   4.592   3.368
 3248TIP3    H2 9751   5.332   4.742   3.382
 3249TIP3   OH2 9752   3.453   2.074   1.971
 3249TIP3    H1 9753   3.403   2.156   1.978
 3249TIP3    H2 9754   3.523   2.084   2.035
 3250TIP3   OH2 9755   6.241   3.207   3.410
 3250TIP3    H1 9756   6.162   3.262   3.412
 3250TIP3    H2 9757   6.305   3.259   3.362
 3251TIP3   OH2 9758   6.068   5.077   3.716
 3251TIP3    H1 9759   6.116   5.070   3.634
 3251TIP3    H2 9760   6.050   5.171   3.725
 3252TIP3   OH2 9761   3.809   2.171   4.669
 3252TIP3    H1 9762   3.742   2.106   4.687
 3252TIP3    H2 9763   3.838   2.153   4.579
 3253TIP3   OH2 9764   4.741   5.979   3.693
 3253TIP3    H1 9765   4.792   5.920   3.748
 3253TIP3    H2 9766   4.802   6.048   3.667
 3254TIP3   OH2 9767   1.040   4.006   5.080
 3254TIP3    H1 9768   1.006   3.918   5.067
 3254TIP3    H2 9769   1.132   3.994   5.101
 3255TIP3   OH2 9770   5.616   2.289   0.687
 3255TIP3    H1 9771   5.575   2.222   0.743
 3255TIP3    H2 9772   5.700   2.252   0.663
 3256TIP3   OH2 9773   5.893   3.893   4.657
 3256TIP3    H1 9774   5.843   3.812   4.645
 3256TIP3    H2 9775   5.832   3.963   4.634
 3257TIP3   OH2 9776   2.592   2.014   4.112
 3257TIP3    H1 9777   2.658   2.048   4.173
 3257TIP3    H2 9778   2.604   1.919   4.114
 3258TIP3   OH2 9779   2.815   1.215   1.022
 3258TIP3    H1 9780   2.793   1.307   1.036
 3258TIP3    H2 9781   2.744   1.167   1.065
 3259TIP3   OH2 9782   3.092   0.961   4.984
 3259TIP3    H1 9783   3.141   0.937   4.906
 3259TIP3    H2 9784   3.042   1.039   4.959
 3260TIP3   OH2 9785   1.283   0.864   3.701
 3260TIP3    H1 9786   1.298   0.950   3.738
 3260TIP3    H2 9787   1.368   0.838   3.664
 3261TIP3   OH2 9788   6.211   1.571   0.653
 3261TIP3    H1 9789   6.149   1.572   0.726
 3261TIP3    H2 9790   6.195   1.653   0.606
 3262TIP3   OH2 9791   3.068   2.948   3.065
 3262TIP3    H1 9792   3.086   3.012   2.995
 3262TIP3    H2 9793   2.976   2.963   3.087
 3263TIP3   OH2 9794   3.053   3.560   4.820
 3263TIP3    H1 9795   3.099   3.627   4.771
 3263TIP3    H2 9796   3.088   3.567   4.909
 3264TIP3   OH2 9797   1.054   3.935   0.756
 3264TIP3    H1 9798   1.110   3.872   0.801
 3264TIP3    H2 9799   1.010   3.983   0.826
 3265TIP3   OH2 9800   2.833   5.359   1.565
 3265TIP3    H1 9801   2.821   5.267   1.587
 3265TIP3    H2 9802   2.769   5.377   1.497
 3266TIP3   OH2 9803   3.795   2.714   2.555
 3266TIP3    H1 9804   3.858   2.781   2.529
 3266TIP3    H2 9805   3.847   2.635   2.569
 3267TIP3   OH2 9806   3.310   2.870   2.666
 3267TIP3    H1 9807   3.340   2.914   2.745
 3267TIP3    H2 9808   3.390   2.836   2.627
 3268TIP3   OH2 9809   2.178   4.885   1.117
 3268TIP3    H1 9810   2.111   4.902   1.183
 3268TIP3    H2 9811   2.224   4.807   1.148
 3269TIP3   OH2 9812   4.923   1.476   4.780
 3269TIP3    H1 9813   4.903   1.395   4.826
 3269TIP3    H2 9814   4.934   1.541   4.850
 3270TIP3   OH2 9815   4.292   2.061   4.593
 3270TIP3    H1 9816   4.321   2.151   4.579
 3270TIP3    H2 9817   4.350   2.027   4.661
 3271TIP3   OH2 9818   0.345   4.591   0.816
 3271TIP3    H1 9819   0.267   4.630   0.855
 3271TIP3    H2 9820   0.312   4.547   0.737
 3272TIP3   OH2 9821   0.690   4.576   2.551
 3272TIP3    H1 9822   0.709   4.592   2.643
 3272TIP3    H2 9823   0.774   4.586   2.507
 3273TIP3   OH2 9824   0.683   5.048   4.960
 3273TIP3    H1 9825   0.700   4.956   4.980
 3273TIP3    H2 9826   0.768   5.083   4.933
 3274TIP3   OH2 9827   4.270   0.776   4.552
 3274TIP3    H1 9828   4.189   0.736   4.584
 3274TIP3    H2 9829   4.275   0.750   4.460
 3275TIP3   OH2 9830   2.042   3.493   0.422
 3275TIP3    H1 9831   1.987   3.416   0.406
 3275TIP3    H2 9832   1.981   3.566   0.426
 3276TIP3   OH2 9833   2.218   3.972   1.032
 3276TIP3    H1 9834   2.150   3.905   1.021
 3276TIP3    H2 9835   2.180   4.035   1.093
 3277TIP3   OH2 9836   0.777   4.247   3.918
 3277TIP3    H1 9837   0.746   4.201   3.995
 3277TIP3    H2 9838   0.857   4.292   3.946
 3278TIP3   OH2 9839   2.578   4.843   1.209
 3278TIP3    H1 9840   2.519   4.778   1.245
 3278TIP3    H2 9841   2.662   4.825   1.252
 3279TIP3   OH2 9842   4.701   1.543   3.432
 3279TIP3    H1 9843   4.608   1.523   3.442
 3279TIP3    H2 9844   4.729   1.571   3.519
 3280TIP3   OH2 9845   5.583   4.894   1.799
 3280TIP3    H1 9846   5.678   4.904   1.792
 3280TIP3    H2 9847   5.551   4.910   1.710
 3281TIP3   OH2 9848   5.767   4.701   4.412
 3281TIP3    H1 9849   5.726   4.695   4.326
 3281TIP3    H2 9850   5.819   4.622   4.420
 3282TIP3   OH2 9851   1.511   5.505   4.297
 3282TIP3    H1 9852   1.490   5.575   4.359
 3282TIP3    H2 9853   1.526   5.428   4.351
 3283TIP3   OH2 9854   1.767   4.438   3.710
 3283TIP3    H1 9855   1.853   4.416   3.744
 3283TIP3    H2 9856   1.707   4.420   3.783
 3284TIP3   OH2 9857   0.110   1.429   4.719
 3284TIP3    H1 9858   0.034   1.372   4.728
 3284TIP3    H2 9859   0.105   1.461   4.629
 3285TIP3   OH2 9860   4.374   3.191   1.851
 3285TIP3    H1 9861   4.467   3.176   1.869
 3285TIP3    H2 9862   4.328   3.141   1.919
 3286TIP3   OH2 9863   5.095   4.653   1.201
 3286TIP3    H1 9864   5.037   4.659   1.126
 3286TIP3    H2 9865   5.178   4.689   1.170
 3287TIP3   OH2 9866   0.778   1.989   1.955
 3287TIP3    H1 9867   0.845   2.010   2.020
 3287TIP3    H2 9868   0.791   1.896   1.936
 3288TIP3   OH2 9869   2.068   2.942   2.002
 3288TIP3    H1 9870   2.139   2.908   1.948
 3288TIP3    H2 9871   2.038   3.021   1.957
 3289TIP3   OH2 9872   6.135   5.155   1.896
 3289TIP3    H1 9873   6.183   5.074   1.882
 3289TIP3    H2 9874   6.044   5.131   1.882
 3290TIP3   OH2 9875   4.276   5.387   3.673
 3290TIP3    H1 9876   4.317   5.313   3.718
 3290TIP3    H2 9877   4.313   5.385   3.585
 3291TIP3   OH2 9878   5.118   3.524   4.081
 3291TIP3    H1 9879   5.080   3.447   4.123
 3291TIP3    H2 9880   5.196   3.490   4.037
 3292TIP3   OH2 9881   3.767   0.382   3.733
 3292TIP3    H1 9882   3.735   0.324   3.664
 3292TIP3    H2 9883   3.746   0.470   3.703
 3293TIP3   OH2 9884   4.388   4.445   0.566
 3293TIP3    H1 9885   4.314   4.439   0.506
 3293TIP3    H2 9886   4.403   4.539   0.577
 3294TIP3   OH2 9887   6.304   2.147   2.802
 3294TIP3    H1 9888   6.284   2.202   2.878
 3294TIP3    H2 9889   6.367   2.083   2.835
 3295TIP3   OH2 9890   5.578   0.034   4.913
 3295TIP3    H1 9891   5.532   0.062   4.992
 3295TIP3    H2 9892   5.526   0.071   4.841
 3296TIP3   OH2 9893   5.112   1.557   3.651
 3296TIP3    H1 9894   5.107   1.535   3.744
 3296TIP3    H2 9895   5.020   1.561   3.623
 3297TIP3   OH2 9896   5.661   3.410   0.956
 3297TIP3    H1 9897   5.691   3.321   0.937
 3297TIP3    H2 9898   5.736   3.451   1.000
 3298TIP3   OH2 9899   1.439   1.660   4.224
 3298TIP3    H1 9900   1.452   1.572   4.260
 3298TIP3    H2 9901   1.361   1.652   4.169
 3299TIP3   OH2 9902   2.062   4.871   2.972
 3299TIP3    H1 9903   2.093   4.930   2.903
 3299TIP3    H2 9904   1.981   4.835   2.938
 3300TIP3   OH2 9905   6.129   1.489   0.375
 3300TIP3    H1 9906   6.149   1.578   0.347
 3300TIP3    H2 9907   6.064   1.458   0.312
 3301TIP3   OH2 9908   0.826   4.758   0.698
 3301TIP3    H1 9909   0.861   4.733   0.613
 3301TIP3    H2 9910   0.904   4.773   0.752
 3302TIP3   OH2 9911   4.894   4.530   2.548
 3302TIP3    H1 9912   4.912   4.478   2.626
 3302TIP3    H2 9913   4.918   4.473   2.475
 3303TIP3   OH2 9914   5.188   0.970   4.264
 3303TIP3    H1 9915   5.133   1.014   4.328
 3303TIP3    H2 9916   5.221   1.040   4.208
 3304TIP3   OH2 9917   0.170   5.455   4.660
 3304TIP3    H1 9918   0.145   5.363   4.646
 3304TIP3    H2 9919   0.148   5.498   4.578
 3305TIP3   OH2 9920   2.372   0.080   3.111
 3305TIP3    H1 9921   2.334   0.124   3.187
 3305TIP3    H2 9922   2.363  -0.013   3.131
 3306TIP3   OH2 9923   2.616   5.856   4.322
 3306TIP3    H1 9924   2.653   5.901   4.247
 3306TIP3    H2 9925   2.558   5.790   4.284
 3307TIP3   OH2 9926   5.125   3.977   1.736
 3307TIP3    H1 9927   5.113   3.923   1.658
 3307TIP3    H2 9928   5.184   3.926   1.792
 3308TIP3   OH2 9929   6.145   5.074   2.577
 3308TIP3    H1 9930   6.056   5.109   2.568
 3308TIP3    H2 9931   6.133   4.981   2.595
 3309TIP3   OH2 9932   5.912   4.122   1.583
 3309TIP3    H1 9933   5.954   4.066   1.518
 3309TIP3    H2 9934   5.973   4.195   1.595
 3310TIP3   OH2 9935   2.585   1.276   0.252
 3310TIP3    H1 9936   2.526   1.202   0.267
 3310TIP3    H2 9937   2.528   1.350   0.234
 3311TIP3   OH2 9938   0.653   2.185   3.221
 3311TIP3    H1 9939   0.586   2.124   3.189
 3311TIP3    H2 9940   0.731   2.163   3.169
 3312TIP3   OH2 9941   1.978   1.194   0.369
 3312TIP3    H1 9942   2.045   1.244   0.323
 3312TIP3    H2 9943   1.947   1.131   0.303
 3313TIP3   OH2 9944   5.851   5.285   3.970
 3313TIP3    H1 9945   5.782   5.251   3.913
 3313TIP3    H2 9946   5.805   5.317   4.047
 3314TIP3   OH2 9947   0.718   5.722   0.301
 3314TIP3    H1 9948   0.739   5.665   0.375
 3314TIP3    H2 9949   0.734   5.811   0.333
 3315TIP3   OH2 9950   5.544   2.453   5.092
 3315TIP3    H1 9951   5.480   2.382   5.084
 3315TIP3    H2 9952   5.621   2.412   5.132
 3316TIP3   OH2 9953   6.244   0.420   2.621
 3316TIP3    H1 9954   6.267   0.342   2.672
 3316TIP3    H2 9955   6.176   0.390   2.561
 3317TIP3   OH2 9956   4.972   3.331   3.871
 3317TIP3    H1 9957   4.914   3.399   3.838
 3317TIP3    H2 9958   4.991   3.356   3.961
 3318TIP3   OH2 9959   1.105   4.246   3.374
 3318TIP3    H1 9960   1.080   4.175   3.315
 3318TIP3    H2 9961   1.110   4.323   3.318
 3319TIP3   OH2 9962   2.105   4.850   2.060
 3319TIP3    H1 9963   2.025   4.902   2.061
 3319TIP3    H2 9964   2.173   4.909   2.028
 3320TIP3   OH2 9965   1.148   4.251   0.277
 3320TIP3    H1 9966   1.164   4.282   0.366
 3320TIP3    H2 9967   1.210   4.301   0.223
 3321TIP3   OH2 9968   4.971   5.780   2.650
 3321TIP3    H1 9969   5.025   5.834   2.592
 3321TIP3    H2 9970   4.951   5.702   2.599
 3322TIP3   OH2 9971   0.684   4.825   3.471
 3322TIP3    H1 9972   0.648   4.905   3.510
 3322TIP3    H2 9973   0.771   4.817   3.508
 3323TIP3   OH2 9974   0.198   2.995   2.184
 3323TIP3    H1 9975   0.188   2.917   2.131
 3323TIP3    H2 9976   0.122   3.049   2.161
 3324TIP3   OH2 9977   2.670   4.563   2.399
 3324TIP3    H1 9978   2.750   4.585   2.447
 3324TIP3    H2 9979   2.601   4.563   2.465
 3325TIP3   OH2 9980   4.073   3.823   0.380
 3325TIP3    H1 9981   4.075   3.754   0.314
 3325TIP3    H2 9982   4.037   3.899   0.335
 3326TIP3   OH2 9983   0.218   5.149   5.184
 3326TIP3    H1 9984   0.178   5.137   5.098
 3326TIP3    H2 9985   0.280   5.221   5.171
 3327TIP3   OH2 9986   0.734   3.552   1.265
 3327TIP3    H1 9987   0.685   3.573   1.345
 3327TIP3    H2 9988   0.679   3.586   1.194
 3328TIP3   OH2 9989   5.225   0.993   3.958
 3328TIP3    H1 9990   5.151   0.932   3.968
 3328TIP3    H2 9991   5.299   0.937   3.935
 3329TIP3   OH2 9992   4.052   5.486   2.267
 3329TIP3    H1 9993   4.119   5.541   2.306
 3329TIP3    H2 9994   3.987   5.475   2.337
 3330TIP3   OH2 9995   4.763   0.502   4.834
 3330TIP3    H1 9996   4.822   0.577   4.836
 3330TIP3    H2 9997   4.677   0.538   4.854
 3331TIP3   OH2 9998   2.028   4.729   0.255
 3331TIP3    H1 9999   2.038   4.774   0.172
 3331TIP3    H210000   2.116   4.727   0.293
 3332TIP3   OH210001   1.324   1.643   1.373
 3332TIP3    H110002   1.407   1.611   1.338
 3332TIP3    H210003   1.346   1.677   1.460
 3333TIP3   OH210004   0.910   3.801   4.333
 3333TIP3    H110005   0.821   3.832   4.350
 3333TIP3    H210006   0.916   3.795   4.237
 3334TIP3   OH210007   4.705   5.374   2.563
 3334TIP3    H110008   4.622   5.335   2.536
 3334TIP3    H210009   4.768   5.349   2.495
 3335TIP3   OH210010   0.839   2.940   1.500
 3335TIP3    H110011   0.793   2.865   1.463
 3335TIP3    H210012   0.805   3.015   1.452
 3336TIP3   OH210013   0.713   0.705   1.133
 3336TIP3    H110014   0.685   0.746   1.052
 3336TIP3    H210015   0.632   0.675   1.174
 3337TIP3   OH210016   4.294   3.219   2.924
 3337TIP3    H110017   4.253   3.273   2.856
 3337TIP3    H210018   4.384   3.252   2.929
 3338TIP3   OH210019   4.422   4.779   2.631
 3338TIP3    H110020   4.513   4.758   2.609
 3338TIP3    H210021   4.398   4.848   2.570
 3339TIP3   OH210022   1.518   5.443   2.443
 3339TIP3    H110023   1.455   5.387   2.397
 3339TIP3    H210024   1.537   5.395   2.524
 3340TIP3   OH210025   0.106   2.724   4.602
 3340TIP3    H110026   0.119   2.636   4.567
 3340TIP3    H210027   0.194   2.757   4.618
 3341TIP3   OH210028   1.413   1.582   0.226
 3341TIP3    H110029   1.493   1.613   0.184
 3341TIP3    H210030   1.410   1.489   0.207
 3342TIP3   OH210031   4.335   4.129   2.700
 3342TIP3    H110032   4.283   4.077   2.762
 3342TIP3    H210033   4.405   4.070   2.673
 3343TIP3   OH210034   4.034   3.448   0.589
 3343TIP3    H110035   3.944   3.433   0.618
 3343TIP3    H210036   4.083   3.372   0.620
 3344TIP3   OH210037   3.148   1.885   0.165
 3344TIP3    H110038   3.212   1.866   0.097
 3344TIP3    H210039   3.113   1.800   0.191
 3345TIP3   OH210040   1.829   5.393   3.484
 3345TIP3    H110041   1.777   5.356   3.555
 3345TIP3    H210042   1.828   5.327   3.416
 3346TIP3   OH210043   3.402   2.890   1.304
 3346TIP3    H110044   3.491   2.906   1.336
 3346TIP3    H210045   3.354   2.969   1.327
 3347TIP3   OH210046   5.835   1.891   3.383
 3347TIP3    H110047   5.836   1.828   3.455
 3347TIP3    H210048   5.857   1.838   3.305
 3348TIP3   OH210049   1.858   3.346   3.292
 3348TIP3    H110050   1.774   3.327   3.249
 3348TIP3    H210051   1.836   3.354   3.385
 3349TIP3   OH210052   4.691   5.594   4.535
 3349TIP3    H110053   4.622   5.527   4.540
 3349TIP3    H210054   4.758   5.564   4.595
 3350TIP3   OH210055   1.562   2.862   0.093
 3350TIP3    H110056   1.613   2.927   0.044
 3350TIP3    H210057   1.620   2.786   0.100
 3351TIP3   OH210058   6.346   0.580   2.067
 3351TIP3    H110059   6.268   0.606   2.019
 3351TIP3    H210060   6.384   0.510   2.014
 3352TIP3   OH210061   2.525   2.870   5.153
 3352TIP3    H110062   2.479   2.936   5.102
 3352TIP3    H210063   2.574   2.820   5.088
 3353TIP3   OH210064   3.304   2.583   3.713
 3353TIP3    H110065   3.285   2.653   3.650
 3353TIP3    H210066   3.219   2.540   3.726
 3354TIP3   OH210067   4.885   1.384   2.407
 3354TIP3    H110068   4.841   1.299   2.411
 3354TIP3    H210069   4.977   1.363   2.395
 3355TIP3   OH210070   2.876   4.605   2.576
 3355TIP3    H110071   2.942   4.539   2.552
 3355TIP3    H210072   2.878   4.607   2.672
 3356TIP3   OH210073  -0.035   2.099   3.960
 3356TIP3    H110074   0.017   2.020   3.973
 3356TIP3    H210075  -0.003   2.160   4.027
 3357TIP3   OH210076   0.491   5.221   2.519
 3357TIP3    H110077   0.560   5.226   2.586
 3357TIP3    H210078   0.423   5.167   2.560
 3358TIP3   OH210079   0.187   2.367   0.226
 3358TIP3    H110080   0.229   2.283   0.206
 3358TIP3    H210081   0.098   2.358   0.190
 3359TIP3   OH210082   2.178   2.207   4.600
 3359TIP3    H110083   2.163   2.140   4.667
 3359TIP3    H210084   2.234   2.272   4.643
 3360TIP3   OH210085   1.296   3.511   0.150
 3360TIP3    H110086   1.334   3.586   0.195
 3360TIP3    H210087   1.232   3.548   0.090
 3361TIP3   OH210088   0.154   1.918   3.989
 3361TIP3    H110089   0.153   1.822   3.987
 3361TIP3    H210090   0.180   1.942   3.900
 3362TIP3   OH210091   0.444   4.928   1.236
 3362TIP3    H110092   0.361   4.974   1.222
 3362TIP3    H210093   0.419   4.839   1.260
 3363TIP3   OH210094   3.920   1.614   0.890
 3363TIP3    H110095   3.983   1.678   0.857
 3363TIP3    H210096   3.950   1.595   0.980
 3364TIP3   OH210097   2.352   0.232   3.492
 3364TIP3    H110098   2.385   0.297   3.430
 3364TIP3    H210099   2.420   0.165   3.495
 3365TIP3   OH210100   2.941   4.785   4.176
 3365TIP3    H110101   2.869   4.829   4.131
 3365TIP3    H210102   2.950   4.701   4.132
 3366TIP3   OH210103   5.098   5.656   4.616
 3366TIP3    H110104   5.145   5.622   4.692
 3366TIP3    H210105   5.123   5.599   4.544
 3367TIP3   OH210106   0.593   4.579   4.890
 3367TIP3    H110107   0.502   4.604   4.875
 3367TIP3    H210108   0.613   4.615   4.976
 3368TIP3   OH210109   0.854   0.568   3.172
 3368TIP3    H110110   0.816   0.502   3.115
 3368TIP3    H210111   0.779   0.616   3.208
 3369TIP3   OH210112   4.658   2.625   4.004
 3369TIP3    H110113   4.608   2.567   3.947
 3369TIP3    H210114   4.749   2.596   3.993
 3370TIP3   OH210115   3.578   5.677   3.409
 3370TIP3    H110116   3.509   5.644   3.467
 3370TIP3    H210117   3.656   5.679   3.464
 3371TIP3   OH210118   0.828   1.529   5.132
 3371TIP3    H110119   0.900   1.490   5.181
 3371TIP3    H210120   0.751   1.481   5.161
 3372TIP3   OH210121   0.596   4.150   3.303
 3372TIP3    H110122   0.573   4.113   3.388
 3372TIP3    H210123   0.677   4.198   3.319
 3373TIP3   OH210124   5.854   0.488   2.884
 3373TIP3    H110125   5.850   0.490   2.788
 3373TIP3    H210126   5.837   0.397   2.907
 3374TIP3   OH210127   3.783   4.069   4.200
 3374TIP3    H110128   3.785   4.163   4.183
 3374TIP3    H210129   3.875   4.043   4.197
 3375TIP3   OH210130   4.616   2.849   3.185
 3375TIP3    H110131   4.618   2.765   3.140
 3375TIP3    H210132   4.632   2.913   3.116
 3376TIP3   OH210133   2.934   0.396   2.321
 3376TIP3    H110134   2.904   0.441   2.400
 3376TIP3    H210135   2.962   0.466   2.263
 3377TIP3   OH210136   2.484   5.037   4.496
 3377TIP3    H110137   2.554   5.102   4.500
 3377TIP3    H210138   2.521   4.963   4.449
 3378TIP3   OH210139   4.162   2.445   1.352
 3378TIP3    H110140   4.226   2.505   1.390
 3378TIP3    H210141   4.168   2.367   1.407
 3379TIP3   OH210142   4.588   4.921   0.667
 3379TIP3    H110143   4.656   4.930   0.734
 3379TIP3    H210144   4.516   4.975   0.698
 3380TIP3   OH210145   6.389   5.596   4.435
 3380TIP3    H110146   6.341   5.631   4.359
 3380TIP3    H210147   6.388   5.668   4.498
 3381TIP3   OH210148   1.650   5.756   3.850
 3381TIP3    H110149   1.626   5.690   3.786
 3381TIP3    H210150   1.709   5.815   3.804
 3382TIP3   OH210151   5.412   1.412   3.818
 3382TIP3    H110152   5.335   1.452   3.776
 3382TIP3    H210153   5.462   1.374   3.745
 3383TIP3   OH210154   1.147   5.637   3.647
 3383TIP3    H110155   1.178   5.614   3.734
 3383TIP3    H210156   1.156   5.732   3.642
 3384TIP3   OH210157   2.291   3.021   4.739
 3384TIP3    H110158   2.295   3.080   4.664
 3384TIP3    H210159   2.201   3.030   4.771
 3385TIP3   OH210160   5.384   0.069   0.509
 3385TIP3    H110161   5.326   0.141   0.488
 3385TIP3    H210162   5.381   0.012   0.432
 3386TIP3   OH210163   5.029   2.386   4.345
 3386TIP3    H110164   5.099   2.431   4.392
 3386TIP3    H210165   4.949   2.426   4.379
 3387TIP3   OH210166   4.090   0.406   0.004
 3387TIP3    H110167   4.172   0.401  -0.044
 3387TIP3    H210168   4.094   0.491   0.049
 3388TIP3   OH210169   2.322   3.733   0.823
 3388TIP3    H110170   2.388   3.679   0.780
 3388TIP3    H210171   2.238   3.696   0.794
 3389TIP3   OH210172   5.193   1.560   0.140
 3389TIP3    H110173   5.219   1.474   0.172
 3389TIP3    H210174   5.157   1.543   0.053
 3390TIP3   OH210175   1.767   3.880   1.645
 3390TIP3    H110176   1.758   3.954   1.585
 3390TIP3    H210177   1.830   3.910   1.711
 3391TIP3   OH210178   3.428   4.697   2.194
 3391TIP3    H110179   3.378   4.619   2.217
 3391TIP3    H210180   3.407   4.760   2.263
 3392TIP3   OH210181   2.471   4.911   2.692
 3392TIP3    H110182   2.435   4.834   2.737
 3392TIP3    H210183   2.526   4.874   2.623
 3393TIP3   OH210184   0.019   0.574   0.607
 3393TIP3    H110185   0.086   0.631   0.647
 3393TIP3    H210186  -0.003   0.618   0.525
 3394TIP3   OH210187   5.678   2.391   2.395
 3394TIP3    H110188   5.767   2.419   2.416
 3394TIP3    H210189   5.627   2.472   2.394
 3395TIP3   OH210190   3.101   2.100   4.174
 3395TIP3    H110191   3.056   2.116   4.257
 3395TIP3    H210192   3.159   2.176   4.164
 3396TIP3   OH210193   3.706   5.831   2.242
 3396TIP3    H110194   3.653   5.756   2.271
 3396TIP3    H210195   3.782   5.791   2.199
 3397TIP3   OH210196   1.649   4.335   4.587
 3397TIP3    H110197   1.592   4.296   4.654
 3397TIP3    H210198   1.686   4.260   4.541
 3398TIP3   OH210199   4.249   4.642   1.777
 3398TIP3    H110200   4.155   4.655   1.792
 3398TIP3    H210201   4.272   4.705   1.710
 3399TIP3   OH210202   6.277   2.341   3.313
 3399TIP3    H110203   6.303   2.392   3.389
 3399TIP3    H210204   6.250   2.256   3.349
 3400TIP3   OH210205   4.718   0.767   2.000
 3400TIP3    H110206   4.698   0.854   1.965
 3400TIP3    H210207   4.726   0.780   2.094
 3401TIP3   OH210208   4.698   3.306   0.646
 3401TIP3    H110209   4.683   3.295   0.552
 3401TIP3    H210210   4.622   3.267   0.688
 3402TIP3   OH210211   3.188   0.920   3.191
 3402TIP3    H110212   3.269   0.893   3.146
 3402TIP3    H210213   3.178   0.857   3.262
 3403TIP3   OH210214   2.520   0.953   3.938
 3403TIP3    H110215   2.591   0.946   4.003
 3403TIP3    H210216   2.533   0.877   3.881
 3404TIP3   OH210217   3.119   4.652   4.793
 3404TIP3    H110218   3.148   4.562   4.776
 3404TIP3    H210219   3.182   4.687   4.855
 3405TIP3   OH210220   2.599   5.643   1.065
 3405TIP3    H110221   2.638   5.627   1.151
 3405TIP3    H210222   2.563   5.732   1.071
 3406TIP3   OH210223   4.985   3.411   1.152
 3406TIP3    H110224   5.005   3.363   1.072
 3406TIP3    H210225   5.017   3.355   1.222
 3407TIP3   OH210226   3.100   5.436   1.434
 3407TIP3    H110227   3.109   5.498   1.362
 3407TIP3    H210228   3.027   5.380   1.409
 3408TIP3   OH210229   6.155   3.046   0.377
 3408TIP3    H110230   6.207   2.981   0.330
 3408TIP3    H210231   6.113   2.997   0.448
 3409TIP3   OH210232   2.364   4.337   2.683
 3409TIP3    H110233   2.321   4.308   2.764
 3409TIP3    H210234   2.307   4.307   2.613
 3410TIP3   OH210235   5.304   4.623   0.099
 3410TIP3    H110236   5.322   4.709   0.137
 3410TIP3    H210237   5.222   4.634   0.051
 3411TIP3   OH210238   0.337   5.402   5.172
 3411TIP3    H110239   0.426   5.423   5.201
 3411TIP3    H210240   0.338   5.418   5.078
 3412TIP3   OH210241   0.823   4.343   2.654
 3412TIP3    H110242   0.827   4.426   2.606
 3412TIP3    H210243   0.822   4.276   2.585
 3413TIP3   OH210244   6.162   2.787   0.116
 3413TIP3    H110245   6.126   2.698   0.114
 3413TIP3    H210246   6.198   2.799   0.028
 3414TIP3   OH210247   5.850   3.978   3.555
 3414TIP3    H110248   5.946   3.973   3.557
 3414TIP3    H210249   5.831   4.031   3.478
 3415TIP3   OH210250   4.722   1.478   2.926
 3415TIP3    H110251   4.725   1.387   2.897
 3415TIP3    H210252   4.805   1.515   2.896
 3416TIP3   OH210253   3.080   1.689   2.414
 3416TIP3    H110254   3.169   1.654   2.418
 3416TIP3    H210255   3.024   1.616   2.439
 3417TIP3   OH210256   5.002   2.126   1.222
 3417TIP3    H110257   5.053   2.134   1.302
 3417TIP3    H210258   4.968   2.037   1.224
 3418TIP3   OH210259   3.365   4.959   1.816
 3418TIP3    H110260   3.381   4.938   1.725
 3418TIP3    H210261   3.429   4.907   1.865
 3419TIP3   OH210262   0.182   2.486   2.273
 3419TIP3    H110263   0.182   2.390   2.272
 3419TIP3    H210264   0.176   2.510   2.365
 3420TIP3   OH210265   3.453   0.737   1.995
 3420TIP3    H110266   3.535   0.734   2.045
 3420TIP3    H210267   3.384   0.730   2.061
 3421TIP3   OH210268   5.735   0.949   4.297
 3421TIP3    H110269   5.688   0.892   4.359
 3421TIP3    H210270   5.666   1.002   4.257
 3422TIP3   OH210271   5.524   4.282   1.875
 3422TIP3    H110272   5.430   4.287   1.855
 3422TIP3    H210273   5.539   4.347   1.943
 3423TIP3   OH210274   2.947   2.711   1.584
 3423TIP3    H110275   2.973   2.800   1.609
 3423TIP3    H210276   3.011   2.684   1.519
 3424TIP3   OH210277   4.220   2.092   1.802
 3424TIP3    H110278   4.141   2.108   1.750
 3424TIP3    H210279   4.203   2.008   1.845
 3425TIP3   OH210280   1.280   2.651   1.124
 3425TIP3    H110281   1.240   2.614   1.202
 3425TIP3    H210282   1.261   2.586   1.055
 3426TIP3   OH210283   2.476   1.952   0.365
 3426TIP3    H110284   2.399   1.933   0.311
 3426TIP3    H210285   2.480   1.880   0.427
 3427TIP3   OH210286   5.412   3.301   1.265
 3427TIP3    H110287   5.460   3.221   1.283
 3427TIP3    H210288   5.472   3.355   1.213
 3428TIP3   OH210289   1.102   0.119   2.290
 3428TIP3    H110290   1.075   0.165   2.211
 3428TIP3    H210291   1.068   0.171   2.363
 3429TIP3   OH210292   5.498   1.569   0.529
 3429TIP3    H110293   5.516   1.517   0.451
 3429TIP3    H210294   5.585   1.594   0.561
 3430TIP3   OH210295   1.313   5.901   3.309
 3430TIP3    H110296   1.237   5.847   3.287
 3430TIP3    H210297   1.274   5.984   3.339
 3431TIP3   OH210298   2.489   5.992   4.722
 3431TIP3    H110299   2.484   6.086   4.701
 3431TIP3    H210300   2.449   5.949   4.646
 3432TIP3   OH210301   1.779   4.688   3.077
 3432TIP3    H110302   1.740   4.601   3.085
 3432TIP3    H210303   1.798   4.698   2.984
 3433TIP3   OH210304   5.285   0.632   1.374
 3433TIP3    H110305   5.247   0.618   1.460
 3433TIP3    H210306   5.365   0.682   1.391
 3434TIP3   OH210307   3.003   4.267   4.196
 3434TIP3    H110308   3.020   4.336   4.260
 3434TIP3    H210309   2.943   4.307   4.133
 3435TIP3   OH210310   2.387   5.767   2.136
 3435TIP3    H110311   2.341   5.704   2.082
 3435TIP3    H210312   2.359   5.853   2.104
 3436TIP3   OH210313   4.739   0.662   5.152
 3436TIP3    H110314   4.805   0.593   5.145
 3436TIP3    H210315   4.658   0.616   5.173
 3437TIP3   OH210316   1.760   3.829   2.907
 3437TIP3    H110317   1.723   3.896   2.964
 3437TIP3    H210318   1.688   3.803   2.850
 3438TIP3   OH210319   0.367   0.154   1.673
 3438TIP3    H110320   0.363   0.060   1.692
 3438TIP3    H210321   0.279   0.186   1.694
 3439TIP3   OH210322   2.774   5.064   1.574
 3439TIP3    H110323   2.779   5.007   1.496
 3439TIP3    H210324   2.691   5.042   1.615
 3440TIP3   OH210325   4.993   3.067   3.867
 3440TIP3    H110326   4.901   3.051   3.846
 3440TIP3    H210327   5.007   3.159   3.847
 3441TIP3   OH210328   1.976   0.368   3.679
 3441TIP3    H110329   1.963   0.412   3.595
 3441TIP3    H210330   1.887   0.345   3.708
 3442TIP3   OH210331   5.694   5.075   4.262
 3442TIP3    H110332   5.728   5.129   4.334
 3442TIP3    H210333   5.769   5.024   4.233
 3443TIP3   OH210334   5.242   3.112   1.575
 3443TIP3    H110335   5.245   3.208   1.580
 3443TIP3    H210336   5.300   3.090   1.503
 3444TIP3   OH210337   1.663   2.810   3.096
 3444TIP3    H110338   1.596   2.760   3.049
 3444TIP3    H210339   1.745   2.789   3.051
 3445TIP3   OH210340   2.694   2.625   5.045
 3445TIP3    H110341   2.771   2.582   5.081
 3445TIP3    H210342   2.728   2.690   4.984
 3446TIP3   OH210343   1.356   4.180   0.744
 3446TIP3    H110344   1.280   4.193   0.688
 3446TIP3    H210345   1.330   4.110   0.804
 3447TIP3   OH210346   3.449   4.128   1.755
 3447TIP3    H110347   3.353   4.128   1.765
 3447TIP3    H210348   3.466   4.060   1.689
 3448TIP3   OH210349   1.508   2.669   2.615
 3448TIP3    H110350   1.483   2.634   2.529
 3448TIP3    H210351   1.602   2.651   2.622
 3449TIP3   OH210352   3.094   0.039   2.525
 3449TIP3    H110353   3.013   0.074   2.487
 3449TIP3    H210354   3.096   0.075   2.613
 3450TIP3   OH210355   5.334   0.413   2.027
 3450TIP3    H110356   5.318   0.320   2.010
 3450TIP3    H210357   5.309   0.458   1.947
 3451TIP3   OH210358   1.479   3.434   1.009
 3451TIP3    H110359   1.429   3.472   0.937
 3451TIP3    H210360   1.454   3.341   1.009
 3452TIP3   OH210361   4.853   3.178   0.151
 3452TIP3    H110362   4.860   3.270   0.177
 3452TIP3    H210363   4.787   3.177   0.082
 3453TIP3   OH210364   3.054   3.712   3.012
 3453TIP3    H110365   3.095   3.782   3.062
 3453TIP3    H210366   2.998   3.667   3.075
 3454TIP3   OH210367   4.699   0.458   2.800
 3454TIP3    H110368   4.658   0.449   2.713
 3454TIP3    H210369   4.786   0.421   2.789
 3455TIP3   OH210370   3.686   4.916   0.368
 3455TIP3    H110371   3.757   4.893   0.427
 3455TIP3    H210372   3.715   4.997   0.326
 3456TIP3   OH210373   4.740   4.863   4.367
 3456TIP3    H110374   4.804   4.934   4.359
 3456TIP3    H210375   4.792   4.787   4.395
 3457TIP3   OH210376   5.889   1.973   3.935
 3457TIP3    H110377   5.799   1.953   3.962
 3457TIP3    H210378   5.905   2.061   3.970
 3458TIP3   OH210379   2.526   0.709   2.795
 3458TIP3    H110380   2.480   0.793   2.798
 3458TIP3    H210381   2.583   0.710   2.872
 3459TIP3   OH210382   5.347   2.086   3.457
 3459TIP3    H110383   5.422   2.089   3.398
 3459TIP3    H210384   5.385   2.095   3.544
 3460TIP3   OH210385   1.586   4.946   4.591
 3460TIP3    H110386   1.529   4.930   4.667
 3460TIP3    H210387   1.532   4.922   4.516
 3461TIP3   OH210388   3.332   4.679   1.673
 3461TIP3    H110389   3.388   4.750   1.642
 3461TIP3    H210390   3.306   4.633   1.593
 3462TIP3   OH210391   2.308   5.733   4.700
 3462TIP3    H110392   2.330   5.818   4.661
 3462TIP3    H210393   2.392   5.698   4.729
 3463TIP3   OH210394   4.392   1.029   2.412
 3463TIP3    H110395   4.337   1.082   2.354
 3463TIP3    H210396   4.412   0.951   2.361
 3464TIP3   OH210397   6.301   1.848   2.848
 3464TIP3    H110398   6.306   1.812   2.760
 3464TIP3    H210399   6.208   1.866   2.862
 3465TIP3   OH210400   5.397   0.659   5.168
 3465TIP3    H110401   5.460   0.729   5.153
 3465TIP3    H210402   5.317   0.704   5.196
 3466TIP3   OH210403   6.237   0.131   4.857
 3466TIP3    H110404   6.163   0.181   4.892
 3466TIP3    H210405   6.235   0.147   4.763
 3467TIP3   OH210406   1.364   0.400   4.602
 3467TIP3    H110407   1.416   0.479   4.614
 3467TIP3    H210408   1.330   0.381   4.689
 3468TIP3   OH210409   4.009   4.989   1.114
 3468TIP3    H110410   3.963   5.073   1.113
 3468TIP3    H210411   4.066   4.993   1.037
 3469TIP3   OH210412   2.200   3.670   3.359
 3469TIP3    H110413   2.282   3.681   3.311
 3469TIP3    H210414   2.151   3.750   3.342
 3470TIP3   OH210415   0.629   5.430   3.211
 3470TIP3    H110416   0.666   5.397   3.129
 3470TIP3    H210417   0.705   5.446   3.267
 3471TIP3   OH210418   5.214   5.440   0.478
 3471TIP3    H110419   5.248   5.458   0.566
 3471TIP3    H210420   5.124   5.471   0.480
 3472TIP3   OH210421   3.682   0.079   1.044
 3472TIP3    H110422   3.685  -0.016   1.032
 3472TIP3    H210423   3.770   0.102   1.074
 3473TIP3   OH210424   1.401   3.284   3.110
 3473TIP3    H110425   1.398   3.195   3.144
 3473TIP3    H210426   1.324   3.291   3.054
 3474TIP3   OH210427   4.243   1.501   3.111
 3474TIP3    H110428   4.334   1.532   3.109
 3474TIP3    H210429   4.233   1.462   3.198
 3475TIP3   OH210430   3.103   0.800   0.929
 3475TIP3    H110431   3.133   0.859   0.859
 3475TIP3    H210432   3.184   0.767   0.968
 3476TIP3   OH210433   2.083   5.695   2.664
 3476TIP3    H110434   2.112   5.780   2.697
 3476TIP3    H210435   1.989   5.692   2.684
 3477TIP3   OH210436   3.386   0.831   1.363
 3477TIP3    H110437   3.383   0.926   1.352
 3477TIP3    H210438   3.468   0.804   1.321
 3478TIP3   OH210439   4.552   2.391   5.130
 3478TIP3    H110440   4.463   2.397   5.094
 3478TIP3    H210441   4.549   2.442   5.210
 3479TIP3   OH210442   1.191   1.754   2.091
 3479TIP3    H110443   1.221   1.663   2.098
 3479TIP3    H210444   1.097   1.750   2.112
 3480TIP3   OH210445   2.317   1.429   2.664
 3480TIP3    H110446   2.274   1.472   2.738
 3480TIP3    H210447   2.399   1.478   2.653
 3481TIP3   OH210448   1.847   0.444   1.150
 3481TIP3    H110449   1.766   0.422   1.104
 3481TIP3    H210450   1.898   0.363   1.147
 3482TIP3   OH210451   1.752   0.201   1.734
 3482TIP3    H110452   1.826   0.165   1.783
 3482TIP3    H210453   1.691   0.230   1.801
 3483TIP3   OH210454   0.485   3.013   0.887
 3483TIP3    H110455   0.540   2.939   0.912
 3483TIP3    H210456   0.432   3.031   0.965
 3484TIP3   OH210457   0.200   0.269   1.041
 3484TIP3    H110458   0.138   0.220   0.987
 3484TIP3    H210459   0.193   0.229   1.128
 3485TIP3   OH210460   4.830   0.658   3.387
 3485TIP3    H110461   4.861   0.726   3.327
 3485TIP3    H210462   4.834   0.577   3.336
 3486TIP3   OH210463   1.168   0.291   0.380
 3486TIP3    H110464   1.254   0.269   0.416
 3486TIP3    H210465   1.116   0.211   0.392
 3487TIP3   OH210466   2.268   1.039   1.618
 3487TIP3    H110467   2.223   0.971   1.669
 3487TIP3    H210468   2.246   1.120   1.663
 3488TIP3   OH210469   4.896   0.679   0.177
 3488TIP3    H110470   4.900   0.774   0.164
 3488TIP3    H210471   4.912   0.642   0.089
 3489TIP3   OH210472   2.248   1.081   2.463
 3489TIP3    H110473   2.201   1.059   2.382
 3489TIP3    H210474   2.207   1.161   2.494
 3490TIP3   OH210475   0.436   2.246   0.030
 3490TIP3    H110476   0.454   2.173  -0.030
 3490TIP3    H210477   0.504   2.238   0.098
 3491TIP3   OH210478   3.934   0.274   5.055
 3491TIP3    H110479   4.014   0.281   5.107
 3491TIP3    H210480   3.871   0.232   5.114
 3492TIP3   OH210481   5.089   5.725   0.511
 3492TIP3    H110482   5.030   5.763   0.446
 3492TIP3    H210483   5.168   5.778   0.506
 3493TIP3   OH210484   3.568   5.616   2.368
 3493TIP3    H110485   3.542   5.644   2.456
 3493TIP3    H210486   3.507   5.546   2.346
 3494TIP3   OH210487   3.153   1.433   3.887
 3494TIP3    H110488   3.168   1.498   3.818
 3494TIP3    H210489   3.079   1.467   3.937
 3495TIP3   OH210490   1.880   2.017   4.486
 3495TIP3    H110491   1.924   2.094   4.450
 3495TIP3    H210492   1.840   2.049   4.568
 3496TIP3   OH210493   4.956   2.324   0.898
 3496TIP3    H110494   4.993   2.238   0.921
 3496TIP3    H210495   4.989   2.383   0.965
 3497TIP3   OH210496   1.949   1.775   2.904
 3497TIP3    H110497   2.034   1.730   2.902
 3497TIP3    H210498   1.889   1.715   2.860
 3498TIP3   OH210499   3.358   3.826   1.739
 3498TIP3    H110500   3.377   3.747   1.688
 3498TIP3    H210501   3.433   3.883   1.725
 3499TIP3   OH210502   2.015   2.898   5.192
 3499TIP3    H110503   2.082   2.959   5.221
 3499TIP3    H210504   2.056   2.847   5.122
 3500TIP3   OH210505   5.010   3.774   4.165
 3500TIP3    H110506   5.065   3.707   4.125
 3500TIP3    H210507   4.932   3.726   4.194
 3501TIP3   OH210508   5.499   0.930   5.102
 3501TIP3    H110509   5.521   0.977   5.021
 3501TIP3    H210510   5.426   0.980   5.139
 3502TIP3   OH210511   4.070   1.582   4.125
 3502TIP3    H110512   4.128   1.608   4.197
 3502TIP3    H210513   4.023   1.662   4.102
 3503TIP3   OH210514   5.570   4.544   0.524
 3503TIP3    H110515   5.566   4.477   0.455
 3503TIP3    H210516   5.659   4.579   0.517
 3504TIP3   OH210517   0.594   4.714   2.206
 3504TIP3    H110518   0.619   4.629   2.241
 3504TIP3    H210519   0.581   4.698   2.113
 3505TIP3   OH210520   2.918   5.838   1.409
 3505TIP3    H110521   2.852   5.861   1.474
 3505TIP3    H210522   3.001   5.865   1.449
 3506TIP3   OH210523   5.070   5.596   1.674
 3506TIP3    H110524   5.066   5.503   1.698
 3506TIP3    H210525   4.980   5.626   1.678
 3507TIP3   OH210526   0.438   2.065   0.809
 3507TIP3    H110527   0.344   2.053   0.797
 3507TIP3    H210528   0.477   1.987   0.769
 3508TIP3   OH210529   4.525   1.747   2.216
 3508TIP3    H110530   4.586   1.678   2.241
 3508TIP3    H210531   4.458   1.745   2.284
 3509TIP3   OH210532   4.189   3.249   3.585
 3509TIP3    H110533   4.140   3.203   3.653
 3509TIP3    H210534   4.124   3.302   3.539
 3510TIP3   OH210535   4.881   4.999   2.504
 3510TIP3    H110536   4.834   4.986   2.421
 3510TIP3    H210537   4.950   5.061   2.482
 3511TIP3   OH210538   0.291   3.227   1.015
 3511TIP3    H110539   0.325   3.301   0.965
 3511TIP3    H210540   0.356   3.214   1.084
 3512TIP3   OH210541   2.926   4.580   2.869
 3512TIP3    H110542   2.976   4.515   2.917
 3512TIP3    H210543   2.993   4.635   2.826
 3513TIP3   OH210544   3.398   0.131   1.421
 3513TIP3    H110545   3.305   0.142   1.437
 3513TIP3    H210546   3.405   0.051   1.370
 3514TIP3   OH210547   3.249   2.239   2.742
 3514TIP3    H110548   3.195   2.161   2.745
 3514TIP3    H210549   3.224   2.289   2.820
 3515TIP3   OH210550   1.745   5.264   1.729
 3515TIP3    H110551   1.773   5.202   1.797
 3515TIP3    H210552   1.779   5.227   1.647
 3516TIP3   OH210553   3.842   4.127   4.498
 3516TIP3    H110554   3.752   4.102   4.520
 3516TIP3    H210555   3.836   4.162   4.409
 3517TIP3   OH210556   4.393   2.418   1.144
 3517TIP3    H110557   4.453   2.458   1.081
 3517TIP3    H210558   4.317   2.477   1.145
 3518TIP3   OH210559   5.962   0.317   3.554
 3518TIP3    H110560   5.903   0.389   3.530
 3518TIP3    H210561   5.907   0.257   3.605
 3519TIP3   OH210562   0.673   2.207   0.832
 3519TIP3    H110563   0.687   2.236   0.742
 3519TIP3    H210564   0.584   2.172   0.833
 3520TIP3   OH210565   1.248   2.113   1.206
 3520TIP3    H110566   1.257   2.136   1.299
 3520TIP3    H210567   1.299   2.033   1.196
 3521TIP3   OH210568   1.434   2.877   0.588
 3521TIP3    H110569   1.397   2.797   0.625
 3521TIP3    H210570   1.494   2.846   0.520
 3522TIP3   OH210571   0.778   1.828   5.036
 3522TIP3    H110572   0.873   1.839   5.043
 3522TIP3    H210573   0.767   1.744   4.991
 3523TIP3   OH210574   0.432   2.360   0.671
 3523TIP3    H110575   0.427   2.282   0.615
 3523TIP3    H210576   0.504   2.411   0.633
 3524TIP3   OH210577   3.553   4.087   4.597
 3524TIP3    H110578   3.518   4.177   4.593
 3524TIP3    H210579   3.490   4.040   4.652
 3525TIP3   OH210580   4.651   5.563   0.721
 3525TIP3    H110581   4.569   5.588   0.678
 3525TIP3    H210582   4.718   5.578   0.655
 3526TIP3   OH210583   2.597   4.305   1.749
 3526TIP3    H110584   2.563   4.332   1.664
 3526TIP3    H210585   2.664   4.240   1.730
 3527TIP3   OH210586   1.208   3.927   1.638
 3527TIP3    H110587   1.291   3.883   1.652
 3527TIP3    H210588   1.231   4.006   1.589
 3528TIP3   OH210589   1.386   4.369   1.348
 3528TIP3    H110590   1.449   4.297   1.343
 3528TIP3    H210591   1.374   4.396   1.257
 3529TIP3   OH210592   3.420   0.385   4.197
 3529TIP3    H110593   3.354   0.381   4.266
 3529TIP3    H210594   3.484   0.449   4.228
 3530TIP3   OH210595   6.073   5.768   0.595
 3530TIP3    H110596   6.023   5.847   0.612
 3530TIP3    H210597   6.042   5.738   0.509
 3531TIP3   OH210598   0.204   2.214   2.287
 3531TIP3    H110599   0.142   2.171   2.229
 3531TIP3    H210600   0.200   2.163   2.369
 3532TIP3   OH210601   4.194   5.283   0.877
 3532TIP3    H110602   4.180   5.325   0.793
 3532TIP3    H210603   4.247   5.345   0.927
 3533TIP3   OH210604   5.661   5.576   1.918
 3533TIP3    H110605   5.716   5.635   1.867
 3533TIP3    H210606   5.635   5.627   1.994
 3534TIP3   OH210607   1.890   5.023   2.102
 3534TIP3    H110608   1.829   5.044   2.031
 3534TIP3    H210609   1.928   5.107   2.126
 3535TIP3   OH210610   2.403   1.835   5.074
 3535TIP3    H110611   2.388   1.754   5.122
 3535TIP3    H210612   2.349   1.827   4.995
 3536TIP3   OH210613   5.124   4.619   4.326
 3536TIP3    H110614   5.163   4.697   4.364
 3536TIP3    H210615   5.196   4.556   4.322
 3537TIP3   OH210616   5.265   2.268   0.162
 3537TIP3    H110617   5.302   2.356   0.150
 3537TIP3    H210618   5.236   2.266   0.253
 3538TIP3   OH210619   1.573   5.786   1.307
 3538TIP3    H110620   1.575   5.830   1.392
 3538TIP3    H210621   1.481   5.790   1.280
 3539TIP3   OH210622   1.747   0.160   1.362
 3539TIP3    H110623   1.704   0.089   1.409
 3539TIP3    H210624   1.839   0.150   1.383
 3540TIP3   OH210625   5.257   5.512   4.819
 3540TIP3    H110626   5.278   5.586   4.875
 3540TIP3    H210627   5.236   5.441   4.879
 3541TIP3   OH210628   1.731   3.838   4.804
 3541TIP3    H110629   1.682   3.782   4.744
 3541TIP3    H210630   1.796   3.881   4.749
 3542TIP3   OH210631   5.422   4.592   4.333
 3542TIP3    H110632   5.501   4.619   4.287
 3542TIP3    H210633   5.389   4.673   4.373
 3543TIP3   OH210634   2.952   1.580   0.437
 3543TIP3    H110635   2.995   1.588   0.351
 3543TIP3    H210636   2.905   1.497   0.433
 3544TIP3   OH210637   0.222   1.738   0.636
 3544TIP3    H110638   0.219   1.681   0.714
 3544TIP3    H210639   0.312   1.730   0.604
 3545TIP3   OH210640   4.475   2.756   4.466
 3545TIP3    H110641   4.459   2.714   4.382
 3545TIP3    H210642   4.415   2.712   4.526
 3546TIP3   OH210643   2.905   1.044   0.589
 3546TIP3    H110644   2.946   1.090   0.516
 3546TIP3    H210645   2.864   1.112   0.641
 3547TIP3   OH210646   4.791   1.157   2.051
 3547TIP3    H110647   4.724   1.103   2.009
 3547TIP3    H210648   4.799   1.234   1.995
 3548TIP3   OH210649   1.828   3.210   2.704
 3548TIP3    H110650   1.760   3.163   2.752
 3548TIP3    H210651   1.832   3.296   2.747
 3549TIP3   OH210652   3.922   5.123   0.734
 3549TIP3    H110653   3.830   5.099   0.720
 3549TIP3    H210654   3.971   5.062   0.679
 3550TIP3   OH210655   3.787   3.299   0.621
 3550TIP3    H110656   3.816   3.250   0.698
 3550TIP3    H210657   3.757   3.232   0.559
 3551TIP3   OH210658   1.796   0.618   4.240
 3551TIP3    H110659   1.780   0.565   4.162
 3551TIP3    H210660   1.892   0.621   4.247
 3552TIP3   OH210661   2.049   0.736   4.845
 3552TIP3    H110662   2.102   0.781   4.911
 3552TIP3    H210663   2.065   0.643   4.859
 3553TIP3   OH210664   5.375   0.711   2.857
 3553TIP3    H110665   5.460   0.733   2.819
 3553TIP3    H210666   5.346   0.793   2.898
 3554TIP3   OH210667   1.869   1.583   0.631
 3554TIP3    H110668   1.872   1.656   0.693
 3554TIP3    H210669   1.953   1.538   0.643
 3555TIP3   OH210670   6.009   3.691   0.796
 3555TIP3    H110671   6.075   3.742   0.748
 3555TIP3    H210672   5.926   3.712   0.752
 3556TIP3   OH210673   2.355   3.803   2.004
 3556TIP3    H110674   2.435   3.815   2.055
 3556TIP3    H210675   2.306   3.736   2.052
 3557TIP3   OH210676   1.515   4.868   1.886
 3557TIP3    H110677   1.492   4.788   1.933
 3557TIP3    H210678   1.497   4.848   1.794
 3558TIP3   OH210679   5.823   1.647   5.112
 3558TIP3    H110680   5.918   1.657   5.116
 3558TIP3    H210681   5.809   1.568   5.059
 3559TIP3   OH210682   3.277   2.736   1.641
 3559TIP3    H110683   3.359   2.771   1.606
 3559TIP3    H210684   3.234   2.696   1.566
 3560TIP3   OH210685   3.739   1.733   0.364
 3560TIP3    H110686   3.694   1.796   0.308
 3560TIP3    H210687   3.823   1.719   0.320
 3561TIP3   OH210688   0.083   3.218   3.928
 3561TIP3    H110689   0.029   3.244   3.853
 3561TIP3    H210690   0.030   3.241   4.004
 3562TIP3   OH210691   0.577   3.757   1.895
 3562TIP3    H110692   0.489   3.744   1.930
 3562TIP3    H210693   0.603   3.670   1.864
 3563TIP3   OH210694   3.815   0.183   3.947
 3563TIP3    H110695   3.826   0.230   3.865
 3563TIP3    H210696   3.901   0.144   3.965
 3564TIP3   OH210697   5.835   5.008   4.945
 3564TIP3    H110698   5.759   5.021   4.887
 3564TIP3    H210699   5.837   5.088   4.997
 3565TIP3   OH210700   4.774   2.142   4.075
 3565TIP3    H110701   4.787   2.053   4.108
 3565TIP3    H210702   4.854   2.188   4.099
 3566TIP3   OH210703   2.316   4.718   1.787
 3566TIP3    H110704   2.400   4.717   1.833
 3566TIP3    H210705   2.252   4.689   1.853
 3567TIP3   OH210706   3.789   1.489   0.651
 3567TIP3    H110707   3.882   1.472   0.658
 3567TIP3    H210708   3.758   1.429   0.583
 3568TIP3   OH210709   3.149   0.657   3.282
 3568TIP3    H110710   3.196   0.621   3.356
 3568TIP3    H210711   3.184   0.610   3.206
 3569TIP3   OH210712   0.645   4.772   4.405
 3569TIP3    H110713   0.630   4.865   4.385
 3569TIP3    H210714   0.653   4.770   4.500
 3570TIP3   OH210715   4.187   0.407   4.979
 3570TIP3    H110716   4.180   0.500   4.955
 3570TIP3    H210717   4.097   0.375   4.974
 3571TIP3   OH210718   5.957   0.041   5.151
 3571TIP3    H110719   6.030   0.064   5.209
 3571TIP3    H210720   5.975   0.089   5.070
 3572TIP3   OH210721   1.201   5.503   1.364
 3572TIP3    H110722   1.114   5.494   1.324
 3572TIP3    H210723   1.232   5.588   1.334
 3573TIP3   OH210724   2.250   3.351   3.053
 3573TIP3    H110725   2.190   3.280   3.030
 3573TIP3    H210726   2.255   3.347   3.149
 3574TIP3   OH210727   1.687   0.013   0.627
 3574TIP3    H110728   1.609   0.021   0.572
 3574TIP3    H210729   1.653   0.001   0.716
 3575TIP3   OH210730   5.682   1.565   4.706
 3575TIP3    H110731   5.742   1.639   4.718
 3575TIP3    H210732   5.725   1.509   4.641
 3576TIP3   OH210733   2.046   3.851   0.113
 3576TIP3    H110734   1.959   3.848   0.074
 3576TIP3    H210735   2.059   3.763   0.150
 3577TIP3   OH210736   5.675   0.370   4.709
 3577TIP3    H110737   5.710   0.316   4.779
 3577TIP3    H210738   5.626   0.439   4.753
 3578TIP3   OH210739   4.846   3.383   3.032
 3578TIP3    H110740   4.876   3.309   3.085
 3578TIP3    H210741   4.848   3.458   3.091
 3579TIP3   OH210742   2.057   2.526   3.496
 3579TIP3    H110743   2.140   2.566   3.471
 3579TIP3    H210744   2.060   2.439   3.457
 3580TIP3   OH210745   4.943   0.642   1.518
 3580TIP3    H110746   5.019   0.685   1.556
 3580TIP3    H210747   4.968   0.550   1.512
 3581TIP3   OH210748   5.945   1.106   3.043
 3581TIP3    H110749   5.919   1.197   3.047
 3581TIP3    H210750   5.863   1.057   3.039
 3582TIP3   OH210751   1.396   0.804   0.558
 3582TIP3    H110752   1.330   0.871   0.543
 3582TIP3    H210753   1.351   0.738   0.611
 3583TIP3   OH210754   2.096   0.456   1.432
 3583TIP3    H110755   2.057   0.400   1.499
 3583TIP3    H210756   2.022   0.498   1.389
 3584TIP3   OH210757   5.554   3.131   2.704
 3584TIP3    H110758   5.496   3.085   2.643
 3584TIP3    H210759   5.635   3.080   2.704
 3585TIP3   OH210760   3.314   0.300   2.598
 3585TIP3    H110761   3.285   0.327   2.511
 3585TIP3    H210762   3.323   0.381   2.648
 3586TIP3   OH210763   0.209   5.427   2.290
 3586TIP3    H110764   0.226   5.333   2.283
 3586TIP3    H210765   0.114   5.434   2.296
 3587TIP3   OH210766   2.209   0.927   0.615
 3587TIP3    H110767   2.277   0.931   0.682
 3587TIP3    H210768   2.129   0.954   0.660
 3588TIP3   OH210769   3.257   3.528   2.444
 3588TIP3    H110770   3.229   3.606   2.491
 3588TIP3    H210771   3.298   3.561   2.364
 3589TIP3   OH210772   5.600   4.826   1.521
 3589TIP3    H110773   5.608   4.770   1.445
 3589TIP3    H210774   5.615   4.768   1.596
 3590TIP3   OH210775   5.345   0.442   3.875
 3590TIP3    H110776   5.257   0.452   3.912
 3590TIP3    H210777   5.352   0.512   3.811
 3591TIP3   OH210778   0.491   0.799   5.177
 3591TIP3    H110779   0.455   0.831   5.095
 3591TIP3    H210780   0.419   0.752   5.219
 3592TIP3   OH210781   3.185   4.973   4.509
 3592TIP3    H110782   3.172   4.992   4.602
 3592TIP3    H210783   3.194   5.059   4.468
 3593TIP3   OH210784   5.656   3.402   2.578
 3593TIP3    H110785   5.630   3.393   2.487
 3593TIP3    H210786   5.590   3.353   2.627
 3594TIP3   OH210787   3.540   5.040   4.308
 3594TIP3    H110788   3.465   5.096   4.327
 3594TIP3    H210789   3.616   5.099   4.317
 3595TIP3   OH210790   1.509   4.792   3.444
 3595TIP3    H110791   1.434   4.802   3.503
 3595TIP3    H210792   1.526   4.698   3.442
 3596TIP3   OH210793   6.083   4.191   0.378
 3596TIP3    H110794   6.161   4.247   0.382
 3596TIP3    H210795   6.013   4.247   0.412
 3597TIP3   OH210796   4.074   3.881   4.745
 3597TIP3    H110797   4.003   3.833   4.702
 3597TIP3    H210798   4.150   3.823   4.737
 3598TIP3   OH210799   4.383   0.674   1.698
 3598TIP3    H110800   4.466   0.698   1.657
 3598TIP3    H210801   4.409   0.636   1.783
 3599TIP3   OH210802   0.169   3.408   3.021
 3599TIP3    H110803   0.094   3.435   2.968
 3599TIP3    H210804   0.246   3.433   2.969
 3600TIP3   OH210805   1.392   3.183   4.076
 3600TIP3    H110806   1.347   3.103   4.103
 3600TIP3    H210807   1.339   3.217   4.005
 3601TIP3   OH210808   4.030   0.642   2.844
 3601TIP3    H110809   4.091   0.687   2.903
 3601TIP3    H210810   4.086   0.594   2.783
 3602TIP3   OH210811   5.803   4.711   4.796
 3602TIP3    H110812   5.735   4.775   4.774
 3602TIP3    H210813   5.858   4.707   4.717
 3603TIP3   OH210814   5.381   0.995   0.667
 3603TIP3    H110815   5.400   0.924   0.728
 3603TIP3    H210816   5.294   1.026   0.692
 3604TIP3   OH210817   0.330   4.217   2.758
 3604TIP3    H110818   0.241   4.214   2.723
 3604TIP3    H210819   0.336   4.141   2.816
 3605TIP3   OH210820   1.823   3.939   1.241
 3605TIP3    H110821   1.787   3.856   1.212
 3605TIP3    H210822   1.778   4.005   1.188
 3606TIP3   OH210823   3.752   5.657   1.018
 3606TIP3    H110824   3.663   5.662   1.051
 3606TIP3    H210825   3.790   5.742   1.039
 3607TIP3   OH210826   6.217   5.287   0.675
 3607TIP3    H110827   6.222   5.203   0.629
 3607TIP3    H210828   6.150   5.336   0.628
 3608TIP3   OH210829   5.392   1.091   4.797
 3608TIP3    H110830   5.346   1.109   4.715
 3608TIP3    H210831   5.364   1.003   4.821
 3609TIP3   OH210832   1.310   5.037   3.134
 3609TIP3    H110833   1.327   5.095   3.208
 3609TIP3    H210834   1.387   4.980   3.131
 3610TIP3   OH210835   1.482   5.292   0.423
 3610TIP3    H110836   1.542   5.275   0.496
 3610TIP3    H210837   1.539   5.317   0.350
 3611TIP3   OH210838   5.858   3.134   0.424
 3611TIP3    H110839   5.785   3.074   0.441
 3611TIP3    H210840   5.902   3.099   0.348
 3612TIP3   OH210841   1.053   1.435   4.022
 3612TIP3    H110842   0.998   1.438   3.944
 3612TIP3    H210843   1.032   1.351   4.063
 3613TIP3   OH210844   2.345   3.408   0.069
 3613TIP3    H110845   2.384   3.401   0.156
 3613TIP3    H210846   2.414   3.445   0.014
 3614TIP3   OH210847   4.996   0.330   4.796
 3614TIP3    H110848   4.924   0.384   4.828
 3614TIP3    H210849   5.015   0.270   4.868
 3615TIP3   OH210850   6.214   2.186   2.537
 3615TIP3    H110851   6.217   2.281   2.528
 3615TIP3    H210852   6.251   2.169   2.624
 3616TIP3   OH210853   0.568   5.785   4.011
 3616TIP3    H110854   0.487   5.740   4.034
 3616TIP3    H210855   0.621   5.783   4.091
 3617TIP3   OH210856   3.935   5.953   2.749
 3617TIP3    H110857   4.029   5.934   2.741
 3617TIP3    H210858   3.915   5.937   2.842
 3618TIP3   OH210859   3.969   4.464   2.493
 3618TIP3    H110860   3.881   4.498   2.506
 3618TIP3    H210861   3.956   4.370   2.481
 3619TIP3   OH210862   5.027   3.338   2.207
 3619TIP3    H110863   5.066   3.423   2.185
 3619TIP3    H210864   5.095   3.293   2.257
 3620TIP3   OH210865   3.501   2.890   3.356
 3620TIP3    H110866   3.420   2.852   3.324
 3620TIP3    H210867   3.563   2.877   3.284
 3621TIP3   OH210868   3.417   5.294   0.146
 3621TIP3    H110869   3.437   5.211   0.102
 3621TIP3    H210870   3.469   5.292   0.226
 3622TIP3   OH210871   1.635   1.913   2.015
 3622TIP3    H110872   1.563   1.953   1.966
 3622TIP3    H210873   1.621   1.942   2.105
 3623TIP3   OH210874   4.713   1.079   3.415
 3623TIP3    H110875   4.625   1.067   3.451
 3623TIP3    H210876   4.753   0.992   3.421
 3624TIP3   OH210877   3.994   0.350   0.551
 3624TIP3    H110878   3.989   0.382   0.461
 3624TIP3    H210879   3.903   0.327   0.572
 3625TIP3   OH210880   2.781   5.057   1.090
 3625TIP3    H110881   2.778   5.075   0.996
 3625TIP3    H210882   2.698   5.015   1.109
 3626TIP3   OH210883   4.002   0.667   0.660
 3626TIP3    H110884   3.909   0.686   0.646
 3626TIP3    H210885   4.031   0.628   0.577
 3627TIP3   OH210886   0.405   5.829   2.412
 3627TIP3    H110887   0.489   5.872   2.426
 3627TIP3    H210888   0.417   5.778   2.332
 3628TIP3   OH210889   3.860   0.584   1.019
 3628TIP3    H110890   3.791   0.522   1.042
 3628TIP3    H210891   3.816   0.648   0.962
 3629TIP3   OH210892   2.695   5.229   4.466
 3629TIP3    H110893   2.788   5.221   4.486
 3629TIP3    H210894   2.690   5.227   4.371
 3630TIP3   OH210895   5.727   4.269   2.096
 3630TIP3    H110896   5.820   4.288   2.083
 3630TIP3    H210897   5.705   4.208   2.026
 3631TIP3   OH210898   0.414   2.346   0.961
 3631TIP3    H110899   0.411   2.341   0.865
 3631TIP3    H210900   0.452   2.432   0.978
 3632TIP3   OH210901   2.890   0.070   0.931
 3632TIP3    H110902   2.889  -0.025   0.943
 3632TIP3    H210903   2.983   0.092   0.923
 3633TIP3   OH210904   3.435   4.865   1.282
 3633TIP3    H110905   3.459   4.772   1.280
 3633TIP3    H210906   3.419   4.887   1.190
 3634TIP3   OH210907   5.897   0.805   1.881
 3634TIP3    H110908   5.909   0.882   1.938
 3634TIP3    H210909   5.983   0.765   1.878
 3635TIP3   OH210910   5.989   2.929   2.295
 3635TIP3    H110911   6.062   2.949   2.236
 3635TIP3    H210912   6.029   2.880   2.367
 3636TIP3   OH210913   3.723   1.307   2.035
 3636TIP3    H110914   3.670   1.370   1.986
 3636TIP3    H210915   3.813   1.338   2.023
 3637TIP3   OH210916   1.606   2.077   2.253
 3637TIP3    H110917   1.516   2.110   2.252
 3637TIP3    H210918   1.612   2.027   2.335
 3638TIP3   OH210919   3.035   0.969   2.059
 3638TIP3    H110920   3.098   1.039   2.044
 3638TIP3    H210921   3.038   0.954   2.153
 3639TIP3   OH210922   4.966   0.950   5.101
 3639TIP3    H110923   4.906   0.954   5.026
 3639TIP3    H210924   4.952   1.033   5.146
 3640TIP3   OH210925   0.344   1.225   3.729
 3640TIP3    H110926   0.416   1.181   3.774
 3640TIP3    H210927   0.333   1.176   3.648
 3641TIP3   OH210928   1.530   4.394   2.751
 3641TIP3    H110929   1.555   4.310   2.791
 3641TIP3    H210930   1.455   4.372   2.695
 3642TIP3   OH210931   4.829   0.899   3.793
 3642TIP3    H110932   4.887   0.847   3.737
 3642TIP3    H210933   4.869   0.895   3.880
 3643TIP3   OH210934   4.577   0.577   0.133
 3643TIP3    H110935   4.584   0.612   0.222
 3643TIP3    H210936   4.606   0.649   0.076
 3644TIP3   OH210937   2.997   4.193   3.855
 3644TIP3    H110938   3.089   4.215   3.841
 3644TIP3    H210939   2.998   4.101   3.879
 3645TIP3   OH210940   5.682   2.373   4.798
 3645TIP3    H110941   5.721   2.389   4.712
 3645TIP3    H210942   5.716   2.444   4.853
 3646TIP3   OH210943   0.658   0.200   4.766
 3646TIP3    H110944   0.706   0.198   4.849
 3646TIP3    H210945   0.727   0.204   4.699
 3647TIP3   OH210946   5.927   1.640   2.989
 3647TIP3    H110947   5.841   1.634   2.948
 3647TIP3    H210948   5.989   1.631   2.916
 3648TIP3   OH210949   2.281   1.272   4.265
 3648TIP3    H110950   2.337   1.347   4.247
 3648TIP3    H210951   2.342   1.205   4.298
 3649TIP3   OH210952   0.493   0.141   0.981
 3649TIP3    H110953   0.416   0.190   0.953
 3649TIP3    H210954   0.503   0.072   0.914
 3650TIP3   OH210955   1.605   1.576   4.748
 3650TIP3    H110956   1.587   1.670   4.752
 3650TIP3    H210957   1.616   1.558   4.655
 3651TIP3   OH210958   0.529   2.162   0.436
 3651TIP3    H110959   0.564   2.206   0.358
 3651TIP3    H210960   0.441   2.135   0.411
 3652TIP3   OH210961   4.951   2.734   3.345
 3652TIP3    H110962   4.887   2.745   3.416
 3652TIP3    H210963   4.936   2.810   3.288
 3653TIP3   OH210964   4.521   3.122   4.532
 3653TIP3    H110965   4.549   3.202   4.576
 3653TIP3    H210966   4.488   3.066   4.603
 3654TIP3   OH210967   2.586   4.334   3.829
 3654TIP3    H110968   2.510   4.311   3.881
 3654TIP3    H210969   2.550   4.365   3.745
 3655TIP3   OH210970   6.024   4.555   1.103
 3655TIP3    H110971   6.011   4.465   1.131
 3655TIP3    H210972   6.084   4.549   1.028
 3656TIP3   OH210973   0.760   0.014   3.258
 3656TIP3    H110974   0.692   0.079   3.277
 3656TIP3    H210975   0.843   0.060   3.276
 3657TIP3   OH210976   0.074   4.440   0.581
 3657TIP3    H110977   0.025   4.516   0.613
 3657TIP3    H210978   0.154   4.477   0.544
 3658TIP3   OH210979   4.524   0.564   1.917
 3658TIP3    H110980   4.592   0.618   1.957
 3658TIP3    H210981   4.570   0.488   1.882
 3659TIP3   OH210982   0.232   4.998   2.865
 3659TIP3    H110983   0.139   5.017   2.882
 3659TIP3    H210984   0.236   4.977   2.772
 3660TIP3   OH210985   5.973   2.103   2.391
 3660TIP3    H110986   6.042   2.139   2.446
 3660TIP3    H210987   5.950   2.020   2.432
 3661TIP3   OH210988   2.859   3.403   4.926
 3661TIP3    H110989   2.914   3.447   4.861
 3661TIP3    H210990   2.771   3.406   4.889
 3662TIP3   OH210991   5.581   1.981   3.360
 3662TIP3    H110992   5.568   1.972   3.454
 3662TIP3    H210993   5.676   1.984   3.349
 3663TIP3   OH210994   5.666   5.324   4.471
 3663TIP3    H110995   5.578   5.353   4.494
 3663TIP3    H210996   5.693   5.268   4.544
 3664TIP3   OH210997   0.955   4.885   1.084
 3664TIP3    H110998   0.907   4.858   1.162
 3664TIP3    H210999   0.958   4.980   1.089
 3665TIP3   OH211000   5.468   2.245   2.134
 3665TIP3    H111001   5.517   2.258   2.216
 3665TIP3    H211002   5.486   2.155   2.110
 3666TIP3   OH211003   0.047   4.160   4.889
 3666TIP3    H111004   0.004   4.130   4.809
 3666TIP3    H211005  -0.008   4.233   4.919
 3667TIP3   OH211006   3.177   4.670   4.507
 3667TIP3    H111007   3.149   4.666   4.598
 3667TIP3    H211008   3.175   4.764   4.486
 3668TIP3   OH211009   5.430  -0.025   3.485
 3668TIP3    H111010   5.519   0.008   3.472
 3668TIP3    H211011   5.390   0.036   3.547
 3669TIP3   OH211012   3.630   1.963   4.743
 3669TIP3    H111013   3.673   1.951   4.827
 3669TIP3    H211014   3.654   1.885   4.692
 3670TIP3   OH211015   5.877   1.392   4.973
 3670TIP3    H111016   5.875   1.401   4.877
 3670TIP3    H211017   5.951   1.333   4.990
 3671TIP3   OH211018   5.797   0.654   3.101
 3671TIP3    H111019   5.814   0.604   3.021
 3671TIP3    H211020   5.810   0.591   3.172
 3672TIP3   OH211021   4.604   4.527   5.037
 3672TIP3    H111022   4.637   4.616   5.024
 3672TIP3    H211023   4.512   4.539   5.059
 3673TIP3   OH211024   2.426   5.434   1.733
 3673TIP3    H111025   2.464   5.346   1.742
 3673TIP3    H211026   2.500   5.493   1.745
 3674TIP3   OH211027   4.014   5.020   3.234
 3674TIP3    H111028   3.957   4.944   3.239
 3674TIP3    H211029   3.978   5.072   3.162
 3675TIP3   OH211030   2.808   1.532   0.751
 3675TIP3    H111031   2.731   1.513   0.805
 3675TIP3    H211032   2.786   1.614   0.706
 3676TIP3   OH211033   4.356   4.257   3.999
 3676TIP3    H111034   4.440   4.214   3.985
 3676TIP3    H211035   4.351   4.324   3.930
 3677TIP3   OH211036   3.529   3.590   3.012
 3677TIP3    H111037   3.475   3.512   3.025
 3677TIP3    H211038   3.473   3.662   3.040
 3678TIP3   OH211039   0.687   3.657   1.513
 3678TIP3    H111040   0.779   3.651   1.539
 3678TIP3    H211041   0.671   3.751   1.501
 3679TIP3   OH211042   3.369   2.271   1.188
 3679TIP3    H111043   3.414   2.190   1.211
 3679TIP3    H211044   3.384   2.281   1.094
 3680TIP3   OH211045   2.133   5.146   0.023
 3680TIP3    H111046   2.177   5.068   0.057
 3680TIP3    H211047   2.181   5.167  -0.057
 3681TIP3   OH211048   1.230   2.337   0.034
 3681TIP3    H111049   1.263   2.344   0.124
 3681TIP3    H211050   1.150   2.390   0.034
 3682TIP3   OH211051   5.326   1.895   1.638
 3682TIP3    H111052   5.399   1.940   1.596
 3682TIP3    H211053   5.365   1.817   1.677
 3683TIP3   OH211054   1.369   5.034   0.622
 3683TIP3    H111055   1.396   5.049   0.531
 3683TIP3    H211056   1.356   4.939   0.626
 3684TIP3   OH211057   4.463   5.857   2.911
 3684TIP3    H111058   4.512   5.920   2.858
 3684TIP3    H211059   4.372   5.888   2.907
 3685TIP3   OH211060   6.141   4.268   1.651
 3685TIP3    H111061   6.223   4.218   1.653
 3685TIP3    H211062   6.162   4.345   1.598
 3686TIP3   OH211063   3.784   5.327   2.052
 3686TIP3    H111064   3.754   5.244   2.090
 3686TIP3    H211065   3.816   5.377   2.128
 3687TIP3   OH211066   1.086   4.880   2.805
 3687TIP3    H111067   0.991   4.866   2.802
 3687TIP3    H211068   1.100   4.956   2.748
 3688TIP3   OH211069   5.983   1.075   0.329
 3688TIP3    H111070   6.013   1.062   0.239
 3688TIP3    H211071   6.055   1.122   0.372
 3689TIP3   OH211072   6.152   1.841   1.953
 3689TIP3    H111073   6.219   1.774   1.966
 3689TIP3    H211074   6.145   1.851   1.858
 3690TIP3   OH211075   3.101   3.811   0.932
 3690TIP3    H111076   3.039   3.786   1.001
 3690TIP3    H211077   3.084   3.904   0.917
 3691TIP3   OH211078   5.123   4.384   4.599
 3691TIP3    H111079   5.039   4.421   4.575
 3691TIP3    H211080   5.103   4.295   4.627
 3692TIP3   OH211081   5.386   0.234   2.619
 3692TIP3    H111082   5.341   0.196   2.694
 3692TIP3    H211083   5.430   0.312   2.653
 3693TIP3   OH211084   4.326   0.395   0.346
 3693TIP3    H111085   4.274   0.323   0.310
 3693TIP3    H211086   4.409   0.354   0.371
 3694TIP3   OH211087   6.143   4.246   3.786
 3694TIP3    H111088   6.215   4.265   3.846
 3694TIP3    H211089   6.106   4.333   3.766
 3695TIP3   OH211090   0.341   1.362   4.458
 3695TIP3    H111091   0.363   1.395   4.371
 3695TIP3    H211092   0.246   1.353   4.456
 3696TIP3   OH211093   0.150   5.657   4.855
 3696TIP3    H111094   0.136   5.578   4.802
 3696TIP3    H211095   0.158   5.727   4.790
 3697TIP3   OH211096   4.459   2.606   2.921
 3697TIP3    H111097   4.542   2.578   2.958
 3697TIP3    H211098   4.401   2.616   2.996
 3698TIP3   OH211099   3.604   5.553   0.186
 3698TIP3    H111100   3.519   5.523   0.216
 3698TIP3    H211101   3.667   5.512   0.246
 3699TIP3   OH211102   2.504   2.017   2.926
 3699TIP3    H111103   2.454   1.940   2.898
 3699TIP3    H211104   2.503   2.013   3.021
 3700TIP3   OH211105   2.562   1.412   1.140
 3700TIP3    H111106   2.526   1.488   1.186
 3700TIP3    H211107   2.651   1.439   1.116
 3701TIP3   OH211108   1.055   5.205   1.403
 3701TIP3    H111109   1.113   5.132   1.424
 3701TIP3    H211110   1.080   5.232   1.315
 3702TIP3   OH211111   6.102   3.751   1.954
 3702TIP3    H111112   6.035   3.817   1.970
 3702TIP3    H211113   6.143   3.737   2.040
 3703TIP3   OH211114   1.718   5.646   3.543
 3703TIP3    H111115   1.737   5.566   3.494
 3703TIP3    H211116   1.653   5.691   3.489
 3704TIP3   OH211117   6.336   3.662   0.474
 3704TIP3    H111118   6.317   3.740   0.527
 3704TIP3    H211119   6.250   3.626   0.452
 3705TIP3   OH211120   0.043   5.529   5.086
 3705TIP3    H111121   0.112   5.544   5.021
 3705TIP3    H211122   0.087   5.542   5.170
 3706TIP3   OH211123   3.110   5.760   3.975
 3706TIP3    H111124   3.050   5.686   3.977
 3706TIP3    H211125   3.153   5.759   4.060
 3707TIP3   OH211126   4.744   4.919   3.271
 3707TIP3    H111127   4.750   4.839   3.219
 3707TIP3    H211128   4.703   4.892   3.353
 3708TIP3   OH211129   4.193   1.549   4.497
 3708TIP3    H111130   4.099   1.529   4.504
 3708TIP3    H211131   4.226   1.482   4.437
 3709TIP3   OH211132   5.516   4.330   4.993
 3709TIP3    H111133   5.488   4.315   5.083
 3709TIP3    H211134   5.541   4.423   4.991
 3710TIP3   OH211135   2.749   5.250   4.191
 3710TIP3    H111136   2.718   5.292   4.110
 3710TIP3    H211137   2.837   5.221   4.170
 3711TIP3   OH211138   2.175   1.617   0.859
 3711TIP3    H111139   2.139   1.533   0.890
 3711TIP3    H211140   2.254   1.630   0.911
 3712TIP3   OH211141   1.899   3.703   3.369
 3712TIP3    H111142   1.929   3.620   3.334
 3712TIP3    H211143   1.899   3.690   3.464
 3713TIP3   OH211144   3.778   5.693   0.025
 3713TIP3    H111145   3.736   5.690  -0.061
 3713TIP3    H211146   3.717   5.645   0.083
 3714TIP3   OH211147   3.022   5.536   2.411
 3714TIP3    H111148   2.959   5.608   2.413
 3714TIP3    H211149   3.087   5.558   2.478
 3715TIP3   OH211150   0.000   3.838   5.107
 3715TIP3    H111151   0.091   3.844   5.079
 3715TIP3    H211152  -0.001   3.876   5.195
 3716TIP3   OH211153   1.341   2.405   0.272
 3716TIP3    H111154   1.329   2.419   0.366
 3716TIP3    H211155   1.435   2.416   0.257
 3717TIP3   OH211156   1.246   1.841   0.656
 3717TIP3    H111157   1.225   1.904   0.587
 3717TIP3    H211158   1.341   1.831   0.650
 3718TIP3   OH211159   0.096   2.872  -0.021
 3718TIP3    H111160   0.145   2.795   0.009
 3718TIP3    H211161   0.131   2.944   0.032
 3719TIP3   OH211162   5.709   1.410   2.204
 3719TIP3    H111163   5.708   1.357   2.284
 3719TIP3    H211164   5.710   1.501   2.236
 3720TIP3   OH211165   3.342   3.711   5.069
 3720TIP3    H111166   3.411   3.729   5.133
 3720TIP3    H211167   3.271   3.771   5.093
 3721TIP3   OH211168   0.140   0.327   3.654
 3721TIP3    H111169   0.073   0.349   3.590
 3721TIP3    H211170   0.124   0.387   3.728
 3722TIP3   OH211171   1.538   3.208   1.365
 3722TIP3    H111172   1.483   3.183   1.290
 3722TIP3    H211173   1.566   3.297   1.345
 3723TIP3   OH211174   2.250   3.976   0.734
 3723TIP3    H111175   2.331   3.963   0.685
 3723TIP3    H211176   2.253   3.912   0.804
 3724TIP3   OH211177   3.641   4.797   1.057
 3724TIP3    H111178   3.656   4.707   1.028
 3724TIP3    H211179   3.563   4.826   1.009
 3725TIP3   OH211180   5.467   2.575   1.071
 3725TIP3    H111181   5.430   2.646   1.123
 3725TIP3    H211182   5.417   2.577   0.989
 3726TIP3   OH211183   5.035   4.742   1.981
 3726TIP3    H111184   4.976   4.726   1.906
 3726TIP3    H211185   5.122   4.721   1.948
 3727TIP3   OH211186   6.298   5.986   1.751
 3727TIP3    H111187   6.255   6.013   1.832
 3727TIP3    H211188   6.307   5.891   1.759
 3728TIP3   OH211189   0.419   0.421   1.294
 3728TIP3    H111190   0.415   0.468   1.211
 3728TIP3    H211191   0.460   0.484   1.354
 3729TIP3   OH211192   2.035   5.366   1.816
 3729TIP3    H111193   2.100   5.306   1.778
 3729TIP3    H211194   2.021   5.432   1.748
 3730TIP3   OH211195   5.049   4.551   3.192
 3730TIP3    H111196   5.060   4.632   3.241
 3730TIP3    H211197   5.093   4.567   3.108
 3731TIP3   OH211198   3.486   5.573   4.510
 3731TIP3    H111199   3.444   5.658   4.495
 3731TIP3    H211200   3.433   5.532   4.580
 3732TIP3   OH211201   2.008   3.124   4.602
 3732TIP3    H111202   2.003   3.108   4.696
 3732TIP3    H211203   1.918   3.109   4.571
 3733TIP3   OH211204   2.126   1.301   2.536
 3733TIP3    H111205   2.198   1.341   2.585
 3733TIP3    H211206   2.048   1.346   2.569
 3734TIP3   OH211207   4.605   3.991   1.201
 3734TIP3    H111208   4.599   4.011   1.107
 3734TIP3    H211209   4.588   3.897   1.207
 3735TIP3   OH211210   3.251   1.526   0.815
 3735TIP3    H111211   3.212   1.574   0.742
 3735TIP3    H211212   3.182   1.523   0.881
 3736TIP3   OH211213   4.259   3.940   2.275
 3736TIP3    H111214   4.209   3.966   2.353
 3736TIP3    H211215   4.211   3.865   2.240
 3737TIP3   OH211216   3.588   1.361   0.247
 3737TIP3    H111217   3.563   1.450   0.221
 3737TIP3    H211218   3.570   1.308   0.169
 3738TIP3   OH211219   3.333   3.135   4.454
 3738TIP3    H111220   3.332   3.085   4.372
 3738TIP3    H211221   3.242   3.137   4.482
 3739TIP3   OH211222   3.976   3.054   3.793
 3739TIP3    H111223   3.972   3.146   3.820
 3739TIP3    H211224   3.895   3.041   3.742
 3740TIP3   OH211225   2.670   2.833   2.191
 3740TIP3    H111226   2.738   2.900   2.198
 3740TIP3    H211227   2.712   2.762   2.141
 3741TIP3   OH211228   5.043   5.193   4.834
 3741TIP3    H111229   5.016   5.132   4.903
 3741TIP3    H211230   5.004   5.157   4.754
 3742TIP3   OH211231   1.107   4.090   2.335
 3742TIP3    H111232   1.097   4.105   2.241
 3742TIP3    H211233   1.138   4.174   2.369
 3743TIP3   OH211234   1.832   3.208   4.986
 3743TIP3    H111235   1.794   3.150   5.051
 3743TIP3    H211236   1.760   3.228   4.926
 3744TIP3   OH211237   3.912   4.203   2.418
 3744TIP3    H111238   3.845   4.175   2.356
 3744TIP3    H211239   3.976   4.132   2.419
 3745TIP3   OH211240   1.764   2.917   1.818
 3745TIP3    H111241   1.810   2.843   1.858
 3745TIP3    H211242   1.778   2.990   1.878
 3746TIP3   OH211243   5.234   2.368   1.409
 3746TIP3    H111244   5.291   2.299   1.374
 3746TIP3    H211245   5.172   2.323   1.466
 3747TIP3   OH211246   2.507   5.508   2.341
 3747TIP3    H111247   2.529   5.456   2.264
 3747TIP3    H211248   2.467   5.588   2.306
 3748TIP3   OH211249   1.276   2.014   5.042
 3748TIP3    H111250   1.326   2.007   4.961
 3748TIP3    H211251   1.200   1.958   5.028
 3749TIP3   OH211252   6.078   3.399   1.142
 3749TIP3    H111253   6.157   3.359   1.180
 3749TIP3    H211254   6.111   3.475   1.093
 3750TIP3   OH211255   1.520   1.675   0.739
 3750TIP3    H111256   1.549   1.604   0.797
 3750TIP3    H211257   1.440   1.641   0.698
 3751TIP3   OH211258   0.230   5.193   1.452
 3751TIP3    H111259   0.310   5.163   1.495
 3751TIP3    H211260   0.236   5.158   1.363
 3752TIP3   OH211261   3.786   0.649   3.063
 3752TIP3    H111262   3.809   0.569   3.110
 3752TIP3    H211263   3.738   0.701   3.127
 3753TIP3   OH211264   0.978   5.159   1.086
 3753TIP3    H111265   0.942   5.248   1.092
 3753TIP3    H211266   1.071   5.172   1.069
 3754TIP3   OH211267   4.482   1.942   1.469
 3754TIP3    H111268   4.494   1.931   1.375
 3754TIP3    H211269   4.467   1.853   1.501
 3755TIP3   OH211270   3.292   1.491   2.225
 3755TIP3    H111271   3.351   1.424   2.258
 3755TIP3    H211272   3.277   1.467   2.133
 3756TIP3   OH211273   0.959   5.368   2.705
 3756TIP3    H111274   0.943   5.443   2.648
 3756TIP3    H211275   0.880   5.361   2.758
 3757TIP3   OH211276   3.852   3.798   3.453
 3757TIP3    H111277   3.892   3.718   3.486
 3757TIP3    H211278   3.796   3.828   3.525
 3758TIP3   OH211279   5.629   4.948   2.693
 3758TIP3    H111280   5.581   5.024   2.725
 3758TIP3    H211281   5.618   4.882   2.762
 3759TIP3   OH211282   3.076   5.321   4.420
 3759TIP3    H111283   3.005   5.379   4.392
 3759TIP3    H211284   3.048   5.289   4.506
 3760TIP3   OH211285   4.773   2.808   3.541
 3760TIP3    H111286   4.699   2.856   3.580
 3760TIP3    H211287   4.812   2.760   3.613
 3761TIP3   OH211288   0.665   5.296   2.163
 3761TIP3    H111289   0.635   5.357   2.096
 3761TIP3    H211290   0.759   5.312   2.171
 3762TIP3   OH211291   5.308   0.106   1.313
 3762TIP3    H111292   5.364   0.167   1.361
 3762TIP3    H211293   5.302   0.030   1.369
 3763TIP3   OH211294   0.909   5.184   3.654
 3763TIP3    H111295   0.854   5.162   3.730
 3763TIP3    H211296   0.912   5.280   3.654
 3764TIP3   OH211297   0.612   5.784   3.187
 3764TIP3    H111298   0.589   5.863   3.236
 3764TIP3    H211299   0.555   5.716   3.222
 3765TIP3   OH211300   1.468   1.096   3.852
 3765TIP3    H111301   1.491   1.180   3.813
 3765TIP3    H211302   1.540   1.038   3.830
 3766TIP3   OH211303   1.676   0.615   0.096
 3766TIP3    H111304   1.650   0.539   0.149
 3766TIP3    H211305   1.719   0.577   0.019
 3767TIP3   OH211306   4.307   0.648   2.560
 3767TIP3    H111307   4.395   0.663   2.526
 3767TIP3    H211308   4.254   0.719   2.523
 3768TIP3   OH211309   1.958   0.975   0.773
 3768TIP3    H111310   1.894   0.968   0.843
 3768TIP3    H211311   1.906   0.993   0.695
 3769TIP3   OH211312   1.212   1.272   1.694
 3769TIP3    H111313   1.260   1.347   1.659
 3769TIP3    H211314   1.267   1.239   1.764
 3770TIP3   OH211315   6.333   0.599   1.458
 3770TIP3    H111316   6.245   0.586   1.421
 3770TIP3    H211317   6.375   0.660   1.399
 3771TIP3   OH211318   5.597   3.612   5.092
 3771TIP3    H111319   5.518   3.622   5.145
 3771TIP3    H211320   5.573   3.550   5.024
 3772TIP3   OH211321   5.472   5.951   1.720
 3772TIP3    H111322   5.564   5.974   1.722
 3772TIP3    H211323   5.427   6.031   1.693
 3773TIP3   OH211324   5.240   4.271   2.192
 3773TIP3    H111325   5.206   4.358   2.173
 3773TIP3    H211326   5.191   4.242   2.268
 3774TIP3   OH211327   0.700   1.858   2.959
 3774TIP3    H111328   0.634   1.831   3.022
 3774TIP3    H211329   0.773   1.889   3.013
 3775TIP3   OH211330   5.422   4.657   0.825
 3775TIP3    H111331   5.371   4.732   0.795
 3775TIP3    H211332   5.503   4.696   0.858
 3776TIP3   OH211333   0.184   2.962   3.111
 3776TIP3    H111334   0.170   2.867   3.113
 3776TIP3    H211335   0.121   2.995   3.047
 3777TIP3   OH211336   2.158   4.140   2.167
 3777TIP3    H111337   2.098   4.156   2.239
 3777TIP3    H211338   2.238   4.108   2.209
 3778TIP3   OH211339   4.042   1.846   0.349
 3778TIP3    H111340   4.034   1.830   0.255
 3778TIP3    H211341   4.070   1.762   0.385
 3779TIP3   OH211342   5.136   0.763   3.722
 3779TIP3    H111343   5.131   0.761   3.818
 3779TIP3    H211344   5.072   0.699   3.693
 3780TIP3   OH211345   3.132   2.476   4.268
 3780TIP3    H111346   3.165   2.412   4.205
 3780TIP3    H211347   3.064   2.430   4.316
 3781TIP3   OH211348   3.401   3.655   4.380
 3781TIP3    H111349   3.479   3.703   4.350
 3781TIP3    H211350   3.428   3.616   4.463
 3782TIP3   OH211351   4.049   4.328   3.883
 3782TIP3    H111352   3.970   4.338   3.936
 3782TIP3    H211353   4.106   4.399   3.912
 3783TIP3   OH211354   4.152   0.835   1.661
 3783TIP3    H111355   4.237   0.793   1.651
 3783TIP3    H211356   4.160   0.887   1.741
 3784TIP3   OH211357   2.503   0.141   4.084
 3784TIP3    H111358   2.454   0.128   4.002
 3784TIP3    H211359   2.463   0.079   4.145
 3785TIP3   OH211360   6.169   3.565   1.746
 3785TIP3    H111361   6.114   3.634   1.783
 3785TIP3    H211362   6.196   3.513   1.822
 3786TIP3   OH211363   3.599   1.614   4.884
 3786TIP3    H111364   3.554   1.530   4.875
 3786TIP3    H211365   3.538   1.669   4.933
 3787TIP3   OH211366   2.549   5.678   1.482
 3787TIP3    H111367   2.534   5.771   1.500
 3787TIP3    H211368   2.469   5.650   1.436
 3788TIP3   OH211369   0.951   4.003   0.129
 3788TIP3    H111370   0.886   3.946   0.171
 3788TIP3    H211371   0.924   4.008   0.038
 3789TIP3   OH211372   1.233   2.093   2.632
 3789TIP3    H111373   1.313   2.097   2.685
 3789TIP3    H211374   1.177   2.032   2.678
 3790TIP3   OH211375   1.657   3.011   2.082
 3790TIP3    H111376   1.594   3.061   2.133
 3790TIP3    H211377   1.742   3.036   2.119
 3791TIP3   OH211378   0.878   0.131   4.920
 3791TIP3    H111379   0.968   0.138   4.952
 3791TIP3    H211380   0.849   0.045   4.948
 3792TIP3   OH211381   4.892   0.007   4.137
 3792TIP3    H111382   4.821   0.017   4.074
 3792TIP3    H211383   4.904   0.095   4.174
 3793TIP3   OH211384   5.166   1.716   1.320
 3793TIP3    H111385   5.119   1.665   1.386
 3793TIP3    H211386   5.227   1.654   1.281
 3794TIP3   OH211387   3.324   1.396   2.981
 3794TIP3    H111388   3.364   1.313   2.955
 3794TIP3    H211389   3.377   1.427   3.054
 3795TIP3   OH211390   3.772   0.654   0.539
 3795TIP3    H111391   3.714   0.703   0.481
 3795TIP3    H211392   3.757   0.563   0.516
 3796TIP3   OH211393   1.212   3.879   3.986
 3796TIP3    H111394   1.181   3.962   4.023
 3796TIP3    H211395   1.232   3.825   4.062
 3797TIP3   OH211396   2.488   3.195   2.993
 3797TIP3    H111397   2.540   3.202   3.073
 3797TIP3    H211398   2.424   3.266   2.999
 3798TIP3   OH211399   2.277   5.041   1.934
 3798TIP3    H111400   2.264   5.119   1.986
 3798TIP3    H211401   2.273   5.071   1.843
 3799TIP3   OH211402   3.548   5.497   5.058
 3799TIP3    H111403   3.538   5.583   5.017
 3799TIP3    H211404   3.462   5.479   5.096
 3800TIP3   OH211405   2.249   0.059   0.929
 3800TIP3    H111406   2.291   0.065   1.015
 3800TIP3    H211407   2.294   0.127   0.877
 3801TIP3   OH211408   2.886   1.663   5.151
 3801TIP3    H111409   2.795   1.641   5.131
 3801TIP3    H211410   2.881   1.728   5.221
 3802TIP3   OH211411   0.635   0.644   1.429
 3802TIP3    H111412   0.643   0.739   1.427
 3802TIP3    H211413   0.584   0.626   1.508
 3803TIP3   OH211414   2.978   0.143   3.688
 3803TIP3    H111415   2.950   0.079   3.753
 3803TIP3    H211416   3.072   0.151   3.701
 3804TIP3   OH211417   2.768   5.550   2.633
 3804TIP3    H111418   2.778   5.612   2.560
 3804TIP3    H211419   2.856   5.514   2.646
 3805TIP3   OH211420   5.189   4.814   0.702
 3805TIP3    H111421   5.103   4.841   0.670
 3805TIP3    H211422   5.244   4.891   0.689
 3806TIP3   OH211423   1.830   1.303   2.791
 3806TIP3    H111424   1.826   1.210   2.768
 3806TIP3    H211425   1.900   1.308   2.856
 3807TIP3   OH211426   5.592   3.909   2.061
 3807TIP3    H111427   5.524   3.976   2.069
 3807TIP3    H211428   5.551   3.830   2.096
 3808TIP3   OH211429   0.956   3.544   3.228
 3808TIP3    H111430   0.978   3.498   3.309
 3808TIP3    H211431   0.913   3.478   3.175
 3809TIP3   OH211432   2.756   3.579   4.220
 3809TIP3    H111433   2.709   3.495   4.223
 3809TIP3    H211434   2.848   3.556   4.223
 3810TIP3   OH211435   6.191   0.918   2.010
 3810TIP3    H111436   6.165   0.963   1.930
 3810TIP3    H211437   6.205   0.827   1.983
 3811TIP3   OH211438   2.492   4.749   0.161
 3811TIP3    H111439   2.451   4.836   0.159
 3811TIP3    H211440   2.581   4.764   0.132
 3812TIP3   OH211441   3.109   1.014   1.521
 3812TIP3    H111442   3.116   0.921   1.542
 3812TIP3    H211443   3.047   1.049   1.585
 3813TIP3   OH211444   4.513   0.205   4.154
 3813TIP3    H111445   4.567   0.282   4.172
 3813TIP3    H211446   4.466   0.189   4.236
 3814TIP3   OH211447   5.265   0.544   4.868
 3814TIP3    H111448   5.206   0.579   4.934
 3814TIP3    H211449   5.287   0.456   4.899
 3815TIP3   OH211450   0.444   1.020   1.160
 3815TIP3    H111451   0.368   1.037   1.104
 3815TIP3    H211452   0.421   1.059   1.244
 3816TIP3   OH211453   2.307   0.119   2.429
 3816TIP3    H111454   2.266   0.103   2.343
 3816TIP3    H211455   2.316   0.032   2.468
 3817TIP3   OH211456   5.269   1.301   0.672
 3817TIP3    H111457   5.198   1.237   0.672
 3817TIP3    H211458   5.316   1.284   0.754
 3818TIP3   OH211459   2.566   1.315   1.592
 3818TIP3    H111460   2.640   1.353   1.640
 3818TIP3    H211461   2.526   1.390   1.547
 3819TIP3   OH211462   4.949   3.178   0.560
 3819TIP3    H111463   5.001   3.257   0.578
 3819TIP3    H211464   4.864   3.196   0.600
 3820TIP3   OH211465   4.225   1.523   2.674
 3820TIP3    H111466   4.298   1.486   2.723
 3820TIP3    H211467   4.147   1.483   2.713
 3821TIP3   OH211468   0.380   0.563   5.006
 3821TIP3    H111469   0.320   0.603   5.069
 3821TIP3    H211470   0.364   0.610   4.924
 3822TIP3   OH211471   5.692   2.347   1.902
 3822TIP3    H111472   5.785   2.362   1.919
 3822TIP3    H211473   5.647   2.392   1.974
 3823TIP3   OH211474   1.607   2.574   4.415
 3823TIP3    H111475   1.632   2.499   4.468
 3823TIP3    H211476   1.602   2.539   4.326
 3824TIP3   OH211477   0.505   3.921   3.168
 3824TIP3    H111478   0.525   3.853   3.233
 3824TIP3    H211479   0.548   3.999   3.202
 3825TIP3   OH211480   5.166   4.424   0.238
 3825TIP3    H111481   5.216   4.497   0.203
 3825TIP3    H211482   5.152   4.447   0.330
 3826TIP3   OH211483   5.060   1.913   4.732
 3826TIP3    H111484   4.999   1.878   4.668
 3826TIP3    H211485   5.120   1.840   4.751
 3827TIP3   OH211486   0.135   1.060   1.461
 3827TIP3    H111487   0.143   0.992   1.528
 3827TIP3    H211488   0.225   1.086   1.443
 3828TIP3   OH211489   0.753   3.083   3.717
 3828TIP3    H111490   0.792   3.167   3.740
 3828TIP3    H211491   0.711   3.053   3.797
 3829TIP3   OH211492   4.539   0.391   2.146
 3829TIP3    H111493   4.494   0.389   2.061
 3829TIP3    H211494   4.535   0.483   2.173
 3830TIP3   OH211495   3.454   2.966   4.117
 3830TIP3    H111496   3.482   3.058   4.115
 3830TIP3    H211497   3.374   2.967   4.170
 3831TIP3   OH211498   5.743   0.084   2.689
 3831TIP3    H111499   5.675   0.054   2.629
 3831TIP3    H211500   5.818   0.027   2.670
 3832TIP3   OH211501   1.014   2.845   0.439
 3832TIP3    H111502   1.072   2.772   0.415
 3832TIP3    H211503   0.977   2.819   0.523
 3833TIP3   OH211504   1.676   2.417   4.641
 3833TIP3    H111505   1.762   2.392   4.674
 3833TIP3    H211506   1.620   2.342   4.659
 3834TIP3   OH211507   5.387   3.696   3.936
 3834TIP3    H111508   5.361   3.604   3.929
 3834TIP3    H211509   5.475   3.700   3.897
 3835TIP3   OH211510   5.267   4.137   4.291
 3835TIP3    H111511   5.236   4.226   4.276
 3835TIP3    H211512   5.270   4.097   4.204
 3836TIP3   OH211513   5.806   2.561   1.618
 3836TIP3    H111514   5.866   2.546   1.691
 3836TIP3    H211515   5.823   2.651   1.591
 3837TIP3   OH211516   0.153   1.275   5.189
 3837TIP3    H111517   0.151   1.302   5.281
 3837TIP3    H211518   0.189   1.350   5.143
 3838TIP3   OH211519   2.648   1.900   0.148
 3838TIP3    H111520   2.592   1.901   0.226
 3838TIP3    H211521   2.737   1.903   0.183
 3839TIP3   OH211522   3.828   5.882   0.436
 3839TIP3    H111523   3.804   5.973   0.455
 3839TIP3    H211524   3.744   5.837   0.428
 3840TIP3   OH211525   2.016   0.847   1.570
 3840TIP3    H111526   1.970   0.927   1.596
 3840TIP3    H211527   1.949   0.793   1.528
 3841TIP3   OH211528   2.108   4.740   1.612
 3841TIP3    H111529   2.192   4.741   1.658
 3841TIP3    H211530   2.082   4.648   1.613
 3842TIP3   OH211531   0.915   2.205   0.121
 3842TIP3    H111532   1.003   2.171   0.102
 3842TIP3    H211533   0.860   2.170   0.051
 3843TIP3   OH211534   5.710   3.934   2.460
 3843TIP3    H111535   5.793   3.898   2.431
 3843TIP3    H211536   5.734   4.004   2.520
 3844TIP3   OH211537   5.443   0.514   2.278
 3844TIP3    H111538   5.491   0.437   2.309
 3844TIP3    H211539   5.396   0.484   2.201
 3845TIP3   OH211540   5.621   0.531   0.494
 3845TIP3    H111541   5.627   0.501   0.585
 3845TIP3    H211542   5.579   0.459   0.448
 3846TIP3   OH211543   4.043   4.597   4.977
 3846TIP3    H111544   3.953   4.572   4.958
 3846TIP3    H211545   4.097   4.532   4.932
 3847TIP3   OH211546   1.153   3.189   3.079
 3847TIP3    H111547   1.142   3.094   3.080
 3847TIP3    H211548   1.144   3.215   3.171
 3848TIP3   OH211549   1.785   2.575   4.968
 3848TIP3    H111550   1.808   2.507   5.031
 3848TIP3    H211551   1.689   2.580   4.972
 3849TIP3   OH211552   1.284   4.418   4.822
 3849TIP3    H111553   1.257   4.397   4.911
 3849TIP3    H211554   1.355   4.481   4.833
 3850TIP3   OH211555   3.382   3.058   3.551
 3850TIP3    H111556   3.336   2.983   3.590
 3850TIP3    H211557   3.446   3.018   3.492
 3851TIP3   OH211558   2.873   4.948   4.613
 3851TIP3    H111559   2.893   5.018   4.551
 3851TIP3    H211560   2.847   4.993   4.693
 3852TIP3   OH211561   0.957   3.112   1.941
 3852TIP3    H111562   0.954   3.047   2.011
 3852TIP3    H211563   0.989   3.063   1.865
 3853TIP3   OH211564   0.635   4.694   5.130
 3853TIP3    H111565   0.707   4.747   5.095
 3853TIP3    H211566   0.593   4.751   5.195
 3854TIP3   OH211567   5.563   0.039   3.763
 3854TIP3    H111568   5.637   0.080   3.807
 3854TIP3    H211569   5.487   0.088   3.794
 3855TIP3   OH211570   3.574   2.514   1.829
 3855TIP3    H111571   3.610   2.600   1.853
 3855TIP3    H211572   3.569   2.516   1.734
 3856TIP3   OH211573   5.871   0.650   0.739
 3856TIP3    H111574   5.779   0.674   0.752
 3856TIP3    H211575   5.920   0.710   0.794
 3857TIP3   OH211576   3.474   0.812   1.636
 3857TIP3    H111577   3.399   0.840   1.585
 3857TIP3    H211578   3.500   0.729   1.597
 3858TIP3   OH211579   5.338   3.522   4.911
 3858TIP3    H111580   5.354   3.430   4.888
 3858TIP3    H211581   5.255   3.521   4.959
 3859TIP3   OH211582   5.423   4.655   2.286
 3859TIP3    H111583   5.489   4.721   2.308
 3859TIP3    H211584   5.468   4.572   2.297
 3860TIP3   OH211585   4.134   1.732   1.496
 3860TIP3    H111586   4.166   1.771   1.415
 3860TIP3    H211587   4.118   1.640   1.475
 3861TIP3   OH211588   0.406   1.201   0.211
 3861TIP3    H111589   0.408   1.154   0.294
 3861TIP3    H211590   0.357   1.281   0.231
 3862TIP3   OH211591   3.062   1.268   0.782
 3862TIP3    H111592   3.058   1.341   0.844
 3862TIP3    H211593   2.984   1.278   0.727
 3863TIP3   OH211594   4.847   1.072   4.633
 3863TIP3    H111595   4.816   1.139   4.694
 3863TIP3    H211596   4.766   1.036   4.595
 3864TIP3   OH211597   2.323   5.040   3.946
 3864TIP3    H111598   2.352   5.087   4.024
 3864TIP3    H211599   2.355   4.951   3.958
 3865TIP3   OH211600   1.937   0.353   0.247
 3865TIP3    H111601   1.973   0.337   0.160
 3865TIP3    H211602   1.971   0.282   0.301
 3866TIP3   OH211603   5.927   2.867   3.629
 3866TIP3    H111604   5.961   2.839   3.714
 3866TIP3    H211605   5.856   2.807   3.610
 3867TIP3   OH211606   0.546   3.695   1.034
 3867TIP3    H111607   0.588   3.772   1.070
 3867TIP3    H211608   0.481   3.729   0.973
 3868TIP3   OH211609   3.366   5.865   4.365
 3868TIP3    H111610   3.314   5.902   4.437
 3868TIP3    H211611   3.443   5.921   4.360
 3869TIP3   OH211612   1.093   3.462   3.491
 3869TIP3    H111613   1.056   3.546   3.516
 3869TIP3    H211614   1.048   3.398   3.546
 3870TIP3   OH211615   0.383   4.761   3.151
 3870TIP3    H111616   0.307   4.810   3.184
 3870TIP3    H211617   0.344   4.688   3.102
 3871TIP3   OH211618   1.030   3.105   2.481
 3871TIP3    H111619   1.108   3.051   2.472
 3871TIP3    H211620   0.981   3.089   2.400
 3872TIP3   OH211621   2.616   1.299   3.171
 3872TIP3    H111622   2.681   1.230   3.180
 3872TIP3    H211623   2.638   1.343   3.089
 3873TIP3   OH211624   2.823   1.588   2.767
 3873TIP3    H111625   2.902   1.587   2.713
 3873TIP3    H211626   2.830   1.509   2.822
 3874TIP3   OH211627   5.086   3.261   4.136
 3874TIP3    H111628   5.043   3.177   4.152
 3874TIP3    H211629   5.139   3.276   4.214
 3875TIP3   OH211630   0.082   1.271   4.388
 3875TIP3    H111631   0.002   1.270   4.336
 3875TIP3    H211632   0.071   1.199   4.450
 3876TIP3   OH211633   1.812   3.009   0.822
 3876TIP3    H111634   1.749   2.962   0.876
 3876TIP3    H211635   1.810   3.099   0.855
 3877TIP3   OH211636   0.340   0.361   3.490
 3877TIP3    H111637   0.263   0.339   3.543
 3877TIP3    H211638   0.394   0.415   3.548
 3878TIP3   OH211639   5.025   1.499   2.095
 3878TIP3    H111640   4.982   1.583   2.107
 3878TIP3    H211641   5.059   1.477   2.181
 3879TIP3   OH211642   4.874   5.451   0.934
 3879TIP3    H111643   4.805   5.490   0.988
 3879TIP3    H211644   4.914   5.524   0.888
 3880TIP3   OH211645   1.883  -0.026   0.385
 3880TIP3    H111646   1.814   0.030   0.420
 3880TIP3    H211647   1.965   0.015   0.413
 3881TIP3   OH211648  -0.027   1.772   1.754
 3881TIP3    H111649   0.004   1.825   1.827
 3881TIP3    H211650   0.047   1.714   1.734
 3882TIP3   OH211651   4.558   3.863   0.172
 3882TIP3    H111652   4.561   3.768   0.183
 3882TIP3    H211653   4.635   3.884   0.119
 3883TIP3   OH211654   5.792   2.604   2.556
 3883TIP3    H111655   5.729   2.641   2.618
 3883TIP3    H211656   5.807   2.515   2.588
 3884TIP3   OH211657   1.035   1.284   1.991
 3884TIP3    H111658   1.102   1.219   2.012
 3884TIP3    H211659   0.987   1.297   2.073
 3885TIP3   OH211660   0.900   3.874   2.946
 3885TIP3    H111661   0.975   3.899   2.892
 3885TIP3    H211662   0.863   3.797   2.902
 3886TIP3   OH211663   2.516   5.891   1.115
 3886TIP3    H111664   2.447   5.926   1.171
 3886TIP3    H211665   2.580   5.962   1.108
 3887TIP3   OH211666   5.680   3.684   0.809
 3887TIP3    H111667   5.679   3.780   0.812
 3887TIP3    H211668   5.743   3.659   0.878
 3888TIP3   OH211669   4.644   4.230   0.223
 3888TIP3    H111670   4.593   4.255   0.146
 3888TIP3    H211671   4.715   4.294   0.227
 3889TIP3   OH211672   2.246   5.734   3.041
 3889TIP3    H111673   2.308   5.663   3.026
 3889TIP3    H211674   2.174   5.694   3.089
 3890TIP3   OH211675   4.779   3.846   4.526
 3890TIP3    H111676   4.873   3.866   4.519
 3890TIP3    H211677   4.776   3.751   4.539
 3891TIP3   OH211678   5.629   4.978   0.343
 3891TIP3    H111679   5.606   4.905   0.400
 3891TIP3    H211680   5.679   5.037   0.399
 3892TIP3   OH211681   4.688   2.680   1.891
 3892TIP3    H111682   4.713   2.593   1.922
 3892TIP3    H211683   4.760   2.737   1.918
 3893TIP3   OH211684   5.807   2.422   4.086
 3893TIP3    H111685   5.842   2.381   4.007
 3893TIP3    H211686   5.727   2.465   4.057
 3894TIP3   OH211687   0.930   3.958   1.756
 3894TIP3    H111688   0.943   3.916   1.841
 3894TIP3    H211689   1.019   3.978   1.726
 3895TIP3   OH211690   0.674   1.992   4.670
 3895TIP3    H111691   0.767   2.011   4.685
 3895TIP3    H211692   0.674   1.928   4.600
 3896TIP3   OH211693   2.992   5.477   3.628
 3896TIP3    H111694   3.068   5.487   3.686
 3896TIP3    H211695   2.918   5.509   3.679
 3897TIP3   OH211696   1.963   2.776   4.148
 3897TIP3    H111697   1.902   2.801   4.078
 3897TIP3    H211698   2.039   2.831   4.134
 3898TIP3   OH211699   1.762   0.188   3.343
 3898TIP3    H111700   1.751   0.093   3.348
 3898TIP3    H211701   1.713   0.221   3.418
 3899TIP3   OH211702   2.776   1.384   1.388
 3899TIP3    H111703   2.720   1.317   1.425
 3899TIP3    H211704   2.856   1.338   1.362
 3900TIP3   OH211705   5.779   0.221   2.928
 3900TIP3    H111706   5.773   0.187   2.839
 3900TIP3    H211707   5.689   0.244   2.951
 3901TIP3   OH211708   3.297   2.658   1.942
 3901TIP3    H111709   3.288   2.681   1.850
 3901TIP3    H211710   3.323   2.566   1.942
 3902TIP3   OH211711   0.447   3.461   3.670
 3902TIP3    H111712   0.369   3.433   3.719
 3902TIP3    H211713   0.467   3.548   3.705
 3903TIP3   OH211714   1.625   5.899   2.498
 3903TIP3    H111715   1.606   5.985   2.535
 3903TIP3    H211716   1.539   5.857   2.489
 3904TIP3   OH211717   2.678   0.683   1.857
 3904TIP3    H111718   2.587   0.678   1.828
 3904TIP3    H211719   2.681   0.630   1.937
 3905TIP3   OH211720   2.100   5.381   2.728
 3905TIP3    H111721   2.014   5.387   2.687
 3905TIP3    H211722   2.084   5.408   2.819
 3906TIP3   OH211723   6.089   0.634   2.897
 3906TIP3    H111724   6.132   0.577   2.961
 3906TIP3    H211725   6.000   0.599   2.890
 3907TIP3   OH211726   1.496   5.257   1.201
 3907TIP3    H111727   1.584   5.286   1.222
 3907TIP3    H211728   1.507   5.168   1.166
 3908TIP3   OH211729   1.673   5.255   0.613
 3908TIP3    H111730   1.763   5.251   0.582
 3908TIP3    H211731   1.653   5.166   0.642
 3909TIP3   OH211732   6.289   1.697   4.071
 3909TIP3    H111733   6.218   1.735   4.018
 3909TIP3    H211734   6.338   1.773   4.102
 3910TIP3   OH211735   1.271   0.981   3.429
 3910TIP3    H111736   1.189   0.937   3.453
 3910TIP3    H211737   1.339   0.916   3.449
 3911TIP3   OH211738   4.423   4.057   3.428
 3911TIP3    H111739   4.476   4.060   3.508
 3911TIP3    H211740   4.484   4.032   3.359
 3912TIP3   OH211741   0.195   3.886   0.624
 3912TIP3    H111742   0.217   3.959   0.682
 3912TIP3    H211743   0.182   3.927   0.538
 3913TIP3   OH211744   3.259   2.916   2.357
 3913TIP3    H111745   3.201   2.917   2.433
 3913TIP3    H211746   3.347   2.921   2.394
 3914TIP3   OH211747   0.804   1.804   2.666
 3914TIP3    H111748   0.850   1.870   2.718
 3914TIP3    H211749   0.732   1.775   2.721
 3915TIP3   OH211750   4.400   0.319   2.374
 3915TIP3    H111751   4.463   0.352   2.310
 3915TIP3    H211752   4.329   0.283   2.321
 3916TIP3   OH211753   5.394   3.120   2.942
 3916TIP3    H111754   5.447   3.124   2.863
 3916TIP3    H211755   5.452   3.151   3.011
 3917TIP3   OH211756   6.028   3.215   2.799
 3917TIP3    H111757   6.119   3.243   2.788
 3917TIP3    H211758   5.978   3.296   2.801
 3918TIP3   OH211759   4.664   3.016   5.142
 3918TIP3    H111760   4.754   2.986   5.155
 3918TIP3    H211761   4.638   3.051   5.227
 3919TIP3   OH211762   3.084   3.812   0.274
 3919TIP3    H111763   3.151   3.880   0.271
 3919TIP3    H211764   3.099   3.759   0.196
 3920TIP3   OH211765   2.177   5.324   1.529
 3920TIP3    H111766   2.084   5.340   1.543
 3920TIP3    H211767   2.220   5.403   1.564
 3921TIP3   OH211768   2.770   2.122   2.148
 3921TIP3    H111769   2.852   2.152   2.108
 3921TIP3    H211770   2.748   2.042   2.102
 3922TIP3   OH211771   5.348   2.749   4.458
 3922TIP3    H111772   5.417   2.776   4.397
 3922TIP3    H211773   5.272   2.802   4.433
 3923TIP3   OH211774   2.528   3.595   0.742
 3923TIP3    H111775   2.601   3.657   0.746
 3923TIP3    H211776   2.570   3.509   0.736
 3924TIP3   OH211777   2.394   3.888   4.220
 3924TIP3    H111778   2.469   3.844   4.259
 3924TIP3    H211779   2.325   3.822   4.217
 3925TIP3   OH211780   3.798   1.677   2.825
 3925TIP3    H111781   3.864   1.739   2.857
 3925TIP3    H211782   3.767   1.716   2.743
 3926TIP3   OH211783   0.691   5.165   1.175
 3926TIP3    H111784   0.754   5.093   1.165
 3926TIP3    H211785   0.670   5.166   1.268
 3927TIP3   OH211786   4.449   3.400   2.121
 3927TIP3    H111787   4.491   3.441   2.196
 3927TIP3    H211788   4.360   3.435   2.121
 3928TIP3   OH211789   4.539   3.720   1.192
 3928TIP3    H111790   4.626   3.684   1.207
 3928TIP3    H211791   4.508   3.677   1.112
 3929TIP3   OH211792   1.582   3.774   2.709
 3929TIP3    H111793   1.490   3.750   2.720
 3929TIP3    H211794   1.613   3.716   2.639
 3930TIP3   OH211795   3.394   3.965   2.093
 3930TIP3    H111796   3.307   3.986   2.060
 3930TIP3    H211797   3.445   4.045   2.079
 3931TIP3   OH211798   4.272   1.861   0.582
 3931TIP3    H111799   4.247   1.774   0.552
 3931TIP3    H211800   4.336   1.892   0.518
 3932TIP3   OH211801   1.273   3.574   2.504
 3932TIP3    H111802   1.263   3.587   2.599
 3932TIP3    H211803   1.350   3.518   2.496
 3933TIP3   OH211804   3.914   5.998   3.884
 3933TIP3    H111805   3.928   5.916   3.837
 3933TIP3    H211806   4.001   6.039   3.886
 3934TIP3   OH211807   4.145   3.671   4.150
 3934TIP3    H111808   4.190   3.630   4.223
 3934TIP3    H211809   4.211   3.730   4.112
 3935TIP3   OH211810   1.135   2.651   0.293
 3935TIP3    H111811   1.218   2.604   0.289
 3935TIP3    H211812   1.082   2.614   0.222
 3936TIP3   OH211813   1.992   0.363   2.042
 3936TIP3    H111814   2.019   0.422   2.112
 3936TIP3    H211815   1.954   0.420   1.976
 3937TIP3   OH211816   4.724   1.406   0.839
 3937TIP3    H111817   4.699   1.374   0.752
 3937TIP3    H211818   4.816   1.381   0.848
 3938TIP3   OH211819   3.840   0.919   2.612
 3938TIP3    H111820   3.839   0.941   2.705
 3938TIP3    H211821   3.767   0.857   2.602
 3939TIP3   OH211822   0.418   3.376   1.661
 3939TIP3    H111823   0.500   3.348   1.619
 3939TIP3    H211824   0.375   3.430   1.595
 3940TIP3   OH211825   5.972   1.294   3.390
 3940TIP3    H111826   5.949   1.323   3.478
 3940TIP3    H211827   5.930   1.208   3.382
 3941TIP3   OH211828   4.455   5.379   2.243
 3941TIP3    H111829   4.431   5.329   2.321
 3941TIP3    H211830   4.518   5.324   2.197
 3942TIP3   OH211831   5.229   1.092   1.981
 3942TIP3    H111832   5.157   1.154   1.973
 3942TIP3    H211833   5.274   1.118   2.061
 3943TIP3   OH211834   5.576   4.339   0.335
 3943TIP3    H111835   5.504   4.280   0.313
 3943TIP3    H211836   5.644   4.321   0.269
 3944TIP3   OH211837   3.486   5.157   3.463
 3944TIP3    H111838   3.543   5.082   3.448
 3944TIP3    H211839   3.491   5.207   3.382
 3945TIP3   OH211840   2.148   2.842   1.441
 3945TIP3    H111841   2.238   2.811   1.445
 3945TIP3    H211842   2.109   2.792   1.370
 3946TIP3   OH211843   6.309   2.506   2.928
 3946TIP3    H111844   6.252   2.574   2.965
 3946TIP3    H211845   6.356   2.550   2.857
 3947TIP3   OH211846   2.076   0.603   3.786
 3947TIP3    H111847   2.039   0.643   3.707
 3947TIP3    H211848   2.055   0.510   3.778
 3948TIP3   OH211849   0.669   1.190   0.123
 3948TIP3    H111850   0.679   1.275   0.080
 3948TIP3    H211851   0.575   1.180   0.135
 3949TIP3   OH211852   5.649   0.051   1.553
 3949TIP3    H111853   5.605   0.135   1.568
 3949TIP3    H211854   5.608  -0.009   1.616
 3950TIP3   OH211855   4.295   0.888   1.268
 3950TIP3    H111856   4.244   0.808   1.257
 3950TIP3    H211857   4.231   0.956   1.288
 3951TIP3   OH211858   2.701   1.364   2.337
 3951TIP3    H111859   2.754   1.309   2.280
 3951TIP3    H211860   2.639   1.304   2.378
 3952TIP3   OH211861   4.055   3.536   2.463
 3952TIP3    H111862   4.016   3.610   2.417
 3952TIP3    H211863   3.999   3.525   2.540
 3953TIP3   OH211864   4.210   2.790   3.424
 3953TIP3    H111865   4.162   2.747   3.495
 3953TIP3    H211866   4.229   2.878   3.459
 3954TIP3   OH211867   1.731   3.755   3.810
 3954TIP3    H111868   1.742   3.800   3.894
 3954TIP3    H211869   1.806   3.783   3.758
 3955TIP3   OH211870   2.736   3.229   4.729
 3955TIP3    H111871   2.713   3.322   4.731
 3955TIP3    H211872   2.720   3.198   4.818
 3956TIP3   OH211873   5.415   2.579   3.128
 3956TIP3    H111874   5.378   2.627   3.202
 3956TIP3    H211875   5.411   2.487   3.154
 3957TIP3   OH211876   4.794   0.716   2.877
 3957TIP3    H111877   4.714   0.746   2.833
 3957TIP3    H211878   4.794   0.621   2.865
 3958TIP3   OH211879   2.816   2.159   3.477
 3958TIP3    H111880   2.877   2.094   3.442
 3958TIP3    H211881   2.775   2.197   3.399
 3959TIP3   OH211882   1.248   5.899   0.512
 3959TIP3    H111883   1.192   5.887   0.435
 3959TIP3    H211884   1.191   5.877   0.586
 3960TIP3   OH211885   0.900   5.797   1.893
 3960TIP3    H111886   0.882   5.728   1.830
 3960TIP3    H211887   0.993   5.816   1.882
 3961TIP3   OH211888   0.793   3.136   5.158
 3961TIP3    H111889   0.878   3.121   5.117
 3961TIP3    H211890   0.761   3.217   5.119
 3962TIP3   OH211891   2.680   5.269   3.907
 3962TIP3    H111892   2.752   5.234   3.855
 3962TIP3    H211893   2.601   5.241   3.860
 3963TIP3   OH211894   0.459   2.757   4.865
 3963TIP3    H111895   0.391   2.808   4.910
 3963TIP3    H211896   0.428   2.750   4.775
 3964TIP3   OH211897   0.793   2.492   1.820
 3964TIP3    H111898   0.730   2.468   1.753
 3964TIP3    H211899   0.772   2.435   1.894
 3965TIP3   OH211900   3.713   5.118   1.595
 3965TIP3    H111901   3.799   5.086   1.622
 3965TIP3    H211902   3.732   5.182   1.527
 3966TIP3   OH211903   5.208   2.256   0.534
 3966TIP3    H111904   5.261   2.182   0.563
 3966TIP3    H211905   5.126   2.248   0.584
 3967TIP3   OH211906   4.176   0.054   4.980
 3967TIP3    H111907   4.181  -0.041   4.991
 3967TIP3    H211908   4.166   0.088   5.069
 3968TIP3   OH211909   5.281   4.007   4.989
 3968TIP3    H111910   5.208   4.032   4.932
 3968TIP3    H211911   5.243   3.942   5.048
 3969TIP3   OH211912   5.498   4.236   3.560
 3969TIP3    H111913   5.416   4.191   3.578
 3969TIP3    H211914   5.472   4.315   3.513
 3970TIP3   OH211915   3.580   5.336   3.243
 3970TIP3    H111916   3.598   5.400   3.174
 3970TIP3    H211917   3.515   5.378   3.299
 3971TIP3   OH211918   3.498   4.354   0.534
 3971TIP3    H111919   3.507   4.263   0.562
 3971TIP3    H211920   3.469   4.349   0.443
 3972TIP3   OH211921   1.007   0.638   4.078
 3972TIP3    H111922   0.983   0.667   3.990
 3972TIP3    H211923   1.096   0.670   4.090
 3973TIP3   OH211924   4.431   5.885   4.539
 3973TIP3    H111925   4.366   5.936   4.490
 3973TIP3    H211926   4.487   5.952   4.579
 3974TIP3   OH211927   1.375   4.824   3.940
 3974TIP3    H111928   1.317   4.763   3.986
 3974TIP3    H211929   1.365   4.907   3.987
 3975TIP3   OH211930   2.482   2.257   3.549
 3975TIP3    H111931   2.522   2.177   3.516
 3975TIP3    H211932   2.555   2.305   3.589
 3976TIP3   OH211933   4.296   1.335   1.856
 3976TIP3    H111934   4.281   1.413   1.909
 3976TIP3    H211935   4.336   1.368   1.776
 3977TIP3   OH211936   5.169   4.528   2.161
 3977TIP3    H111937   5.257   4.546   2.194
 3977TIP3    H211938   5.150   4.601   2.102
 3978TIP3   OH211939   1.467   4.530   5.130
 3978TIP3    H111940   1.448   4.589   5.203
 3978TIP3    H211941   1.382   4.493   5.107
 3979TIP3   OH211942   1.929   1.477   2.599
 3979TIP3    H111943   1.910   1.570   2.589
 3979TIP3    H211944   1.877   1.449   2.674
 3980TIP3   OH211945   3.636   0.747   0.957
 3980TIP3    H111946   3.574   0.776   0.890
 3980TIP3    H211947   3.703   0.816   0.959
 3981TIP3   OH211948   0.941   0.056   0.700
 3981TIP3    H111949   0.906  -0.007   0.764
 3981TIP3    H211950   0.870   0.068   0.637
 3982TIP3   OH211951   2.966   0.649   2.230
 3982TIP3    H111952   2.994   0.733   2.265
 3982TIP3    H211953   2.883   0.667   2.187
 3983TIP3   OH211954   1.697   3.488   3.818
 3983TIP3    H111955   1.710   3.580   3.838
 3983TIP3    H211956   1.747   3.442   3.886
 3984TIP3   OH211957   0.620   5.884   1.530
 3984TIP3    H111958   0.704   5.923   1.509
 3984TIP3    H211959   0.565   5.957   1.557
 3985TIP3   OH211960   4.878   0.423   3.275
 3985TIP3    H111961   4.926   0.389   3.199
 3985TIP3    H211962   4.919   0.381   3.350
 3986TIP3   OH211963   3.977   2.974   1.827
 3986TIP3    H111964   4.017   3.033   1.890
 3986TIP3    H211965   4.002   3.009   1.742
 3987TIP3   OH211966   5.933   5.399   0.192
 3987TIP3    H111967   5.879   5.412   0.114
 3987TIP3    H211968   5.893   5.454   0.259
 3988TIP3   OH211969   3.668   1.476   0.912
 3988TIP3    H111970   3.670   1.427   0.995
 3988TIP3    H211971   3.604   1.430   0.858
 3989TIP3   OH211972   1.638   5.791   2.183
 3989TIP3    H111973   1.649   5.700   2.209
 3989TIP3    H211974   1.611   5.836   2.263
 3990TIP3   OH211975   0.457   1.947   2.350
 3990TIP3    H111976   0.460   2.014   2.281
 3990TIP3    H211977   0.401   1.986   2.418
 3991TIP3   OH211978   3.148   5.305   0.044
 3991TIP3    H111979   3.240   5.294   0.068
 3991TIP3    H211980   3.101   5.244   0.101
 3992TIP3   OH211981   5.600   4.008   3.660
 3992TIP3    H111982   5.687   3.988   3.624
 3992TIP3    H211983   5.578   4.094   3.624
 3993TIP3   OH211984   2.071   4.802   4.168
 3993TIP3    H111985   2.034   4.879   4.211
 3993TIP3    H211986   1.997   4.742   4.158
 3994TIP3   OH211987   1.894   1.949   3.314
 3994TIP3    H111988   1.873   1.949   3.407
 3994TIP3    H211989   1.877   2.039   3.286
 3995TIP3   OH211990   0.468   4.182   2.272
 3995TIP3    H111991   0.556   4.189   2.234
 3995TIP3    H211992   0.482   4.190   2.366
 3996TIP3   OH211993   6.276   0.102   1.253
 3996TIP3    H111994   6.236   0.016   1.255
 3996TIP3    H211995   6.261   0.137   1.341
 3997TIP3   OH211996   4.819   4.959   2.224
 3997TIP3    H111997   4.845   4.869   2.242
 3997TIP3    H211998   4.741   4.952   2.169
 3998TIP3   OH211999   3.460   2.408   3.161
 3998TIP3    H112000   3.379   2.358   3.172
 3998TIP3    H212001   3.435   2.479   3.101
 3999TIP3   OH212002   2.228   5.143   0.374
 3999TIP3    H112003   2.136   5.148   0.347
 3999TIP3    H212004   2.244   5.226   0.419
 4000TIP3   OH212005   4.688   3.654   3.482
 4000TIP3    H112006   4.656   3.580   3.532
 4000TIP3    H212007   4.745   3.701   3.543
 4001TIP3   OH212008   4.331   3.328   1.211
 4001TIP3    H112009   4.317   3.405   1.266
 4001TIP3    H212010   4.263   3.266   1.238
 4002TIP3   OH212011   4.986   2.698   3.000
 4002TIP3    H112012   5.041   2.620   3.007
 4002TIP3    H212013   5.039   2.759   2.949
 4003TIP3   OH212014   0.824   3.833   3.213
 4003TIP3    H112015   0.838   3.825   3.119
 4003TIP3    H212016   0.814   3.743   3.244
 4004TIP3   OH212017   5.672   1.112   4.798
 4004TIP3    H112018   5.586   1.152   4.800
 4004TIP3    H212019   5.655   1.017   4.794
 4005TIP3   OH212020   4.760   4.101   1.407
 4005TIP3    H112021   4.698   4.146   1.463
 4005TIP3    H212022   4.706   4.062   1.338
 4006TIP3   OH212023   2.766   0.352   2.691
 4006TIP3    H112024   2.676   0.377   2.715
 4006TIP3    H212025   2.809   0.435   2.671
 4007TIP3   OH212026   5.686   0.599   3.789
 4007TIP3    H112027   5.718   0.656   3.720
 4007TIP3    H212028   5.592   0.589   3.771
 4008TIP3   OH212029   3.553   1.026   2.972
 4008TIP3    H112030   3.588   1.078   3.044
 4008TIP3    H212031   3.547   0.937   3.007
 4009TIP3   OH212032   3.539   0.106   2.593
 4009TIP3    H112033   3.459   0.157   2.605
 4009TIP3    H212034   3.548   0.099   2.498
 4010TIP3   OH212035   5.207   1.542   0.559
 4010TIP3    H112036   5.290   1.572   0.522
 4010TIP3    H212037   5.225   1.453   0.589
 4011TIP3   OH212038   4.833   3.801   0.254
 4011TIP3    H112039   4.826   3.742   0.179
 4011TIP3    H212040   4.755   3.783   0.306
 4012TIP3   OH212041   4.132   0.148   3.923
 4012TIP3    H112042   4.083   0.066   3.927
 4012TIP3    H212043   4.078   0.206   3.870
 4013TIP3   OH212044   3.136   0.160   4.879
 4013TIP3    H112045   3.197   0.115   4.938
 4013TIP3    H212046   3.114   0.242   4.925
 4014TIP3   OH212047   4.963   4.517   4.825
 4014TIP3    H112048   4.969   4.561   4.910
 4014TIP3    H212049   5.006   4.432   4.838
 4015TIP3   OH212050   0.714   2.972   2.392
 4015TIP3    H112051   0.634   2.989   2.443
 4015TIP3    H212052   0.682   2.928   2.313
 4016TIP3   OH212053   2.425   5.303   0.203
 4016TIP3    H112054   2.380   5.387   0.195
 4016TIP3    H212055   2.515   5.321   0.174
 4017TIP3   OH212056   3.268   4.321   2.289
 4017TIP3    H112057   3.331   4.328   2.217
 4017TIP3    H212058   3.216   4.401   2.283
 4018TIP3   OH212059   3.952   0.477   4.351
 4018TIP3    H112060   3.955   0.385   4.378
 4018TIP3    H212061   4.002   0.480   4.270
 4019TIP3   OH212062   5.117   3.475   2.680
 4019TIP3    H112063   5.026   3.461   2.706
 4019TIP3    H212064   5.136   3.405   2.617
 4020TIP3   OH212065   0.830   1.556   3.337
 4020TIP3    H112066   0.913   1.603   3.331
 4020TIP3    H212067   0.806   1.563   3.430
 4021TIP3   OH212068   4.711   2.841   2.245
 4021TIP3    H112069   4.760   2.772   2.200
 4021TIP3    H212070   4.653   2.793   2.304
 4022TIP3   OH212071   5.812   2.996   1.829
 4022TIP3    H112072   5.789   2.945   1.907
 4022TIP3    H212073   5.847   3.078   1.864
 4023TIP3   OH212074   5.227   4.443   2.811
 4023TIP3    H112075   5.303   4.476   2.859
 4023TIP3    H212076   5.202   4.515   2.753
 4024TIP3   OH212077   1.493   1.508   3.453
 4024TIP3    H112078   1.483   1.530   3.361
 4024TIP3    H212079   1.555   1.435   3.454
 4025TIP3   OH212080   4.959   3.439   1.473
 4025TIP3    H112081   5.002   3.519   1.505
 4025TIP3    H212082   5.023   3.400   1.414
 4026TIP3   OH212083   2.890   2.960   0.182
 4026TIP3    H112084   2.842   2.970   0.264
 4026TIP3    H212085   2.823   2.932   0.118
 4027TIP3   OH212086   6.114   3.347   2.172
 4027TIP3    H112087   6.058   3.325   2.247
 4027TIP3    H212088   6.175   3.273   2.165
 4028TIP3   OH212089   6.205   2.416   1.449
 4028TIP3    H112090   6.185   2.448   1.537
 4028TIP3    H212091   6.256   2.336   1.464
 4029TIP3   OH212092   2.983   2.673   3.816
 4029TIP3    H112093   2.897   2.690   3.777
 4029TIP3    H212094   3.007   2.586   3.783
 4030TIP3   OH212095   5.127   5.286   1.730
 4030TIP3    H112096   5.223   5.283   1.724
 4030TIP3    H212097   5.107   5.232   1.807
 4031TIP3   OH212098   6.074   5.311   2.116
 4031TIP3    H112099   6.092   5.231   2.066
 4031TIP3    H212100   6.049   5.375   2.049
 4032TIP3   OH212101   4.165   3.546   1.696
 4032TIP3    H112102   4.192   3.636   1.716
 4032TIP3    H212103   4.073   3.554   1.671
 4033TIP3   OH212104   0.278   5.134   1.197
 4033TIP3    H112105   0.229   5.214   1.179
 4033TIP3    H212106   0.310   5.106   1.111
 4034TIP3   OH212107   2.836   2.575   0.048
 4034TIP3    H112108   2.876   2.603   0.130
 4034TIP3    H212109   2.755   2.626   0.043
 4035TIP3   OH212110   4.613   5.061   2.607
 4035TIP3    H112111   4.620   5.102   2.693
 4035TIP3    H212112   4.699   5.023   2.591
 4036TIP3   OH212113   2.829   3.935   0.958
 4036TIP3    H112114   2.835   3.902   1.048
 4036TIP3    H212115   2.797   4.025   0.966
 4037TIP3   OH212116   1.740   3.195   1.036
 4037TIP3    H112117   1.717   3.147   1.116
 4037TIP3    H212118   1.826   3.233   1.055
 4038TIP3   OH212119   0.239   3.806   4.556
 4038TIP3    H112120   0.286   3.800   4.639
 4038TIP3    H212121   0.305   3.831   4.493
 4039TIP3   OH212122   3.862   3.633   0.467
 4039TIP3    H112123   3.807   3.663   0.539
 4039TIP3    H212124   3.940   3.599   0.509
 4040TIP3   OH212125   3.657   0.980   3.494
 4040TIP3    H112126   3.615   1.060   3.526
 4040TIP3    H212127   3.686   0.935   3.573
 4041TIP3   OH212128   0.499   4.537   0.198
 4041TIP3    H112129   0.569   4.569   0.255
 4041TIP3    H212130   0.449   4.616   0.175
 4042TIP3   OH212131   1.477   2.415   1.389
 4042TIP3    H112132   1.403   2.403   1.331
 4042TIP3    H212133   1.553   2.417   1.330
 4043TIP3   OH212134   0.960   2.112   4.103
 4043TIP3    H112135   1.033   2.092   4.162
 4043TIP3    H212136   0.925   2.027   4.077
 4044TIP3   OH212137   3.914   2.304   2.370
 4044TIP3    H112138   3.979   2.242   2.402
 4044TIP3    H212139   3.902   2.281   2.278
 4045TIP3   OH212140   3.395   3.912   0.518
 4045TIP3    H112141   3.411   3.884   0.428
 4045TIP3    H212142   3.312   3.870   0.543
 4046TIP3   OH212143   3.524   3.664   0.407
 4046TIP3    H112144   3.436   3.627   0.406
 4046TIP3    H212145   3.582   3.589   0.403
 4047TIP3   OH212146   2.709   2.637   2.934
 4047TIP3    H112147   2.626   2.672   2.902
 4047TIP3    H212148   2.699   2.636   3.029
 4048TIP3   OH212149   0.250   1.623   3.136
 4048TIP3    H112150   0.177   1.633   3.075
 4048TIP3    H212151   0.248   1.531   3.162
 4049TIP3   OH212152   1.391   3.112   4.985
 4049TIP3    H112153   1.388   3.050   5.058
 4049TIP3    H212154   1.391   3.056   4.907
 4050TIP3   OH212155   1.566   5.022   3.316
 4050TIP3    H112156   1.547   4.934   3.349
 4050TIP3    H212157   1.486   5.072   3.332
 4051TIP3   OH212158   0.247   4.353   4.325
 4051TIP3    H112159   0.221   4.440   4.355
 4051TIP3    H212160   0.224   4.295   4.398
 4052TIP3   OH212161   1.524   2.568   4.999
 4052TIP3    H112162   1.470   2.626   4.947
 4052TIP3    H212163   1.463   2.503   5.034
 4053TIP3   OH212164   1.529   0.058   2.997
 4053TIP3    H112165   1.470   0.060   3.072
 4053TIP3    H212166   1.474   0.033   2.923
 4054TIP3   OH212167   0.276   3.229   4.692
 4054TIP3    H112168   0.367   3.208   4.710
 4054TIP3    H212169   0.275   3.324   4.681
 4055TIP3   OH212170   4.871   2.192   2.057
 4055TIP3    H112171   4.852   2.143   2.137
 4055TIP3    H212172   4.853   2.130   1.986
 4056TIP3   OH212173   5.738   4.215   5.199
 4056TIP3    H112174   5.676   4.161   5.149
 4056TIP3    H212175   5.810   4.231   5.138
 4057TIP3   OH212176   1.834   5.386   4.436
 4057TIP3    H112177   1.789   5.312   4.477
 4057TIP3    H212178   1.856   5.355   4.348
 4058TIP3   OH212179   1.970   1.142   1.504
 4058TIP3    H112180   2.046   1.195   1.481
 4058TIP3    H212181   1.972   1.068   1.442
 4059TIP3   OH212182   0.291   2.778   4.037
 4059TIP3    H112183   0.263   2.838   3.967
 4059TIP3    H212184   0.318   2.698   3.991
 4060TIP3   OH212185   4.762   3.026   2.447
 4060TIP3    H112186   4.720   2.949   2.486
 4060TIP3    H212187   4.735   3.099   2.503
 4061TIP3   OH212188   6.354   2.991   3.625
 4061TIP3    H112189   6.345   2.963   3.534
 4061TIP3    H212190   6.398   3.076   3.620
 4062TIP3   OH212191   4.481   2.690   2.294
 4062TIP3    H112192   4.426   2.675   2.370
 4062TIP3    H212193   4.454   2.624   2.230
 4063TIP3   OH212194   3.907   1.049   3.298
 4063TIP3    H112195   3.947   1.024   3.381
 4063TIP3    H212196   3.871   1.136   3.313
 4064TIP3   OH212197   2.448   4.878   3.608
 4064TIP3    H112198   2.407   4.955   3.568
 4064TIP3    H212199   2.540   4.883   3.582
 4065TIP3   OH212200   3.456   3.403   5.181
 4065TIP3    H112201   3.480   3.311   5.172
 4065TIP3    H212202   3.364   3.406   5.154
 4066TIP3   OH212203   3.298   3.253   2.478
 4066TIP3    H112204   3.320   3.344   2.460
 4066TIP3    H212205   3.214   3.257   2.524
 4067TIP3   OH212206   3.303   3.772   2.270
 4067TIP3    H112207   3.296   3.840   2.203
 4067TIP3    H212208   3.239   3.798   2.336
 4068TIP3   OH212209   0.167   2.591   1.169
 4068TIP3    H112210   0.222   2.514   1.151
 4068TIP3    H212211   0.078   2.557   1.167
 4069TIP3   OH212212   4.614   3.689   0.395
 4069TIP3    H112213   4.664   3.612   0.423
 4069TIP3    H212214   4.563   3.714   0.472
 4070TIP3   OH212215   0.878   0.282   1.013
 4070TIP3    H112216   0.851   0.328   0.934
 4070TIP3    H212217   0.806   0.295   1.074
 4071TIP3   OH212218   1.214   5.663   1.030
 4071TIP3    H112219   1.271   5.588   1.019
 4071TIP3    H212220   1.258   5.718   1.094
 4072TIP3   OH212221   1.722   3.620   3.072
 4072TIP3    H112222   1.742   3.704   3.030
 4072TIP3    H212223   1.629   3.607   3.056
 4073TIP3   OH212224   2.673   4.851   0.767
 4073TIP3    H112225   2.736   4.917   0.737
 4073TIP3    H212226   2.643   4.808   0.687
 4074TIP3   OH212227   5.950   3.033  -0.001
 4074TIP3    H112228   6.023   2.978   0.029
 4074TIP3    H212229   5.881   3.018   0.063
 4075TIP3   OH212230   1.982   3.150   1.240
 4075TIP3    H112231   2.010   3.235   1.207
 4075TIP3    H212232   2.026   3.087   1.184
 4076TIP3   OH212233   5.001   0.414   1.392
 4076TIP3    H112234   5.022   0.465   1.313
 4076TIP3    H212235   4.963   0.333   1.358
 4077TIP3   OH212236   3.315   3.115   3.014
 4077TIP3    H112237   3.279   3.045   3.067
 4077TIP3    H212238   3.397   3.080   2.979
 4078TIP3   OH212239   2.307   2.008   2.655
 4078TIP3    H112240   2.336   1.945   2.720
 4078TIP3    H212241   2.222   1.975   2.626
 4079TIP3   OH212242   0.313   4.984   0.946
 4079TIP3    H112243   0.298   4.941   0.862
 4079TIP3    H212244   0.390   4.940   0.982
 4080TIP3   OH212245   5.684   2.885   1.332
 4080TIP3    H112246   5.737   2.881   1.252
 4080TIP3    H212247   5.728   2.827   1.393
 4081TIP3   OH212248   1.548   5.162   4.053
 4081TIP3    H112249   1.552   5.252   4.019
 4081TIP3    H212250   1.581   5.169   4.143
 4082TIP3   OH212251   3.189   1.997   3.492
 4082TIP3    H112252   3.259   1.994   3.427
 4082TIP3    H212253   3.115   1.955   3.450
 4083TIP3   OH212254   0.295   4.265   1.159
 4083TIP3    H112255   0.365   4.330   1.153
 4083TIP3    H212256   0.224   4.301   1.105
 4084TIP3   OH212257   4.232   0.635   2.186
 4084TIP3    H112258   4.172   0.631   2.261
 4084TIP3    H212259   4.228   0.547   2.147
 4085TIP3   OH212260   5.059   2.598   1.676
 4085TIP3    H112261   5.012   2.549   1.744
 4085TIP3    H212262   5.040   2.552   1.595
 4086TIP3   OH212263   3.118   5.285   0.746
 4086TIP3    H112264   3.149   5.257   0.833
 4086TIP3    H212265   3.182   5.351   0.718
 4087TIP3   OH212266   1.550   1.825   4.776
 4087TIP3    H112267   1.464   1.859   4.800
 4087TIP3    H212268   1.596   1.900   4.737
 4088TIP3   OH212269   3.751   3.592   3.646
 4088TIP3    H112270   3.752   3.597   3.742
 4088TIP3    H212271   3.679   3.650   3.620
 4089TIP3   OH212272   0.053   1.768   3.384
 4089TIP3    H112273   0.025   1.804   3.299
 4089TIP3    H212274   0.003   1.817   3.449
 4090TIP3   OH212275   4.149   1.448   4.810
 4090TIP3    H112276   4.059   1.431   4.837
 4090TIP3    H212277   4.183   1.511   4.873
 4091TIP3   OH212278   0.451   3.305   0.111
 4091TIP3    H112279   0.408   3.380   0.152
 4091TIP3    H212280   0.537   3.300   0.154
 4092TIP3   OH212281   5.595   1.795   5.189
 4092TIP3    H112282   5.672   1.749   5.155
 4092TIP3    H212283   5.521   1.755   5.144
 4093TIP3   OH212284   0.345   5.859   0.864
 4093TIP3    H112285   0.411   5.855   0.795
 4093TIP3    H212286   0.301   5.943   0.850
 4094TIP3   OH212287   1.728   5.861   1.905
 4094TIP3    H112288   1.679   5.891   1.981
 4094TIP3    H212289   1.662   5.845   1.838
 4095TIP3   OH212290   6.072   5.444   0.502
 4095TIP3    H112291   6.008   5.504   0.464
 4095TIP3    H212292   6.135   5.429   0.432
 4096TIP3   OH212293   4.146   3.274   1.703
 4096TIP3    H112294   4.149   3.369   1.714
 4096TIP3    H212295   4.188   3.239   1.782
 4097TIP3   OH212296   0.490   1.937   1.913
 4097TIP3    H112297   0.585   1.932   1.920
 4097TIP3    H212298   0.465   2.014   1.965
 4098TIP3   OH212299   4.544   4.552   3.409
 4098TIP3    H112300   4.552   4.600   3.327
 4098TIP3    H212301   4.468   4.495   3.396
 4099TIP3   OH212302   0.721   5.114   3.901
 4099TIP3    H112303   0.712   5.176   3.973
 4099TIP3    H212304   0.632   5.103   3.867
 4100TIP3   OH212305   3.174   3.205   3.960
 4100TIP3    H112306   3.207   3.247   4.040
 4100TIP3    H212307   3.153   3.116   3.987
 4101TIP3   OH212308   0.640   0.911   1.400
 4101TIP3    H112309   0.640   0.959   1.483
 4101TIP3    H212310   0.590   0.966   1.340
 4102TIP3   OH212311   1.221   1.735   0.336
 4102TIP3    H112312   1.207   1.696   0.422
 4102TIP3    H212313   1.283   1.677   0.293
 4103TIP3   OH212314   4.785   3.217   2.222
 4103TIP3    H112315   4.753   3.272   2.293
 4103TIP3    H212316   4.873   3.251   2.203
 4104TIP3   OH212317   2.698   0.813   4.809
 4104TIP3    H112318   2.679   0.842   4.720
 4104TIP3    H212319   2.793   0.799   4.810
 4105TIP3   OH212320   2.176   5.820   0.120
 4105TIP3    H112321   2.141   5.797   0.206
 4105TIP3    H212322   2.270   5.831   0.136
 4106TIP3   OH212323   1.369   2.307   5.049
 4106TIP3    H112324   1.283   2.347   5.043
 4106TIP3    H212325   1.354   2.224   5.095
 4107TIP3   OH212326   1.656   1.178   2.520
 4107TIP3    H112327   1.624   1.263   2.489
 4107TIP3    H212328   1.745   1.172   2.485
 4108TIP3   OH212329   0.426   2.018   2.976
 4108TIP3    H112330   0.424   2.025   3.071
 4108TIP3    H212331   0.334   2.010   2.950
 4109TIP3   OH212332   1.503   5.457   3.341
 4109TIP3    H112333   1.435   5.439   3.406
 4109TIP3    H212334   1.468   5.421   3.260
 4110TIP3   OH212335   2.860   2.014   4.536
 4110TIP3    H112336   2.912   1.935   4.554
 4110TIP3    H212337   2.802   2.023   4.612
 4111TIP3   OH212338   3.710   5.895   3.239
 4111TIP3    H112339   3.654   5.827   3.276
 4111TIP3    H212340   3.755   5.933   3.315
 4112TIP3   OH212341   5.657   5.231   3.762
 4112TIP3    H112342   5.637   5.138   3.756
 4112TIP3    H212343   5.722   5.246   3.693
 4113TIP3   OH212344   2.314   0.957   2.870
 4113TIP3    H112345   2.256   0.935   2.943
 4113TIP3    H212346   2.268   0.923   2.793
 4114TIP3   OH212347   6.195   4.701   3.205
 4114TIP3    H112348   6.173   4.615   3.242
 4114TIP3    H212349   6.289   4.710   3.219
 4115TIP3   OH212350   5.068   2.105   4.424
 4115TIP3    H112351   5.032   2.084   4.510
 4115TIP3    H212352   5.034   2.193   4.405
 4116TIP3   OH212353   5.670   4.877   2.096
 4116TIP3    H112354   5.720   4.881   2.015
 4116TIP3    H212355   5.730   4.909   2.163
 4117TIP3   OH212356   6.110   4.441   0.585
 4117TIP3    H112357   6.015   4.431   0.584
 4117TIP3    H212358   6.133   4.467   0.496
 4118TIP3   OH212359   5.554   4.599   2.001
 4118TIP3    H112360   5.486   4.561   2.056
 4118TIP3    H212361   5.601   4.660   2.059
 4119TIP3   OH212362   0.466   4.206   4.398
 4119TIP3    H112363   0.401   4.270   4.368
 4119TIP3    H212364   0.490   4.236   4.486
 4120TIP3   OH212365   1.089   3.837   2.026
 4120TIP3    H112366   1.071   3.931   2.022
 4120TIP3    H212367   1.003   3.796   2.025
 4121TIP3   OH212368   4.203   5.155   5.003
 4121TIP3    H112369   4.128   5.157   5.062
 4121TIP3    H212370   4.250   5.237   5.019
 4122TIP3   OH212371   3.944   0.446   3.210
 4122TIP3    H112372   3.887   0.460   3.286
 4122TIP3    H212373   4.002   0.374   3.235
 4123TIP3   OH212374   5.624   2.672   0.150
 4123TIP3    H112375   5.672   2.755   0.151
 4123TIP3    H212376   5.532   2.698   0.150
 4124TIP3   OH212377   0.090   0.969   1.209
 4124TIP3    H112378   0.069   1.019   1.287
 4124TIP3    H212379   0.019   0.905   1.201
 4125TIP3   OH212380   2.773   5.041   4.849
 4125TIP3    H112381   2.695   5.091   4.827
 4125TIP3    H212382   2.755   5.004   4.935
 4126TIP3   OH212383   4.189   0.207   4.310
 4126TIP3    H112384   4.208   0.224   4.403
 4126TIP3    H212385   4.191   0.112   4.302
 4127TIP3   OH212386   1.199   2.069   3.477
 4127TIP3    H112387   1.211   2.163   3.461
 4127TIP3    H212388   1.105   2.057   3.479
 4128TIP3   OH212389   4.256   3.680   3.059
 4128TIP3    H112390   4.258   3.640   3.146
 4128TIP3    H212391   4.281   3.771   3.073
 4129TIP3   OH212392   3.625   3.783   2.109
 4129TIP3    H112393   3.684   3.822   2.045
 4129TIP3    H212394   3.561   3.852   2.127
 4130TIP3   OH212395   2.998   3.774   3.560
 4130TIP3    H112396   2.918   3.760   3.611
 4130TIP3    H212397   3.026   3.686   3.534
 4131TIP3   OH212398   3.357   0.550   3.713
 4131TIP3    H112399   3.426   0.598   3.760
 4131TIP3    H212400   3.344   0.470   3.764
 4132TIP3   OH212401   2.514   3.494   4.542
 4132TIP3    H112402   2.429   3.490   4.585
 4132TIP3    H212403   2.504   3.439   4.464
 4133TIP3   OH212404   0.932   3.563   2.164
 4133TIP3    H112405   0.990   3.631   2.198
 4133TIP3    H212406   0.877   3.608   2.100
 4134TIP3   OH212407   3.943   3.184   0.827
 4134TIP3    H112408   3.954   3.252   0.894
 4134TIP3    H212409   3.962   3.102   0.872
 4135TIP3   OH212410   1.581   4.074   0.608
 4135TIP3    H112411   1.512   4.134   0.636
 4135TIP3    H212412   1.610   4.109   0.523
 4136TIP3   OH212413   2.377   3.965   3.231
 4136TIP3    H112414   2.367   4.059   3.215
 4136TIP3    H212415   2.321   3.948   3.307
 4137TIP3   OH212416   5.944   3.416   0.204
 4137TIP3    H112417   5.984   3.456   0.126
 4137TIP3    H212418   5.979   3.467   0.277
 4138TIP3   OH212419   4.942   3.519   4.377
 4138TIP3    H112420   4.883   3.559   4.313
 4138TIP3    H212421   4.903   3.433   4.394
 4139TIP3   OH212422   2.566   1.399   2.048
 4139TIP3    H112423   2.557   1.338   1.975
 4139TIP3    H212424   2.534   1.351   2.124
 4140TIP3   OH212425   2.548   4.429   2.931
 4140TIP3    H112426   2.455   4.413   2.949
 4140TIP3    H212427   2.566   4.514   2.973
 4141TIP3   OH212428   4.751   4.641   0.501
 4141TIP3    H112429   4.776   4.668   0.413
 4141TIP3    H212430   4.812   4.570   0.522
 4142TIP3   OH212431   2.391   3.590   1.580
 4142TIP3    H112432   2.345   3.532   1.641
 4142TIP3    H212433   2.324   3.619   1.519
 4143TIP3   OH212434   0.832   5.603   2.599
 4143TIP3    H112435   0.771   5.571   2.532
 4143TIP3    H212436   0.890   5.663   2.552
 4144TIP3   OH212437   4.453   3.171   2.319
 4144TIP3    H112438   4.439   3.240   2.254
 4144TIP3    H212439   4.490   3.216   2.395
 4145TIP3   OH212440   0.574   3.736   2.269
 4145TIP3    H112441   0.541   3.741   2.179
 4145TIP3    H212442   0.588   3.642   2.283
 4146TIP3   OH212443   3.251   0.451   1.556
 4146TIP3    H112444   3.344   0.460   1.579
 4146TIP3    H212445   3.223   0.540   1.536
 4147TIP3   OH212446   2.353   2.053   3.203
 4147TIP3    H112447   2.283   1.987   3.202
 4147TIP3    H212448   2.313   2.132   3.167
 4148TIP3   OH212449   0.126   5.858   2.557
 4148TIP3    H112450   0.038   5.895   2.569
 4148TIP3    H212451   0.122   5.814   2.472
 4149TIP3   OH212452   3.828   2.176   5.188
 4149TIP3    H112453   3.769   2.195   5.115
 4149TIP3    H212454   3.790   2.224   5.262
 4150TIP3   OH212455   1.681   0.090   2.158
 4150TIP3    H112456   1.593   0.063   2.181
 4150TIP3    H212457   1.681   0.185   2.168
 4151TIP3   OH212458   0.614   1.696   1.007
 4151TIP3    H112459   0.672   1.750   0.954
 4151TIP3    H212460   0.588   1.753   1.079
 4152TIP3   OH212461   4.305   5.175   4.263
 4152TIP3    H112462   4.400   5.164   4.270
 4152TIP3    H212463   4.269   5.117   4.330
 4153TIP3   OH212464   4.015   2.713   3.589
 4153TIP3    H112465   3.984   2.664   3.665
 4153TIP3    H212466   3.942   2.771   3.566
 4154TIP3   OH212467   4.476   5.180   3.758
 4154TIP3    H112468   4.465   5.093   3.795
 4154TIP3    H212469   4.542   5.170   3.690
 4155TIP3   OH212470   2.572   2.028   1.697
 4155TIP3    H112471   2.609   2.079   1.769
 4155TIP3    H212472   2.527   2.092   1.642
 4156TIP3   OH212473   2.717   2.205   2.388
 4156TIP3    H112474   2.632   2.161   2.392
 4156TIP3    H212475   2.755   2.176   2.305
 4157TIP3   OH212476   0.713   3.660   0.695
 4157TIP3    H112477   0.707   3.567   0.712
 4157TIP3    H212478   0.639   3.699   0.742
 4158TIP3   OH212479   0.227   3.061   4.485
 4158TIP3    H112480   0.237   3.136   4.543
 4158TIP3    H212481   0.206   3.099   4.399
 4159TIP3   OH212482   6.376   1.799   0.175
 4159TIP3    H112483   6.447   1.771   0.233
 4159TIP3    H212484   6.362   1.725   0.116
 4160TIP3   OH212485   0.168   4.966   3.221
 4160TIP3    H112486   0.084   4.985   3.179
 4160TIP3    H212487   0.145   4.941   3.310
 4161TIP3   OH212488   4.878   3.184   4.334
 4161TIP3    H112489   4.919   3.101   4.308
 4161TIP3    H212490   4.843   3.221   4.253
 4162TIP3   OH212491   2.946   0.307   5.146
 4162TIP3    H112492   3.041   0.307   5.162
 4162TIP3    H212493   2.912   0.377   5.202
 4163TIP3   OH212494   2.064   5.066   2.783
 4163TIP3    H112495   1.998   5.004   2.749
 4163TIP3    H212496   2.079   5.127   2.711
 4164TIP3   OH212497   0.303   0.015   2.165
 4164TIP3    H112498   0.319   0.086   2.104
 4164TIP3    H212499   0.390  -0.013   2.193
 4165TIP3   OH212500   5.329   3.898   4.455
 4165TIP3    H112501   5.303   3.966   4.392
 4165TIP3    H212502   5.325   3.941   4.540
 4166TIP3   OH212503   0.752   4.187   2.245
 4166TIP3    H112504   0.773   4.102   2.207
 4166TIP3    H212505   0.787   4.182   2.334
 4167TIP3   OH212506   3.409   5.347   4.081
 4167TIP3    H112507   3.331   5.399   4.101
 4167TIP3    H212508   3.451   5.333   4.165
 4168TIP3   OH212509   1.041   0.485   0.694
 4168TIP3    H112510   1.066   0.393   0.692
 4168TIP3    H212511   1.125   0.532   0.690
 4169TIP3   OH212512   3.702   0.303   0.116
 4169TIP3    H112513   3.767   0.280   0.182
 4169TIP3    H212514   3.752   0.319   0.036
 4170TIP3   OH212515   5.800   2.105   5.051
 4170TIP3    H112516   5.795   2.103   5.146
 4170TIP3    H212517   5.715   2.072   5.022
 4171TIP3   OH212518   1.752   1.660   4.219
 4171TIP3    H112519   1.710   1.688   4.138
 4171TIP3    H212520   1.743   1.565   4.220
 4172TIP3   OH212521   1.484   4.181   2.916
 4172TIP3    H112522   1.441   4.195   3.000
 4172TIP3    H212523   1.539   4.104   2.930
 4173TIP3   OH212524   3.595   3.188   1.437
 4173TIP3    H112525   3.524   3.252   1.443
 4173TIP3    H212526   3.641   3.211   1.356
 4174TIP3   OH212527   0.578   1.042   1.975
 4174TIP3    H112528   0.613   1.071   1.891
 4174TIP3    H212529   0.567   0.947   1.965
 4175TIP3   OH212530   3.516   4.446   1.583
 4175TIP3    H112531   3.466   4.463   1.663
 4175TIP3    H212532   3.564   4.365   1.601
 4176TIP3   OH212533   2.886   1.641   1.522
 4176TIP3    H112534   2.850   1.556   1.498
 4176TIP3    H212535   2.934   1.624   1.603
 4177TIP3   OH212536   3.604   5.087   3.126
 4177TIP3    H112537   3.641   5.032   3.194
 4177TIP3    H212538   3.584   5.170   3.169
 4178TIP3   OH212539   3.578   5.782   1.440
 4178TIP3    H112540   3.497   5.797   1.392
 4178TIP3    H212541   3.592   5.862   1.490
 4179TIP3   OH212542   3.452   5.396   2.269
 4179TIP3    H112543   3.429   5.303   2.275
 4179TIP3    H212544   3.370   5.440   2.246
 4180TIP3   OH212545   4.799   2.862   4.918
 4180TIP3    H112546   4.816   2.895   5.006
 4180TIP3    H212547   4.857   2.913   4.862
 4181TIP3   OH212548   3.353   4.512   1.210
 4181TIP3    H112549   3.270   4.560   1.218
 4181TIP3    H212550   3.371   4.510   1.116
 4182TIP3   OH212551   4.752   1.348   3.249
 4182TIP3    H112552   4.720   1.435   3.273
 4182TIP3    H212553   4.713   1.289   3.313
 4183TIP3   OH212554   4.591   0.931   4.225
 4183TIP3    H112555   4.593   0.860   4.161
 4183TIP3    H212556   4.567   1.009   4.174
 4184TIP3   OH212557   1.314   2.280   2.839
 4184TIP3    H112558   1.370   2.202   2.841
 4184TIP3    H212559   1.344   2.328   2.762
 4185TIP3   OH212560   4.222   4.723   0.725
 4185TIP3    H112561   4.286   4.673   0.675
 4185TIP3    H212562   4.137   4.695   0.693
 4186TIP3   OH212563   3.602   2.526   1.561
 4186TIP3    H112564   3.597   2.574   1.479
 4186TIP3    H212565   3.589   2.434   1.537
 4187TIP3   OH212566   3.979   2.249   2.805
 4187TIP3    H112567   4.048   2.310   2.780
 4187TIP3    H212568   4.019   2.162   2.795
 4188TIP3   OH212569   0.258   4.885   4.132
 4188TIP3    H112570   0.224   4.924   4.213
 4188TIP3    H212571   0.212   4.932   4.062
 4189TIP3   OH212572   0.596   5.412   3.589
 4189TIP3    H112573   0.549   5.462   3.523
 4189TIP3    H212574   0.687   5.414   3.561
 4190TIP3   OH212575   5.799   3.593   4.437
 4190TIP3    H112576   5.829   3.507   4.408
 4190TIP3    H212577   5.840   3.606   4.522
 4191TIP3   OH212578   6.374   1.689   2.260
 4191TIP3    H112579   6.302   1.654   2.207
 4191TIP3    H212580   6.331   1.740   2.329
 4192TIP3   OH212581   3.272   5.616   1.078
 4192TIP3    H112582   3.322   5.604   1.158
 4192TIP3    H212583   3.338   5.640   1.012
 4193TIP3   OH212584   6.294   0.424   1.209
 4193TIP3    H112585   6.280   0.399   1.118
 4193TIP3    H212586   6.222   0.485   1.228
 4194TIP3   OH212587   3.662   2.407   0.044
 4194TIP3    H112588   3.733   2.466   0.021
 4194TIP3    H212589   3.644   2.425   0.136
 4195TIP3   OH212590   5.052   4.920   4.992
 4195TIP3    H112591   5.006   4.852   5.040
 4195TIP3    H212592   5.101   4.873   4.924
 4196TIP3   OH212593   3.587   2.706   0.621
 4196TIP3    H112594   3.597   2.615   0.648
 4196TIP3    H212595   3.579   2.755   0.703
 4197TIP3   OH212596   6.090   5.172   4.122
 4197TIP3    H112597   6.134   5.254   4.101
 4197TIP3    H212598   6.015   5.168   4.063
 4198TIP3   OH212599   0.415   5.892   4.582
 4198TIP3    H112600   0.502   5.930   4.569
 4198TIP3    H212601   0.425   5.833   4.656
 4199TIP3   OH212602   5.072   2.375   1.148
 4199TIP3    H112603   5.049   2.287   1.178
 4199TIP3    H212604   5.025   2.434   1.207
 4200TIP3   OH212605   2.954   3.775   2.270
 4200TIP3    H112606   2.904   3.777   2.351
 4200TIP3    H212607   2.987   3.865   2.259
 4201TIP3   OH212608   1.565   5.598   2.721
 4201TIP3    H112609   1.579   5.575   2.812
 4201TIP3    H212610   1.469   5.603   2.712
 4202TIP3   OH212611   0.199   4.502   2.487
 4202TIP3    H112612   0.282   4.467   2.521
 4202TIP3    H212613   0.216   4.595   2.474
 4203TIP3   OH212614   5.906   3.490   3.144
 4203TIP3    H112615   5.985   3.451   3.105
 4203TIP3    H212616   5.934   3.576   3.174
 4204TIP3   OH212617   5.456   0.293   0.988
 4204TIP3    H112618   5.425   0.371   1.033
 4204TIP3    H212619   5.393   0.225   1.013
 4205TIP3   OH212620   2.859   1.191   3.959
 4205TIP3    H112621   2.764   1.188   3.949
 4205TIP3    H212622   2.890   1.233   3.879
 4206TIP3   OH212623   1.872   4.123   1.008
 4206TIP3    H112624   1.803   4.188   1.025
 4206TIP3    H212625   1.865   4.103   0.915
 4207TIP3   OH212626   0.336   2.406   3.197
 4207TIP3    H112627   0.417   2.403   3.248
 4207TIP3    H212628   0.348   2.480   3.138
 4208TIP3   OH212629   1.791   3.061   2.439
 4208TIP3    H112630   1.801   3.114   2.360
 4208TIP3    H212631   1.793   3.124   2.511
 4209TIP3   OH212632   1.790   0.713   3.895
 4209TIP3    H112633   1.861   0.757   3.849
 4209TIP3    H212634   1.770   0.637   3.841
 4210TIP3   OH212635   2.352   5.015   0.164
 4210TIP3    H112636   2.303   5.047   0.239
 4210TIP3    H212637   2.413   5.085   0.142
 4211TIP3   OH212638   0.173   3.009   0.893
 4211TIP3    H112639   0.224   3.083   0.927
 4211TIP3    H212640   0.209   2.992   0.806
 4212TIP3   OH212641   4.502   5.959   3.794
 4212TIP3    H112642   4.588   5.977   3.755
 4212TIP3    H212643   4.521   5.942   3.886
 4213TIP3   OH212644   1.056   5.763   3.225
 4213TIP3    H112645   0.989   5.746   3.160
 4213TIP3    H212646   1.063   5.682   3.275
 4214TIP3   OH212647   5.651   1.508   3.951
 4214TIP3    H112648   5.676   1.465   4.033
 4214TIP3    H212649   5.596   1.443   3.907
 4215TIP3   OH212650   3.938   0.942   4.384
 4215TIP3    H112651   3.969   1.020   4.431
 4215TIP3    H212652   3.948   0.965   4.291
 4216TIP3   OH212653   0.115   0.359   1.989
 4216TIP3    H112654   0.064   0.278   1.991
 4216TIP3    H212655   0.202   0.334   2.018
 4217TIP3   OH212656   5.205   1.766   5.110
 4217TIP3    H112657   5.207   1.849   5.158
 4217TIP3    H212658   5.280   1.771   5.050
 4218TIP3   OH212659   1.276   0.816   1.409
 4218TIP3    H112660   1.287   0.743   1.349
 4218TIP3    H212661   1.246   0.775   1.491
 4219TIP3   OH212662   1.679   0.840   4.128
 4219TIP3    H112663   1.720   0.809   4.047
 4219TIP3    H212664   1.711   0.780   4.195
 4220TIP3   OH212665   5.526   4.217   1.425
 4220TIP3    H112666   5.584   4.242   1.497
 4220TIP3    H212667   5.547   4.125   1.409
 4221TIP3   OH212668   3.042   1.178   0.353
 4221TIP3    H112669   3.068   1.100   0.304
 4221TIP3    H212670   3.105   1.245   0.325
 4222TIP3   OH212671   1.247   3.717   4.513
 4222TIP3    H112672   1.214   3.630   4.488
 4222TIP3    H212673   1.218   3.728   4.604
 4223TIP3   OH212674   0.623   0.123   3.017
 4223TIP3    H112675   0.679   0.069   3.074
 4223TIP3    H212676   0.636   0.086   2.929
 4224TIP3   OH212677   0.391   1.139   0.800
 4224TIP3    H112678   0.373   1.144   0.894
 4224TIP3    H212679   0.365   1.051   0.775
 4225TIP3   OH212680   0.703   4.401   4.697
 4225TIP3    H112681   0.638   4.415   4.765
 4225TIP3    H212682   0.673   4.455   4.624
 4226TIP3   OH212683   2.824   2.346   0.840
 4226TIP3    H112684   2.891   2.360   0.773
 4226TIP3    H212685   2.869   2.301   0.911
 4227TIP3   OH212686   5.821   3.700   3.381
 4227TIP3    H112687   5.908   3.696   3.342
 4227TIP3    H212688   5.837   3.703   3.475
 4228TIP3   OH212689   5.456   0.141   4.697
 4228TIP3    H112690   5.395   0.212   4.678
 4228TIP3    H212691   5.514   0.138   4.621
 4229TIP3   OH212692   6.097   5.772   1.238
 4229TIP3    H112693   6.193   5.768   1.242
 4229TIP3    H212694   6.068   5.716   1.309
 4230TIP3   OH212695   4.665   4.697   1.486
 4230TIP3    H112696   4.745   4.714   1.437
 4230TIP3    H212697   4.594   4.710   1.422
 4231TIP3   OH212698   1.718   0.924   2.165
 4231TIP3    H112699   1.656   0.946   2.235
 4231TIP3    H212700   1.721   1.003   2.110
 4232TIP3   OH212701   6.162   2.260   2.158
 4232TIP3    H112702   6.185   2.191   2.220
 4232TIP3    H212703   6.235   2.262   2.096
 4233TIP3   OH212704   4.769   5.644   1.331
 4233TIP3    H112705   4.775   5.730   1.291
 4233TIP3    H212706   4.681   5.639   1.367
 4234TIP3   OH212707   2.958   1.732   3.113
 4234TIP3    H112708   2.998   1.682   3.041
 4234TIP3    H212709   2.925   1.666   3.173
 4235TIP3   OH212710   5.987   0.247   3.115
 4235TIP3    H112711   6.059   0.283   3.063
 4235TIP3    H212712   5.914   0.240   3.054
 4236TIP3   OH212713   3.973   1.101   3.024
 4236TIP3    H112714   3.951   1.066   3.111
 4236TIP3    H212715   4.010   1.027   2.977
 4237TIP3   OH212716   5.193   0.659   4.630
 4237TIP3    H112717   5.105   0.685   4.656
 4237TIP3    H212718   5.221   0.599   4.699
 4238TIP3   OH212719   4.499   0.266   2.920
 4238TIP3    H112720   4.550   0.343   2.893
 4238TIP3    H212721   4.534   0.195   2.866
 4239TIP3   OH212722   3.116   5.770   3.601
 4239TIP3    H112723   3.145   5.679   3.610
 4239TIP3    H212724   3.185   5.812   3.549
 4240TIP3   OH212725   0.583   1.685   1.695
 4240TIP3    H112726   0.606   1.650   1.781
 4240TIP3    H212727   0.535   1.765   1.714
 4241TIP3   OH212728   1.024   4.862   3.309
 4241TIP3    H112729   1.066   4.849   3.224
 4241TIP3    H212730   1.034   4.955   3.327
 4242TIP3   OH212731   6.002   0.628   0.249
 4242TIP3    H112732   5.941   0.605   0.178
 4242TIP3    H212733   5.946   0.658   0.320
 4243TIP3   OH212734   2.566   0.711   5.010
 4243TIP3    H112735   2.477   0.722   4.975
 4243TIP3    H212736   2.615   0.785   4.974
 4244TIP3   OH212737   2.813   5.951   4.767
 4244TIP3    H112738   2.785   5.937   4.676
 4244TIP3    H212739   2.833   6.044   4.772
 4245TIP3   OH212740   0.255   0.900   0.746
 4245TIP3    H112741   0.203   0.912   0.667
 4245TIP3    H212742   0.276   0.807   0.748
 4246TIP3   OH212743   2.583   0.609   3.382
 4246TIP3    H112744   2.651   0.674   3.396
 4246TIP3    H212745   2.601   0.573   3.294
 4247TIP3   OH212746   4.918   0.442   2.112
 4247TIP3    H112747   4.848   0.445   2.177
 4247TIP3    H212748   4.896   0.366   2.057
 4248TIP3   OH212749   6.114   4.919   2.112
 4248TIP3    H112750   6.139   4.831   2.141
 4248TIP3    H212751   6.070   4.904   2.028
 4249TIP3   OH212752   3.548   5.335   4.326
 4249TIP3    H112753   3.517   5.419   4.358
 4249TIP3    H212754   3.578   5.289   4.405
 4250TIP3   OH212755   5.183   5.360   5.017
 4250TIP3    H112756   5.233   5.305   5.077
 4250TIP3    H212757   5.115   5.302   4.982
 4251TIP3   OH212758   4.759   4.486   1.614
 4251TIP3    H112759   4.743   4.406   1.564
 4251TIP3    H212760   4.714   4.554   1.564
 4252TIP3   OH212761   3.513   5.239   1.775
 4252TIP3    H112762   3.568   5.310   1.809
 4252TIP3    H212763   3.574   5.185   1.725
 4253TIP3   OH212764   1.330   0.320   4.183
 4253TIP3    H112765   1.294   0.301   4.097
 4253TIP3    H212766   1.356   0.412   4.179
 4254TIP3   OH212767   5.296   2.467   2.381
 4254TIP3    H112768   5.209   2.488   2.348
 4254TIP3    H212769   5.356   2.509   2.319
 4255TIP3   OH212770   1.841   3.443   1.321
 4255TIP3    H112771   1.828   3.369   1.381
 4255TIP3    H212772   1.753   3.463   1.288
 4256TIP3   OH212773   1.375   1.915   4.307
 4256TIP3    H112774   1.384   1.825   4.275
 4256TIP3    H212775   1.465   1.945   4.319
 4257TIP3   OH212776   3.947   4.985   0.502
 4257TIP3    H112777   3.934   5.044   0.428
 4257TIP3    H212778   4.042   4.968   0.503
 4258TIP3   OH212779   2.137   2.593   2.042
 4258TIP3    H112780   2.116   2.517   2.096
 4258TIP3    H212781   2.216   2.567   1.994
 4259TIP3   OH212782   1.978   0.036   1.473
 4259TIP3    H112783   2.049   0.075   1.423
 4259TIP3    H212784   2.017   0.015   1.558
 4260TIP3   OH212785   4.464   5.624   0.542
 4260TIP3    H112786   4.502   5.549   0.497
 4260TIP3    H212787   4.410   5.667   0.476
 4261TIP3   OH212788   6.180   4.685   2.490
 4261TIP3    H112789   6.085   4.690   2.487
 4261TIP3    H212790   6.199   4.599   2.527
 4262TIP3   OH212791   0.231   1.940   1.547
 4262TIP3    H112792   0.262   1.850   1.537
 4262TIP3    H212793   0.173   1.953   1.472
 4263TIP3   OH212794   5.455   5.237   0.065
 4263TIP3    H112795   5.414   5.251  -0.021
 4263TIP3    H212796   5.411   5.300   0.123
 4264TIP3   OH212797   3.835   2.169   0.390
 4264TIP3    H112798   3.789   2.226   0.453
 4264TIP3    H212799   3.923   2.159   0.427
 4265TIP3   OH212800   6.184   4.366   1.990
 4265TIP3    H112801   6.190   4.277   1.955
 4265TIP3    H212802   6.275   4.398   1.989
 4266TIP3   OH212803   2.704   2.328   4.531
 4266TIP3    H112804   2.613   2.350   4.510
 4266TIP3    H212805   2.707   2.232   4.526
 4267TIP3   OH212806   3.531   0.543   3.000
 4267TIP3    H112807   3.515   0.453   2.973
 4267TIP3    H212808   3.621   0.560   2.974
 4268TIP3   OH212809   1.719   3.254   0.591
 4268TIP3    H112810   1.681   3.170   0.617
 4268TIP3    H212811   1.664   3.319   0.633
 4269TIP3   OH212812   4.708   1.381   3.829
 4269TIP3    H112813   4.706   1.461   3.776
 4269TIP3    H212814   4.694   1.310   3.766
 4270TIP3   OH212815   1.001   2.050   1.763
 4270TIP3    H112816   0.942   2.002   1.821
 4270TIP3    H212817   1.052   2.106   1.822
 4271TIP3   OH212818   1.651   5.287   3.676
 4271TIP3    H112819   1.603   5.204   3.682
 4271TIP3    H212820   1.710   5.286   3.752
 4272TIP3   OH212821   0.386   5.542   3.227
 4272TIP3    H112822   0.396   5.591   3.308
 4272TIP3    H212823   0.444   5.466   3.236
 4273TIP3   OH212824   1.811   5.046   0.086
 4273TIP3    H112825   1.717   5.038   0.106
 4273TIP3    H212826   1.817   5.124   0.031
 4274TIP3   OH212827   3.611   4.309   2.360
 4274TIP3    H112828   3.632   4.381   2.301
 4274TIP3    H212829   3.639   4.231   2.314
 4275TIP3   OH212830   3.213   2.827   3.573
 4275TIP3    H112831   3.222   2.799   3.482
 4275TIP3    H212832   3.120   2.845   3.584
 4276TIP3   OH212833   1.385   5.842   2.709
 4276TIP3    H112834   1.412   5.833   2.801
 4276TIP3    H212835   1.374   5.937   2.697
 4277TIP3   OH212836   4.613   2.609   3.384
 4277TIP3    H112837   4.639   2.630   3.294
 4277TIP3    H212838   4.614   2.693   3.429
 4278TIP3   OH212839   3.525   5.510   2.023
 4278TIP3    H112840   3.514   5.440   2.088
 4278TIP3    H212841   3.592   5.476   1.963
 4279TIP3   OH212842   2.736   0.732   1.190
 4279TIP3    H112843   2.668   0.688   1.140
 4279TIP3    H212844   2.713   0.715   1.281
 4280TIP3   OH212845   3.188   4.680   0.758
 4280TIP3    H112846   3.124   4.657   0.825
 4280TIP3    H212847   3.234   4.598   0.739
 4281TIP3   OH212848   3.078   5.134   1.410
 4281TIP3    H112849   3.018   5.171   1.345
 4281TIP3    H212850   3.024   5.071   1.458
 4282TIP3   OH212851   2.579   3.929   2.147
 4282TIP3    H112852   2.619   3.966   2.068
 4282TIP3    H212853   2.643   3.864   2.178
 4283TIP3   OH212854   3.311   2.277   3.526
 4283TIP3    H112855   3.366   2.201   3.549
 4283TIP3    H212856   3.245   2.280   3.595
 4284TIP3   OH212857   3.601   2.100   2.209
 4284TIP3    H112858   3.610   2.166   2.278
 4284TIP3    H212859   3.594   2.017   2.255
 4285TIP3   OH212860   2.377   4.392   1.578
 4285TIP3    H112861   2.386   4.343   1.497
 4285TIP3    H212862   2.353   4.480   1.550
 4286TIP3   OH212863   4.765   5.407   3.000
 4286TIP3    H112864   4.836   5.408   2.936
 4286TIP3    H212865   4.743   5.500   3.012
 4287TIP3   OH212866   2.893   4.434   0.811
 4287TIP3    H112867   2.966   4.412   0.753
 4287TIP3    H212868   2.821   4.455   0.751
 4288TIP3   OH212869   2.407   0.952   1.950
 4288TIP3    H112870   2.463   0.886   1.909
 4288TIP3    H212871   2.456   0.979   2.029
 4289TIP3   OH212872   1.268   4.129   3.123
 4289TIP3    H112873   1.172   4.122   3.130
 4289TIP3    H212874   1.296   4.158   3.209
 4290TIP3   OH212875   2.702   4.867   2.539
 4290TIP3    H112876   2.730   4.817   2.616
 4290TIP3    H212877   2.773   4.855   2.476
 4291TIP3   OH212878   3.415   0.421   4.626
 4291TIP3    H112879   3.376   0.497   4.583
 4291TIP3    H212880   3.490   0.457   4.674
 4292TIP3   OH212881   0.246   0.547   1.788
 4292TIP3    H112882   0.277   0.476   1.732
 4292TIP3    H212883   0.301   0.541   1.866
 4293TIP3   OH212884   2.287   2.171   0.172
 4293TIP3    H112885   2.339   2.159   0.092
 4293TIP3    H212886   2.342   2.224   0.229
 4294TIP3   OH212887   0.788   3.305   3.882
 4294TIP3    H112888   0.723   3.303   3.953
 4294TIP3    H212889   0.871   3.324   3.926
 4295TIP3   OH212890   5.101   5.276   3.112
 4295TIP3    H112891   5.173   5.277   3.175
 4295TIP3    H212892   5.095   5.366   3.082
 4296TIP3   OH212893   2.355   5.461   1.048
 4296TIP3    H112894   2.430   5.517   1.023
 4296TIP3    H212895   2.394   5.374   1.060
 4297TIP3   OH212896   3.960   3.976   2.824
 4297TIP3    H112897   3.943   4.070   2.823
 4297TIP3    H212898   3.894   3.941   2.884
 4298TIP3   OH212899   5.105   1.434   3.888
 4298TIP3    H112900   5.128   1.348   3.853
 4298TIP3    H212901   5.029   1.417   3.944
 4299TIP3   OH212902   0.780   0.910   2.958
 4299TIP3    H112903   0.855   0.896   3.016
 4299TIP3    H212904   0.751   0.999   2.977
 4300TIP3   OH212905   4.886   3.844   3.119
 4300TIP3    H112906   4.907   3.787   3.045
 4300TIP3    H212907   4.833   3.914   3.081
 4301TIP3   OH212908   4.138   0.965   0.531
 4301TIP3    H112909   4.092   1.047   0.548
 4301TIP3    H212910   4.084   0.920   0.466
 4302TIP3   OH212911   0.823   1.991   1.161
 4302TIP3    H112912   0.868   1.907   1.167
 4302TIP3    H212913   0.830   2.028   1.249
 4303TIP3   OH212914   1.915   5.431   0.224
 4303TIP3    H112915   1.927   5.351   0.274
 4303TIP3    H212916   1.976   5.423   0.150
 4304TIP3   OH212917   1.624   4.712   3.968
 4304TIP3    H112918   1.671   4.775   3.913
 4304TIP3    H212919   1.531   4.725   3.945
 4305TIP3   OH212920   5.268   5.325   0.917
 4305TIP3    H112921   5.222   5.247   0.888
 4305TIP3    H212922   5.231   5.344   1.004
 4306TIP3   OH212923   1.189   3.863   3.319
 4306TIP3    H112924   1.135   3.796   3.361
 4306TIP3    H212925   1.126   3.919   3.274
 4307TIP3   OH212926   0.442   2.507   1.867
 4307TIP3    H112927   0.487   2.455   1.800
 4307TIP3    H212928   0.373   2.449   1.899
 4308TIP3   OH212929   3.446   3.276   3.384
 4308TIP3    H112930   3.437   3.203   3.445
 4308TIP3    H212931   3.496   3.341   3.432
 4309TIP3   OH212932   3.825   4.032   0.566
 4309TIP3    H112933   3.861   4.105   0.617
 4309TIP3    H212934   3.832   4.061   0.475
 4310TIP3   OH212935   5.188   1.419   4.427
 4310TIP3    H112936   5.096   1.406   4.405
 4310TIP3    H212937   5.189   1.429   4.522
 4311TIP3   OH212938   6.138   3.425   0.733
 4311TIP3    H112939   6.110   3.506   0.775
 4311TIP3    H212940   6.064   3.400   0.677
 4312TIP3   OH212941   2.251   1.031   4.658
 4312TIP3    H112942   2.338   1.006   4.627
 4312TIP3    H212943   2.199   0.952   4.649
 4313TIP3   OH212944   3.758   4.028   1.381
 4313TIP3    H112945   3.847   4.052   1.354
 4313TIP3    H212946   3.735   4.094   1.446
 4314TIP3   OH212947   5.261   0.910   3.001
 4314TIP3    H112948   5.265   0.949   3.088
 4314TIP3    H212949   5.168   0.908   2.979
 4315TIP3   OH212950   3.449   5.735   0.904
 4315TIP3    H112951   3.385   5.775   0.846
 4315TIP3    H212952   3.528   5.789   0.893
 4316TIP3   OH212953   2.819   1.215   0.083
 4316TIP3    H112954   2.818   1.123   0.108
 4316TIP3    H212955   2.728   1.236   0.062
 4317TIP3   OH212956   0.681   3.301   4.135
 4317TIP3    H112957   0.682   3.390   4.170
 4317TIP3    H212958   0.610   3.258   4.183
 4318TIP3   OH212959   3.657   4.086   0.196
 4318TIP3    H112960   3.703   4.136   0.264
 4318TIP3    H212961   3.686   3.996   0.210
 4319TIP3   OH212962   1.579   2.883   1.423
 4319TIP3    H112963   1.670   2.903   1.443
 4319TIP3    H212964   1.565   2.794   1.456
 4320TIP3   OH212965   2.454   1.674   3.071
 4320TIP3    H112966   2.495   1.597   3.033
 4320TIP3    H212967   2.416   1.644   3.154
 4321TIP3   OH212968   5.032   4.847   3.854
 4321TIP3    H112969   4.986   4.924   3.823
 4321TIP3    H212970   5.002   4.835   3.944
 4322TIP3   OH212971   5.013   3.809   1.282
 4322TIP3    H112972   4.967   3.876   1.233
 4322TIP3    H212973   5.062   3.760   1.216
 4323TIP3   OH212974   1.366   3.154   1.774
 4323TIP3    H112975   1.316   3.176   1.853
 4323TIP3    H212976   1.379   3.059   1.780
 4324TIP3   OH212977   1.480   3.026   3.763
 4324TIP3    H112978   1.409   3.038   3.701
 4324TIP3    H212979   1.523   3.112   3.767
 4325TIP3   OH212980   4.012   2.322   1.930
 4325TIP3    H112981   4.058   2.376   1.994
 4325TIP3    H212982   4.074   2.252   1.909
 4326TIP3   OH212983   1.524   4.152   0.237
 4326TIP3    H112984   1.544   4.080   0.297
 4326TIP3    H212985   1.609   4.186   0.210
 4327TIP3   OH212986   3.587   2.709   2.739
 4327TIP3    H112987   3.523   2.659   2.689
 4327TIP3    H212988   3.659   2.725   2.677
 4328TIP3   OH212989   0.329   0.235   3.079
 4328TIP3    H112990   0.320   0.271   2.990
 4328TIP3    H212991   0.419   0.202   3.082
 4329TIP3   OH212992   2.674   3.534   1.542
 4329TIP3    H112993   2.582   3.545   1.568
 4329TIP3    H212994   2.723   3.589   1.603
 4330TIP3   OH212995   3.778   2.592   3.416
 4330TIP3    H112996   3.861   2.571   3.374
 4330TIP3    H212997   3.770   2.687   3.410
 4331TIP3   OH212998   3.850   2.202   2.139
 4331TIP3    H112999   3.855   2.259   2.063
 4331TIP3    H213000   3.763   2.162   2.133
 4332TIP3   OH213001   1.992   0.656   3.540
 4332TIP3    H113002   2.068   0.710   3.520
 4332TIP3    H213003   1.938   0.659   3.461
 4333TIP3   OH213004   3.163   1.641   2.934
 4333TIP3    H113005   3.194   1.550   2.926
 4333TIP3    H213006   3.241   1.694   2.915
 4334TIP3   OH213007   2.168   2.796   4.971
 4334TIP3    H113008   2.142   2.722   4.916
 4334TIP3    H213009   2.195   2.864   4.910
 4335TIP3   OH213010   3.934   1.758   4.962
 4335TIP3    H113011   3.871   1.827   4.983
 4335TIP3    H213012   3.960   1.776   4.872
 4336TIP3   OH213013   0.432   2.624   1.030
 4336TIP3    H113014   0.508   2.677   1.006
 4336TIP3    H213015   0.415   2.646   1.121
 4337TIP3   OH213016   1.127   4.499   2.720
 4337TIP3    H113017   1.173   4.502   2.804
 4337TIP3    H213018   1.049   4.553   2.733
 4338TIP3   OH213019   3.828   3.750   4.097
 4338TIP3    H113020   3.897   3.701   4.142
 4338TIP3    H213021   3.867   3.773   4.013
 4339TIP3   OH213022   4.251   1.224   4.653
 4339TIP3    H113023   4.236   1.229   4.559
 4339TIP3    H213024   4.257   1.315   4.681
 4340TIP3   OH213025   0.140   5.832   3.969
 4340TIP3    H113026   0.054   5.791   3.964
 4340TIP3    H213027   0.195   5.780   3.912
 4341TIP3   OH213028   3.491   3.569   4.879
 4341TIP3    H113029   3.555   3.640   4.874
 4341TIP3    H213030   3.440   3.589   4.958
 4342TIP3   OH213031   1.808   2.379   2.426
 4342TIP3    H113032   1.781   2.467   2.453
 4342TIP3    H213033   1.747   2.320   2.470
 4343TIP3   OH213034   6.265   2.264   3.049
 4343TIP3    H113035   6.281   2.345   3.000
 4343TIP3    H213036   6.272   2.289   3.141
 4344TIP3   OH213037   4.203   1.313   0.908
 4344TIP3    H113038   4.281   1.345   0.952
 4344TIP3    H213039   4.217   1.218   0.901
 4345TIP3   OH213040   4.961   4.456   2.861
 4345TIP3    H113041   4.944   4.420   2.948
 4345TIP3    H213042   5.055   4.444   2.848
 4346TIP3   OH213043   1.188   2.038   0.047
 4346TIP3    H113044   1.247   1.992  -0.012
 4346TIP3    H213045   1.245   2.088   0.106
 4347TIP3   OH213046   4.414   1.054   2.907
 4347TIP3    H113047   4.373   1.002   2.975
 4347TIP3    H213048   4.343   1.108   2.872
 4348TIP3   OH213049   5.482   1.383   3.551
 4348TIP3    H113050   5.429   1.370   3.472
 4348TIP3    H213051   5.555   1.438   3.521
 4349TIP3   OH213052   4.487   0.374   0.609
 4349TIP3    H113053   4.479   0.468   0.593
 4349TIP3    H213054   4.398   0.346   0.630
 4350TIP3   OH213055   3.973   5.378   1.673
 4350TIP3    H113056   4.055   5.330   1.667
 4350TIP3    H213057   3.928   5.361   1.591
 4351TIP3   OH213058   5.901   2.217   0.066
 4351TIP3    H113059   5.864   2.304   0.051
 4351TIP3    H213060   5.931   2.188  -0.021
 4352TIP3   OH213061   5.522   5.328   5.152
 4352TIP3    H113062   5.605   5.365   5.182
 4352TIP3    H213063   5.464   5.336   5.228
 4353TIP3   OH213064   0.972   1.283   4.305
 4353TIP3    H113065   0.949   1.376   4.310
 4353TIP3    H213066   0.947   1.247   4.390
 4354TIP3   OH213067   3.436   2.207   0.870
 4354TIP3    H113068   3.437   2.118   0.905
 4354TIP3    H213069   3.347   2.219   0.837
 4355TIP3   OH213070   5.931   3.358   4.294
 4355TIP3    H113071   5.946   3.282   4.239
 4355TIP3    H213072   5.969   3.431   4.245
 4356TIP3   OH213073   5.015   1.568   1.578
 4356TIP3    H113074   5.058   1.556   1.663
 4356TIP3    H213075   4.921   1.566   1.599
 4357TIP3   OH213076   5.535   3.165   2.315
 4357TIP3    H113077   5.545   3.170   2.219
 4357TIP3    H213078   5.624   3.164   2.349
 4358TIP3   OH213079   6.304   4.293   1.200
 4358TIP3    H113080   6.296   4.345   1.280
 4358TIP3    H213081   6.296   4.203   1.229
 4359TIP3   OH213082   6.226   5.229   0.947
 4359TIP3    H113083   6.200   5.241   0.856
 4359TIP3    H213084   6.320   5.245   0.948
 4360TIP3   OH213085   0.892   2.981   2.758
 4360TIP3    H113086   0.974   2.969   2.806
 4360TIP3    H213087   0.903   2.931   2.677
 4361TIP3   OH213088   3.514   0.496   1.578
 4361TIP3    H113089   3.587   0.480   1.518
 4361TIP3    H213090   3.537   0.447   1.657
 4362TIP3   OH213091   1.340   1.543   2.664
 4362TIP3    H113092   1.377   1.473   2.717
 4362TIP3    H213093   1.247   1.542   2.685
 4363TIP3   OH213094   0.735   3.871   0.234
 4363TIP3    H113095   0.654   3.843   0.191
 4363TIP3    H213096   0.718   3.859   0.327
 4364TIP3   OH213097   5.880   0.288   4.332
 4364TIP3    H113098   5.938   0.263   4.404
 4364TIP3    H213099   5.939   0.310   4.260
 4365TIP3   OH213100   0.667   1.800   3.470
 4365TIP3    H113101   0.583   1.755   3.482
 4365TIP3    H213102   0.733   1.732   3.488
 4366TIP3   OH213103   4.208   3.345   4.670
 4366TIP3    H113104   4.168   3.322   4.587
 4366TIP3    H213105   4.165   3.288   4.734
 4367TIP3   OH213106   4.537   0.700   0.367
 4367TIP3    H113107   4.497   0.639   0.430
 4367TIP3    H213108   4.485   0.780   0.376
 4368TIP3   OH213109   2.827   3.332   5.204
 4368TIP3    H113110   2.739   3.299   5.185
 4368TIP3    H213111   2.857   3.369   5.121
 4369TIP3   OH213112   2.888   5.535   5.146
 4369TIP3    H113113   2.795   5.526   5.168
 4369TIP3    H213114   2.899   5.628   5.127
 4370TIP3   OH213115   1.331   5.163   3.364
 4370TIP3    H113116   1.355   5.233   3.424
 4370TIP3    H213117   1.251   5.125   3.401
 4371TIP3   OH213118   6.042   0.653   2.596
 4371TIP3    H113119   6.112   0.615   2.649
 4371TIP3    H213120   5.994   0.576   2.562
 4372TIP3   OH213121   0.044   3.527   3.547
 4372TIP3    H113122   0.102   3.453   3.527
 4372TIP3    H213123   0.072   3.596   3.488
 4373TIP3   OH213124   2.068   2.268   2.438
 4373TIP3    H113125   1.976   2.284   2.419
 4373TIP3    H213126   2.085   2.318   2.518
 4374TIP3   OH213127   3.002   5.578   1.643
 4374TIP3    H113128   2.910   5.552   1.651
 4374TIP3    H213129   3.042   5.508   1.590
 4375TIP3   OH213130   1.354   0.581   3.199
 4375TIP3    H113131   1.259   0.591   3.186
 4375TIP3    H213132   1.366   0.489   3.220
 4376TIP3   OH213133   1.668   1.705   0.455
 4376TIP3    H113134   1.605   1.642   0.490
 4376TIP3    H213135   1.754   1.671   0.480
 4377TIP3   OH213136   0.418   4.005   2.925
 4377TIP3    H113137   0.436   3.955   3.004
 4377TIP3    H213138   0.502   4.046   2.903
 4378TIP3   OH213139   4.782   1.578   4.223
 4378TIP3    H113140   4.837   1.653   4.201
 4378TIP3    H213141   4.702   1.617   4.259
 4379TIP3   OH213142   1.588   3.096   3.474
 4379TIP3    H113143   1.500   3.088   3.509
 4379TIP3    H213144   1.597   3.188   3.449
 4380TIP3   OH213145   5.712   5.697   0.700
 4380TIP3    H113146   5.687   5.788   0.687
 4380TIP3    H213147   5.746   5.669   0.615
 4381TIP3   OH213148   5.565   0.377   3.235
 4381TIP3    H113149   5.497   0.385   3.302
 4381TIP3    H213150   5.588   0.284   3.235
 4382TIP3   OH213151   4.277   3.883   1.094
 4382TIP3    H113152   4.348   3.869   1.031
 4382TIP3    H213153   4.199   3.896   1.039
 4383TIP3   OH213154   5.499   5.947   0.186
 4383TIP3    H113155   5.489   5.867   0.134
 4383TIP3    H213156   5.436   6.008   0.149
 4384TIP3   OH213157   4.978   2.252   2.663
 4384TIP3    H113158   5.066   2.290   2.656
 4384TIP3    H213159   4.951   2.239   2.573
 4385TIP3   OH213160   5.031   0.914   1.827
 4385TIP3    H113161   5.029   0.969   1.905
 4385TIP3    H213162   4.942   0.877   1.822
 4386TIP3   OH213163   4.139   0.624   0.418
 4386TIP3    H113164   4.057   0.617   0.368
 4386TIP3    H213165   4.205   0.585   0.361
 4387TIP3   OH213166   0.674   5.889   2.120
 4387TIP3    H113167   0.744   5.938   2.077
 4387TIP3    H213168   0.707   5.872   2.208
 4388TIP3   OH213169   5.649   3.144   1.167
 4388TIP3    H113170   5.716   3.088   1.205
 4388TIP3    H213171   5.667   3.143   1.073
 4389TIP3   OH213172   6.168   0.776   4.926
 4389TIP3    H113173   6.112   0.700   4.915
 4389TIP3    H213174   6.126   0.845   4.874
 4390TIP3   OH213175   2.910   4.862   2.377
 4390TIP3    H113176   2.920   4.931   2.312
 4390TIP3    H213177   2.968   4.888   2.449
 4391TIP3   OH213178   2.941   5.520   4.303
 4391TIP3    H113179   2.876   5.560   4.245
 4391TIP3    H213180   2.957   5.585   4.371
 4392TIP3   OH213181   1.254   5.269   2.904
 4392TIP3    H113182   1.318   5.279   2.834
 4392TIP3    H213183   1.272   5.183   2.942
 4393TIP3   OH213184   0.193   3.435   0.798
 4393TIP3    H113185   0.284   3.415   0.823
 4393TIP3    H213186   0.199   3.465   0.708
 4394TIP3   OH213187   1.780   4.109   1.450
 4394TIP3    H113188   1.826   4.047   1.393
 4394TIP3    H213189   1.687   4.092   1.435
 4395TIP3   OH213190   0.994   4.355   1.042
 4395TIP3    H113191   1.003   4.444   1.007
 4395TIP3    H213192   0.919   4.361   1.101
 4396TIP3   OH213193   1.453   2.990   2.929
 4396TIP3    H113194   1.475   2.897   2.937
 4396TIP3    H213195   1.419   3.013   3.016
 4397TIP3   OH213196   1.810   0.030   0.097
 4397TIP3    H113197   1.842  -0.036   0.158
 4397TIP3    H213198   1.885   0.086   0.080
 4398TIP3   OH213199   5.739   0.307   2.038
 4398TIP3    H113200   5.666   0.361   2.007
 4398TIP3    H213201   5.807   0.369   2.062
 4399TIP3   OH213202   3.551   2.190   0.346
 4399TIP3    H113203   3.497   2.130   0.295
 4399TIP3    H213204   3.641   2.160   0.331
 4400TIP3   OH213205   3.952   0.956   4.718
 4400TIP3    H113206   4.002   0.881   4.752
 4400TIP3    H213207   3.967   0.953   4.623
 4401TIP3   OH213208   3.388   1.752   2.781
 4401TIP3    H113209   3.404   1.661   2.754
 4401TIP3    H213210   3.460   1.773   2.840
 4402TIP3   OH213211   5.845   5.140   5.213
 4402TIP3    H113212   5.938   5.159   5.201
 4402TIP3    H213213   5.802   5.225   5.204
 4403TIP3   OH213214   1.587   3.173   1.619
 4403TIP3    H113215   1.499   3.174   1.656
 4403TIP3    H213216   1.573   3.189   1.525
 4404TIP3   OH213217   2.466   2.536   1.619
 4404TIP3    H113218   2.518   2.612   1.646
 4404TIP3    H213219   2.508   2.506   1.538
 4405TIP3   OH213220   3.145   0.165   1.062
 4405TIP3    H113221   3.236   0.138   1.066
 4405TIP3    H213222   3.143   0.250   1.105
 4406TIP3   OH213223   0.936   2.032   4.742
 4406TIP3    H113224   0.930   1.945   4.782
 4406TIP3    H213225   0.885   2.088   4.801
 4407TIP3   OH213226   4.328   4.768   3.298
 4407TIP3    H113227   4.332   4.813   3.213
 4407TIP3    H213228   4.358   4.679   3.279
 4408TIP3   OH213229   3.381   5.981   1.790
 4408TIP3    H113230   3.431   5.901   1.774
 4408TIP3    H213231   3.365   5.980   1.885
 4409TIP3   OH213232   0.685   4.990   0.483
 4409TIP3    H113233   0.721   5.071   0.446
 4409TIP3    H213234   0.701   4.997   0.577
 4410TIP3   OH213235   4.988   1.182   3.266
 4410TIP3    H113236   4.908   1.231   3.245
 4410TIP3    H213237   5.050   1.247   3.298
 4411TIP3   OH213238   1.917   4.746   0.987
 4411TIP3    H113239   2.008   4.773   0.976
 4411TIP3    H213240   1.912   4.717   1.079
 4412TIP3   OH213241   4.298   5.598   2.348
 4412TIP3    H113242   4.359   5.544   2.297
 4412TIP3    H213243   4.353   5.667   2.385
 4413TIP3   OH213244   1.422   4.145   3.753
 4413TIP3    H113245   1.359   4.112   3.689
 4413TIP3    H213246   1.485   4.074   3.765
 4414TIP3   OH213247   3.410   6.018   2.065
 4414TIP3    H113248   3.372   5.945   2.115
 4414TIP3    H213249   3.470   6.060   2.127
 4415TIP3   OH213250   1.905   5.294   4.158
 4415TIP3    H113251   1.937   5.204   4.166
 4415TIP3    H213252   1.976   5.348   4.192
 4416TIP3   OH213253   1.348   3.138   1.144
 4416TIP3    H113254   1.337   3.051   1.182
 4416TIP3    H213255   1.291   3.138   1.067
 4417TIP3   OH213256   5.594   3.700   3.743
 4417TIP3    H113257   5.686   3.704   3.716
 4417TIP3    H213258   5.547   3.745   3.673
 4418TIP3   OH213259   1.160   0.873   2.363
 4418TIP3    H113260   1.223   0.868   2.291
 4418TIP3    H213261   1.113   0.790   2.360
 4419TIP3   OH213262   0.093   3.038   0.260
 4419TIP3    H113263   0.161   3.080   0.207
 4419TIP3    H213264   0.102   3.081   0.346
 4420TIP3   OH213265   5.510   3.674   2.651
 4420TIP3    H113266   5.515   3.592   2.602
 4420TIP3    H213267   5.483   3.740   2.587
 4421TIP3   OH213268   4.927   3.863   1.523
 4421TIP3    H113269   4.950   3.825   1.438
 4421TIP3    H213270   4.920   3.957   1.505
 4422TIP3   OH213271   3.807   1.885   3.137
 4422TIP3    H113272   3.724   1.839   3.129
 4422TIP3    H213273   3.796   1.963   3.082
 4423TIP3   OH213274   1.905   2.005   2.748
 4423TIP3    H113275   1.960   1.945   2.799
 4423TIP3    H213276   1.816   1.973   2.762
 4424TIP3   OH213277   5.007   0.948   2.392
 4424TIP3    H113278   4.989   1.041   2.375
 4424TIP3    H213279   5.085   0.950   2.448
 4425TIP3   OH213280   5.316   0.677   0.432
 4425TIP3    H113281   5.278   0.761   0.457
 4425TIP3    H213282   5.387   0.664   0.495
 4426TIP3   OH213283   6.386   2.408   4.666
 4426TIP3    H113284   6.303   2.363   4.649
 4426TIP3    H213285   6.415   2.438   4.579
 4427TIP3   OH213286   3.408   0.807   4.019
 4427TIP3    H113287   3.322   0.770   4.038
 4427TIP3    H213288   3.437   0.844   4.102
 4428TIP3   OH213289   2.054   3.073   4.891
 4428TIP3    H113290   2.089   3.156   4.923
 4428TIP3    H213291   1.961   3.077   4.913
 4429TIP3   OH213292   5.189   5.200   2.864
 4429TIP3    H113293   5.122   5.251   2.817
 4429TIP3    H213294   5.174   5.222   2.956
 4430TIP3   OH213295   1.351   0.212   0.562
 4430TIP3    H113296   1.395   0.292   0.533
 4430TIP3    H213297   1.297   0.240   0.636
 4431TIP3   OH213298   3.633   3.593   1.520
 4431TIP3    H113299   3.561   3.537   1.493
 4431TIP3    H213300   3.665   3.632   1.438
 4432TIP3   OH213301   3.879   0.704   1.829
 4432TIP3    H113302   3.970   0.692   1.856
 4432TIP3    H213303   3.869   0.648   1.752
 4433TIP3   OH213304   0.300   3.079   0.075
 4433TIP3    H113305   0.370   3.141   0.097
 4433TIP3    H213306   0.318   3.054  -0.015
 4434TIP3   OH213307   3.579   3.408   0.304
 4434TIP3    H113308   3.594   3.333   0.361
 4434TIP3    H213309   3.489   3.436   0.323
 4435TIP3   OH213310   3.109   1.667   0.639
 4435TIP3    H113311   3.056   1.742   0.665
 4435TIP3    H213312   3.062   1.628   0.566
 4436TIP3   OH213313   5.691   3.399   1.799
 4436TIP3    H113314   5.621   3.369   1.742
 4436TIP3    H213315   5.771   3.389   1.747
 4437TIP3   OH213316   1.424   4.110   4.518
 4437TIP3    H113317   1.415   4.200   4.485
 4437TIP3    H213318   1.344   4.096   4.569
 4438TIP3   OH213319   2.180   3.854   5.027
 4438TIP3    H113320   2.114   3.786   5.019
 4438TIP3    H213321   2.235   3.827   5.101
 4439TIP3   OH213322   0.940   5.471   3.716
 4439TIP3    H113323   0.961   5.549   3.665
 4439TIP3    H213324   0.987   5.481   3.798
 4440TIP3   OH213325   4.316   0.069   0.747
 4440TIP3    H113326   4.271   0.152   0.760
 4440TIP3    H213327   4.314   0.027   0.833
 4441TIP3   OH213328   4.208   1.962   5.070
 4441TIP3    H113329   4.146   1.986   5.139
 4441TIP3    H213330   4.191   2.023   4.999
 4442TIP3   OH213331   1.083   2.989   1.319
 4442TIP3    H113332   1.013   2.945   1.367
 4442TIP3    H213333   1.161   2.977   1.374
 4443TIP3   OH213334   5.677   0.131   3.282
 4443TIP3    H113335   5.673   0.103   3.374
 4443TIP3    H213336   5.745   0.075   3.243
 4444TIP3   OH213337   6.137   1.844   0.606
 4444TIP3    H113338   6.199   1.910   0.636
 4444TIP3    H213339   6.055   1.892   0.596
 4445TIP3   OH213340   5.530   2.589   2.248
 4445TIP3    H113341   5.543   2.679   2.279
 4445TIP3    H213342   5.609   2.571   2.196
 4446TIP3   OH213343   2.157   1.152   3.225
 4446TIP3    H113344   2.218   1.098   3.276
 4446TIP3    H213345   2.196   1.155   3.137
 4447TIP3   OH213346   1.690   3.076   3.203
 4447TIP3    H113347   1.661   3.062   3.293
 4447TIP3    H213348   1.705   2.988   3.168
 4448TIP3   OH213349   3.103   4.105   4.669
 4448TIP3    H113350   3.104   4.172   4.602
 4448TIP3    H213351   3.196   4.093   4.692
 4449TIP3   OH213352   0.506   1.682   2.315
 4449TIP3    H113353   0.514   1.778   2.310
 4449TIP3    H213354   0.413   1.665   2.297
 4450TIP3   OH213355   2.407   5.123   3.215
 4450TIP3    H113356   2.336   5.147   3.156
 4450TIP3    H213357   2.487   5.152   3.170
 4451TIP3   OH213358   1.058   3.612   1.821
 4451TIP3    H113359   1.120   3.660   1.767
 4451TIP3    H213360   1.109   3.584   1.897
 4452TIP3   OH213361   6.097   5.244   5.155
 4452TIP3    H113362   6.146   5.166   5.181
 4452TIP3    H213363   6.156   5.290   5.095
 4453TIP3   OH213364   3.660   3.433   2.216
 4453TIP3    H113365   3.657   3.360   2.279
 4453TIP3    H213366   3.589   3.413   2.154
 4454TIP3   OH213367   3.374   1.890   0.739
 4454TIP3    H113368   3.390   1.923   0.827
 4454TIP3    H213369   3.291   1.843   0.746
 4455TIP3   OH213370   1.588   0.133   0.250
 4455TIP3    H113371   1.661   0.099   0.198
 4455TIP3    H213372   1.554   0.057   0.297
 4456TIP3   OH213373   5.521   4.661   3.911
 4456TIP3    H113374   5.437   4.614   3.911
 4456TIP3    H213375   5.550   4.657   3.820
 4457TIP3   OH213376   5.120   2.782   4.867
 4457TIP3    H113377   5.060   2.779   4.792
 4457TIP3    H213378   5.206   2.759   4.829
 4458TIP3   OH213379   1.600   5.497   0.270
 4458TIP3    H113380   1.543   5.527   0.199
 4458TIP3    H213381   1.685   5.484   0.229
 4459TIP3   OH213382   1.406   2.045   1.912
 4459TIP3    H113383   1.375   1.964   1.870
 4459TIP3    H213384   1.351   2.053   1.990
 4460TIP3   OH213385   6.296   5.244   4.936
 4460TIP3    H113386   6.220   5.243   4.877
 4460TIP3    H213387   6.329   5.334   4.931
 4461TIP3   OH213388   2.478   2.824   4.650
 4461TIP3    H113389   2.420   2.894   4.680
 4461TIP3    H213390   2.438   2.744   4.682
 4462TIP3   OH213391   5.141   3.271   1.349
 4462TIP3    H113392   5.139   3.176   1.337
 4462TIP3    H213393   5.234   3.295   1.337
 4463TIP3   OH213394   4.020   0.270   3.734
 4463TIP3    H113395   4.091   0.315   3.687
 4463TIP3    H213396   3.950   0.334   3.738
 4464TIP3   OH213397   1.744   5.866   4.238
 4464TIP3    H113398   1.704   5.906   4.315
 4464TIP3    H213399   1.677   5.805   4.205
 4465TIP3   OH213400   4.545   1.612   0.775
 4465TIP3    H113401   4.587   1.558   0.842
 4465TIP3    H213402   4.618   1.647   0.723
 4466TIP3   OH213403   6.226   3.330   4.057
 4466TIP3    H113404   6.151   3.275   4.080
 4466TIP3    H213405   6.201   3.418   4.086
 4467TIP3   OH213406   2.134   1.442   3.900
 4467TIP3    H113407   2.077   1.366   3.917
 4467TIP3    H213408   2.073   1.514   3.885
 4468TIP3   OH213409   5.980   5.021   1.494
 4468TIP3    H113410   6.070   5.004   1.465
 4468TIP3    H213411   5.954   5.099   1.444
 4469TIP3   OH213412   4.170   3.507   2.016
 4469TIP3    H113413   4.170   3.522   1.921
 4469TIP3    H213414   4.079   3.482   2.036
 4470TIP3   OH213415   4.817   2.188   4.542
 4470TIP3    H113416   4.838   2.274   4.578
 4470TIP3    H213417   4.769   2.144   4.612
 4471TIP3   OH213418   2.104   4.588   2.023
 4471TIP3    H113419   2.083   4.680   2.032
 4471TIP3    H213420   2.020   4.545   2.005
 4472TIP3   OH213421   1.218   4.878   5.074
 4472TIP3    H113422   1.149   4.811   5.071
 4472TIP3    H213423   1.216   4.910   5.164
 4473TIP3   OH213424   4.668   3.879   3.871
 4473TIP3    H113425   4.611   3.818   3.824
 4473TIP3    H213426   4.681   3.952   3.810
 4474TIP3   OH213427   1.261   4.983   2.563
 4474TIP3    H113428   1.250   5.077   2.548
 4474TIP3    H213429   1.221   4.941   2.487
 4475TIP3   OH213430   2.707   5.848   0.666
 4475TIP3    H113431   2.623   5.864   0.623
 4475TIP3    H213432   2.750   5.934   0.666
 4476TIP3   OH213433   4.896   5.143   3.868
 4476TIP3    H113434   4.807   5.154   3.899
 4476TIP3    H213435   4.887   5.128   3.774
 4477TIP3   OH213436   5.958   2.773   4.191
 4477TIP3    H113437   5.969   2.679   4.173
 4477TIP3    H213438   6.044   2.811   4.176
 4478TIP3   OH213439   3.727   1.534   5.144
 4478TIP3    H113440   3.732   1.592   5.068
 4478TIP3    H213441   3.641   1.491   5.136
 4479TIP3   OH213442   2.406   0.128   0.169
 4479TIP3    H113443   2.473   0.179   0.215
 4479TIP3    H213444   2.368   0.190   0.106
 4480TIP3   OH213445   1.826   1.611   4.912
 4480TIP3    H113446   1.740   1.608   4.870
 4480TIP3    H213447   1.839   1.522   4.947
 4481TIP3   OH213448   0.137   4.045   1.451
 4481TIP3    H113449   0.054   4.038   1.403
 4481TIP3    H213450   0.114   4.093   1.531
 4482TIP3   OH213451   2.389   1.697   4.206
 4482TIP3    H113452   2.322   1.745   4.158
 4482TIP3    H213453   2.344   1.661   4.282
 4483TIP3   OH213454   4.030   1.592   0.100
 4483TIP3    H113455   3.943   1.573   0.064
 4483TIP3    H213456   4.049   1.518   0.157
 4484TIP3   OH213457   0.477   0.974   4.951
 4484TIP3    H113458   0.482   1.055   4.901
 4484TIP3    H213459   0.396   0.981   5.001
 4485TIP3   OH213460   3.913   4.568   3.755
 4485TIP3    H113461   3.850   4.566   3.827
 4485TIP3    H213462   3.987   4.618   3.790
 4486TIP3   OH213463   0.237   5.486   0.190
 4486TIP3    H113464   0.146   5.499   0.162
 4486TIP3    H213465   0.238   5.517   0.281
 4487TIP3   OH213466   2.057   1.971   2.505
 4487TIP3    H113467   2.002   1.998   2.579
 4487TIP3    H213468   2.066   2.049   2.451
 4488TIP3   OH213469   0.107   4.334   0.970
 4488TIP3    H113470   0.091   4.276   0.895
 4488TIP3    H213471   0.049   4.300   1.038
 4489TIP3   OH213472   2.814   1.900   2.938
 4489TIP3    H113473   2.841   1.955   2.864
 4489TIP3    H213474   2.895   1.858   2.968
 4490TIP3   OH213475   5.572   2.844   2.206
 4490TIP3    H113476   5.560   2.855   2.111
 4490TIP3    H213477   5.665   2.829   2.216
 4491TIP3   OH213478   0.007   2.137   1.957
 4491TIP3    H113479  -0.014   2.046   1.980
 4491TIP3    H213480   0.067   2.130   1.883
 4492TIP3   OH213481   1.472   4.583   1.759
 4492TIP3    H113482   1.564   4.559   1.747
 4492TIP3    H213483   1.459   4.656   1.699
 4493TIP3   OH213484   6.216   1.884   3.652
 4493TIP3    H113485   6.123   1.881   3.633
 4493TIP3    H213486   6.235   1.977   3.665
 4494TIP3   OH213487   2.355   1.345   0.510
 4494TIP3    H113488   2.430   1.403   0.522
 4494TIP3    H213489   2.344   1.302   0.595
 4495TIP3   OH213490   4.687   3.157   4.790
 4495TIP3    H113491   4.620   3.089   4.789
 4495TIP3    H213492   4.638   3.239   4.776
 4496TIP3   OH213493   0.445   2.448   4.307
 4496TIP3    H113494   0.464   2.444   4.214
 4496TIP3    H213495   0.396   2.367   4.325
 4497TIP3   OH213496   3.478   0.826   4.279
 4497TIP3    H113497   3.550   0.889   4.275
 4497TIP3    H213498   3.413   0.869   4.336
 4498TIP3   OH213499   0.226   4.070   2.112
 4498TIP3    H113500   0.202   4.012   2.184
 4498TIP3    H213501   0.304   4.117   2.144
 4499TIP3   OH213502   4.041   5.456   3.714
 4499TIP3    H113503   4.119   5.409   3.686
 4499TIP3    H213504   3.997   5.398   3.776
 4500TIP3   OH213505   3.704   4.905   4.105
 4500TIP3    H113506   3.654   4.976   4.147
 4500TIP3    H213507   3.736   4.852   4.178
 4501TIP3   OH213508   0.144   1.257   0.678
 4501TIP3    H113509   0.217   1.318   0.668
 4501TIP3    H213510   0.179   1.173   0.649
 4502TIP3   OH213511   5.082   4.259   4.942
 4502TIP3    H113512   5.156   4.225   4.892
 4502TIP3    H213513   5.005   4.217   4.903
 4503TIP3   OH213514   5.451   1.853   1.985
 4503TIP3    H113515   5.511   1.786   1.951
 4503TIP3    H213516   5.508   1.919   2.023
 4504TIP3   OH213517   5.650   0.800   1.742
 4504TIP3    H113518   5.587   0.871   1.753
 4504TIP3    H213519   5.720   0.821   1.804
 4505TIP3   OH213520   3.136   3.758   3.958
 4505TIP3    H113521   3.088   3.841   3.963
 4505TIP3    H213522   3.069   3.690   3.965
 4506TIP3   OH213523   2.930   0.883   4.684
 4506TIP3    H113524   2.931   0.968   4.641
 4506TIP3    H213525   2.997   0.889   4.751
 4507TIP3   OH213526   0.015   4.701   4.630
 4507TIP3    H113527   0.042   4.704   4.721
 4507TIP3    H213528   0.046   4.784   4.592
 4508TIP3   OH213529   4.604   3.953   4.317
 4508TIP3    H113530   4.663   3.914   4.382
 4508TIP3    H213531   4.600   4.046   4.340
 4509TIP3   OH213532   3.641   3.727   0.677
 4509TIP3    H113533   3.607   3.657   0.733
 4509TIP3    H213534   3.572   3.742   0.613
 4510TIP3   OH213535   3.142   1.618   1.685
 4510TIP3    H113536   3.133   1.523   1.672
 4510TIP3    H213537   3.144   1.629   1.780
 4511TIP3   OH213538   6.127   4.214   4.363
 4511TIP3    H113539   6.161   4.290   4.317
 4511TIP3    H213540   6.147   4.140   4.305
 4512TIP3   OH213541   0.435   1.846   2.736
 4512TIP3    H113542   0.438   1.914   2.803
 4512TIP3    H213543   0.405   1.768   2.782
 4513TIP3   OH213544   3.786   5.284   3.653
 4513TIP3    H113545   3.787   5.285   3.557
 4513TIP3    H213546   3.716   5.224   3.676
 4514TIP3   OH213547   4.507   0.485   3.947
 4514TIP3    H113548   4.582   0.469   3.890
 4514TIP3    H213549   4.462   0.401   3.952
 4515TIP3   OH213550   3.931   3.817   2.599
 4515TIP3    H113551   3.922   3.869   2.679
 4515TIP3    H213552   3.908   3.728   2.625
 4516TIP3   OH213553   4.829   3.902   5.087
 4516TIP3    H113554   4.815   3.871   5.177
 4516TIP3    H213555   4.773   3.979   5.080
 4517TIP3   OH213556   2.459   2.605   2.748
 4517TIP3    H113557   2.439   2.675   2.810
 4517TIP3    H213558   2.385   2.606   2.686
 4518TIP3   OH213559   2.152   5.681   1.119
 4518TIP3    H113560   2.063   5.646   1.130
 4518TIP3    H213561   2.202   5.608   1.084
 4519TIP3   OH213562   4.688   3.130   4.020
 4519TIP3    H113563   4.693   3.043   3.982
 4519TIP3    H213564   4.699   3.117   4.114
 4520TIP3   OH213565   4.895   4.446   0.164
 4520TIP3    H113566   4.898   4.376   0.098
 4520TIP3    H213567   4.986   4.460   0.188
 4521TIP3   OH213568   2.529   2.481   3.843
 4521TIP3    H113569   2.576   2.397   3.837
 4521TIP3    H213570   2.567   2.524   3.920
 4522TIP3   OH213571   0.203   3.449   5.061
 4522TIP3    H113572   0.217   3.490   5.147
 4522TIP3    H213573   0.289   3.412   5.039
 4523TIP3   OH213574   0.317   0.976   2.823
 4523TIP3    H113575   0.395   0.920   2.828
 4523TIP3    H213576   0.260   0.932   2.761
 4524TIP3   OH213577   3.831   4.517   4.381
 4524TIP3    H113578   3.908   4.461   4.381
 4524TIP3    H213579   3.859   4.596   4.335
 4525TIP3   OH213580   3.466   2.675   4.955
 4525TIP3    H113581   3.453   2.623   5.035
 4525TIP3    H213582   3.558   2.699   4.957
 4526TIP3   OH213583   4.987   4.381   2.330
 4526TIP3    H113584   5.008   4.450   2.267
 4526TIP3    H213585   4.963   4.306   2.277
 4527TIP3   OH213586   5.181   3.850   2.190
 4527TIP3    H113587   5.104   3.827   2.139
 4527TIP3    H213588   5.148   3.859   2.280
 4528TIP3   OH213589   1.212   5.943   0.236
 4528TIP3    H113590   1.287   5.988   0.275
 4528TIP3    H213591   1.193   5.993   0.156
 4529TIP3   OH213592   5.300   5.881   0.511
 4529TIP3    H113593   5.278   5.933   0.589
 4529TIP3    H213594   5.300   5.945   0.439
 4530TIP3   OH213595   3.204   4.354   0.818
 4530TIP3    H113596   3.148   4.299   0.873
 4530TIP3    H213597   3.153   4.370   0.739
 4531TIP3   OH213598   0.869   1.926   3.936
 4531TIP3    H113599   0.832   1.840   3.956
 4531TIP3    H213600   0.961   1.908   3.918
 4532TIP3   OH213601   4.088   5.962   0.592
 4532TIP3    H113602   4.014   5.982   0.534
 4532TIP3    H213603   4.057   5.891   0.647
 4533TIP3   OH213604   0.484   4.643   3.442
 4533TIP3    H113605   0.429   4.691   3.380
 4533TIP3    H213606   0.554   4.704   3.464
 4534TIP3   OH213607   1.052   4.461   0.768
 4534TIP3    H113608   0.983   4.492   0.709
 4534TIP3    H213609   1.022   4.374   0.796
 4535TIP3   OH213610   3.648   5.221   4.564
 4535TIP3    H113611   3.699   5.289   4.608
 4535TIP3    H213612   3.593   5.184   4.633
 4536TIP3   OH213613   5.068   2.943   3.174
 4536TIP3    H113614   5.145   2.887   3.187
 4536TIP3    H213615   5.065   2.956   3.079
 4537TIP3   OH213616   0.113   3.756   4.295
 4537TIP3    H113617   0.148   3.754   4.206
 4537TIP3    H213618   0.191   3.753   4.351
 4538TIP3   OH213619   0.957   5.333   1.667
 4538TIP3    H113620   0.969   5.302   1.577
 4538TIP3    H213621   1.005   5.270   1.720
 4539TIP3   OH213622   3.588   1.576   2.298
 4539TIP3    H113623   3.624   1.495   2.262
 4539TIP3    H213624   3.497   1.554   2.321
 4540TIP3   OH213625   2.970   2.424   0.623
 4540TIP3    H113626   2.939   2.376   0.546
 4540TIP3    H213627   2.936   2.513   0.610
 4541TIP3   OH213628   5.615   3.240   4.211
 4541TIP3    H113629   5.687   3.291   4.248
 4541TIP3    H213630   5.641   3.223   4.120
 4542TIP3   OH213631   1.218   5.231   3.783
 4542TIP3    H113632   1.194   5.287   3.857
 4542TIP3    H213633   1.210   5.142   3.818
 4543TIP3   OH213634   5.867   4.536   1.416
 4543TIP3    H113635   5.800   4.600   1.390
 4543TIP3    H213636   5.940   4.590   1.446
 4544TIP3   OH213637   2.318   5.383   4.127
 4544TIP3    H113638   2.385   5.338   4.180
 4544TIP3    H213639   2.346   5.474   4.127
 4545TIP3   OH213640   5.322   0.737   4.406
 4545TIP3    H113641   5.251   0.796   4.381
 4545TIP3    H213642   5.287   0.687   4.479
 4546TIP3   OH213643   1.272   5.233   0.785
 4546TIP3    H113644   1.312   5.176   0.719
 4546TIP3    H213645   1.180   5.237   0.760
 4547TIP3   OH213646   1.539   1.614   1.852
 4547TIP3    H113647   1.566   1.633   1.942
 4547TIP3    H213648   1.620   1.588   1.807
 4548TIP3   OH213649   5.890   4.516   5.191
 4548TIP3    H113650   5.874   4.583   5.124
 4548TIP3    H213651   5.804   4.500   5.230
 4549TIP3   OH213652   1.324   5.370   3.557
 4549TIP3    H113653   1.357   5.447   3.603
 4549TIP3    H213654   1.283   5.318   3.625
 4550TIP3   OH213655   2.547   0.753   0.517
 4550TIP3    H113656   2.573   0.798   0.597
 4550TIP3    H213657   2.459   0.719   0.535
 4551TIP3   OH213658   0.583   1.146   2.684
 4551TIP3    H113659   0.651   1.205   2.715
 4551TIP3    H213660   0.622   1.059   2.691
 4552TIP3   OH213661   3.675   0.337   0.942
 4552TIP3    H113662   3.668   0.273   1.013
 4552TIP3    H213663   3.704   0.286   0.866
 4553TIP3   OH213664   6.286   1.225   1.810
 4553TIP3    H113665   6.217   1.288   1.831
 4553TIP3    H213666   6.366   1.267   1.842
 4554TIP3   OH213667   4.415   3.161   0.725
 4554TIP3    H113668   4.412   3.196   0.636
 4554TIP3    H213669   4.354   3.215   0.775
 4555TIP3   OH213670   5.638   2.048   2.034
 4555TIP3    H113671   5.690   2.062   2.113
 4555TIP3    H213672   5.672   2.112   1.971
 4556TIP3   OH213673   1.368   5.608   0.125
 4556TIP3    H113674   1.333   5.545   0.063
 4556TIP3    H213675   1.380   5.689   0.075
 4557TIP3   OH213676   3.511   3.661   3.555
 4557TIP3    H113677   3.481   3.747   3.524
 4557TIP3    H213678   3.435   3.625   3.601
 4558TIP3   OH213679   0.887   2.236   3.822
 4558TIP3    H113680   0.953   2.265   3.759
 4558TIP3    H213681   0.937   2.192   3.891
 4559TIP3   OH213682   4.715   4.474   4.764
 4559TIP3    H113683   4.807   4.499   4.763
 4559TIP3    H213684   4.685   4.494   4.853
 4560TIP3   OH213685   5.229   4.688   3.786
 4560TIP3    H113686   5.151   4.742   3.804
 4560TIP3    H213687   5.292   4.749   3.749
 4561TIP3   OH213688   2.657   5.465   2.904
 4561TIP3    H113689   2.662   5.553   2.942
 4561TIP3    H213690   2.719   5.466   2.831
 4562TIP3   OH213691   2.422   2.733   2.281
 4562TIP3    H113692   2.498   2.779   2.245
 4562TIP3    H213693   2.369   2.801   2.322
 4563TIP3   OH213694   2.915   5.320   3.423
 4563TIP3    H113695   2.874   5.366   3.349
 4563TIP3    H213696   2.930   5.389   3.488
 4564TIP3   OH213697   2.598   3.865   3.123
 4564TIP3    H113698   2.518   3.912   3.145
 4564TIP3    H213699   2.583   3.831   3.035
 4565TIP3   OH213700   2.341   1.708   3.365
 4565TIP3    H113701   2.341   1.680   3.457
 4565TIP3    H213702   2.320   1.801   3.368
 4566TIP3   OH213703   5.204   4.637   2.627
 4566TIP3    H113704   5.190   4.715   2.680
 4566TIP3    H213705   5.197   4.667   2.537
 4567TIP3   OH213706   4.732   5.674   3.197
 4567TIP3    H113707   4.753   5.687   3.105
 4567TIP3    H213708   4.757   5.756   3.239
 4568TIP3   OH213709   4.182   3.399   0.359
 4568TIP3    H113710   4.143   3.387   0.272
 4568TIP3    H213711   4.113   3.371   0.420
 4569TIP3   OH213712   0.879   0.541   4.597
 4569TIP3    H113713   0.831   0.552   4.679
 4569TIP3    H213714   0.927   0.623   4.586
 4570TIP3   OH213715   1.446   3.272   4.652
 4570TIP3    H113716   1.453   3.241   4.561
 4570TIP3    H213717   1.352   3.282   4.666
 4571TIP3   OH213718   3.552   5.791   1.729
 4571TIP3    H113719   3.562   5.717   1.670
 4571TIP3    H213720   3.637   5.834   1.729
 4572TIP3   OH213721   0.290   0.913   3.346
 4572TIP3    H113722   0.319   0.834   3.301
 4572TIP3    H213723   0.298   0.893   3.439
 4573TIP3   OH213724   2.263   3.838   2.940
 4573TIP3    H113725   2.215   3.879   3.011
 4573TIP3    H213726   2.299   3.759   2.978
 4574TIP3   OH213727   3.237   2.795   3.239
 4574TIP3    H113728   3.171   2.841   3.188
 4574TIP3    H213729   3.194   2.713   3.264
 4575TIP3   OH213730   2.357   5.122   3.504
 4575TIP3    H113731   2.384   5.089   3.418
 4575TIP3    H213732   2.274   5.165   3.489
 4576TIP3   OH213733   2.999   3.129   5.017
 4576TIP3    H113734   2.987   3.222   4.995
 4576TIP3    H213735   3.007   3.086   4.932
 4577TIP3   OH213736   4.333   2.310   1.870
 4577TIP3    H113737   4.291   2.379   1.818
 4577TIP3    H213738   4.311   2.229   1.823
 4578TIP3   OH213739   1.994   2.921   1.071
 4578TIP3    H113740   2.072   2.884   1.031
 4578TIP3    H213741   1.965   2.855   1.133
 4579TIP3   OH213742   3.932   0.233   4.497
 4579TIP3    H113743   4.017   0.193   4.477
 4579TIP3    H213744   3.938   0.257   4.589
 4580TIP3   OH213745   2.390   5.082   4.202
 4580TIP3    H113746   2.314   5.033   4.232
 4580TIP3    H213747   2.402   5.150   4.269
 4581TIP3   OH213748   0.810   3.137   4.800
 4581TIP3    H113749   0.847   3.072   4.860
 4581TIP3    H213750   0.865   3.130   4.721
 4582TIP3   OH213751   5.192   3.754   0.747
 4582TIP3    H113752   5.140   3.673   0.751
 4582TIP3    H213753   5.261   3.741   0.812
 4583TIP3   OH213754   0.539   4.526   4.465
 4583TIP3    H113755   0.563   4.611   4.428
 4583TIP3    H213756   0.444   4.521   4.455
 4584TIP3   OH213757   3.066   4.279   0.077
 4584TIP3    H113758   2.986   4.237   0.046
 4584TIP3    H213759   3.137   4.233   0.032
 4585TIP3   OH213760   2.984   2.200   4.839
 4585TIP3    H113761   2.952   2.110   4.833
 4585TIP3    H213762   3.076   2.191   4.864
 4586TIP3   OH213763   5.246   2.840   0.708
 4586TIP3    H113764   5.248   2.750   0.676
 4586TIP3    H213765   5.253   2.832   0.803
 4587TIP3   OH213766   0.485   3.911   4.773
 4587TIP3    H113767   0.429   3.980   4.809
 4587TIP3    H213768   0.563   3.957   4.742
 4588TIP3   OH213769   5.524   3.352   1.592
 4588TIP3    H113770   5.429   3.364   1.601
 4588TIP3    H213771   5.533   3.301   1.512
 4589TIP3   OH213772   1.470   2.482   3.735
 4589TIP3    H113773   1.402   2.419   3.756
 4589TIP3    H213774   1.526   2.484   3.812
 4590TIP3   OH213775   4.338   4.385   3.402
 4590TIP3    H113776   4.337   4.294   3.432
 4590TIP3    H213777   4.268   4.390   3.338
 4591TIP3   OH213778   5.634   0.134   0.260
 4591TIP3    H113779   5.696   0.191   0.306
 4591TIP3    H213780   5.689   0.081   0.202
 4592TIP3   OH213781   3.065   4.162   0.963
 4592TIP3    H113782   3.160   4.155   0.978
 4592TIP3    H213783   3.026   4.130   1.045
 4593TIP3   OH213784   1.345   1.910   3.667
 4593TIP3    H113785   1.275   1.942   3.610
 4593TIP3    H213786   1.385   1.988   3.704
 4594TIP3   OH213787   0.140   3.552   2.470
 4594TIP3    H113788   0.222   3.601   2.477
 4594TIP3    H213789   0.159   3.468   2.512
 4595TIP3   OH213790   2.194   1.222   1.183
 4595TIP3    H113791   2.282   1.195   1.208
 4595TIP3    H213792   2.163   1.152   1.126
 4596TIP3   OH213793   0.881   4.613   4.358
 4596TIP3    H113794   0.844   4.526   4.368
 4596TIP3    H213795   0.805   4.670   4.342
 4597TIP3   OH213796   0.803   3.359   3.110
 4597TIP3    H113797   0.717   3.402   3.114
 4597TIP3    H213798   0.798   3.302   3.033
 4598TIP3   OH213799   1.306   4.523   2.390
 4598TIP3    H113800   1.292   4.560   2.303
 4598TIP3    H213801   1.249   4.447   2.393
 4599TIP3   OH213802   5.547   0.860   4.496
 4599TIP3    H113803   5.483   0.793   4.474
 4599TIP3    H213804   5.498   0.942   4.493
 4600TIP3   OH213805   3.795   3.576   3.097
 4600TIP3    H113806   3.706   3.569   3.063
 4600TIP3    H213807   3.828   3.486   3.100
 4601TIP3   OH213808   1.838   4.817   2.842
 4601TIP3    H113809   1.863   4.871   2.767
 4601TIP3    H213810   1.784   4.747   2.805
 4602TIP3   OH213811   5.130   4.127   2.998
 4602TIP3    H113812   5.188   4.062   2.959
 4602TIP3    H213813   5.175   4.155   3.078
 4603TIP3   OH213814   0.333   5.631   2.978
 4603TIP3    H113815   0.352   5.624   3.072
 4603TIP3    H213816   0.336   5.541   2.946
 4604TIP3   OH213817   3.223   2.012   1.591
 4604TIP3    H113818   3.273   1.931   1.587
 4604TIP3    H213819   3.139   1.991   1.549
 4605TIP3   OH213820   1.120   2.874   2.914
 4605TIP3    H113821   1.054   2.892   2.981
 4605TIP3    H213822   1.193   2.834   2.961
 4606TIP3   OH213823   1.326   1.146   1.470
 4606TIP3    H113824   1.353   1.158   1.561
 4606TIP3    H213825   1.274   1.224   1.450
 4607TIP3   OH213826   4.628   3.432   3.980
 4607TIP3    H113827   4.669   3.346   3.986
 4607TIP3    H213828   4.672   3.474   3.906
 4608TIP3   OH213829   3.987   5.418   0.161
 4608TIP3    H113830   3.915   5.459   0.209
 4608TIP3    H213831   4.026   5.489   0.111
 4609TIP3   OH213832   5.759   3.150   1.464
 4609TIP3    H113833   5.710   3.071   1.443
 4609TIP3    H213834   5.722   3.218   1.408
 4610TIP3   OH213835   4.707   2.932   4.452
 4610TIP3    H113836   4.638   2.869   4.431
 4610TIP3    H213837   4.660   3.008   4.488
 4611TIP3   OH213838   2.661   0.904   0.719
 4611TIP3    H113839   2.707   0.857   0.789
 4611TIP3    H213840   2.718   0.978   0.699
 4612TIP3   OH213841   5.065   5.073   1.896
 4612TIP3    H113842   4.976   5.036   1.899
 4612TIP3    H213843   5.113   5.013   1.839
 4613TIP3   OH213844   5.709   5.143   1.590
 4613TIP3    H113845   5.762   5.221   1.610
 4613TIP3    H213846   5.765   5.069   1.613
 4614TIP3   OH213847   4.376   0.229   3.927
 4614TIP3    H113848   4.412   0.217   4.014
 4614TIP3    H213849   4.287   0.194   3.932
 4615TIP3   OH213850   3.494   4.294   4.876
 4615TIP3    H113851   3.538   4.278   4.959
 4615TIP3    H213852   3.502   4.389   4.862
 4616TIP3   OH213853   0.943   0.050   1.128
 4616TIP3    H113854   0.958   0.141   1.102
 4616TIP3    H213855   0.920   0.055   1.221
 4617TIP3   OH213856   4.999   3.371   3.379
 4617TIP3    H113857   5.083   3.412   3.400
 4617TIP3    H213858   4.962   3.426   3.311
 4618TIP3   OH213859   2.273   2.819   2.643
 4618TIP3    H113860   2.237   2.884   2.583
 4618TIP3    H213861   2.335   2.867   2.697
 4619TIP3   OH213862   3.253   4.414   4.734
 4619TIP3    H113863   3.324   4.438   4.793
 4619TIP3    H213864   3.290   4.344   4.680
 4620TIP3   OH213865   5.139   1.189   3.749
 4620TIP3    H113866   5.137   1.108   3.800
 4620TIP3    H213867   5.049   1.200   3.718
 4621TIP3   OH213868   2.160   2.957   4.138
 4621TIP3    H113869   2.235   3.016   4.133
 4621TIP3    H213870   2.089   3.006   4.097
 4622TIP3   OH213871   5.413   0.078   0.102
 4622TIP3    H113872   5.399  -0.014   0.125
 4622TIP3    H213873   5.490   0.104   0.153
 4623TIP3   OH213874   3.892   2.950   3.149
 4623TIP3    H113875   3.840   3.026   3.174
 4623TIP3    H213876   3.955   2.940   3.221
 4624TIP3   OH213877   3.601   4.505   0.758
 4624TIP3    H113878   3.666   4.568   0.728
 4624TIP3    H213879   3.599   4.438   0.689
 4625TIP3   OH213880   0.718   4.438   3.240
 4625TIP3    H113881   0.677   4.451   3.154
 4625TIP3    H213882   0.646   4.407   3.295
 4626TIP3   OH213883   4.016   3.039   3.410
 4626TIP3    H113884   4.110   3.049   3.393
 4626TIP3    H213885   3.986   3.128   3.433
 4627TIP3   OH213886   4.700   1.623   3.704
 4627TIP3    H113887   4.763   1.684   3.665
 4627TIP3    H213888   4.645   1.678   3.759
 4628TIP3   OH213889   3.715   0.569   4.037
 4628TIP3    H113890   3.655   0.509   3.994
 4628TIP3    H213891   3.680   0.578   4.126
 4629TIP3   OH213892   0.767   0.666   5.152
 4629TIP3    H113893   0.852   0.708   5.140
 4629TIP3    H213894   0.708   0.736   5.179
 4630TIP3   OH213895   4.490   4.701   0.576
 4630TIP3    H113896   4.571   4.664   0.541
 4630TIP3    H213897   4.513   4.789   0.603
 4631TIP3   OH213898   4.477   5.222   2.452
 4631TIP3    H113899   4.549   5.170   2.487
 4631TIP3    H213900   4.398   5.170   2.470
 4632TIP3   OH213901   3.583   4.597   1.350
 4632TIP3    H113902   3.520   4.556   1.291
 4632TIP3    H213903   3.569   4.554   1.434
 4633TIP3   OH213904   1.306   0.502   2.490
 4633TIP3    H113905   1.284   0.529   2.401
 4633TIP3    H213906   1.361   0.573   2.523
 4634TIP3   OH213907   6.279   0.413   5.125
 4634TIP3    H113908   6.334   0.359   5.182
 4634TIP3    H213909   6.339   0.451   5.061
 4635TIP3   OH213910   0.851   3.295   1.164
 4635TIP3    H113911   0.905   3.262   1.235
 4635TIP3    H213912   0.818   3.379   1.196
 4636TIP3   OH213913   6.130   5.400   4.733
 4636TIP3    H113914   6.184   5.473   4.705
 4636TIP3    H213915   6.107   5.355   4.651
 4637TIP3   OH213916   1.230   4.603   0.905
 4637TIP3    H113917   1.165   4.569   0.845
 4637TIP3    H213918   1.183   4.616   0.987
 4638TIP3   OH213919   0.869   5.694   4.206
 4638TIP3    H113920   0.901   5.779   4.174
 4638TIP3    H213921   0.923   5.677   4.284
 4639TIP3   OH213922   3.008   3.196   0.448
 4639TIP3    H113923   2.927   3.239   0.419
 4639TIP3    H213924   3.062   3.191   0.369
 4640TIP3   OH213925   3.266   0.167   4.627
 4640TIP3    H113926   3.204   0.168   4.700
 4640TIP3    H213927   3.292   0.258   4.615
 4641TIP3   OH213928   1.216   0.129   3.569
 4641TIP3    H113929   1.300   0.104   3.532
 4641TIP3    H213930   1.235   0.202   3.627
 4642TIP3   OH213931   5.950   4.124   3.956
 4642TIP3    H113932   5.997   4.153   3.878
 4642TIP3    H213933   5.952   4.199   4.016
 4643TIP3   OH213934   0.045   1.250   2.894
 4643TIP3    H113935  -0.029   1.234   2.836
 4643TIP3    H213936   0.005   1.274   2.978
 4644TIP3   OH213937   5.850   2.067   1.405
 4644TIP3    H113938   5.935   2.033   1.378
 4644TIP3    H213939   5.866   2.159   1.427
 4645TIP3   OH213940   2.211   5.467   4.961
 4645TIP3    H113941   2.151   5.393   4.958
 4645TIP3    H213942   2.285   5.440   4.907
 4646TIP3   OH213943   4.098   5.365   4.250
 4646TIP3    H113944   4.132   5.440   4.300
 4646TIP3    H213945   4.171   5.303   4.248
 4647TIP3   OH213946   4.727   5.005   1.291
 4647TIP3    H113947   4.783   5.082   1.286
 4647TIP3    H213948   4.743   4.958   1.209
 4648TIP3   OH213949   3.970   0.330   0.266
 4648TIP3    H113950   3.980   0.235   0.278
 4648TIP3    H213951   4.022   0.350   0.189
 4649TIP3   OH213952   0.453   0.453   1.613
 4649TIP3    H113953   0.546   0.427   1.611
 4649TIP3    H213954   0.411   0.394   1.551
 4650TIP3   OH213955   5.285   4.221   0.499
 4650TIP3    H113956   5.304   4.314   0.515
 4650TIP3    H213957   5.194   4.211   0.527
 4651TIP3   OH213958   3.597   0.152   2.030
 4651TIP3    H113959   3.676   0.153   1.976
 4651TIP3    H213960   3.576   0.244   2.044
 4652TIP3   OH213961   2.018   4.268   1.455
 4652TIP3    H113962   2.089   4.212   1.485
 4652TIP3    H213963   1.945   4.207   1.440
 4653TIP3   OH213964   5.328   4.085   4.038
 4653TIP3    H113965   5.395   4.016   4.042
 4653TIP3    H213966   5.371   4.157   3.993
 4654TIP3   OH213967   2.923   1.967   3.795
 4654TIP3    H113968   3.001   1.911   3.794
 4654TIP3    H213969   2.851   1.908   3.816
 4655TIP3   OH213970   6.132   2.604   4.744
 4655TIP3    H113971   6.224   2.613   4.720
 4655TIP3    H213972   6.133   2.550   4.823
 4656TIP3   OH213973   1.063   4.824   0.841
 4656TIP3    H113974   1.141   4.770   0.854
 4656TIP3    H213975   1.047   4.865   0.926
 4657TIP3   OH213976   5.962   4.635   3.501
 4657TIP3    H113977   5.977   4.726   3.476
 4657TIP3    H213978   6.011   4.624   3.583
 4658TIP3   OH213979   5.517   0.706   2.101
 4658TIP3    H113980   5.491   0.674   2.187
 4658TIP3    H213981   5.608   0.677   2.091
 4659TIP3   OH213982   2.470   4.224   0.833
 4659TIP3    H113983   2.376   4.221   0.849
 4659TIP3    H213984   2.492   4.134   0.806
 4660TIP3   OH213985   3.268   5.211   3.630
 4660TIP3    H113986   3.347   5.222   3.577
 4660TIP3    H213987   3.254   5.116   3.632
 4661TIP3   OH213988   3.879   3.315   3.134
 4661TIP3    H113989   3.963   3.269   3.139
 4661TIP3    H213990   3.815   3.250   3.161
 4662TIP3   OH213991   6.119   2.683   0.563
 4662TIP3    H113992   6.206   2.722   0.563
 4662TIP3    H213993   6.109   2.647   0.475
 4663TIP3   OH213994   4.238   4.285   4.496
 4663TIP3    H113995   4.329   4.263   4.477
 4663TIP3    H213996   4.216   4.231   4.572
 4664TIP3   OH213997   3.841   1.300   1.095
 4664TIP3    H113998   3.774   1.254   1.145
 4664TIP3    H213999   3.906   1.325   1.160
 4665TIP3   OH214000   3.849   1.440   4.829
 4665TIP3    H114001   3.763   1.475   4.850
 4665TIP3    H214002   3.835   1.346   4.819
 4666TIP3   OH214003   5.781   4.948   3.466
 4666TIP3    H114004   5.793   5.040   3.489
 4666TIP3    H214005   5.863   4.922   3.424
 4667TIP3   OH214006   3.193   5.678   4.800
 4667TIP3    H114007   3.102   5.690   4.827
 4667TIP3    H214008   3.209   5.749   4.738
 4668TIP3   OH214009   3.639   3.127   0.802
 4668TIP3    H114010   3.556   3.168   0.781
 4668TIP3    H214011   3.617   3.035   0.820
 4669TIP3   OH214012   5.722   2.801   3.284
 4669TIP3    H114013   5.649   2.823   3.342
 4669TIP3    H214014   5.764   2.727   3.327
 4670TIP3   OH214015   0.048   0.044   3.651
 4670TIP3    H114016   0.059   0.138   3.640
 4670TIP3    H214017   0.126   0.015   3.698
 4671TIP3   OH214018   4.674   1.970   2.221
 4671TIP3    H114019   4.750   1.921   2.189
 4671TIP3    H214020   4.606   1.904   2.233
 4672TIP3   OH214021   5.785   2.421   2.744
 4672TIP3    H114022   5.851   2.357   2.773
 4672TIP3    H214023   5.767   2.474   2.821
 4673TIP3   OH214024   1.962   4.159   2.364
 4673TIP3    H114025   1.894   4.216   2.400
 4673TIP3    H214026   1.917   4.076   2.346
 4674TIP3   OH214027   1.746   1.824   0.786
 4674TIP3    H114028   1.660   1.789   0.763
 4674TIP3    H214029   1.756   1.903   0.733
 4675TIP3   OH214030   2.478   4.462   3.399
 4675TIP3    H114031   2.387   4.440   3.380
 4675TIP3    H214032   2.520   4.378   3.416
 4676TIP3   OH214033   4.424   3.802   0.882
 4676TIP3    H114034   4.378   3.723   0.856
 4676TIP3    H214035   4.493   3.813   0.816
 4677TIP3   OH214036   1.369   3.765   0.236
 4677TIP3    H114037   1.440   3.793   0.294
 4677TIP3    H214038   1.312   3.842   0.230
 4678TIP3   OH214039   3.452   1.487   5.215
 4678TIP3    H114040   3.365   1.509   5.248
 4678TIP3    H214041   3.510   1.503   5.289
 4679TIP3   OH214042   5.859   2.863   1.593
 4679TIP3    H114043   5.955   2.857   1.591
 4679TIP3    H214044   5.841   2.936   1.652
 4680TIP3   OH214045   0.748   3.209   2.890
 4680TIP3    H114046   0.775   3.118   2.875
 4680TIP3    H214047   0.756   3.251   2.804
 4681TIP3   OH214048   2.090   4.354   4.662
 4681TIP3    H114049   2.083   4.347   4.757
 4681TIP3    H214050   2.030   4.425   4.639
 4682TIP3   OH214051   5.569   5.481   4.911
 4682TIP3    H114052   5.492   5.461   4.858
 4682TIP3    H214053   5.555   5.434   4.993
 4683TIP3   OH214054   2.107   1.391   0.972
 4683TIP3    H114055   2.139   1.341   1.048
 4683TIP3    H214056   2.014   1.367   0.966
 4684TIP3   OH214057   3.675   0.920   1.837
 4684TIP3    H114058   3.604   0.892   1.779
 4684TIP3    H214059   3.722   0.839   1.858
 4685TIP3   OH214060   6.209   0.340   0.019
 4685TIP3    H114061   6.153   0.325   0.095
 4685TIP3    H214062   6.159   0.303  -0.054
 4686TIP3   OH214063   2.266   5.772   4.004
 4686TIP3    H114064   2.187   5.725   3.978
 4686TIP3    H214065   2.271   5.846   3.943
 4687TIP3   OH214066   0.160   2.649   2.761
 4687TIP3    H114067   0.186   2.650   2.669
 4687TIP3    H214068   0.155   2.741   2.786
 4688TIP3   OH214069   5.706   1.176   2.444
 4688TIP3    H114070   5.666   1.245   2.496
 4688TIP3    H214071   5.662   1.096   2.473
 4689TIP3   OH214072   0.232   2.730   2.147
 4689TIP3    H114073   0.219   2.637   2.169
 4689TIP3    H214074   0.327   2.741   2.146
 4690TIP3   OH214075   0.995   2.123   2.062
 4690TIP3    H114076   1.072   2.071   2.086
 4690TIP3    H214077   0.969   2.165   2.144
 4691TIP3   OH214078   4.976   1.716   1.876
 4691TIP3    H114079   4.882   1.712   1.856
 4691TIP3    H214080   5.010   1.783   1.817
 4692TIP3   OH214081   1.847   4.918   3.222
 4692TIP3    H114082   1.789   4.905   3.297
 4692TIP3    H214083   1.830   4.842   3.166
 4693TIP3   OH214084   0.214   5.962   4.213
 4693TIP3    H114085   0.252   5.877   4.235
 4693TIP3    H214086   0.173   5.949   4.127
 4694TIP3   OH214087   3.246   0.920   4.402
 4694TIP3    H114088   3.165   0.909   4.354
 4694TIP3    H214089   3.254   1.015   4.415
 4695TIP3   OH214090   5.511   1.355   2.584
 4695TIP3    H114091   5.529   1.443   2.552
 4695TIP3    H214092   5.420   1.359   2.614
 4696TIP3   OH214093   4.959   3.869   0.606
 4696TIP3    H114094   4.948   3.897   0.697
 4696TIP3    H214095   4.992   3.779   0.613
 4697TIP3   OH214096   1.214   1.175   3.831
 4697TIP3    H114097   1.249   1.246   3.776
 4697TIP3    H214098   1.288   1.150   3.886
 4698TIP3   OH214099   1.551   3.762   0.467
 4698TIP3    H114100   1.613   3.725   0.530
 4698TIP3    H214101   1.603   3.822   0.414
 4699TIP3   OH214102   2.196   0.097   1.349
 4699TIP3    H114103   2.234   0.185   1.353
 4699TIP3    H214104   2.270   0.040   1.330
 4700TIP3   OH214105   5.187   3.514   3.079
 4700TIP3    H114106   5.173   3.425   3.047
 4700TIP3    H214107   5.275   3.514   3.115
 4701TIP3   OH214108   5.801   6.009   1.826
 4701TIP3    H114109   5.854   6.074   1.778
 4701TIP3    H214110   5.730   6.060   1.865
 4702TIP3   OH214111   1.356   1.737   2.459
 4702TIP3    H114112   1.337   1.693   2.542
 4702TIP3    H214113   1.452   1.745   2.458
 4703TIP3   OH214114   6.269   0.705   3.123
 4703TIP3    H114115   6.281   0.640   3.054
 4703TIP3    H214116   6.188   0.750   3.100
 4704TIP3   OH214117   2.579   0.287   0.578
 4704TIP3    H114118   2.615   0.375   0.572
 4704TIP3    H214119   2.599   0.259   0.668
 4705TIP3   OH214120   3.520   2.419   3.432
 4705TIP3    H114121   3.509   2.413   3.337
 4705TIP3    H214122   3.435   2.391   3.467
 4706TIP3   OH214123   2.977   2.955   3.647
 4706TIP3    H114124   2.913   2.944   3.717
 4706TIP3    H214125   2.927   2.993   3.575
 4707TIP3   OH214126   0.010   5.409   3.024
 4707TIP3    H114127   0.105   5.399   3.016
 4707TIP3    H214128  -0.016   5.458   2.946
 4708TIP3   OH214129   3.641   5.718   0.492
 4708TIP3    H114130   3.570   5.706   0.428
 4708TIP3    H214131   3.631   5.644   0.552
 4709TIP3   OH214132   0.793   0.092   1.421
 4709TIP3    H114133   0.711   0.089   1.470
 4709TIP3    H214134   0.804   0.184   1.399
 4710TIP3   OH214135   5.574   0.185   4.095
 4710TIP3    H114136   5.597   0.095   4.116
 4710TIP3    H214137   5.491   0.179   4.049
 4711TIP3   OH214138   1.497   3.938   3.994
 4711TIP3    H114139   1.422   3.894   3.954
 4711TIP3    H214140   1.463   4.020   4.027
 4712TIP3   OH214141   3.612   4.455   3.711
 4712TIP3    H114142   3.636   4.542   3.742
 4712TIP3    H214143   3.535   4.431   3.763
 4713TIP3   OH214144   3.703   1.716   4.637
 4713TIP3    H114145   3.771   1.667   4.592
 4713TIP3    H214146   3.704   1.682   4.726
 4714TIP3   OH214147   0.243   2.199   4.685
 4714TIP3    H114148   0.169   2.259   4.695
 4714TIP3    H214149   0.216   2.120   4.733
 4715TIP3   OH214150   4.954   4.430   4.098
 4715TIP3    H114151   4.996   4.351   4.063
 4715TIP3    H214152   4.926   4.405   4.186
 4716TIP3   OH214153   1.711   5.058   0.941
 4716TIP3    H114154   1.681   5.036   0.853
 4716TIP3    H214155   1.803   5.032   0.942
 4717TIP3   OH214156   0.549   2.402   2.144
 4717TIP3    H114157   0.575   2.484   2.186
 4717TIP3    H214158   0.549   2.423   2.051
 4718TIP3   OH214159   1.021   1.993   2.832
 4718TIP3    H114160   0.989   2.053   2.765
 4718TIP3    H214161   0.988   2.029   2.915
 4719TIP3   OH214162   1.013   3.720   5.019
 4719TIP3    H114163   0.935   3.690   4.973
 4719TIP3    H214164   1.062   3.640   5.037
 4720TIP3   OH214165   3.224   1.294   4.398
 4720TIP3    H114166   3.179   1.229   4.452
 4720TIP3    H214167   3.260   1.357   4.460
 4721TIP3   OH214168   4.158   1.712   1.216
 4721TIP3    H114169   4.240   1.664   1.208
 4721TIP3    H214170   4.160   1.776   1.145
 4722TIP3   OH214171   5.514   2.885   1.951
 4722TIP3    H114172   5.547   2.811   1.899
 4722TIP3    H214173   5.431   2.908   1.909
 4723TIP3   OH214174   2.940   0.487   1.585
 4723TIP3    H114175   3.030   0.463   1.565
 4723TIP3    H214176   2.943   0.580   1.607
 4724TIP3   OH214177   3.224   5.885   4.632
 4724TIP3    H114178   3.255   5.963   4.679
 4724TIP3    H214179   3.153   5.918   4.576
 4725TIP3   OH214180   0.228   2.837   1.259
 4725TIP3    H114181   0.313   2.851   1.218
 4725TIP3    H214182   0.212   2.743   1.250
 4726TIP3   OH214183   0.655   2.074   3.495
 4726TIP3    H114184   0.657   1.987   3.534
 4726TIP3    H214185   0.669   2.059   3.401
 4727TIP3   OH214186   1.342   4.764   2.709
 4727TIP3    H114187   1.308   4.821   2.640
 4727TIP3    H214188   1.283   4.778   2.783
 4728TIP3   OH214189   5.179   0.373   4.321
 4728TIP3    H114190   5.275   0.378   4.322
 4728TIP3    H214191   5.151   0.458   4.288
 4729TIP3   OH214192   0.879   3.718   0.963
 4729TIP3    H114193   0.902   3.693   0.874
 4729TIP3    H214194   0.789   3.752   0.956
 4730TIP3   OH214195   4.969   2.037   3.743
 4730TIP3    H114196   4.889   2.088   3.756
 4730TIP3    H214197   4.974   1.980   3.820
 4731TIP3   OH214198   4.538   1.856   0.516
 4731TIP3    H114199   4.624   1.869   0.477
 4731TIP3    H214200   4.542   1.903   0.599
 4732TIP3   OH214201   5.286   1.966   1.328
 4732TIP3    H114202   5.256   1.878   1.349
 4732TIP3    H214203   5.349   1.987   1.397
 4733TIP3   OH214204   0.489   3.812   0.787
 4733TIP3    H114205   0.521   3.894   0.749
 4733TIP3    H214206   0.395   3.812   0.767
 4734TIP3   OH214207   6.025   1.143   3.802
 4734TIP3    H114208   6.095   1.172   3.860
 4734TIP3    H214209   5.962   1.100   3.859
 4735TIP3   OH214210   1.683   4.016   5.022
 4735TIP3    H114211   1.653   3.957   5.090
 4735TIP3    H214212   1.718   3.958   4.954
 4736TIP3   OH214213   5.004   4.009   3.712
 4736TIP3    H114214   5.012   3.975   3.623
 4736TIP3    H214215   5.039   3.940   3.768
 4737TIP3   OH214216   3.652   2.186   3.254
 4737TIP3    H114217   3.654   2.281   3.240
 4737TIP3    H214218   3.621   2.150   3.171
 4738TIP3   OH214219   0.404   3.814   5.149
 4738TIP3    H114220   0.492   3.849   5.161
 4738TIP3    H214221   0.373   3.854   5.068
 4739TIP3   OH214222   2.652   2.586   3.259
 4739TIP3    H114223   2.624   2.675   3.277
 4739TIP3    H214224   2.573   2.533   3.269
 4740TIP3   OH214225   5.628   2.656   1.834
 4740TIP3    H114226   5.677   2.639   1.914
 4740TIP3    H214227   5.682   2.618   1.765
 4741TIP3   OH214228   2.538   1.190   2.488
 4741TIP3    H114229   2.476   1.117   2.488
 4741TIP3    H214230   2.617   1.155   2.529
 4742TIP3   OH214231   4.664   3.374   0.018
 4742TIP3    H114232   4.626   3.424  -0.055
 4742TIP3    H214233   4.601   3.384   0.089
 4743TIP3   OH214234   1.564   5.663   0.482
 4743TIP3    H114235   1.547   5.751   0.447
 4743TIP3    H214236   1.588   5.611   0.405
 4744TIP3   OH214237   2.268   5.715   2.384
 4744TIP3    H114238   2.294   5.760   2.304
 4744TIP3    H214239   2.173   5.706   2.377
 4745TIP3   OH214240   0.992   5.245   0.522
 4745TIP3    H114241   0.985   5.150   0.534
 4745TIP3    H214242   0.961   5.281   0.606
 4746TIP3   OH214243   6.028   2.498   2.264
 4746TIP3    H114244   6.012   2.525   2.355
 4746TIP3    H214245   6.037   2.402   2.269
 4747TIP3   OH214246   6.160   4.454   1.388
 4747TIP3    H114247   6.226   4.487   1.450
 4747TIP3    H214248   6.111   4.532   1.362
 4748TIP3   OH214249   2.485   4.587   1.361
 4748TIP3    H114250   2.505   4.530   1.286
 4748TIP3    H214251   2.391   4.604   1.353
 4749TIP3   OH214252   6.141   0.296   4.453
 4749TIP3    H114253   6.135   0.374   4.508
 4749TIP3    H214254   6.219   0.311   4.399
 4750TIP3   OH214255   4.906   0.914   3.283
 4750TIP3    H114256   4.938   1.004   3.280
 4750TIP3    H214257   4.935   0.876   3.200
 4751TIP3   OH214258   4.926   2.436   4.640
 4751TIP3    H114259   4.884   2.506   4.590
 4751TIP3    H214260   5.020   2.451   4.627
 4752TIP3   OH214261   5.634   3.278   2.947
 4752TIP3    H114262   5.681   3.296   2.866
 4752TIP3    H214263   5.693   3.223   2.998
 4753TIP3   OH214264   0.364   4.204   1.828
 4753TIP3    H114265   0.441   4.244   1.868
 4753TIP3    H214266   0.390   4.114   1.810
 4754TIP3   OH214267   1.300   1.246   3.412
 4754TIP3    H114268   1.269   1.156   3.423
 4754TIP3    H214269   1.358   1.243   3.336
 4755TIP3   OH214270   1.399   4.795   0.828
 4755TIP3    H114271   1.348   4.723   0.867
 4755TIP3    H214272   1.482   4.755   0.803
 4756TIP3   OH214273   1.872   4.659   4.055
 4756TIP3    H114274   1.845   4.700   3.974
 4756TIP3    H214275   1.936   4.593   4.029
 4757TIP3   OH214276   2.787   1.216   0.756
 4757TIP3    H114277   2.726   1.289   0.767
 4757TIP3    H214278   2.811   1.191   0.845
 4758TIP3   OH214279   1.715   5.528   2.277
 4758TIP3    H114280   1.715   5.457   2.213
 4758TIP3    H214281   1.647   5.503   2.340
 4759TIP3   OH214282   0.283   5.411   4.103
 4759TIP3    H114283   0.191   5.389   4.093
 4759TIP3    H214284   0.310   5.369   4.184
 4760TIP3   OH214285   5.903   0.813   2.750
 4760TIP3    H114286   5.942   0.762   2.679
 4760TIP3    H214287   5.978   0.858   2.791
 4761TIP3   OH214288   4.378   2.497   0.162
 4761TIP3    H114289   4.423   2.433   0.107
 4761TIP3    H214290   4.310   2.446   0.207
 4762TIP3   OH214291   4.297   0.430   2.986
 4762TIP3    H114292   4.366   0.366   2.970
 4762TIP3    H214293   4.338   0.514   2.969
 4763TIP3   OH214294   5.093   3.769   0.363
 4763TIP3    H114295   5.127   3.833   0.425
 4763TIP3    H214296   5.023   3.815   0.317
 4764TIP3   OH214297   1.844   5.377   2.031
 4764TIP3    H114298   1.924   5.340   2.069
 4764TIP3    H214299   1.861   5.379   1.937
 4765TIP3   OH214300   2.877   4.404   1.141
 4765TIP3    H114301   2.888   4.360   1.225
 4765TIP3    H214302   2.882   4.335   1.076
 4766TIP3   OH214303   3.237   2.560   3.368
 4766TIP3    H114304   3.145   2.578   3.389
 4766TIP3    H214305   3.237   2.469   3.337
 4767TIP3   OH214306   2.505   4.159   2.507
 4767TIP3    H114307   2.505   4.067   2.532
 4767TIP3    H214308   2.512   4.206   2.591
 4768TIP3   OH214309   0.706   1.848   0.195
 4768TIP3    H114310   0.658   1.908   0.139
 4768TIP3    H214311   0.798   1.865   0.175
 4769TIP3   OH214312   0.439   4.158   5.104
 4769TIP3    H114313   0.495   4.235   5.114
 4769TIP3    H214314   0.402   4.167   5.016
 4770TIP3   OH214315   3.453   4.961   1.539
 4770TIP3    H114316   3.411   4.953   1.453
 4770TIP3    H214317   3.541   4.993   1.519
 4771TIP3   OH214318   3.812   2.941   0.242
 4771TIP3    H114319   3.739   2.901   0.194
 4771TIP3    H214320   3.826   2.882   0.317
 4772TIP3   OH214321   0.191   4.954   3.870
 4772TIP3    H114322   0.203   4.880   3.810
 4772TIP3    H214323   0.100   4.981   3.858
 4773TIP3   OH214324   5.060   0.322   2.331
 4773TIP3    H114325   5.130   0.375   2.292
 4773TIP3    H214326   4.985   0.381   2.335
 4774TIP3   OH214327   2.371   4.249   3.957
 4774TIP3    H114328   2.323   4.276   3.878
 4774TIP3    H214329   2.303   4.229   4.021
 4775TIP3   OH214330   2.075   4.083   3.181
 4775TIP3    H114331   2.017   4.142   3.133
 4775TIP3    H214332   2.036   3.997   3.170
 4776TIP3   OH214333   3.268   1.315   0.573
 4776TIP3    H114334   3.212   1.308   0.650
 4776TIP3    H214335   3.355   1.334   0.608
 4777TIP3   OH214336   6.342   5.299   3.600
 4777TIP3    H114337   6.414   5.245   3.566
 4777TIP3    H214338   6.380   5.386   3.608
 4778TIP3   OH214339   1.759   3.961   4.013
 4778TIP3    H114340   1.799   3.958   4.100
 4778TIP3    H214341   1.673   3.920   4.025
 4779TIP3   OH214342   2.461   4.949   0.559
 4779TIP3    H114343   2.443   4.981   0.648
 4779TIP3    H214344   2.468   5.028   0.506
 4780TIP3   OH214345   1.729   3.238   4.270
 4780TIP3    H114346   1.778   3.293   4.331
 4780TIP3    H214347   1.657   3.202   4.322
 4781TIP3   OH214348   0.586   3.994   3.850
 4781TIP3    H114349   0.658   3.951   3.804
 4781TIP3    H214350   0.588   4.085   3.820
 4782TIP3   OH214351   1.326   1.329   0.145
 4782TIP3    H114352   1.340   1.250   0.196
 4782TIP3    H214353   1.253   1.373   0.189
 4783TIP3   OH214354   1.771   4.395   0.696
 4783TIP3    H114355   1.820   4.472   0.669
 4783TIP3    H214356   1.760   4.344   0.616
 4784TIP3   OH214357   6.344   4.743   3.869
 4784TIP3    H114358   6.394   4.730   3.788
 4784TIP3    H214359   6.258   4.705   3.851
 4785TIP3   OH214360   2.104   2.737   0.429
 4785TIP3    H114361   2.023   2.783   0.406
 4785TIP3    H214362   2.112   2.668   0.363
 4786TIP3   OH214363   0.672   2.872   4.627
 4786TIP3    H114364   0.584   2.837   4.613
 4786TIP3    H214365   0.670   2.959   4.586
 4787TIP3   OH214366   3.251   1.146   2.043
 4787TIP3    H114367   3.333   1.113   2.007
 4787TIP3    H214368   3.225   1.215   1.983
 4788TIP3   OH214369   6.104   1.134   1.434
 4788TIP3    H114370   6.133   1.212   1.481
 4788TIP3    H214371   6.158   1.063   1.470
 4789TIP3   OH214372   0.828   5.686   3.042
 4789TIP3    H114373   0.754   5.707   3.098
 4789TIP3    H214374   0.789   5.652   2.962
 4790TIP3   OH214375   4.285   0.363   2.049
 4790TIP3    H114376   4.293   0.311   1.969
 4790TIP3    H214377   4.209   0.325   2.094
 4791TIP3   OH214378   4.913   0.120   0.646
 4791TIP3    H114379   4.838   0.173   0.676
 4791TIP3    H214380   4.989   0.174   0.666
 4792TIP3   OH214381   2.134   5.913   1.621
 4792TIP3    H114382   2.182   5.874   1.694
 4792TIP3    H214383   2.057   5.952   1.662
 4793TIP3   OH214384   1.025   5.389   3.022
 4793TIP3    H114385   1.021   5.484   3.016
 4793TIP3    H214386   1.093   5.363   2.960
 4794TIP3   OH214387   6.355   5.504   2.554
 4794TIP3    H114388   6.343   5.419   2.596
 4794TIP3    H214389   6.324   5.568   2.619
 4795TIP3   OH214390   4.079   2.933   0.945
 4795TIP3    H114391   4.162   2.915   0.901
 4795TIP3    H214392   4.102   2.942   1.038
 4796TIP3   OH214393   5.458   3.180   4.462
 4796TIP3    H114394   5.524   3.229   4.414
 4796TIP3    H214395   5.487   3.090   4.459
 4797TIP3   OH214396   2.283   3.929   4.778
 4797TIP3    H114397   2.240   3.920   4.863
 4797TIP3    H214398   2.358   3.985   4.794
 4798TIP3   OH214399   0.962   3.276   0.914
 4798TIP3    H114400   0.927   3.299   1.000
 4798TIP3    H214401   1.057   3.271   0.927
 4799TIP3   OH214402   2.410   1.625   1.248
 4799TIP3    H114403   2.340   1.571   1.213
 4799TIP3    H214404   2.388   1.635   1.341
 4800TIP3   OH214405   1.933   5.819   3.451
 4800TIP3    H114406   1.912   5.896   3.505
 4800TIP3    H214407   1.866   5.755   3.474
 4801TIP3   OH214408   5.370   4.145   0.248
 4801TIP3    H114409   5.305   4.120   0.183
 4801TIP3    H214410   5.318   4.169   0.326
 4802TIP3   OH214411   0.463   2.155   1.297
 4802TIP3    H114412   0.476   2.109   1.380
 4802TIP3    H214413   0.483   2.089   1.230
 4803TIP3   OH214414   5.239   5.263   2.068
 4803TIP3    H114415   5.288   5.181   2.065
 4803TIP3    H214416   5.302   5.329   2.039
 4804TIP3   OH214417   2.790   3.665   2.092
 4804TIP3    H114418   2.754   3.588   2.136
 4804TIP3    H214419   2.843   3.708   2.159
 4805TIP3   OH214420   2.682   1.598   2.225
 4805TIP3    H114421   2.693   1.524   2.285
 4805TIP3    H214422   2.646   1.559   2.145
 4806TIP3   OH214423   1.798   1.949   3.577
 4806TIP3    H114424   1.764   1.861   3.564
 4806TIP3    H214425   1.847   1.944   3.659
 4807TIP3   OH214426   3.230   4.941   3.675
 4807TIP3    H114427   3.155   4.939   3.733
 4807TIP3    H214428   3.258   4.849   3.669
 4808TIP3   OH214429   1.543   3.452   1.280
 4808TIP3    H114430   1.518   3.459   1.188
 4808TIP3    H214431   1.488   3.517   1.325
 4809TIP3   OH214432   4.508   1.139   3.591
 4809TIP3    H114433   4.426   1.097   3.567
 4809TIP3    H214434   4.530   1.102   3.677
 4810TIP3   OH214435   5.825   4.686   0.462
 4810TIP3    H114436   5.793   4.660   0.376
 4810TIP3    H214437   5.882   4.761   0.445
 4811TIP3   OH214438   6.213   2.660   1.361
 4811TIP3    H114439   6.282   2.658   1.295
 4811TIP3    H214440   6.196   2.568   1.381
 4812TIP3   OH214441   0.279   4.288   4.904
 4812TIP3    H114442   0.188   4.258   4.907
 4812TIP3    H214443   0.287   4.348   4.978
 4813TIP3   OH214444   4.827   4.086   2.416
 4813TIP3    H114445   4.864   4.088   2.328
 4813TIP3    H214446   4.782   4.170   2.424
 4814TIP3   OH214447   4.760   3.712   2.851
 4814TIP3    H114448   4.844   3.681   2.884
 4814TIP3    H214449   4.782   3.789   2.799
 4815TIP3   OH214450   0.637   3.004   0.199
 4815TIP3    H114451   0.577   3.047   0.260
 4815TIP3    H214452   0.703   2.963   0.255
 4816TIP3   OH214453   5.663   1.728   0.127
 4816TIP3    H114454   5.568   1.743   0.126
 4816TIP3    H214455   5.700   1.811   0.098
 4817TIP3   OH214456   3.354   1.102   3.337
 4817TIP3    H114457   3.276   1.069   3.292
 4817TIP3    H214458   3.325   1.116   3.427
 4818TIP3   OH214459   0.644   1.577   2.081
 4818TIP3    H114460   0.582   1.516   2.043
 4818TIP3    H214461   0.608   1.598   2.167
 4819TIP3   OH214462   3.075   1.325   1.643
 4819TIP3    H114463   3.090   1.307   1.551
 4819TIP3    H214464   2.998   1.273   1.665
 4820TIP3   OH214465   0.262   0.120   3.364
 4820TIP3    H114466   0.295   0.194   3.415
 4820TIP3    H214467   0.169   0.116   3.385
 4821TIP3   OH214468   2.073   5.149   3.874
 4821TIP3    H114469   2.076   5.054   3.891
 4821TIP3    H214470   2.153   5.183   3.915
 4822TIP3   OH214471   2.819   5.069   0.707
 4822TIP3    H114472   2.808   5.145   0.650
 4822TIP3    H214473   2.902   5.029   0.678
 4823TIP3   OH214474   5.155   3.830   3.890
 4823TIP3    H114475   5.231   3.785   3.929
 4823TIP3    H214476   5.105   3.860   3.966
 4824TIP3   OH214477   3.044   2.016   5.098
 4824TIP3    H114478   2.967   2.019   5.042
 4824TIP3    H214479   3.116   2.046   5.042
 4825TIP3   OH214480   2.348   0.782   4.850
 4825TIP3    H114481   2.406   0.854   4.827
 4825TIP3    H214482   2.306   0.757   4.768
 4826TIP3   OH214483   4.236   3.787   1.881
 4826TIP3    H114484   4.265   3.852   1.817
 4826TIP3    H214485   4.313   3.773   1.937
 4827TIP3   OH214486   1.613   1.397   2.326
 4827TIP3    H114487   1.649   1.453   2.258
 4827TIP3    H214488   1.581   1.320   2.278
 4828TIP3   OH214489   1.514   0.288   3.913
 4828TIP3    H114490   1.430   0.266   3.872
 4828TIP3    H214491   1.512   0.384   3.921
 4829TIP3   OH214492   0.850   5.696   5.118
 4829TIP3    H114493   0.837   5.644   5.198
 4829TIP3    H214494   0.803   5.778   5.135
 4830TIP3   OH214495   0.253   5.190   4.601
 4830TIP3    H114496   0.328   5.175   4.659
 4830TIP3    H214497   0.180   5.145   4.644
 4831TIP3   OH214498   6.197   2.013   0.214
 4831TIP3    H114499   6.104   1.996   0.230
 4831TIP3    H214500   6.235   1.926   0.202
 4832TIP3   OH214501   2.360   3.043   5.013
 4832TIP3    H114502   2.325   3.083   4.933
 4832TIP3    H214503   2.292   3.057   5.079
 4833TIP3   OH214504   3.689   0.855   0.281
 4833TIP3    H114505   3.659   0.765   0.269
 4833TIP3    H214506   3.682   0.895   0.194
 4834TIP3   OH214507   1.064   1.276   0.651
 4834TIP3    H114508   0.999   1.221   0.608
 4834TIP3    H214509   1.012   1.338   0.703
 4835TIP3   OH214510   3.959   1.282   1.575
 4835TIP3    H114511   3.866   1.289   1.555
 4835TIP3    H214512   3.965   1.208   1.635
 4836TIP3   OH214513   4.578   1.711   4.969
 4836TIP3    H114514   4.573   1.676   5.057
 4836TIP3    H214515   4.545   1.801   4.977
 4837TIP3   OH214516   3.626   1.981   3.429
 4837TIP3    H114517   3.633   2.063   3.380
 4837TIP3    H214518   3.700   1.929   3.399
 4838TIP3   OH214519   1.046   1.712   4.527
 4838TIP3    H114520   1.140   1.711   4.541
 4838TIP3    H214521   1.010   1.755   4.604
 4839TIP3   OH214522   2.521   1.097  -0.002
 4839TIP3    H114523   2.481   1.181  -0.025
 4839TIP3    H214524   2.491   1.080   0.088
 4840TIP3   OH214525   4.091   2.414   0.757
 4840TIP3    H114526   4.075   2.483   0.822
 4840TIP3    H214527   4.045   2.443   0.679
 4841TIP3   OH214528   1.311   3.774   2.760
 4841TIP3    H114529   1.217   3.758   2.772
 4841TIP3    H214530   1.335   3.831   2.833
 4842TIP3   OH214531   2.986   0.441   0.715
 4842TIP3    H114532   3.017   0.501   0.647
 4842TIP3    H214533   2.892   0.434   0.700
 4843TIP3   OH214534   4.160   3.350   2.287
 4843TIP3    H114535   4.175   3.263   2.322
 4843TIP3    H214536   4.129   3.401   2.362
 4844TIP3   OH214537   3.814   5.887   1.762
 4844TIP3    H114538   3.803   5.965   1.817
 4844TIP3    H214539   3.818   5.814   1.825
 4845TIP3   OH214540   1.137   4.215   4.316
 4845TIP3    H114541   1.116   4.133   4.359
 4845TIP3    H214542   1.174   4.270   4.385
 4846TIP3   OH214543   5.589   4.307   4.102
 4846TIP3    H114544   5.543   4.349   4.030
 4846TIP3    H214545   5.594   4.215   4.077
 4847TIP3   OH214546   1.214   1.270   4.481
 4847TIP3    H114547   1.155   1.246   4.409
 4847TIP3    H214548   1.192   1.209   4.551
 4848TIP3   OH214549   1.561   5.478   0.752
 4848TIP3    H114550   1.576   5.410   0.687
 4848TIP3    H214551   1.592   5.441   0.834
 4849TIP3   OH214552   4.947   0.364   2.749
 4849TIP3    H114553   4.980   0.288   2.701
 4849TIP3    H214554   4.998   0.438   2.715
 4850TIP3   OH214555   1.612   5.005   3.837
 4850TIP3    H114556   1.587   5.053   3.916
 4850TIP3    H214557   1.695   4.962   3.860
 4851TIP3   OH214558   2.616   2.387   2.743
 4851TIP3    H114559   2.567   2.313   2.710
 4851TIP3    H214560   2.557   2.462   2.734
 4852TIP3   OH214561   3.185   4.123   4.384
 4852TIP3    H114562   3.120   4.140   4.316
 4852TIP3    H214563   3.193   4.028   4.387
 4853TIP3   OH214564   1.992   5.094   1.004
 4853TIP3    H114565   2.057   5.163   0.993
 4853TIP3    H214566   2.037   5.029   1.059
 4854TIP3   OH214567   3.910   5.160   1.839
 4854TIP3    H114568   3.920   5.243   1.792
 4854TIP3    H214569   3.888   5.185   1.928
 4855TIP3   OH214570   3.141   2.218   2.140
 4855TIP3    H114571   3.143   2.289   2.204
 4855TIP3    H214572   3.181   2.144   2.186
 4856TIP3   OH214573   4.048   3.451   4.001
 4856TIP3    H114574   4.064   3.517   4.069
 4856TIP3    H214575   4.049   3.367   4.048
 4857TIP3   OH214576   4.406   0.678   2.938
 4857TIP3    H114577   4.351   0.735   2.991
 4857TIP3    H214578   4.448   0.737   2.875
 4858TIP3   OH214579   4.493   3.561   3.664
 4858TIP3    H114580   4.479   3.644   3.619
 4858TIP3    H214581   4.494   3.584   3.757
 4859TIP3   OH214582   2.223   0.614   2.907
 4859TIP3    H114583   2.238   0.629   3.001
 4859TIP3    H214584   2.211   0.702   2.871
 4860TIP3   OH214585   5.807   5.705   3.260
 4860TIP3    H114586   5.848   5.698   3.174
 4860TIP3    H214587   5.718   5.736   3.241
 4861TIP3   OH214588   2.175   1.910   0.140
 4861TIP3    H114589   2.215   1.915   0.053
 4861TIP3    H214590   2.170   2.001   0.170
 4862TIP3   OH214591   0.353   1.692   1.550
 4862TIP3    H114592   0.289   1.657   1.612
 4862TIP3    H214593   0.438   1.666   1.585
 4863TIP3   OH214594   0.060   4.185   2.666
 4863TIP3    H114595  -0.016   4.163   2.719
 4863TIP3    H214596   0.054   4.127   2.590
 4864TIP3   OH214597   0.882   0.662   1.589
 4864TIP3    H114598   0.829   0.652   1.510
 4864TIP3    H214599   0.898   0.572   1.618
 4865TIP3   OH214600   0.656   4.678   0.359
 4865TIP3    H114601   0.582   4.735   0.379
 4865TIP3    H214602   0.729   4.713   0.409
 4866TIP3   OH214603   0.540   2.294   2.411
 4866TIP3    H114604   0.538   2.381   2.450
 4866TIP3    H214605   0.530   2.310   2.317
 4867TIP3   OH214606   1.334   0.045   1.223
 4867TIP3    H114607   1.301   0.070   1.137
 4867TIP3    H214608   1.266  -0.012   1.259
 4868TIP3   OH214609   3.835   1.327   3.375
 4868TIP3    H114610   3.844   1.293   3.464
 4868TIP3    H214611   3.751   1.373   3.375
 4869TIP3   OH214612   1.029   2.127   1.030
 4869TIP3    H114613   0.957   2.081   1.072
 4869TIP3    H214614   1.105   2.110   1.086
 4870TIP3   OH214615   3.998   0.600   2.328
 4870TIP3    H114616   3.938   0.556   2.387
 4870TIP3    H214617   3.998   0.691   2.357
 4871TIP3   OH214618   3.266  -0.016   4.386
 4871TIP3    H114619   3.354  -0.022   4.350
 4871TIP3    H214620   3.275   0.037   4.465
 4872TIP3   OH214621   1.704   4.204   1.911
 4872TIP3    H114622   1.687   4.127   1.965
 4872TIP3    H214623   1.686   4.176   1.822
 4873TIP3   OH214624   3.249   5.133   2.776
 4873TIP3    H114625   3.228   5.197   2.843
 4873TIP3    H214626   3.250   5.049   2.822
 4874TIP3   OH214627   4.905   4.391   0.575
 4874TIP3    H114628   4.820   4.378   0.616
 4874TIP3    H214629   4.912   4.322   0.510
 4875TIP3   OH214630   1.386   0.107   0.966
 4875TIP3    H114631   1.464   0.145   1.008
 4875TIP3    H214632   1.420   0.056   0.893
 4876TIP3   OH214633   1.601   0.357   2.905
 4876TIP3    H114634   1.561   0.270   2.895
 4876TIP3    H214635   1.642   0.354   2.991
 4877TIP3   OH214636   2.345   0.626   3.556
 4877TIP3    H114637   2.428   0.613   3.510
 4877TIP3    H214638   2.359   0.705   3.608
 4878TIP3   OH214639   0.375   3.646   4.181
 4878TIP3    H114640   0.331   3.607   4.256
 4878TIP3    H214641   0.370   3.579   4.113
 4879TIP3   OH214642   1.392   0.883   4.743
 4879TIP3    H114643   1.486   0.869   4.752
 4879TIP3    H214644   1.385   0.966   4.696
 4880TIP3   OH214645   5.087   2.110   3.416
 4880TIP3    H114646   5.175   2.098   3.453
 4880TIP3    H214647   5.070   2.030   3.368
 4881TIP3   OH214648   3.398   5.424   3.434
 4881TIP3    H114649   3.361   5.477   3.505
 4881TIP3    H214650   3.328   5.363   3.410
 4882TIP3   OH214651   3.443   1.876   0.464
 4882TIP3    H114652   3.430   1.912   0.552
 4882TIP3    H214653   3.493   1.943   0.418
 4883TIP3   OH214654   1.111   4.956   3.679
 4883TIP3    H114655   1.107   4.954   3.775
 4883TIP3    H214656   1.057   5.031   3.655
 4884TIP3   OH214657   2.983   0.106   2.060
 4884TIP3    H114658   2.998   0.201   2.052
 4884TIP3    H214659   3.070   0.068   2.049
 4885TIP3   OH214660   3.687   3.937   2.515
 4885TIP3    H114661   3.758   3.872   2.523
 4885TIP3    H214662   3.688   3.962   2.423
 4886TIP3   OH214663   3.642   2.865   3.094
 4886TIP3    H114664   3.734   2.887   3.109
 4886TIP3    H214665   3.620   2.907   3.011
 4887TIP3   OH214666   1.878   2.681   1.934
 4887TIP3    H114667   1.963   2.680   1.979
 4887TIP3    H214668   1.893   2.632   1.853
 4888TIP3   OH214669   5.266   4.091   2.434
 4888TIP3    H114670   5.197   4.025   2.431
 4888TIP3    H214671   5.260   4.128   2.522
 4889TIP3   OH214672   5.409   0.648   3.711
 4889TIP3    H114673   5.332   0.698   3.685
 4889TIP3    H214674   5.452   0.625   3.629
 4890TIP3   OH214675   2.218   4.873   0.442
 4890TIP3    H114676   2.300   4.839   0.479
 4890TIP3    H214677   2.228   4.968   0.447
 4891TIP3   OH214678   0.006   2.788   0.839
 4891TIP3    H114679   0.083   2.731   0.835
 4891TIP3    H214680   0.039   2.872   0.870
 4892TIP3   OH214681   0.470   1.421   2.659
 4892TIP3    H114682   0.457   1.341   2.709
 4892TIP3    H214683   0.553   1.456   2.691
 4893TIP3   OH214684   4.616   4.243   1.585
 4893TIP3    H114685   4.530   4.284   1.589
 4893TIP3    H214686   4.623   4.193   1.666
 4894TIP3   OH214687   4.242   2.163   4.882
 4894TIP3    H114688   4.248   2.241   4.936
 4894TIP3    H214689   4.230   2.195   4.793
 4895TIP3   OH214690   2.188   3.045   1.660
 4895TIP3    H114691   2.250   3.102   1.614
 4895TIP3    H214692   2.146   2.995   1.590
 4896TIP3   OH214693   1.915   1.741   2.412
 4896TIP3    H114694   1.932   1.734   2.318
 4896TIP3    H214695   1.975   1.810   2.442
 4897TIP3   OH214696  -0.028   3.414   3.257
 4897TIP3    H114697   0.058   3.397   3.218
 4897TIP3    H214698  -0.026   3.507   3.279
 4898TIP3   OH214699   5.210   5.274   4.049
 4898TIP3    H114700   5.294   5.243   4.083
 4898TIP3    H214701   5.223   5.368   4.035
 4899TIP3   OH214702   4.634   1.442   4.815
 4899TIP3    H114703   4.603   1.523   4.775
 4899TIP3    H214704   4.629   1.458   4.909
 4900TIP3   OH214705   4.406   5.771   3.552
 4900TIP3    H114706   4.401   5.866   3.537
 4900TIP3    H214707   4.422   5.763   3.646
 4901TIP3   OH214708   5.158   4.343   5.183
 4901TIP3    H114709   5.126   4.319   5.097
 4901TIP3    H214710   5.091   4.312   5.244
 4902TIP3   OH214711   3.695   1.752   3.639
 4902TIP3    H114712   3.749   1.825   3.670
 4902TIP3    H214713   3.734   1.730   3.554
 4903TIP3   OH214714   3.180   3.343   0.606
 4903TIP3    H114715   3.116   3.393   0.658
 4903TIP3    H214716   3.127   3.290   0.547
 4904TIP3   OH214717   5.032   2.579   2.695
 4904TIP3    H114718   5.073   2.593   2.780
 4904TIP3    H214719   5.092   2.520   2.649
 4905TIP3   OH214720   2.569   5.638   0.801
 4905TIP3    H114721   2.599   5.633   0.891
 4905TIP3    H214722   2.619   5.710   0.763
 4906TIP3   OH214723   3.723   2.290   2.724
 4906TIP3    H114724   3.812   2.256   2.733
 4906TIP3    H214725   3.707   2.339   2.804
 4907TIP3   OH214726   3.612   0.756   1.228
 4907TIP3    H114727   3.574   0.668   1.230
 4907TIP3    H214728   3.601   0.785   1.137
 4908TIP3   OH214729   4.672   4.677   0.898
 4908TIP3    H114730   4.762   4.652   0.921
 4908TIP3    H214731   4.649   4.619   0.825
 4909TIP3   OH214732   4.269   4.263   1.470
 4909TIP3    H114733   4.302   4.200   1.406
 4909TIP3    H214734   4.214   4.322   1.418
 4910TIP3   OH214735   5.935   1.877   4.904
 4910TIP3    H114736   5.939   1.788   4.939
 4910TIP3    H214737   5.921   1.932   4.981
 4911TIP3   OH214738   5.539   2.297   1.682
 4911TIP3    H114739   5.589   2.339   1.752
 4911TIP3    H214740   5.453   2.279   1.721
 4912TIP3   OH214741   2.444   4.348   2.066
 4912TIP3    H114742   2.529   4.378   2.097
 4912TIP3    H214743   2.380   4.398   2.118
 4913TIP3   OH214744   2.921   2.703   3.152
 4913TIP3    H114745   2.929   2.759   3.074
 4913TIP3    H214746   2.924   2.614   3.118
 4914TIP3   OH214747   3.711   3.267   1.934
 4914TIP3    H114748   3.624   3.254   1.972
 4914TIP3    H214749   3.722   3.193   1.874
 4915TIP3   OH214750   3.707   3.699  -0.002
 4915TIP3    H114751   3.616   3.716   0.022
 4915TIP3    H214752   3.739   3.640   0.067
 4916TIP3   OH214753   3.357   4.509   5.126
 4916TIP3    H114754   3.368   4.473   5.214
 4916TIP3    H214755   3.439   4.554   5.108
 4917TIP3   OH214756   6.371   0.977   4.826
 4917TIP3    H114757   6.362   1.037   4.900
 4917TIP3    H214758   6.354   0.891   4.864
 4918TIP3   OH214759   6.348   2.481   3.828
 4918TIP3    H114760   6.255   2.456   3.824
 4918TIP3    H214761   6.347   2.577   3.824
 4919TIP3   OH214762   4.452   3.382   0.193
 4919TIP3    H114763   4.394   3.458   0.200
 4919TIP3    H214764   4.399   3.316   0.148
 4920TIP3   OH214765   2.244   2.811   1.005
 4920TIP3    H114766   2.330   2.807   0.964
 4920TIP3    H214767   2.262   2.815   1.099
 4921TIP3   OH214768   3.139   2.767   1.352
 4921TIP3    H114769   3.208   2.828   1.327
 4921TIP3    H214770   3.074   2.774   1.282
 4922TIP3   OH214771   5.341   4.859   0.247
 4922TIP3    H114772   5.396   4.933   0.223
 4922TIP3    H214773   5.359   4.845   0.340
 4923TIP3   OH214774   0.037   2.867   0.547
 4923TIP3    H114775   0.095   2.841   0.619
 4923TIP3    H214776   0.032   2.962   0.553
 4924TIP3   OH214777   0.270   5.925   1.547
 4924TIP3    H114778   0.345   5.940   1.605
 4924TIP3    H214779   0.265   5.830   1.539
 4925TIP3   OH214780   4.750   0.372   0.706
 4925TIP3    H114781   4.807   0.386   0.630
 4925TIP3    H214782   4.667   0.343   0.668
 4926TIP3   OH214783   5.737   0.106   2.271
 4926TIP3    H114784   5.761   0.015   2.253
 4926TIP3    H214785   5.819   0.155   2.261
 4927TIP3   OH214786   6.312   3.501   2.883
 4927TIP3    H114787   6.292   3.449   2.805
 4927TIP3    H214788   6.347   3.583   2.848
 4928TIP3   OH214789   0.984   4.966   0.114
 4928TIP3    H114790   0.957   5.055   0.136
 4928TIP3    H214791   1.079   4.968   0.121
 4929TIP3   OH214792   0.590   2.658   2.300
 4929TIP3    H114793   0.574   2.633   2.391
 4929TIP3    H214794   0.582   2.754   2.300
 4930TIP3   OH214795   4.518   0.600   4.901
 4930TIP3    H114796   4.511   0.588   4.996
 4930TIP3    H214797   4.428   0.613   4.872
 4931TIP3   OH214798   5.811   5.398   1.725
 4931TIP3    H114799   5.882   5.433   1.671
 4931TIP3    H214800   5.752   5.472   1.736
 4932TIP3   OH214801   4.219   1.136   3.322
 4932TIP3    H114802   4.160   1.121   3.248
 4932TIP3    H214803   4.275   1.058   3.324
 4933TIP3   OH214804   3.757   3.489   4.522
 4933TIP3    H114805   3.674   3.535   4.536
 4933TIP3    H214806   3.796   3.534   4.447
 4934TIP3   OH214807   3.374   2.031   0.183
 4934TIP3    H114808   3.301   1.982   0.222
 4934TIP3    H214809   3.333   2.103   0.137
 4935TIP3   OH214810   5.376   0.171   3.918
 4935TIP3    H114811   5.371   0.265   3.937
 4935TIP3    H214812   5.305   0.155   3.855
 4936TIP3   OH214813   4.914   5.094   5.166
 4936TIP3    H114814   4.823   5.075   5.185
 4936TIP3    H214815   4.959   5.010   5.177
 4937TIP3   OH214816   5.785   2.976   4.231
 4937TIP3    H114817   5.769   2.996   4.139
 4937TIP3    H214818   5.856   2.912   4.229
 4938TIP3   OH214819   1.822   2.616   3.910
 4938TIP3    H114820   1.799   2.708   3.921
 4938TIP3    H214821   1.799   2.597   3.819
 4939TIP3   OH214822   4.818   4.412   3.073
 4939TIP3    H114823   4.765   4.354   3.127
 4939TIP3    H214824   4.884   4.446   3.133
 4940TIP3   OH214825   5.307   4.494   0.627
 4940TIP3    H114826   5.288   4.517   0.718
 4940TIP3    H214827   5.373   4.558   0.600
 4941TIP3   OH214828   0.122   3.711   1.646
 4941TIP3    H114829   0.087   3.648   1.583
 4941TIP3    H214830   0.204   3.741   1.607
 4942TIP3   OH214831   1.082   5.373   3.991
 4942TIP3    H114832   0.988   5.392   3.995
 4942TIP3    H214833   1.113   5.390   4.080
 4943TIP3   OH214834   4.720   4.685   3.122
 4943TIP3    H114835   4.733   4.717   3.033
 4943TIP3    H214836   4.743   4.592   3.118
 4944TIP3   OH214837   3.854   2.335   1.489
 4944TIP3    H114838   3.864   2.399   1.559
 4944TIP3    H214839   3.759   2.323   1.481
 4945TIP3   OH214840   0.028   4.130   2.352
 4945TIP3    H114841   0.106   4.116   2.404
 4945TIP3    H214842  -0.045   4.106   2.410
 4946TIP3   OH214843   4.031   0.983   4.103
 4946TIP3    H114844   4.008   1.058   4.047
 4946TIP3    H214845   3.983   0.909   4.066
 4947TIP3   OH214846   2.816   5.041   0.371
 4947TIP3    H114847   2.777   5.040   0.283
 4947TIP3    H214848   2.749   5.078   0.427
 4948TIP3   OH214849   3.093   0.710   3.816
 4948TIP3    H114850   3.154   0.690   3.745
 4948TIP3    H214851   3.029   0.639   3.814
 4949TIP3   OH214852   3.723   5.411   0.406
 4949TIP3    H114853   3.762   5.422   0.493
 4949TIP3    H214854   3.652   5.349   0.419
 4950TIP3   OH214855   3.696   1.872   2.650
 4950TIP3    H114856   3.639   1.949   2.651
 4950TIP3    H214857   3.709   1.853   2.557
 4951TIP3   OH214858   2.709   1.099   2.850
 4951TIP3    H114859   2.720   1.072   2.758
 4951TIP3    H214860   2.615   1.101   2.863
 4952TIP3   OH214861   2.756   1.463   4.748
 4952TIP3    H114862   2.705   1.538   4.719
 4952TIP3    H214863   2.701   1.420   4.814
 4953TIP3   OH214864   4.317   5.638   1.835
 4953TIP3    H114865   4.278   5.608   1.753
 4953TIP3    H214866   4.299   5.567   1.898
 4954TIP3   OH214867   1.322   0.188   4.424
 4954TIP3    H114868   1.319   0.231   4.338
 4954TIP3    H214869   1.328   0.261   4.486
 4955TIP3   OH214870   2.950   3.173   1.788
 4955TIP3    H114871   3.029   3.218   1.759
 4955TIP3    H214872   2.880   3.211   1.733
 4956TIP3   OH214873   5.202   2.529   4.509
 4956TIP3    H114874   5.259   2.606   4.507
 4956TIP3    H214875   5.210   2.496   4.599
 4957TIP3   OH214876   6.087   0.623   1.902
 4957TIP3    H114877   6.039   0.554   1.948
 4957TIP3    H214878   6.134   0.578   1.833
 4958TIP3   OH214879   5.352   4.907   3.265
 4958TIP3    H114880   5.287   4.908   3.194
 4958TIP3    H214881   5.434   4.932   3.222
 4959TIP3   OH214882   2.677   5.394   0.156
 4959TIP3    H114883   2.731   5.402   0.078
 4959TIP3    H214884   2.696   5.472   0.207
 4960TIP3   OH214885   6.138   1.100   0.600
 4960TIP3    H114886   6.181   1.015   0.610
 4960TIP3    H214887   6.112   1.125   0.689
 4961TIP3   OH214888   6.323   3.446   4.362
 4961TIP3    H114889   6.275   3.523   4.392
 4961TIP3    H214890   6.257   3.391   4.322
 4962TIP3   OH214891   0.696   3.879   4.131
 4962TIP3    H114892   0.725   3.970   4.122
 4962TIP3    H214893   0.668   3.871   4.222
 4963TIP3   OH214894   5.874   3.365   3.889
 4963TIP3    H114895   5.792   3.403   3.858
 4963TIP3    H214896   5.924   3.440   3.922
 4964TIP3   OH214897   6.277   1.706   4.649
 4964TIP3    H114898   6.250   1.655   4.573
 4964TIP3    H214899   6.334   1.775   4.613
 4965TIP3   OH214900   2.211   5.278   4.611
 4965TIP3    H114901   2.237   5.274   4.703
 4965TIP3    H214902   2.135   5.336   4.611
 4966TIP3   OH214903   0.720   4.895   1.771
 4966TIP3    H114904   0.736   4.967   1.832
 4966TIP3    H214905   0.778   4.825   1.801
 4967TIP3   OH214906   5.591   2.567   4.007
 4967TIP3    H114907   5.552   2.552   4.093
 4967TIP3    H214908   5.533   2.632   3.967
 4968TIP3   OH214909   3.904   1.633   1.862
 4968TIP3    H114910   3.950   1.715   1.846
 4968TIP3    H214911   3.855   1.616   1.782
 4969TIP3   OH214912   4.954   1.247   0.850
 4969TIP3    H114913   4.997   1.176   0.802
 4969TIP3    H214914   5.026   1.306   0.874
 4970TIP3   OH214915   1.689   3.550   1.908
 4970TIP3    H114916   1.696   3.536   1.813
 4970TIP3    H214917   1.647   3.470   1.941
 4971TIP3   OH214918   4.970   5.886   0.321
 4971TIP3    H114919   4.902   5.836   0.276
 4971TIP3    H214920   5.011   5.939   0.252
 4972TIP3   OH214921   5.898   1.383   3.121
 4972TIP3    H114922   5.919   1.472   3.093
 4972TIP3    H214923   5.889   1.388   3.216
 4973TIP3   OH214924   0.345   2.606   3.022
 4973TIP3    H114925   0.301   2.645   2.946
 4973TIP3    H214926   0.430   2.650   3.026
 4974TIP3   OH214927   2.075   2.521   3.911
 4974TIP3    H114928   2.126   2.599   3.935
 4974TIP3    H214929   1.984   2.550   3.912
 4975TIP3   OH214930   2.830   4.357   3.984
 4975TIP3    H114931   2.744   4.379   3.947
 4975TIP3    H214932   2.866   4.291   3.924
 4976TIP3   OH214933   3.362   5.203   1.466
 4976TIP3    H114934   3.276   5.192   1.427
 4976TIP3    H214935   3.372   5.129   1.526
 4977TIP3   OH214936   2.863   5.196   2.633
 4977TIP3    H114937   2.902   5.121   2.587
 4977TIP3    H214938   2.796   5.228   2.574
 4978TIP3   OH214939   2.665   5.670   0.277
 4978TIP3    H114940   2.609   5.733   0.323
 4978TIP3    H214941   2.653   5.691   0.185
 4979TIP3   OH214942   0.272   1.623   2.230
 4979TIP3    H114943   0.260   1.536   2.190
 4979TIP3    H214944   0.183   1.655   2.244
 4980TIP3   OH214945   6.209   1.306   4.792
 4980TIP3    H114946   6.133   1.286   4.847
 4980TIP3    H214947   6.186   1.270   4.706
 4981TIP3   OH214948   4.672   4.305   3.516
 4981TIP3    H114949   4.764   4.328   3.503
 4981TIP3    H214950   4.624   4.381   3.486
 4982TIP3   OH214951   5.949   3.243   1.915
 4982TIP3    H114952   6.020   3.283   1.965
 4982TIP3    H214953   5.955   3.283   1.829
 4983TIP3   OH214954   2.932   2.598   3.443
 4983TIP3    H114955   2.869   2.597   3.371
 4983TIP3    H214956   2.887   2.642   3.515
 4984TIP3   OH214957   5.111   3.745   4.798
 4984TIP3    H114958   5.094   3.838   4.811
 4984TIP3    H214959   5.202   3.741   4.770
 4985TIP3   OH214960   1.927   3.425   4.758
 4985TIP3    H114961   1.971   3.342   4.740
 4985TIP3    H214962   1.835   3.400   4.773
 4986TIP3   OH214963   3.793   5.349   1.458
 4986TIP3    H114964   3.787   5.438   1.494
 4986TIP3    H214965   3.718   5.341   1.399
 4987TIP3   OH214966   5.592   2.152   1.244
 4987TIP3    H114967   5.507   2.151   1.200
 4987TIP3    H214968   5.572   2.126   1.334
 4988TIP3   OH214969   6.170   3.213   4.366
 4988TIP3    H114970   6.125   3.134   4.336
 4988TIP3    H214971   6.170   3.206   4.462
 4989TIP3   OH214972   5.085   3.640   1.084
 4989TIP3    H114973   5.050   3.562   1.126
 4989TIP3    H214974   5.059   3.631   0.992
 4990TIP3   OH214975   4.321   3.201   0.038
 4990TIP3    H114976   4.237   3.174   0.075
 4990TIP3    H214977   4.377   3.124   0.047
 4991TIP3   OH214978   1.001   0.078   0.329
 4991TIP3    H114979   0.937   0.113   0.390
 4991TIP3    H214980   0.952   0.062   0.248
 4992TIP3   OH214981   5.807   2.028   1.064
 4992TIP3    H114982   5.732   2.082   1.088
 4992TIP3    H214983   5.799   1.950   1.118
 4993TIP3   OH214984   2.052   5.584   1.575
 4993TIP3    H114985   2.138   5.602   1.613
 4993TIP3    H214986   2.003   5.665   1.590
 4994TIP3   OH214987   6.054   4.917   0.316
 4994TIP3    H114988   6.025   4.994   0.365
 4994TIP3    H214989   6.149   4.917   0.326
 4995TIP3   OH214990   2.328   2.183   0.905
 4995TIP3    H114991   2.285   2.266   0.923
 4995TIP3    H214992   2.301   2.126   0.977
 4996TIP3   OH214993   5.541   0.704   3.265
 4996TIP3    H114994   5.535   0.783   3.211
 4996TIP3    H214995   5.572   0.636   3.206
 4997TIP3   OH214996   4.411   0.073   1.286
 4997TIP3    H114997   4.445   0.144   1.339
 4997TIP3    H214998   4.327   0.105   1.253
 4998TIP3   OH214999   2.866   0.786   1.682
 4998TIP3    H115000   2.809   0.732   1.736
 4998TIP3    H215001   2.952   0.778   1.723
 4999TIP3   OH215002   5.215   0.196   3.297
 4999TIP3    H115003   5.170   0.120   3.334
 4999TIP3    H215004   5.168   0.272   3.332
 5000TIP3   OH215005   5.222   4.585   5.095
 5000TIP3    H115006   5.248   4.570   5.004
 5000TIP3    H215007   5.211   4.497   5.131
 5001TIP3   OH215008   4.766   0.103   2.432
 5001TIP3    H115009   4.705   0.040   2.470
 5001TIP3    H215010   4.772   0.078   2.340
 5002TIP3   OH215011   1.107   4.744   1.820
 5002TIP3    H115012   1.177   4.684   1.847
 5002TIP3    H215013   1.026   4.697   1.840
 5003TIP3   OH215014   4.110   1.620   0.454
 5003TIP3    H115015   4.136   1.539   0.409
 5003TIP3    H215016   4.079   1.590   0.539
 5004TIP3   OH215017   3.021   5.390   0.386
 5004TIP3    H115018   3.080   5.396   0.462
 5004TIP3    H215019   3.065   5.440   0.318
 5005TIP3   OH215020   1.022   3.026   1.666
 5005TIP3    H115021   0.957   2.979   1.615
 5005TIP3    H215022   1.087   2.959   1.689
 5006TIP3   OH215023   0.890   2.106   2.610
 5006TIP3    H115024   0.803   2.123   2.645
 5006TIP3    H215025   0.878   2.098   2.516
 5007TIP3   OH215026   0.312   2.583   1.575
 5007TIP3    H115027   0.241   2.644   1.593
 5007TIP3    H215028   0.366   2.584   1.654
 5008TIP3   OH215029   0.639   0.716   4.860
 5008TIP3    H115030   0.726   0.735   4.896
 5008TIP3    H215031   0.579   0.769   4.913
 5009TIP3   OH215032   3.284   5.553   1.869
 5009TIP3    H115033   3.360   5.516   1.913
 5009TIP3    H215034   3.280   5.508   1.785
 5010TIP3   OH215035   5.264   3.911   0.545
 5010TIP3    H115036   5.232   3.872   0.627
 5010TIP3    H215037   5.235   4.002   0.550
 5011TIP3   OH215038   4.949   2.407   3.861
 5011TIP3    H115039   4.975   2.353   3.936
 5011TIP3    H215040   5.022   2.398   3.799
 5012TIP3   OH215041   1.122   3.248   1.276
 5012TIP3    H115042   1.186   3.274   1.210
 5012TIP3    H215043   1.112   3.154   1.264
 5013TIP3   OH215044   2.973   2.123   3.216
 5013TIP3    H115045   2.897   2.155   3.167
 5013TIP3    H215046   3.022   2.071   3.151
 5014TIP3   OH215047   1.025   3.896   2.506
 5014TIP3    H115048   1.037   3.979   2.461
 5014TIP3    H215049   1.016   3.831   2.436
 5015TIP3   OH215050   6.171   0.337   1.457
 5015TIP3    H115051   6.183   0.417   1.508
 5015TIP3    H215052   6.130   0.366   1.375
 5016TIP3   OH215053   0.596   2.028   5.058
 5016TIP3    H115054   0.549   2.063   4.982
 5016TIP3    H215055   0.658   1.965   5.021
 5017TIP3   OH215056   4.386   2.357   4.561
 5017TIP3    H115057   4.381   2.443   4.603
 5017TIP3    H215058   4.462   2.315   4.602
 5018TIP3   OH215059   5.893   3.610   2.192
 5018TIP3    H115060   5.863   3.530   2.236
 5018TIP3    H215061   5.962   3.579   2.133
 5019TIP3   OH215062   0.732   3.366   5.035
 5019TIP3    H115063   0.816   3.389   4.995
 5019TIP3    H215064   0.697   3.450   5.066
 5020TIP3   OH215065   2.331   1.876   1.427
 5020TIP3    H115066   2.241   1.857   1.400
 5020TIP3    H215067   2.368   1.927   1.355
 5021TIP3   OH215068   6.000   4.840   1.150
 5021TIP3    H115069   6.049   4.849   1.232
 5021TIP3    H215070   6.021   4.752   1.119
 5022TIP3   OH215071   4.058   5.077   1.365
 5022TIP3    H115072   4.028   5.156   1.319
 5022TIP3    H215073   4.079   5.015   1.295
 5023TIP3   OH215074   3.365   4.123   4.126
 5023TIP3    H115075   3.397   4.054   4.067
 5023TIP3    H215076   3.430   4.126   4.196
 5024TIP3   OH215077   3.578   5.272   1.293
 5024TIP3    H115078   3.510   5.245   1.355
 5024TIP3    H215079   3.586   5.198   1.233
 5025TIP3   OH215080   3.456   2.876   2.005
 5025TIP3    H115081   3.382   2.815   2.002
 5025TIP3    H215082   3.422   2.957   1.967
 5026TIP3   OH215083   4.201   4.641   1.331
 5026TIP3    H115084   4.256   4.577   1.286
 5026TIP3    H215085   4.146   4.679   1.262
 5027TIP3   OH215086   2.937   2.957   2.186
 5027TIP3    H115087   2.989   2.879   2.206
 5027TIP3    H215088   2.993   3.030   2.211
 5028TIP3   OH215089   2.365   1.586   5.179
 5028TIP3    H115090   2.339   1.562   5.268
 5028TIP3    H215091   2.344   1.508   5.127
 5029TIP3   OH215092   3.493   1.398   0.710
 5029TIP3    H115093   3.560   1.424   0.646
 5029TIP3    H215094   3.442   1.478   0.724
 5030TIP3   OH215095   4.965   4.667   5.111
 5030TIP3    H115096   5.057   4.642   5.119
 5030TIP3    H215097   4.919   4.606   5.169
 5031TIP3   OH215098   4.674   3.009   0.548
 5031TIP3    H115099   4.668   3.098   0.513
 5031TIP3    H215100   4.598   2.964   0.512
 5032TIP3   OH215101   0.408   1.104   1.422
 5032TIP3    H115102   0.425   1.065   1.508
 5032TIP3    H215103   0.450   1.190   1.427
 5033TIP3   OH215104   2.685   1.984   5.132
 5033TIP3    H115105   2.739   1.927   5.078
 5033TIP3    H215106   2.703   2.072   5.099
 5034TIP3   OH215107   1.282   0.408   2.914
 5034TIP3    H115108   1.362   0.456   2.893
 5034TIP3    H215109   1.233   0.466   2.972
 5035TIP3   OH215110   5.362   2.309   1.159
 5035TIP3    H115111   5.417   2.388   1.153
 5035TIP3    H215112   5.280   2.340   1.196
 5036TIP3   OH215113   5.576   1.515   4.434
 5036TIP3    H115114   5.487   1.479   4.437
 5036TIP3    H215115   5.565   1.608   4.453
 5037TIP3   OH215116   3.150   5.833   2.939
 5037TIP3    H115117   3.198   5.852   3.020
 5037TIP3    H215118   3.159   5.914   2.888
 5038TIP3   OH215119   1.616   4.652   0.605
 5038TIP3    H115120   1.558   4.591   0.651
 5038TIP3    H215121   1.619   4.618   0.516
 5039TIP3   OH215122   1.448   1.002   1.204
 5039TIP3    H115123   1.538   0.969   1.208
 5039TIP3    H215124   1.443   1.053   1.123
 5040TIP3   OH215125   1.341   4.641   1.410
 5040TIP3    H115126   1.255   4.650   1.370
 5040TIP3    H215127   1.351   4.547   1.426
 5041TIP3   OH215128   4.088   1.128   2.397
 5041TIP3    H115129   4.007   1.157   2.356
 5041TIP3    H215130   4.069   1.130   2.491
 5042TIP3   OH215131   1.302   3.221   0.667
 5042TIP3    H115132   1.365   3.267   0.612
 5042TIP3    H215133   1.318   3.128   0.651
 5043TIP3   OH215134   2.966   5.133   4.055
 5043TIP3    H115135   3.003   5.168   3.974
 5043TIP3    H215136   3.040   5.096   4.102
 5044TIP3   OH215137   5.899   4.731   5.035
 5044TIP3    H115138   5.868   4.820   5.050
 5044TIP3    H215139   5.852   4.702   4.956
 5045TIP3   OH215140   3.507   2.841   2.455
 5045TIP3    H115141   3.490   2.782   2.382
 5045TIP3    H215142   3.602   2.842   2.463
 5046TIP3   OH215143   4.034   4.290   5.072
 5046TIP3    H115144   3.987   4.220   5.118
 5046TIP3    H215145   3.989   4.370   5.099
 5047TIP3   OH215146   3.985   1.070   3.584
 5047TIP3    H115147   3.938   1.153   3.588
 5047TIP3    H215148   3.939   1.013   3.644
 5048TIP3   OH215149   4.084   4.672   3.044
 5048TIP3    H115150   4.103   4.611   2.973
 5048TIP3    H215151   4.160   4.731   3.045
 5049TIP3   OH215152   3.317   4.219   2.851
 5049TIP3    H115153   3.247   4.166   2.888
 5049TIP3    H215154   3.326   4.187   2.761
 5050TIP3   OH215155   1.081   2.399   1.009
 5050TIP3    H115156   1.172   2.375   1.026
 5050TIP3    H215157   1.044   2.323   0.965
 5051TIP3   OH215158   0.382   5.916   0.314
 5051TIP3    H115159   0.457   5.976   0.307
 5051TIP3    H215160   0.305   5.972   0.302
 5052TIP3   OH215161   0.546   5.323   4.112
 5052TIP3    H115162   0.468   5.371   4.087
 5052TIP3    H215163   0.514   5.251   4.167
 5053TIP3   OH215164   4.138   0.434   1.395
 5053TIP3    H115165   4.202   0.468   1.458
 5053TIP3    H215166   4.057   0.426   1.446
 5054TIP3   OH215167   0.848   4.509   5.063
 5054TIP3    H115168   0.755   4.493   5.046
 5054TIP3    H215169   0.889   4.423   5.059
 5055TIP3   OH215170   2.520   4.582   2.618
 5055TIP3    H115171   2.551   4.591   2.708
 5055TIP3    H215172   2.474   4.498   2.617
 5056TIP3   OH215173   1.198   4.452   3.704
 5056TIP3    H115174   1.289   4.477   3.715
 5056TIP3    H215175   1.166   4.508   3.633
 5057TIP3   OH215176   2.167   0.851   1.884
 5057TIP3    H115177   2.226   0.785   1.848
 5057TIP3    H215178   2.225   0.915   1.926
 5058TIP3   OH215179   4.350   5.026   3.455
 5058TIP3    H115180   4.334   4.954   3.393
 5058TIP3    H215181   4.297   5.003   3.531
 5059TIP3   OH215182   4.926   4.436   3.441
 5059TIP3    H115183   4.957   4.506   3.499
 5059TIP3    H215184   4.945   4.467   3.353
 5060TIP3   OH215185   0.319   4.431   3.522
 5060TIP3    H115186   0.400   4.480   3.508
 5060TIP3    H215187   0.268   4.486   3.581
 5061TIP3   OH215188   2.558   2.555   1.379
 5061TIP3    H115189   2.541   2.598   1.295
 5061TIP3    H215190   2.650   2.527   1.373
 5062TIP3   OH215191   0.531   0.754   1.965
 5062TIP3    H115192   0.613   0.713   1.939
 5062TIP3    H215193   0.515   0.722   2.054
 5063TIP3   OH215194   3.145   2.754   2.186
 5063TIP3    H115195   3.209   2.710   2.130
 5063TIP3    H215196   3.197   2.792   2.257
 5064TIP3   OH215197   4.516   3.506   0.982
 5064TIP3    H115198   4.474   3.494   0.896
 5064TIP3    H215199   4.484   3.433   1.035
 5065TIP3   OH215200   4.925   1.923   4.220
 5065TIP3    H115201   4.984   1.977   4.272
 5065TIP3    H215202   4.841   1.927   4.266
 5066TIP3   OH215203   4.883   5.815   3.866
 5066TIP3    H115204   4.953   5.769   3.821
 5066TIP3    H215205   4.823   5.746   3.894
 5067TIP3   OH215206   1.765   3.654   2.541
 5067TIP3    H115207   1.827   3.615   2.479
 5067TIP3    H215208   1.820   3.702   2.603
 5068TIP3   OH215209   5.707   0.517   1.802
 5068TIP3    H115210   5.644   0.479   1.740
 5068TIP3    H215211   5.712   0.609   1.778
 5069TIP3   OH215212   5.372   3.037   4.903
 5069TIP3    H115213   5.389   2.959   4.850
 5069TIP3    H215214   5.454   3.087   4.900
 5070TIP3   OH215215   2.721   4.515   1.526
 5070TIP3    H115216   2.708   4.564   1.607
 5070TIP3    H215217   2.654   4.548   1.466
 5071TIP3   OH215218   0.167   2.535   4.941
 5071TIP3    H115219   0.198   2.516   4.852
 5071TIP3    H215220   0.078   2.570   4.928
 5072TIP3   OH215221   2.273   2.867   1.848
 5072TIP3    H115222   2.327   2.916   1.910
 5072TIP3    H215223   2.250   2.931   1.781
 5073TIP3   OH215224   0.446   2.349   5.003
 5073TIP3    H115225   0.541   2.352   5.009
 5073TIP3    H215226   0.426   2.381   4.915
 5074TIP3   OH215227   4.592   4.884   2.081
 5074TIP3    H115228   4.511   4.935   2.079
 5074TIP3    H215229   4.576   4.812   2.020
 5075TIP3   OH215230   1.903   4.748   0.673
 5075TIP3    H115231   1.915   4.723   0.764
 5075TIP3    H215232   1.808   4.746   0.659
 5076TIP3   OH215233   0.242   0.999   5.152
 5076TIP3    H115234   0.225   1.083   5.195
 5076TIP3    H215235   0.244   0.935   5.223
 5077TIP3   OH215236   4.642   2.952   1.650
 5077TIP3    H115237   4.722   2.912   1.686
 5077TIP3    H215238   4.606   3.002   1.723
 5078TIP3   OH215239   4.798   5.955   2.239
 5078TIP3    H115240   4.837   5.975   2.154
 5078TIP3    H215241   4.809   6.035   2.290
 5079TIP3   OH215242   0.387   0.739   3.149
 5079TIP3    H115243   0.397   0.645   3.161
 5079TIP3    H215244   0.310   0.748   3.093
 5080TIP3   OH215245   2.227   1.311   4.583
 5080TIP3    H115246   2.251   1.396   4.546
 5080TIP3    H215247   2.299   1.253   4.557
 5081TIP3   OH215248   5.823   0.633   4.268
 5081TIP3    H115249   5.749   0.659   4.323
 5081TIP3    H215250   5.788   0.564   4.211
 5082TIP3   OH215251   5.470   3.768   0.448
 5082TIP3    H115252   5.553   3.811   0.469
 5082TIP3    H215253   5.403   3.827   0.481
 5083TIP3   OH215254   2.140   1.539   3.204
 5083TIP3    H115255   2.210   1.474   3.205
 5083TIP3    H215256   2.108   1.541   3.294
 5084TIP3   OH215257   1.012   3.553   0.776
 5084TIP3    H115258   1.085   3.495   0.799
 5084TIP3    H215259   0.966   3.506   0.706
 5085TIP3   OH215260   1.875   0.838   1.929
 5085TIP3    H115261   1.970   0.832   1.916
 5085TIP3    H215262   1.862   0.819   2.022
 5086TIP3   OH215263   0.349   4.777   0.184
 5086TIP3    H115264   0.276   4.837   0.170
 5086TIP3    H215265   0.397   4.814   0.257
 5087TIP3   OH215266   4.969   3.768   2.031
 5087TIP3    H115267   4.982   3.673   2.040
 5087TIP3    H215268   4.989   3.786   1.939
 5088TIP3   OH215269   4.933   3.060   2.826
 5088TIP3    H115270   5.008   3.001   2.832
 5088TIP3    H215271   4.949   3.112   2.747
 5089TIP3   OH215272   0.059   0.672   4.972
 5089TIP3    H115273  -0.032   0.701   4.978
 5089TIP3    H215274   0.055   0.592   4.919
 5090TIP3   OH215275   3.966   3.538   3.339
 5090TIP3    H115276   3.907   3.466   3.360
 5090TIP3    H215277   3.917   3.593   3.278
 5091TIP3   OH215278   6.088   1.678   5.085
 5091TIP3    H115279   6.117   1.632   5.006
 5091TIP3    H215280   6.161   1.736   5.107
 5092TIP3   OH215281   4.208   1.812   3.955
 5092TIP3    H115282   4.143   1.832   4.022
 5092TIP3    H215283   4.157   1.786   3.879
 5093TIP3   OH215284   3.776   4.431   2.165
 5093TIP3    H115285   3.805   4.522   2.162
 5093TIP3    H215286   3.848   4.382   2.126
 5094TIP3   OH215287   3.338   3.466   2.138
 5094TIP3    H115288   3.252   3.427   2.148
 5094TIP3    H215289   3.322   3.560   2.138
 5095TIP3   OH215290   2.144   5.243   3.397
 5095TIP3    H115291   2.139   5.224   3.303
 5095TIP3    H215292   2.057   5.222   3.430
 5096TIP3   OH215293   6.301   3.656   4.726
 5096TIP3    H115294   6.313   3.647   4.631
 5096TIP3    H215295   6.224   3.713   4.735
 5097TIP3   OH215296   3.793   4.702   2.919
 5097TIP3    H115297   3.879   4.707   2.877
 5097TIP3    H215298   3.752   4.786   2.899
 5098TIP3   OH215299   0.213   0.751   2.132
 5098TIP3    H115300   0.304   0.736   2.159
 5098TIP3    H215301   0.172   0.665   2.140
 5099TIP3   OH215302   4.416   4.954   0.355
 5099TIP3    H115303   4.480   4.985   0.420
 5099TIP3    H215304   4.463   4.956   0.272
 5100TIP3   OH215305   4.382   3.937   1.702
 5100TIP3    H115306   4.415   3.871   1.641
 5100TIP3    H215307   4.456   3.994   1.719
 5101TIP3   OH215308   4.282   1.682   0.875
 5101TIP3    H115309   4.299   1.621   0.947
 5101TIP3    H215310   4.356   1.670   0.815
 5102TIP3   OH215311   1.934   5.861   0.329
 5102TIP3    H115312   1.897   5.809   0.258
 5102TIP3    H215313   1.893   5.826   0.408
 5103TIP3   OH215314   1.139   4.156   3.643
 5103TIP3    H115315   1.129   4.172   3.550
 5103TIP3    H215316   1.138   4.244   3.682
 5104TIP3   OH215317   1.886   2.069   2.171
 5104TIP3    H115318   1.808   2.065   2.226
 5104TIP3    H215319   1.902   2.163   2.159
 5105TIP3   OH215320   2.999   2.945   0.761
 5105TIP3    H115321   3.088   2.966   0.789
 5105TIP3    H215322   2.963   2.892   0.831
 5106TIP3   OH215323   4.373   0.184   1.805
 5106TIP3    H115324   4.404   0.098   1.777
 5106TIP3    H215325   4.453   0.236   1.816
 5107TIP3   OH215326   1.011   2.652   1.849
 5107TIP3    H115327   1.006   2.661   1.944
 5107TIP3    H215328   0.927   2.613   1.825
 5108TIP3   OH215329   2.697   0.370   1.912
 5108TIP3    H115330   2.604   0.362   1.935
 5108TIP3    H215331   2.740   0.301   1.963
 5109TIP3   OH215332   3.463   2.287   4.353
 5109TIP3    H115333   3.508   2.372   4.350
 5109TIP3    H215334   3.422   2.285   4.440
 5110TIP3   OH215335   4.938   5.329   0.606
 5110TIP3    H115336   4.925   5.262   0.672
 5110TIP3    H215337   4.941   5.411   0.655
 5111TIP3   OH215338   1.635   0.204   4.534
 5111TIP3    H115339   1.546   0.233   4.519
 5111TIP3    H215340   1.688   0.283   4.527
 5112TIP3   OH215341   6.282   1.859   5.166
 5112TIP3    H115342   6.258   1.927   5.229
 5112TIP3    H215343   6.301   1.907   5.086
 5113TIP3   OH215344   5.957   5.591   2.665
 5113TIP3    H115345   5.955   5.685   2.686
 5113TIP3    H215346   5.889   5.580   2.598
 5114TIP3   OH215347   1.651   4.493   0.351
 5114TIP3    H115348   1.568   4.531   0.323
 5114TIP3    H215349   1.713   4.519   0.283
 5115TIP3   OH215350   1.367   4.357   0.161
 5115TIP3    H115351   1.383   4.370   0.068
 5115TIP3    H215352   1.425   4.286   0.187
 5116TIP3   OH215353   3.481   4.553   4.805
 5116TIP3    H115354   3.534   4.566   4.727
 5116TIP3    H215355   3.428   4.632   4.812
 5117TIP3   OH215356   5.405   3.809   1.550
 5117TIP3    H115357   5.403   3.878   1.616
 5117TIP3    H215358   5.498   3.797   1.530
 5118TIP3   OH215359   3.191   2.161   4.476
 5118TIP3    H115360   3.118   2.208   4.515
 5118TIP3    H215361   3.264   2.175   4.537
 5119TIP3   OH215362   3.138   4.757   2.027
 5119TIP3    H115363   3.137   4.852   2.022
 5119TIP3    H215364   3.231   4.734   2.032
 5120TIP3   OH215365   1.804   2.094   1.773
 5120TIP3    H115366   1.764   2.069   1.856
 5120TIP3    H215367   1.860   2.019   1.750
 5121TIP3   OH215368   4.925   0.178   5.022
 5121TIP3    H115369   4.995   0.165   5.086
 5121TIP3    H215370   4.861   0.109   5.042
 5122TIP3   OH215371   0.047   3.955   3.647
 5122TIP3    H115372   0.046   3.895   3.572
 5122TIP3    H215373   0.060   3.898   3.723
 5123TIP3   OH215374   0.270   4.846   3.642
 5123TIP3    H115375   0.304   4.926   3.602
 5123TIP3    H215376   0.336   4.779   3.623
 5124TIP3   OH215377   2.901   1.845   0.680
 5124TIP3    H115378   2.971   1.905   0.706
 5124TIP3    H215379   2.834   1.856   0.748
 5125TIP3   OH215380   1.650   1.950   4.327
 5125TIP3    H115381   1.703   1.946   4.247
 5125TIP3    H215382   1.710   1.982   4.394
 5126TIP3   OH215383   1.062   4.277   1.754
 5126TIP3    H115384   1.123   4.241   1.689
 5126TIP3    H215385   0.998   4.325   1.703
 5127TIP3   OH215386   3.999   1.815   2.938
 5127TIP3    H115387   4.054   1.891   2.920
 5127TIP3    H215388   3.976   1.823   3.030
 5128TIP3   OH215389   5.947   4.436   3.862
 5128TIP3    H115390   5.868   4.404   3.818
 5128TIP3    H215391   5.934   4.413   3.954
 5129TIP3   OH215392   5.834   5.751   0.012
 5129TIP3    H115393   5.868   5.803   0.085
 5129TIP3    H215394   5.832   5.812  -0.062
 5130TIP3   OH215395   5.733   2.117   2.295
 5130TIP3    H115396   5.695   2.193   2.341
 5130TIP3    H215397   5.826   2.121   2.316
 5131TIP3   OH215398   1.853   0.647   1.495
 5131TIP3    H115399   1.770   0.672   1.534
 5131TIP3    H215400   1.869   0.558   1.526
 5132TIP3   OH215401   5.731   0.401   1.283
 5132TIP3    H115402   5.754   0.366   1.198
 5132TIP3    H215403   5.798   0.367   1.343
 5133TIP3   OH215404   6.256   4.033   1.249
 5133TIP3    H115405   6.198   4.007   1.321
 5133TIP3    H215406   6.205   4.014   1.170
 5134TIP3   OH215407   0.435   5.459   0.484
 5134TIP3    H115408   0.482   5.465   0.567
 5134TIP3    H215409   0.503   5.436   0.420
 5135TIP3   OH215410   3.545   3.114   2.452
 5135TIP3    H115411   3.463   3.163   2.460
 5135TIP3    H215412   3.519   3.022   2.457
 5136TIP3   OH215413   2.719   2.849   1.239
 5136TIP3    H115414   2.702   2.873   1.148
 5136TIP3    H215415   2.812   2.827   1.241
 5137TIP3   OH215416   0.490   1.515   4.022
 5137TIP3    H115417   0.448   1.574   3.959
 5137TIP3    H215418   0.537   1.451   3.967
 5138TIP3   OH215419   2.675   3.321   1.975
 5138TIP3    H115420   2.745   3.300   1.913
 5138TIP3    H215421   2.704   3.281   2.057
 5139TIP3   OH215422   1.067   2.390   4.063
 5139TIP3    H115423   0.973   2.382   4.081
 5139TIP3    H215424   1.108   2.331   4.126
 5140TIP3   OH215425   3.684   1.923   1.525
 5140TIP3    H115426   3.651   1.971   1.602
 5140TIP3    H215427   3.773   1.955   1.513
 5141TIP3   OH215428   3.530   5.203   0.444
 5141TIP3    H115429   3.559   5.134   0.504
 5141TIP3    H215430   3.463   5.250   0.493
 5142TIP3   OH215431   3.038   3.150   4.508
 5142TIP3    H115432   2.960   3.192   4.473
 5142TIP3    H215433   3.023   3.056   4.493
 5143TIP3   OH215434   4.870   4.964   3.030
 5143TIP3    H115435   4.855   4.875   2.996
 5143TIP3    H215436   4.825   4.965   3.115
 5144TIP3   OH215437   3.125   5.769   1.812
 5144TIP3    H115438   3.081   5.716   1.745
 5144TIP3    H215439   3.202   5.718   1.836
 5145TIP3   OH215440   1.870   0.764   0.298
 5145TIP3    H115441   1.835   0.851   0.283
 5145TIP3    H215442   1.831   0.709   0.230
 5146TIP3   OH215443   5.080   4.998   3.412
 5146TIP3    H115444   5.066   5.086   3.374
 5146TIP3    H215445   5.141   5.013   3.484
 5147TIP3   OH215446   4.148   5.092   2.600
 5147TIP3    H115447   4.195   5.070   2.520
 5147TIP3    H215448   4.057   5.069   2.581
 5148TIP3   OH215449   2.148   0.114   0.434
 5148TIP3    H115450   2.189   0.044   0.486
 5148TIP3    H215451   2.126   0.181   0.498
 5149TIP3   OH215452   5.364   3.498   0.419
 5149TIP3    H115453   5.381   3.592   0.413
 5149TIP3    H215454   5.405   3.461   0.340
 5150TIP3   OH215455   0.644   0.451   0.331
 5150TIP3    H115456   0.636   0.371   0.383
 5150TIP3    H215457   0.636   0.422   0.240
 5151TIP3   OH215458   2.726   2.887   0.663
 5151TIP3    H115459   2.799   2.896   0.724
 5151TIP3    H215460   2.648   2.910   0.715
 5152TIP3   OH215461   1.051   2.583   4.321
 5152TIP3    H115462   1.046   2.501   4.370
 5152TIP3    H215463   1.001   2.646   4.373
 5153TIP3   OH215464   3.760   2.367   3.615
 5153TIP3    H115465   3.833   2.383   3.676
 5153TIP3    H215466   3.775   2.278   3.582
 5154TIP3   OH215467   1.362   0.524   0.935
 5154TIP3    H115468   1.304   0.461   0.978
 5154TIP3    H215469   1.304   0.589   0.897
 5155TIP3   OH215470   4.223   4.107   4.693
 5155TIP3    H115471   4.156   4.039   4.706
 5155TIP3    H215472   4.306   4.061   4.704
 5156TIP3   OH215473   0.207   5.377   1.999
 5156TIP3    H115474   0.183   5.373   2.092
 5156TIP3    H215475   0.135   5.423   1.957
 5157TIP3   OH215476   1.511   2.777   3.866
 5157TIP3    H115477   1.423   2.741   3.860
 5157TIP3    H215478   1.504   2.867   3.834
 5158TIP3   OH215479   5.075   3.238   0.858
 5158TIP3    H115480   5.160   3.219   0.898
 5158TIP3    H215481   5.034   3.153   0.847
 5159TIP3   OH215482   4.934   5.041   4.352
 5159TIP3    H115483   4.901   5.125   4.320
 5159TIP3    H215484   5.027   5.040   4.328
 5160TIP3   OH215485   1.836   2.765   1.531
 5160TIP3    H115486   1.840   2.839   1.470
 5160TIP3    H215487   1.919   2.768   1.578
 5161TIP3   OH215488   5.499   2.939   1.653
 5161TIP3    H115489   5.576   2.924   1.707
 5161TIP3    H215490   5.447   2.859   1.662
 5162TIP3   OH215491   6.166   1.527   3.631
 5162TIP3    H115492   6.240   1.580   3.660
 5162TIP3    H215493   6.204   1.464   3.570
 5163TIP3   OH215494   2.257   3.201   0.362
 5163TIP3    H115495   2.286   3.111   0.377
 5163TIP3    H215496   2.171   3.205   0.404
 5164TIP3   OH215497   5.346   2.272   3.870
 5164TIP3    H115498   5.396   2.206   3.917
 5164TIP3    H215499   5.290   2.222   3.809
 5165TIP3   OH215500   2.827   2.945   2.511
 5165TIP3    H115501   2.891   2.875   2.501
 5165TIP3    H215502   2.742   2.902   2.501
 5166TIP3   OH215503   3.686   1.318   1.590
 5166TIP3    H115504   3.676   1.225   1.569
 5166TIP3    H215505   3.641   1.328   1.674
 5167TIP3   OH215506   2.068   2.952   0.708
 5167TIP3    H115507   2.062   2.859   0.731
 5167TIP3    H215508   1.988   2.991   0.743
 5168TIP3   OH215509   2.582   3.829   4.622
 5168TIP3    H115510   2.529   3.899   4.659
 5168TIP3    H215511   2.665   3.834   4.670
 5169TIP3   OH215512   0.307   5.399   4.895
 5169TIP3    H115513   0.352   5.326   4.853
 5169TIP3    H215514   0.256   5.439   4.824
 5170TIP3   OH215515   0.492   0.814   0.965
 5170TIP3    H115516   0.509   0.867   1.043
 5170TIP3    H215517   0.401   0.788   0.972
 5171TIP3   OH215518   5.154   1.709   2.419
 5171TIP3    H115519   5.235   1.676   2.458
 5171TIP3    H215520   5.177   1.728   2.328
 5172TIP3   OH215521   3.765   2.831   3.780
 5172TIP3    H115522   3.703   2.866   3.844
 5172TIP3    H215523   3.754   2.887   3.703
 5173TIP3   OH215524   0.337   1.436   0.636
 5173TIP3    H115525   0.366   1.515   0.590
 5173TIP3    H215526   0.358   1.454   0.728
 5174TIP3   OH215527   5.609   1.093   1.001
 5174TIP3    H115528   5.682   1.042   0.966
 5174TIP3    H215529   5.649   1.151   1.065
 5175TIP3   OH215530   1.600   2.474   2.800
 5175TIP3    H115531   1.579   2.551   2.853
 5175TIP3    H215532   1.612   2.404   2.864
 5176TIP3   OH215533   3.381   5.256   4.701
 5176TIP3    H115534   3.317   5.319   4.667
 5176TIP3    H215535   3.370   5.262   4.796
 5177TIP3   OH215536   0.291   4.948   1.637
 5177TIP3    H115537   0.359   4.999   1.592
 5177TIP3    H215538   0.315   4.952   1.729
 5178TIP3   OH215539   2.910   3.278   4.159
 5178TIP3    H115540   3.006   3.281   4.157
 5178TIP3    H215541   2.888   3.281   4.252
 5179TIP3   OH215542   1.774   1.082   0.579
 5179TIP3    H115543   1.812   1.106   0.495
 5179TIP3    H215544   1.713   1.153   0.599
 5180TIP3   OH215545   3.431   2.363   2.016
 5180TIP3    H115546   3.508   2.361   2.073
 5180TIP3    H215547   3.464   2.392   1.931
 5181TIP3   OH215548   1.801   3.321   0.329
 5181TIP3    H115549   1.764   3.299   0.414
 5181TIP3    H215550   1.730   3.364   0.282
 5182TIP3   OH215551   0.687   3.115   1.338
 5182TIP3    H115552   0.604   3.163   1.334
 5182TIP3    H215553   0.704   3.089   1.248
 5183TIP3   OH215554   3.671   3.394   2.526
 5183TIP3    H115555   3.609   3.328   2.557
 5183TIP3    H215556   3.757   3.355   2.543
 5184TIP3   OH215557   5.393   2.124   2.404
 5184TIP3    H115558   5.444   2.146   2.482
 5184TIP3    H215559   5.305   2.107   2.438
 5185TIP3   OH215560   4.806   5.258   1.836
 5185TIP3    H115561   4.813   5.163   1.849
 5185TIP3    H215562   4.807   5.268   1.740
 5186TIP3   OH215563   5.713   3.071   4.477
 5186TIP3    H115564   5.792   3.020   4.494
 5186TIP3    H215565   5.710   3.080   4.381
 5187TIP3   OH215566   1.131   0.772   1.645
 5187TIP3    H115567   1.040   0.742   1.635
 5187TIP3    H215568   1.123   0.865   1.662
 5188TIP3   OH215569   4.226   1.790   0.116
 5188TIP3    H115570   4.170   1.713   0.110
 5188TIP3    H215571   4.283   1.773   0.190
 5189TIP3   OH215572   0.585   2.403   3.388
 5189TIP3    H115573   0.614   2.351   3.312
 5189TIP3    H215574   0.531   2.342   3.439
 5190TIP3   OH215575   4.282   4.115   5.105
 5190TIP3    H115576   4.314   4.159   5.184
 5190TIP3    H215577   4.201   4.161   5.083
 5191TIP3   OH215578   1.487   0.448   0.451
 5191TIP3    H115579   1.552   0.474   0.517
 5191TIP3    H215580   1.534   0.453   0.368
 5192TIP3   OH215581   2.010   0.279   4.098
 5192TIP3    H115582   2.093   0.251   4.138
 5192TIP3    H215583   1.944   0.220   4.135
 5193TIP3   OH215584   3.065   4.947   0.699
 5193TIP3    H115585   3.112   5.007   0.641
 5193TIP3    H215586   3.116   4.866   0.695
 5194TIP3   OH215587   5.980   3.137   3.683
 5194TIP3    H115588   5.930   3.154   3.763
 5194TIP3    H215589   5.963   3.045   3.663
 5195TIP3   OH215590   5.480   2.102   1.491
 5195TIP3    H115591   5.521   2.173   1.542
 5195TIP3    H215592   5.532   2.025   1.512
 5196TIP3   OH215593   1.065   3.990   2.785
 5196TIP3    H115594   1.041   3.944   2.704
 5196TIP3    H215595   1.145   4.038   2.763
 5197TIP3   OH215596   4.213   5.928   3.938
 5197TIP3    H115597   4.282   5.873   3.900
 5197TIP3    H215598   4.231   6.016   3.905
 5198TIP3   OH215599   5.716   1.707   3.742
 5198TIP3    H115600   5.724   1.780   3.803
 5198TIP3    H215601   5.740   1.630   3.793
 5199TIP3   OH215602   2.639   1.813   4.426
 5199TIP3    H115603   2.588   1.894   4.431
 5199TIP3    H215604   2.654   1.800   4.333
 5200TIP3   OH215605   2.924   2.476   3.021
 5200TIP3    H115606   2.881   2.391   3.035
 5200TIP3    H215607   2.874   2.517   2.951
 5201TIP3   OH215608   3.566   5.936   4.035
 5201TIP3    H115609   3.579   5.865   4.097
 5201TIP3    H215610   3.620   5.912   3.959
 5202TIP3   OH215611   6.003   2.723   3.866
 5202TIP3    H115612   6.079   2.671   3.838
 5202TIP3    H215613   5.930   2.660   3.867
 5203TIP3   OH215614   2.554   5.702   5.063
 5203TIP3    H115615   2.470   5.658   5.075
 5203TIP3    H215616   2.611   5.666   5.131
 5204TIP3   OH215617   0.433   3.889   0.084
 5204TIP3    H115618   0.505   3.835   0.052
 5204TIP3    H215619   0.367   3.885   0.014
 5205TIP3   OH215620   5.503   5.173   4.915
 5205TIP3    H115621   5.411   5.147   4.912
 5205TIP3    H215622   5.510   5.226   4.995
 5206TIP3   OH215623   2.769   1.055   3.115
 5206TIP3    H115624   2.746   1.061   3.022
 5206TIP3    H215625   2.848   1.000   3.117
 5207TIP3   OH215626   0.296   4.636   4.385
 5207TIP3    H115627   0.246   4.701   4.434
 5207TIP3    H215628   0.316   4.679   4.302
 5208TIP3   OH215629   3.026   2.067   1.930
 5208TIP3    H115630   3.065   2.136   1.985
 5208TIP3    H215631   3.098   2.006   1.914
 5209TIP3   OH215632   5.052   2.063   0.965
 5209TIP3    H115633   5.029   2.066   1.058
 5209TIP3    H215634   5.129   2.007   0.961
 5210TIP3   OH215635   4.799   4.363   4.341
 5210TIP3    H115636   4.851   4.283   4.330
 5210TIP3    H215637   4.712   4.332   4.367
 5211TIP3   OH215638   1.282   1.691   5.119
 5211TIP3    H115639   1.361   1.739   5.145
 5211TIP3    H215640   1.305   1.649   5.037
 5212TIP3   OH215641   3.451   1.776   5.040
 5212TIP3    H115642   3.454   1.830   5.119
 5212TIP3    H215643   3.361   1.743   5.036
 5213TIP3   OH215644   1.372   3.656   5.129
 5213TIP3    H115645   1.329   3.693   5.206
 5213TIP3    H215646   1.337   3.567   5.122
 5214TIP3   OH215647   5.920   1.726   0.941
 5214TIP3    H115648   6.007   1.703   0.908
 5214TIP3    H215649   5.928   1.724   1.036
 5215TIP3   OH215650   4.499   0.609   1.056
 5215TIP3    H115651   4.440   0.683   1.041
 5215TIP3    H215652   4.556   0.608   0.978
 5216TIP3   OH215653   2.199   0.119   4.609
 5216TIP3    H115654   2.276   0.174   4.596
 5216TIP3    H215655   2.148   0.166   4.675
 5217TIP3   OH215656   1.343   2.199   4.088
 5217TIP3    H115657   1.338   2.120   4.141
 5217TIP3    H215658   1.345   2.271   4.152
 5218TIP3   OH215659   5.077   3.910   2.473
 5218TIP3    H115660   5.106   3.865   2.552
 5218TIP3    H215661   4.988   3.939   2.494
 5219TIP3   OH215662   6.203   4.060   4.126
 5219TIP3    H115663   6.288   4.034   4.089
 5219TIP3    H215664   6.150   4.086   4.051
 5220TIP3   OH215665   5.625   1.649   1.195
 5220TIP3    H115666   5.681   1.665   1.270
 5220TIP3    H215667   5.644   1.558   1.171
 5221TIP3   OH215668   3.710   4.517   2.541
 5221TIP3    H115669   3.704   4.485   2.631
 5221TIP3    H215670   3.687   4.441   2.487
 5222TIP3   OH215671   0.365   5.718   2.677
 5222TIP3    H115672   0.369   5.772   2.599
 5222TIP3    H215673   0.327   5.635   2.647
 5223TIP3   OH215674   5.532   1.958   4.269
 5223TIP3    H115675   5.438   1.973   4.277
 5223TIP3    H215676   5.567   2.042   4.241
 5224TIP3   OH215677   6.278   4.652   3.516
 5224TIP3    H115678   6.218   4.630   3.588
 5224TIP3    H215679   6.332   4.573   3.506
 5225TIP3   OH215680   1.409   5.936   4.284
 5225TIP3    H115681   1.430   5.863   4.226
 5225TIP3    H215682   1.434   6.014   4.236
 5226TIP3   OH215683   4.099   4.006   2.495
 5226TIP3    H115684   4.154   4.034   2.569
 5226TIP3    H215685   4.045   3.936   2.530
 5227TIP3   OH215686   5.877   0.794   2.289
 5227TIP3    H115687   5.885   0.882   2.325
 5227TIP3    H215688   5.962   0.754   2.303
 5228TIP3   OH215689   0.523   5.383   0.219
 5228TIP3    H115690   0.433   5.409   0.198
 5228TIP3    H215691   0.563   5.364   0.134
 5229TIP3   OH215692   4.648   3.017   1.341
 5229TIP3    H115693   4.711   3.088   1.343
 5229TIP3    H215694   4.626   3.002   1.433
 5230TIP3   OH215695   4.460   1.997   0.246
 5230TIP3    H115696   4.401   2.040   0.309
 5230TIP3    H215697   4.468   2.060   0.174
 5231TIP3   OH215698   2.642   0.130   2.148
 5231TIP3    H115699   2.703   0.148   2.220
 5231TIP3    H215700   2.641   0.035   2.140
 5232TIP3   OH215701   3.590   3.458   0.735
 5232TIP3    H115702   3.527   3.409   0.788
 5232TIP3    H215703   3.662   3.397   0.720
 5233TIP3   OH215704   5.781   3.704   2.701
 5233TIP3    H115705   5.686   3.716   2.706
 5233TIP3    H215706   5.799   3.703   2.607
 5234TIP3   OH215707   2.489   4.072   3.609
 5234TIP3    H115708   2.493   4.163   3.577
 5234TIP3    H215709   2.575   4.058   3.649
 5235TIP3   OH215710   5.255   0.498   0.846
 5235TIP3    H115711   5.303   0.564   0.896
 5235TIP3    H215712   5.237   0.428   0.909
 5236TIP3   OH215713   5.367   4.481   1.617
 5236TIP3    H115714   5.350   4.390   1.642
 5236TIP3    H215715   5.281   4.515   1.590
 5237TIP3   OH215716   4.136   5.597   0.041
 5237TIP3    H115717   4.107   5.684   0.067
 5237TIP3    H215718   4.205   5.575   0.103
 5238TIP3   OH215719   0.950   5.806   0.553
 5238TIP3    H115720   0.967   5.765   0.468
 5238TIP3    H215721   1.017   5.769   0.611
 5239TIP3   OH215722   1.376   3.295   0.403
 5239TIP3    H115723   1.287   3.323   0.383
 5239TIP3    H215724   1.375   3.200   0.386
 5240TIP3   OH215725   2.474   2.546   1.101
 5240TIP3    H115726   2.473   2.591   1.017
 5240TIP3    H215727   2.486   2.454   1.079
 5241TIP3   OH215728   1.267   0.269   2.667
 5241TIP3    H115729   1.268   0.312   2.752
 5241TIP3    H215730   1.297   0.337   2.606
 5242TIP3   OH215731   5.901   3.450   2.785
 5242TIP3    H115732   5.950   3.514   2.837
 5242TIP3    H215733   5.817   3.493   2.767
 5243TIP3   OH215734   0.149   3.079   1.332
 5243TIP3    H115735   0.088   3.074   1.258
 5243TIP3    H215736   0.197   2.996   1.329
 5244TIP3   OH215737   2.653   5.942   3.324
 5244TIP3    H115738   2.585   5.892   3.280
 5244TIP3    H215739   2.616   5.964   3.409
 5245TIP3   OH215740   0.979   3.581   1.361
 5245TIP3    H115741   0.948   3.546   1.445
 5245TIP3    H215742   0.905   3.571   1.302
 5246TIP3   OH215743   2.449   0.878   1.487
 5246TIP3    H115744   2.391   0.946   1.521
 5246TIP3    H215745   2.394   0.800   1.483
 5247TIP3   OH215746   0.907   1.469   1.388
 5247TIP3    H115747   0.877   1.483   1.298
 5247TIP3    H215748   0.879   1.548   1.434
 5248TIP3   OH215749   6.194   1.451   4.496
 5248TIP3    H115750   6.184   1.358   4.518
 5248TIP3    H215751   6.108   1.476   4.461
 5249TIP3   OH215752   3.381   2.581   0.178
 5249TIP3    H115753   3.368   2.524   0.253
 5249TIP3    H215754   3.293   2.599   0.145
 5250TIP3   OH215755   6.042   3.688   2.933
 5250TIP3    H115756   5.992   3.768   2.943
 5250TIP3    H215757   6.124   3.704   2.981
 5251TIP3   OH215758   2.595   2.062   4.668
 5251TIP3    H115759   2.528   2.063   4.600
 5251TIP3    H215760   2.552   2.100   4.744
 5252TIP3   OH215761   5.821   3.798   4.248
 5252TIP3    H115762   5.726   3.799   4.260
 5252TIP3    H215763   5.849   3.715   4.285
 5253TIP3   OH215764   2.903   5.225   3.725
 5253TIP3    H115765   2.939   5.301   3.679
 5253TIP3    H215766   2.968   5.156   3.714
 5254TIP3   OH215767   3.179   3.793   4.718
 5254TIP3    H115768   3.118   3.854   4.677
 5254TIP3    H215769   3.196   3.831   4.805
 5255TIP3   OH215770   0.975   5.913   1.201
 5255TIP3    H115771   0.980   6.004   1.172
 5255TIP3    H215772   1.066   5.883   1.201
 5256TIP3   OH215773   1.281   0.355   5.151
 5256TIP3    H115774   1.234   0.276   5.127
 5256TIP3    H215775   1.355   0.324   5.204
 5257TIP3   OH215776   6.023   4.792   4.643
 5257TIP3    H115777   6.015   4.840   4.561
 5257TIP3    H215778   6.076   4.716   4.622
 5258TIP3   OH215779   1.007   4.722   2.121
 5258TIP3    H115780   0.933   4.781   2.105
 5258TIP3    H215781   0.970   4.634   2.109
 5259TIP3   OH215782   4.531   1.307   5.098
 5259TIP3    H115783   4.473   1.383   5.104
 5259TIP3    H215784   4.617   1.340   5.124
 5260TIP3   OH215785   2.345   4.717   2.161
 5260TIP3    H115786   2.286   4.730   2.087
 5260TIP3    H215787   2.296   4.662   2.221
 5261TIP3   OH215788   6.248   1.555   4.888
 5261TIP3    H115789   6.249   1.465   4.854
 5261TIP3    H215790   6.287   1.607   4.818
 5262TIP3   OH215791   0.823   4.153   1.532
 5262TIP3    H115792   0.815   4.244   1.563
 5262TIP3    H215793   0.863   4.107   1.606
 5263TIP3   OH215794   3.840   0.228   3.432
 5263TIP3    H115795   3.935   0.236   3.444
 5263TIP3    H215796   3.831   0.178   3.351
 5264TIP3   OH215797   2.713   0.110   1.188
 5264TIP3    H115798   2.764   0.160   1.252
 5264TIP3    H215799   2.755   0.128   1.105
 5265TIP3   OH215800   0.784   1.579   2.336
 5265TIP3    H115801   0.784   1.548   2.426
 5265TIP3    H215802   0.704   1.631   2.328
 5266TIP3   OH215803   6.143   3.367   2.488
 5266TIP3    H115804   6.048   3.378   2.486
 5266TIP3    H215805   6.177   3.456   2.481
 5267TIP3   OH215806   2.139   2.818   3.466
 5267TIP3    H115807   2.152   2.886   3.400
 5267TIP3    H215808   2.060   2.772   3.438
 5268TIP3   OH215809   0.668   1.309   3.861
 5268TIP3    H115810   0.762   1.314   3.844
 5268TIP3    H215811   0.661   1.259   3.943
 5269TIP3   OH215812   4.842   4.733   1.757
 5269TIP3    H115813   4.803   4.650   1.728
 5269TIP3    H215814   4.875   4.773   1.677
 5270TIP3   OH215815   1.060   0.107   1.578
 5270TIP3    H115816   0.997   0.041   1.549
 5270TIP3    H215817   1.045   0.182   1.521
 5271TIP3   OH215818   5.651   1.504   0.288
 5271TIP3    H115819   5.691   1.555   0.218
 5271TIP3    H215820   5.706   1.519   0.364
 5272TIP3   OH215821   4.171   4.442   0.385
 5272TIP3    H115822   4.108   4.507   0.354
 5272TIP3    H215823   4.130   4.403   0.462
 5273TIP3   OH215824   4.523   0.255   1.455
 5273TIP3    H115825   4.514   0.332   1.399
 5273TIP3    H215826   4.470   0.275   1.532
 5274TIP3   OH215827   2.063   0.657   4.291
 5274TIP3    H115828   2.106   0.573   4.283
 5274TIP3    H215829   2.127   0.721   4.260
 5275TIP3   OH215830   3.756   0.307   1.673
 5275TIP3    H115831   3.764   0.242   1.603
 5275TIP3    H215832   3.790   0.262   1.751
 5276TIP3   OH215833   1.140   0.818   4.806
 5276TIP3    H115834   1.234   0.823   4.824
 5276TIP3    H215835   1.104   0.767   4.879
 5277TIP3   OH215836   4.422   3.539   4.569
 5277TIP3    H115837   4.390   3.582   4.649
 5277TIP3    H215838   4.464   3.459   4.600
 5278TIP3   OH215839   3.389   4.847   4.231
 5278TIP3    H115840   3.454   4.913   4.208
 5278TIP3    H215841   3.405   4.829   4.324
 5279TIP3   OH215842   4.335   5.028   1.719
 5279TIP3    H115843   4.406   4.997   1.776
 5279TIP3    H215844   4.307   4.950   1.671
 5280TIP3   OH215845   1.523   5.049   0.156
 5280TIP3    H115846   1.450   5.109   0.142
 5280TIP3    H215847   1.494   4.992   0.227
 5281TIP3   OH215848   4.618   4.310   3.230
 5281TIP3    H115849   4.529   4.325   3.262
 5281TIP3    H215850   4.661   4.262   3.301
 5282TIP3   OH215851   0.496   2.136   4.817
 5282TIP3    H115852   0.419   2.105   4.769
 5282TIP3    H215853   0.569   2.119   4.757
 5283TIP3   OH215854   0.041   0.151   0.306
 5283TIP3    H115855   0.082   0.232   0.335
 5283TIP3    H215856  -0.052   0.162   0.324
 5284TIP3   OH215857   1.650   5.781   3.124
 5284TIP3    H115858   1.643   5.783   3.219
 5284TIP3    H215859   1.688   5.696   3.104
 5285TIP3   OH215860   6.036   5.778   1.841
 5285TIP3    H115861   6.039   5.794   1.746
 5285TIP3    H215862   5.973   5.842   1.874
 5286TIP3   OH215863   1.754   1.850   5.061
 5286TIP3    H115864   1.742   1.769   5.013
 5286TIP3    H215865   1.831   1.835   5.115
 5287TIP3   OH215866   0.119   2.134   1.000
 5287TIP3    H115867   0.147   2.093   0.918
 5287TIP3    H215868   0.074   2.214   0.973
 5288TIP3   OH215869   1.733   2.502   1.584
 5288TIP3    H115870   1.795   2.490   1.656
 5288TIP3    H215871   1.739   2.595   1.562
 5289TIP3   OH215872   5.026   5.599   0.760
 5289TIP3    H115873   5.047   5.646   0.679
 5289TIP3    H215874   5.109   5.594   0.807
 5290TIP3   OH215875   1.357   3.391   3.579
 5290TIP3    H115876   1.380   3.481   3.603
 5290TIP3    H215877   1.267   3.396   3.548
 5291TIP3   OH215878   4.446   2.860   1.954
 5291TIP3    H115879   4.519   2.802   1.930
 5291TIP3    H215880   4.465   2.888   2.043
 5292TIP3   OH215881   0.117   0.480   0.045
 5292TIP3    H115882   0.026   0.481   0.075
 5292TIP3    H215883   0.168   0.454   0.122
 5293TIP3   OH215884   3.712   2.880   1.557
 5293TIP3    H115885   3.620   2.884   1.583
 5293TIP3    H215886   3.711   2.888   1.462
 5294TIP3   OH215887   1.461   1.038   5.090
 5294TIP3    H115888   1.488   1.046   5.181
 5294TIP3    H215889   1.518   1.099   5.042
 5295TIP3   OH215890   3.253   2.925   4.280
 5295TIP3    H115891   3.299   2.842   4.295
 5295TIP3    H215892   3.164   2.908   4.308
 5296TIP3   OH215893   6.342   3.384   0.522
 5296TIP3    H115894   6.284   3.385   0.598
 5296TIP3    H215895   6.377   3.473   0.517
 5297TIP3   OH215896   2.078   1.976   0.442
 5297TIP3    H115897   2.169   2.008   0.437
 5297TIP3    H215898   2.025   2.051   0.412
 5298TIP3   OH215899   1.344   4.115   4.171
 5298TIP3    H115900   1.368   4.065   4.250
 5298TIP3    H215901   1.258   4.153   4.193
 5299TIP3   OH215902   3.984   4.168   3.281
 5299TIP3    H115903   3.910   4.116   3.249
 5299TIP3    H215904   4.037   4.106   3.330
 5300TIP3   OH215905   3.726   1.757   1.123
 5300TIP3    H115906   3.791   1.826   1.110
 5300TIP3    H215907   3.775   1.676   1.119
 5301TIP3   OH215908   0.346   2.818   0.305
 5301TIP3    H115909   0.366   2.729   0.278
 5301TIP3    H215910   0.251   2.827   0.290
 5302TIP3   OH215911   5.504   0.284   1.427
 5302TIP3    H115912   5.476   0.363   1.473
 5302TIP3    H215913   5.588   0.307   1.388
 5303TIP3   OH215914   5.524   2.134   2.876
 5303TIP3    H115915   5.464   2.064   2.902
 5303TIP3    H215916   5.557   2.169   2.959
 5304TIP3   OH215917   0.706   3.907   2.652
 5304TIP3    H115918   0.767   3.837   2.676
 5304TIP3    H215919   0.681   3.947   2.735
 5305TIP3   OH215920   4.887   5.104   0.768
 5305TIP3    H115921   4.916   5.016   0.743
 5305TIP3    H215922   4.894   5.105   0.864
 5306TIP3   OH215923   2.729   3.620   1.786
 5306TIP3    H115924   2.808   3.591   1.831
 5306TIP3    H215925   2.657   3.589   1.843
 5307TIP3   OH215926   3.009   5.478   3.980
 5307TIP3    H115927   3.040   5.402   3.931
 5307TIP3    H215928   3.026   5.456   4.071
 5308TIP3   OH215929   0.188   1.535   3.457
 5308TIP3    H115930   0.123   1.603   3.437
 5308TIP3    H215931   0.180   1.522   3.551
 5309TIP3   OH215932   6.170   4.566   0.332
 5309TIP3    H115933   6.243   4.627   0.321
 5309TIP3    H215934   6.109   4.589   0.261
 5310TIP3   OH215935   0.813   3.947   3.473
 5310TIP3    H115936   0.826   4.041   3.474
 5310TIP3    H215937   0.799   3.925   3.381
 5311TIP3   OH215938   4.218   1.193   0.019
 5311TIP3    H115939   4.259   1.153  -0.058
 5311TIP3    H215940   4.249   1.139   0.092
 5312TIP3   OH215941   4.646   3.658   1.784
 5312TIP3    H115942   4.606   3.723   1.841
 5312TIP3    H215943   4.595   3.578   1.800
 5313TIP3   OH215944   3.894   3.635   1.603
 5313TIP3    H115945   3.805   3.615   1.572
 5313TIP3    H215946   3.892   3.729   1.619
 5314TIP3   OH215947   3.399   5.339   0.652
 5314TIP3    H115948   3.459   5.415   0.650
 5314TIP3    H215949   3.408   5.305   0.741
 5315TIP3   OH215950   2.968   5.430   3.043
 5315TIP3    H115951   2.877   5.438   3.071
 5315TIP3    H215952   3.013   5.501   3.089
 5316TIP3   OH215953   1.237   2.532   2.009
 5316TIP3    H115954   1.311   2.579   1.973
 5316TIP3    H215955   1.240   2.446   1.967
 5317TIP3   OH215956   4.430   3.814   0.562
 5317TIP3    H115957   4.344   3.821   0.604
 5317TIP3    H215958   4.451   3.903   0.534
 5318TIP3   OH215959   1.843   0.904   3.528
 5318TIP3    H115960   1.776   0.869   3.469
 5318TIP3    H215961   1.878   0.980   3.482
 5319TIP3   OH215962   4.633   5.282   3.224
 5319TIP3    H115963   4.686   5.286   3.144
 5319TIP3    H215964   4.635   5.371   3.259
 5320TIP3   OH215965   0.856   0.630   3.591
 5320TIP3    H115966   0.945   0.603   3.568
 5320TIP3    H215967   0.867   0.717   3.629
 5321TIP3   OH215968   2.286   0.819   2.215
 5321TIP3    H115969   2.319   0.764   2.286
 5321TIP3    H215970   2.363   0.863   2.180
 5322TIP3   OH215971   1.297   2.316   4.744
 5322TIP3    H115972   1.324   2.385   4.683
 5322TIP3    H215973   1.368   2.312   4.808
 5323TIP3   OH215974   3.368   1.208   5.175
 5323TIP3    H115975   3.397   1.298   5.193
 5323TIP3    H215976   3.277   1.216   5.150
 5324TIP3   OH215977   0.769   4.130   4.155
 5324TIP3    H115978   0.857   4.150   4.122
 5324TIP3    H215979   0.758   4.189   4.229
 5325TIP3   OH215980   4.866   1.820   2.120
 5325TIP3    H115981   4.934   1.879   2.154
 5325TIP3    H215982   4.900   1.790   2.036
 5326TIP3   OH215983   2.435   2.833   1.517
 5326TIP3    H115984   2.515   2.795   1.555
 5326TIP3    H215985   2.442   2.926   1.536
 5327TIP3   OH215986   1.232   0.741   0.850
 5327TIP3    H115987   1.142   0.762   0.874
 5327TIP3    H215988   1.272   0.826   0.832
 5328TIP3   OH215989   2.013   0.284   3.052
 5328TIP3    H115990   1.946   0.229   3.012
 5328TIP3    H215991   2.082   0.289   2.986
 5329TIP3   OH215992   2.460   2.045   2.086
 5329TIP3    H115993   2.532   1.983   2.077
 5329TIP3    H215994   2.478   2.113   2.021
 5330TIP3   OH215995   3.940   2.339   3.063
 5330TIP3    H115996   3.935   2.435   3.065
 5330TIP3    H215997   3.945   2.318   2.970
 5331TIP3   OH215998   2.728   3.204   2.232
 5331TIP3    H115999   2.785   3.244   2.299
 5331TIP3    H216000   2.766   3.118   2.217
 5332TIP3   OH216001   0.800   1.695   1.522
 5332TIP3    H116002   0.738   1.680   1.594
 5332TIP3    H216003   0.775   1.780   1.487
 5333TIP3   OH216004   1.384   5.716   4.777
 5333TIP3    H116005   1.392   5.698   4.684
 5333TIP3    H216006   1.381   5.812   4.783
 5334TIP3   OH216007   5.332   1.155   5.076
 5334TIP3    H116008   5.414   1.202   5.091
 5334TIP3    H216009   5.334   1.131   4.983
 5335TIP3   OH216010   2.901   1.097   1.701
 5335TIP3    H116011   2.875   1.047   1.779
 5335TIP3    H216012   2.824   1.097   1.645
 5336TIP3   OH216013   3.516   5.399   3.840
 5336TIP3    H116014   3.461   5.388   3.919
 5336TIP3    H216015   3.533   5.310   3.811
 5337TIP3   OH216016   2.653   0.303   4.691
 5337TIP3    H116017   2.677   0.333   4.778
 5337TIP3    H216018   2.706   0.355   4.631
 5338TIP3   OH216019   4.860   3.444   2.767
 5338TIP3    H116020   4.859   3.413   2.857
 5338TIP3    H216021   4.820   3.531   2.771
 5339TIP3   OH216022   5.478   4.266   2.463
 5339TIP3    H116023   5.429   4.199   2.415
 5339TIP3    H216024   5.556   4.282   2.410
 5340TIP3   OH216025   0.999   0.030   3.845
 5340TIP3    H116026   0.962  -0.025   3.915
 5340TIP3    H216027   0.999  -0.027   3.768
 5341TIP3   OH216028   4.879   1.399   4.063
 5341TIP3    H116029   4.839   1.465   4.119
 5341TIP3    H216030   4.815   1.385   3.993
 5342TIP3   OH216031   5.967   5.949   4.455
 5342TIP3    H116032   5.888   5.899   4.434
 5342TIP3    H216033   5.934   6.030   4.494
 5343TIP3   OH216034   4.898   1.854   3.964
 5343TIP3    H116035   4.917   1.880   4.054
 5343TIP3    H216036   4.809   1.818   3.966
 5344TIP3   OH216037   3.990   4.850   0.195
 5344TIP3    H116038   4.043   4.929   0.205
 5344TIP3    H216039   3.900   4.882   0.192
 5345TIP3   OH216040   3.288   4.127   3.763
 5345TIP3    H116041   3.324   4.038   3.758
 5345TIP3    H216042   3.247   4.141   3.678
 5346TIP3   OH216043   3.495   1.683   1.979
 5346TIP3    H116044   3.522   1.591   1.978
 5346TIP3    H216045   3.534   1.718   2.059
 5347TIP3   OH216046   3.375   3.394   3.110
 5347TIP3    H116047   3.390   3.343   3.190
 5347TIP3    H216048   3.362   3.327   3.042
 5348TIP3   OH216049   5.174   5.652   2.503
 5348TIP3    H116050   5.187   5.716   2.433
 5348TIP3    H216051   5.245   5.670   2.565
 5349TIP3   OH216052   5.684   4.945   3.728
 5349TIP3    H116053   5.627   4.869   3.722
 5349TIP3    H216054   5.740   4.940   3.651
 5350TIP3   OH216055   1.785   4.492   2.809
 5350TIP3    H116056   1.839   4.460   2.736
 5350TIP3    H216057   1.704   4.441   2.802
 5351TIP3   OH216058   4.083   5.793   1.107
 5351TIP3    H116059   4.013   5.828   1.052
 5351TIP3    H216060   4.160   5.793   1.051
 5352TIP3   OH216061   1.948   4.382   3.313
 5352TIP3    H116062   1.978   4.393   3.222
 5352TIP3    H216063   1.853   4.377   3.306
 5353TIP3   OH216064   5.328   5.725   3.096
 5353TIP3    H116065   5.246   5.728   3.143
 5353TIP3    H216066   5.309   5.766   3.011
 5354TIP3   OH216067   3.885   3.441   1.782
 5354TIP3    H116068   3.815   3.377   1.772
 5354TIP3    H216069   3.861   3.512   1.721
 5355TIP3   OH216070   5.061   0.786   4.019
 5355TIP3    H116071   5.097   0.781   4.108
 5355TIP3    H216072   4.973   0.749   4.027
 5356TIP3   OH216073   1.553   0.729   2.018
 5356TIP3    H116074   1.629   0.775   2.051
 5356TIP3    H216075   1.522   0.676   2.092
 5357TIP3   OH216076   4.742   2.462   1.067
 5357TIP3    H116077   4.738   2.368   1.051
 5357TIP3    H216078   4.827   2.489   1.033
 5358TIP3   OH216079   2.212   1.526   2.224
 5358TIP3    H116080   2.285   1.555   2.279
 5358TIP3    H216081   2.134   1.545   2.276
 5359TIP3   OH216082   3.879   4.268   1.665
 5359TIP3    H116083   3.902   4.336   1.602
 5359TIP3    H216084   3.959   4.216   1.674
 5360TIP3   OH216085   3.995   2.541   0.132
 5360TIP3    H116086   4.023   2.455   0.102
 5360TIP3    H216087   3.939   2.522   0.208
 5361TIP3   OH216088   5.733   5.190   0.485
 5361TIP3    H116089   5.789   5.170   0.560
 5361TIP3    H216090   5.699   5.278   0.504
 5362TIP3   OH216091   0.491   1.634   0.578
 5362TIP3    H116092   0.529   1.712   0.619
 5362TIP3    H216093   0.561   1.601   0.522
 5363TIP3   OH216094   2.923   4.130   1.830
 5363TIP3    H116095   2.896   4.222   1.827
 5363TIP3    H216096   2.855   4.088   1.884
 5364TIP3   OH216097   3.442   2.664   2.259
 5364TIP3    H116098   3.493   2.586   2.236
 5364TIP3    H216099   3.433   2.712   2.177
 5365TIP3   OH216100   3.507   0.403   3.455
 5365TIP3    H116101   3.491   0.497   3.464
 5365TIP3    H216102   3.540   0.393   3.366
 5366TIP3   OH216103   3.055   0.877   3.482
 5366TIP3    H116104   3.033   0.966   3.511
 5366TIP3    H216105   3.139   0.859   3.524
 5367TIP3   OH216106   0.780   1.101   2.156
 5367TIP3    H116107   0.723   1.096   2.079
 5367TIP3    H216108   0.788   1.194   2.173
 5368TIP3   OH216109   5.870   3.376   2.384
 5368TIP3    H116110   5.857   3.284   2.365
 5368TIP3    H216111   5.810   3.396   2.456
 5369TIP3   OH216112   1.054   4.798   4.078
 5369TIP3    H116113   0.960   4.804   4.059
 5369TIP3    H216114   1.077   4.709   4.051
 5370TIP3   OH216115   5.739   4.350   2.366
 5370TIP3    H116116   5.755   4.317   2.277
 5370TIP3    H216117   5.800   4.302   2.421
 5371TIP3   OH216118   5.697   0.900   2.542
 5371TIP3    H116119   5.732   0.866   2.625
 5371TIP3    H216120   5.750   0.857   2.475
 5372TIP3   OH216121   5.426   1.718   3.866
 5372TIP3    H116122   5.463   1.631   3.882
 5372TIP3    H216123   5.331   1.705   3.874
 5373TIP3   OH216124   1.452   5.309   1.680
 5373TIP3    H116125   1.545   5.295   1.695
 5373TIP3    H216126   1.448   5.359   1.598
 5374TIP3   OH216127   3.668   4.475   2.814
 5374TIP3    H116128   3.731   4.531   2.859
 5374TIP3    H216129   3.701   4.386   2.827
 5375TIP3   OH216130   0.813   4.869   2.738
 5375TIP3    H116131   0.721   4.842   2.733
 5375TIP3    H216132   0.813   4.959   2.706
 5376TIP3   OH216133   5.793   0.183   4.873
 5376TIP3    H116134   5.722   0.121   4.888
 5376TIP3    H216135   5.809   0.222   4.958
 5377TIP3   OH216136   6.098   3.989   1.041
 5377TIP3    H116137   6.095   4.024   0.952
 5377TIP3    H216138   6.011   4.008   1.076
 5378TIP3   OH216139   0.655   2.279   0.213
 5378TIP3    H116140   0.709   2.227   0.153
 5378TIP3    H216141   0.718   2.333   0.260
 5379TIP3   OH216142   4.368   2.403   2.210
 5379TIP3    H116143   4.299   2.468   2.197
 5379TIP3    H216144   4.378   2.362   2.124
 5380TIP3   OH216145   3.572   3.347   4.309
 5380TIP3    H116146   3.661   3.359   4.343
 5380TIP3    H216147   3.515   3.363   4.384
 5381TIP3   OH216148   5.123   4.216   1.138
 5381TIP3    H116149   5.149   4.292   1.191
 5381TIP3    H216150   5.177   4.222   1.059
 5382TIP3   OH216151   1.530   0.519   1.646
 5382TIP3    H116152   1.524   0.459   1.721
 5382TIP3    H216153   1.568   0.466   1.576
 5383TIP3   OH216154   2.271   2.161   4.139
 5383TIP3    H116155   2.256   2.253   4.158
 5383TIP3    H216156   2.197   2.135   4.084
 5384TIP3   OH216157   3.033   3.991   3.389
 5384TIP3    H116158   3.043   3.915   3.446
 5384TIP3    H216159   2.939   4.008   3.389
 5385TIP3   OH216160   3.424   4.708   3.862
 5385TIP3    H116161   3.405   4.679   3.951
 5385TIP3    H216162   3.344   4.686   3.813
 5386TIP3   OH216163   0.014   4.472   1.605
 5386TIP3    H116164   0.012   4.550   1.660
 5386TIP3    H216165   0.107   4.457   1.588
 5387TIP3   OH216166   2.649   5.530   3.536
 5387TIP3    H116167   2.606   5.615   3.548
 5387TIP3    H216168   2.645   5.489   3.622
 5388TIP3   OH216169   3.337   0.565   2.681
 5388TIP3    H116170   3.326   0.613   2.599
 5388TIP3    H216171   3.374   0.630   2.741
 5389TIP3   OH216172   4.598   4.111   0.954
 5389TIP3    H116173   4.611   4.102   0.859
 5389TIP3    H216174   4.556   4.197   0.964
 5390TIP3   OH216175   0.178   0.520   1.143
 5390TIP3    H116176   0.097   0.499   1.189
 5390TIP3    H216177   0.211   0.435   1.113
 5391TIP3   OH216178   3.932   4.758   2.401
 5391TIP3    H116179   3.847   4.746   2.359
 5391TIP3    H216180   3.962   4.844   2.370
 5392TIP3   OH216181   3.955   3.331   2.881
 5392TIP3    H116182   3.928   3.316   2.972
 5392TIP3    H216183   4.003   3.414   2.884
 5393TIP3   OH216184   1.542   4.359   3.880
 5393TIP3    H116185   1.477   4.325   3.819
 5393TIP3    H216186   1.590   4.282   3.911
 5394TIP3   OH216187   2.217   2.140   3.517
 5394TIP3    H116188   2.173   2.206   3.463
 5394TIP3    H216189   2.309   2.162   3.513
 5395TIP3   OH216190   1.654   4.624   0.997
 5395TIP3    H116191   1.590   4.671   1.051
 5395TIP3    H216192   1.735   4.673   1.008
 5396TIP3   OH216193   4.545   5.488   1.978
 5396TIP3    H116194   4.560   5.582   1.967
 5396TIP3    H216195   4.515   5.479   2.068
 5397TIP3   OH216196   2.286   2.181   0.615
 5397TIP3    H116197   2.301   2.165   0.708
 5397TIP3    H216198   2.374   2.186   0.577
 5398TIP3   OH216199   2.015   5.628   3.986
 5398TIP3    H116200   1.971   5.572   3.923
 5398TIP3    H216201   2.031   5.572   4.062
 5399TIP3   OH216202   2.844   0.700   3.402
 5399TIP3    H116203   2.909   0.767   3.385
 5399TIP3    H216204   2.894   0.625   3.436
 5400TIP3   OH216205   2.653   3.638   3.257
 5400TIP3    H116206   2.653   3.722   3.211
 5400TIP3    H216207   2.616   3.657   3.343
 5401TIP3   OH216208   2.496   4.608   4.937
 5401TIP3    H116209   2.424   4.670   4.927
 5401TIP3    H216210   2.489   4.550   4.861
 5402TIP3   OH216211   5.899   4.935   3.086
 5402TIP3    H116212   5.825   4.979   3.129
 5402TIP3    H216213   5.926   4.996   3.017
 5403TIP3   OH216214   2.833   4.160   3.093
 5403TIP3    H116215   2.821   4.121   3.179
 5403TIP3    H216216   2.758   4.130   3.042
 5404TIP3   OH216217   3.456   5.229   0.931
 5404TIP3    H116218   3.387   5.282   0.971
 5404TIP3    H216219   3.536   5.259   0.974
 5405TIP3   OH216220   0.510   4.057   0.564
 5405TIP3    H116221   0.468   3.988   0.514
 5405TIP3    H216222   0.442   4.088   0.625
 5406TIP3   OH216223   5.994   0.328   1.240
 5406TIP3    H116224   5.967   0.264   1.306
 5406TIP3    H216225   6.019   0.275   1.164
 5407TIP3   OH216226   4.635   3.367   3.249
 5407TIP3    H116227   4.669   3.392   3.334
 5407TIP3    H216228   4.672   3.281   3.232
 5408TIP3   OH216229   4.875   5.032   3.596
 5408TIP3    H116230   4.928   5.010   3.519
 5408TIP3    H216231   4.784   5.027   3.565
 5409TIP3   OH216232   3.059   0.734   1.889
 5409TIP3    H116233   3.143   0.689   1.882
 5409TIP3    H216234   3.059   0.771   1.977
 5410TIP3   OH216235   2.936   2.094   2.736
 5410TIP3    H116236   2.911   2.171   2.686
 5410TIP3    H216237   2.999   2.048   2.680
 5411TIP3   OH216238   3.911   1.296  -0.008
 5411TIP3    H116239   3.836   1.355  -0.013
 5411TIP3    H216240   3.942   1.304   0.082
 5412TIP3   OH216241   5.055   0.786   2.743
 5412TIP3    H116242   5.063   0.692   2.727
 5412TIP3    H216243   5.060   0.794   2.838
 5413TIP3   OH216244   5.627   4.043   4.569
 5413TIP3    H116245   5.558   3.986   4.533
 5413TIP3    H216246   5.601   4.056   4.660
 5414TIP3   OH216247   0.711   4.071   0.773
 5414TIP3    H116248   0.661   4.079   0.854
 5414TIP3    H216249   0.654   4.109   0.706
 5415TIP3   OH216250   2.415   2.251   1.559
 5415TIP3    H116251   2.443   2.334   1.599
 5415TIP3    H216252   2.342   2.222   1.614
 5416TIP3   OH216253   4.893   5.142   3.286
 5416TIP3    H116254   4.927   5.150   3.197
 5416TIP3    H216255   4.836   5.065   3.283
 5417TIP3   OH216256   2.615   1.185   3.819
 5417TIP3    H116257   2.617   1.181   3.723
 5417TIP3    H216258   2.562   1.110   3.845
 5418TIP3   OH216259   5.017   3.522   0.811
 5418TIP3    H116260   4.925   3.530   0.836
 5418TIP3    H216261   5.043   3.436   0.845
 5419TIP3   OH216262   4.580   1.653   4.398
 5419TIP3    H116263   4.570   1.747   4.408
 5419TIP3    H216264   4.575   1.619   4.488
 5420TIP3   OH216265   3.698   4.661   1.846
 5420TIP3    H116266   3.687   4.709   1.764
 5420TIP3    H216267   3.785   4.623   1.840
 5421TIP3   OH216268   0.902   5.051   4.526
 5421TIP3    H116269   0.854   5.084   4.450
 5421TIP3    H216270   0.894   5.121   4.591
 5422TIP3   OH216271   4.937   4.367   3.744
 5422TIP3    H116272   4.967   4.322   3.824
 5422TIP3    H216273   5.010   4.358   3.683
 5423TIP3   OH216274   1.805   5.254   3.013
 5423TIP3    H116275   1.889   5.284   2.979
 5423TIP3    H216276   1.821   5.236   3.105
 5424TIP3   OH216277   2.895   3.621   0.424
 5424TIP3    H116278   2.968   3.680   0.403
 5424TIP3    H216279   2.907   3.600   0.516
 5425TIP3   OH216280   4.191   0.992   0.197
 5425TIP3    H116281   4.104   0.959   0.216
 5425TIP3    H216282   4.232   1.005   0.283
 5426TIP3   OH216283   3.175   0.170   0.355
 5426TIP3    H116284   3.266   0.149   0.332
 5426TIP3    H216285   3.165   0.137   0.444
 5427TIP3   OH216286   2.464   1.059   4.243
 5427TIP3    H116287   2.419   1.033   4.163
 5427TIP3    H216288   2.505   0.979   4.275
 5428TIP3   OH216289   2.576   5.236   3.029
 5428TIP3    H116290   2.561   5.185   2.949
 5428TIP3    H216291   2.607   5.321   2.997
 5429TIP3   OH216292   0.270   1.775   2.516
 5429TIP3    H116293   0.302   1.770   2.426
 5429TIP3    H216294   0.349   1.790   2.568
 5430TIP3   OH216295   4.977   1.437   3.398
 5430TIP3    H116296   5.019   1.517   3.365
 5430TIP3    H216297   4.884   1.450   3.378
 5431TIP3   OH216298   5.812   1.021   1.375
 5431TIP3    H116299   5.906   1.025   1.387
 5431TIP3    H216300   5.790   1.101   1.326
 5432TIP3   OH216301   3.357   1.146   0.365
 5432TIP3    H116302   3.357   1.181   0.275
 5432TIP3    H216303   3.298   1.204   0.413
 5433TIP3   OH216304   3.336   3.749   2.763
 5433TIP3    H116305   3.355   3.774   2.854
 5433TIP3    H216306   3.417   3.708   2.732
 5434TIP3   OH216307   0.243   3.134   1.589
 5434TIP3    H116308   0.180   3.130   1.517
 5434TIP3    H216309   0.273   3.225   1.589
 5435TIP3   OH216310   5.583   4.685   3.633
 5435TIP3    H116311   5.501   4.694   3.585
 5435TIP3    H216312   5.630   4.615   3.588
 5436TIP3   OH216313   4.789   0.379   2.365
 5436TIP3    H116314   4.732   0.426   2.425
 5436TIP3    H216315   4.779   0.287   2.390
 5437TIP3   OH216316   2.435   5.210   3.780
 5437TIP3    H116317   2.423   5.192   3.687
 5437TIP3    H216318   2.366   5.159   3.823
 5438TIP3   OH216319   5.944   5.539   3.492
 5438TIP3    H116320   5.881   5.591   3.543
 5438TIP3    H216321   5.894   5.510   3.416
 5439TIP3   OH216322   4.343   4.530   5.100
 5439TIP3    H116323   4.283   4.522   5.026
 5439TIP3    H216324   4.287   4.549   5.175
 5440TIP3   OH216325   4.246   3.862   3.932
 5440TIP3    H116326   4.184   3.930   3.907
 5440TIP3    H216327   4.287   3.894   4.012
 5441TIP3   OH216328   3.754   3.117   1.708
 5441TIP3    H116329   3.707   3.170   1.643
 5441TIP3    H216330   3.745   3.027   1.676
 5442TIP3   OH216331   6.249   0.165   2.102
 5442TIP3    H116332   6.294   0.158   2.187
 5442TIP3    H216333   6.243   0.075   2.070
 5443TIP3   OH216334   3.568   2.635   3.652
 5443TIP3    H116335   3.478   2.637   3.684
 5443TIP3    H216336   3.620   2.663   3.728
 5444TIP3   OH216337   1.391   0.634   0.139
 5444TIP3    H116338   1.486   0.622   0.132
 5444TIP3    H216339   1.355   0.563   0.086
 5445TIP3   OH216340   2.701   3.119   3.631
 5445TIP3    H116341   2.711   3.150   3.721
 5445TIP3    H216342   2.735   3.191   3.578
 5446TIP3   OH216343   4.141   2.589   1.093
 5446TIP3    H116344   4.106   2.538   1.167
 5446TIP3    H216345   4.067   2.644   1.066
 5447TIP3   OH216346   0.568   4.512   4.031
 5447TIP3    H116347   0.547   4.590   4.082
 5447TIP3    H216348   0.489   4.457   4.036
 5448TIP3   OH216349   2.707   2.649   4.031
 5448TIP3    H116350   2.730   2.726   4.082
 5448TIP3    H216351   2.754   2.660   3.948
 5449TIP3   OH216352   2.293   5.549   0.197
 5449TIP3    H116353   2.261   5.604   0.269
 5449TIP3    H216354   2.298   5.609   0.122
 5450TIP3   OH216355   6.123   4.255   3.005
 5450TIP3    H116356   6.174   4.191   2.956
 5450TIP3    H216357   6.187   4.304   3.057
 5451TIP3   OH216358   6.018   4.223   3.379
 5451TIP3    H116359   5.930   4.207   3.344
 5451TIP3    H216360   6.076   4.173   3.322
 5452TIP3   OH216361   3.126   3.442   1.263
 5452TIP3    H116362   3.203   3.460   1.317
 5452TIP3    H216363   3.104   3.527   1.224
 5453TIP3   OH216364   4.173   2.773   1.927
 5453TIP3    H116365   4.111   2.829   1.879
 5453TIP3    H216366   4.247   2.830   1.947
 5454TIP3   OH216367   4.133   2.547   2.065
 5454TIP3    H116368   4.154   2.614   2.000
 5454TIP3    H216369   4.110   2.597   2.144
 5455TIP3   OH216370   4.222   0.536   3.235
 5455TIP3    H116371   4.171   0.607   3.196
 5455TIP3    H216372   4.208   0.461   3.177
 5456TIP3   OH216373   1.062   1.729   3.370
 5456TIP3    H116374   1.064   1.825   3.373
 5456TIP3    H216375   1.144   1.702   3.409
 5457TIP3   OH216376   2.557   4.687   1.990
 5457TIP3    H116377   2.609   4.609   2.009
 5457TIP3    H216378   2.483   4.681   2.050
 5458TIP3   OH216379   1.229   4.186   1.554
 5458TIP3    H116380   1.180   4.159   1.476
 5458TIP3    H216381   1.321   4.184   1.526
 5459TIP3   OH216382   2.673   4.208   4.367
 5459TIP3    H116383   2.729   4.198   4.444
 5459TIP3    H216384   2.732   4.198   4.293
 5460TIP3   OH216385   2.323   1.276   5.101
 5460TIP3    H116386   2.257   1.344   5.088
 5460TIP3    H216387   2.275   1.194   5.096
 5461TIP3   OH216388   2.321   4.339   1.129
 5461TIP3    H116389   2.276   4.299   1.054
 5461TIP3    H216390   2.391   4.392   1.090
 5462TIP3   OH216391   4.868   3.018   1.989
 5462TIP3    H116392   4.865   2.953   1.919
 5462TIP3    H216393   4.939   3.077   1.963
 5463TIP3   OH216394   4.925   1.915   2.452
 5463TIP3    H116395   4.967   1.830   2.468
 5463TIP3    H216396   4.832   1.898   2.466
 5464TIP3   OH216397   2.438   0.211   1.144
 5464TIP3    H116398   2.530   0.207   1.169
 5464TIP3    H216399   2.394   0.247   1.221
 5465TIP3   OH216400   5.198   5.171   3.771
 5465TIP3    H116401   5.188   5.202   3.861
 5465TIP3    H216402   5.125   5.213   3.724
 5466TIP3   OH216403   0.702   1.455   4.671
 5466TIP3    H116404   0.608   1.443   4.662
 5466TIP3    H216405   0.728   1.503   4.592
 5467TIP3   OH216406   1.774   1.152   3.823
 5467TIP3    H116407   1.762   1.070   3.775
 5467TIP3    H216408   1.840   1.131   3.889
 5468TIP3   OH216409   5.257   1.685   2.102
 5468TIP3    H116410   5.317   1.749   2.063
 5468TIP3    H216411   5.212   1.647   2.027
 5469TIP3   OH216412   2.425   0.371   4.166
 5469TIP3    H116413   2.349   0.377   4.107
 5469TIP3    H216414   2.462   0.285   4.148
 5470TIP3   OH216415   1.899   3.373   4.441
 5470TIP3    H116416   1.971   3.415   4.487
 5470TIP3    H216417   1.833   3.442   4.432
 5471TIP3   OH216418   4.401   1.211   0.320
 5471TIP3    H116419   4.402   1.169   0.234
 5471TIP3    H216420   4.452   1.151   0.376
 5472TIP3   OH216421   2.778   5.583   3.775
 5472TIP3    H116422   2.696   5.632   3.777
 5472TIP3    H216423   2.821   5.604   3.858
 5473TIP3   OH216424   1.023   0.083   3.340
 5473TIP3    H116425   1.055   0.108   3.426
 5473TIP3    H216426   1.090   0.112   3.279
 5474TIP3   OH216427   5.453   0.983   4.191
 5474TIP3    H116428   5.471   0.947   4.104
 5474TIP3    H216429   5.363   0.955   4.211
 5475TIP3   OH216430   2.251   0.974   3.807
 5475TIP3    H116431   2.311   0.927   3.749
 5475TIP3    H216432   2.307   1.006   3.878
 5476TIP3   OH216433   0.286   3.482  -0.026
 5476TIP3    H116434   0.358   3.419  -0.016
 5476TIP3    H216435   0.210   3.438   0.012
 5477TIP3   OH216436   4.286   4.135   0.751
 5477TIP3    H116437   4.305   4.042   0.741
 5477TIP3    H216438   4.336   4.162   0.828
 5478TIP3   OH216439   3.401   0.325   1.787
 5478TIP3    H116440   3.455   0.246   1.782
 5478TIP3    H216441   3.313   0.296   1.766
 5479TIP3   OH216442   5.172   1.105   1.279
 5479TIP3    H116443   5.174   1.106   1.184
 5479TIP3    H216444   5.211   1.188   1.305
 5480TIP3   OH216445   3.288   0.292   0.635
 5480TIP3    H116446   3.335   0.258   0.711
 5480TIP3    H216447   3.217   0.230   0.620
 5481TIP3   OH216448   1.465   4.062   1.396
 5481TIP3    H116449   1.439   4.064   1.303
 5481TIP3    H216450   1.418   3.987   1.432
 5482TIP3   OH216451   4.112   2.054   3.810
 5482TIP3    H116452   4.169   1.989   3.852
 5482TIP3    H216453   4.104   2.123   3.875
 5483TIP3   OH216454   2.285   3.363   1.732
 5483TIP3    H116455   2.222   3.412   1.785
 5483TIP3    H216456   2.339   3.316   1.796
 5484TIP3   OH216457   4.768   3.518   0.954
 5484TIP3    H116458   4.784   3.495   1.045
 5484TIP3    H216459   4.673   3.529   0.947
 5485TIP3   OH216460   0.159   2.223   3.296
 5485TIP3    H116461   0.084   2.282   3.283
 5485TIP3    H216462   0.235   2.281   3.295
 5486TIP3   OH216463   3.053   1.114   1.088
 5486TIP3    H116464   2.968   1.156   1.077
 5486TIP3    H216465   3.039   1.023   1.059
 5487TIP3   OH216466   3.018   0.061   3.194
 5487TIP3    H116467   3.096   0.019   3.158
 5487TIP3    H216468   2.974   0.099   3.119
 5488TIP3   OH216469   2.637   5.269   4.737
 5488TIP3    H116470   2.668   5.358   4.754
 5488TIP3    H216471   2.661   5.253   4.646
 5489TIP3   OH216472   0.091   5.170   4.040
 5489TIP3    H116473   0.011   5.143   3.995
 5489TIP3    H216474   0.162   5.144   3.981
 5490TIP3   OH216475   3.330   2.888   4.730
 5490TIP3    H116476   3.400   2.899   4.794
 5490TIP3    H216477   3.374   2.852   4.653
 5491TIP3   OH216478   1.453   4.813   1.590
 5491TIP3    H116479   1.399   4.772   1.523
 5491TIP3    H216480   1.481   4.895   1.551
 5492TIP3   OH216481   2.782   5.962   4.496
 5492TIP3    H116482   2.713   5.944   4.432
 5492TIP3    H216483   2.777   6.056   4.511
 5493TIP3   OH216484   4.908   4.017   1.155
 5493TIP3    H116485   4.972   4.087   1.137
 5493TIP3    H216486   4.826   4.064   1.169
 5494TIP3   OH216487   6.118   4.462   3.335
 5494TIP3    H116488   6.050   4.519   3.371
 5494TIP3    H216489   6.086   4.373   3.353
 5495TIP3   OH216490   4.347   1.109   1.982
 5495TIP3    H116491   4.330   1.142   2.071
 5495TIP3    H216492   4.346   1.188   1.927
 5496TIP3   OH216493   3.960   2.464   4.764
 5496TIP3    H116494   3.906   2.402   4.715
 5496TIP3    H216495   3.976   2.421   4.848
 5497TIP3   OH216496   6.161   4.703   0.067
 5497TIP3    H116497   6.093   4.722   0.002
 5497TIP3    H216498   6.208   4.628   0.032
 5498TIP3   OH216499   0.898   2.082   3.099
 5498TIP3    H116500   0.970   2.130   3.140
 5498TIP3    H216501   0.886   2.005   3.154
 5499TIP3   OH216502   5.807   3.632   1.085
 5499TIP3    H116503   5.857   3.622   1.165
 5499TIP3    H216504   5.728   3.679   1.111
 5500TIP3   OH216505   4.790   3.595   4.628
 5500TIP3    H116506   4.819   3.604   4.718
 5500TIP3    H216507   4.809   3.504   4.605
 5501TIP3   OH216508   4.468   4.347   0.916
 5501TIP3    H116509   4.515   4.399   0.850
 5501TIP3    H216510   4.393   4.402   0.940
 5502TIP3   OH216511   4.573   2.578   1.654
 5502TIP3    H116512   4.617   2.617   1.730
 5502TIP3    H216513   4.610   2.490   1.648
 5503TIP3   OH216514   0.988   2.561   4.666
 5503TIP3    H116515   1.081   2.547   4.653
 5503TIP3    H216516   0.970   2.524   4.752
 5504TIP3   OH216517   2.826  -0.033   0.480
 5504TIP3    H116518   2.903   0.007   0.439
 5504TIP3    H216519   2.862  -0.104   0.534
 5505TIP3   OH216520   1.018   5.118   3.373
 5505TIP3    H116521   0.982   5.140   3.459
 5505TIP3    H216522   0.949   5.142   3.311
 5506TIP3   OH216523   5.512   3.883   4.095
 5506TIP3    H116524   5.531   3.848   4.183
 5506TIP3    H216525   5.462   3.814   4.052
 5507TIP3   OH216526   5.178   2.944   2.893
 5507TIP3    H116527   5.248   3.005   2.917
 5507TIP3    H216528   5.217   2.887   2.827
 5508TIP3   OH216529   5.338   2.487   0.454
 5508TIP3    H116530   5.291   2.412   0.491
 5508TIP3    H216531   5.288   2.564   0.483
 5509TIP3   OH216532   4.904   5.429   3.367
 5509TIP3    H116533   4.820   5.385   3.377
 5509TIP3    H216534   4.967   5.358   3.358
 5510TIP3   OH216535   3.414   4.831   0.319
 5510TIP3    H116536   3.418   4.784   0.402
 5510TIP3    H216537   3.501   4.869   0.310
 5511TIP3   OH216538   0.626   0.698   3.302
 5511TIP3    H116539   0.641   0.775   3.355
 5511TIP3    H216540   0.551   0.721   3.247
 5512TIP3   OH216541   6.082   2.866   1.853
 5512TIP3    H116542   6.146   2.907   1.795
 5512TIP3    H216543   6.001   2.913   1.836
 5513TIP3   OH216544   2.297   1.295   3.015
 5513TIP3    H116545   2.351   1.241   2.958
 5513TIP3    H216546   2.360   1.352   3.060
 5514TIP3   OH216547   2.900   0.482   3.820
 5514TIP3    H116548   2.903   0.447   3.909
 5514TIP3    H216549   2.807   0.475   3.795
 5515TIP3   OH216550   0.823   4.229   3.453
 5515TIP3    H116551   0.915   4.241   3.432
 5515TIP3    H216552   0.801   4.303   3.509
 5516TIP3   OH216553   5.269   4.545   4.821
 5516TIP3    H116554   5.212   4.505   4.756
 5516TIP3    H216555   5.358   4.519   4.795
 5517TIP3   OH216556   3.776   0.440   2.758
 5517TIP3    H116557   3.854   0.385   2.759
 5517TIP3    H216558   3.777   0.481   2.671
 5518TIP3   OH216559   0.627   2.800   0.428
 5518TIP3    H116560   0.540   2.785   0.390
 5518TIP3    H216561   0.686   2.751   0.370
 5519TIP3   OH216562   4.835   1.924   4.923
 5519TIP3    H116563   4.797   1.888   5.003
 5519TIP3    H216564   4.928   1.937   4.943
 5520TIP3   OH216565   0.806   4.895   2.134
 5520TIP3    H116566   0.836   4.921   2.221
 5520TIP3    H216567   0.742   4.826   2.151
 5521TIP3   OH216568   0.348   0.594   0.560
 5521TIP3    H116569   0.435   0.560   0.582
 5521TIP3    H216570   0.323   0.646   0.637
 5522TIP3   OH216571   4.383   1.585   1.124
 5522TIP3    H116572   4.467   1.617   1.156
 5522TIP3    H216573   4.401   1.495   1.095
 5523TIP3   OH216574   3.757   0.575   2.491
 5523TIP3    H116575   3.683   0.634   2.508
 5523TIP3    H216576   3.722   0.509   2.431
 5524TIP3   OH216577   0.744   2.454   4.050
 5524TIP3    H116578   0.712   2.470   4.139
 5524TIP3    H216579   0.721   2.363   4.032
 5525TIP3   OH216580   1.110   5.756   2.639
 5525TIP3    H116581   1.082   5.752   2.730
 5525TIP3    H216582   1.112   5.850   2.619
 5526TIP3   OH216583   1.168   1.797   3.859
 5526TIP3    H116584   1.241   1.849   3.827
 5526TIP3    H216585   1.158   1.727   3.794
 5527TIP3   OH216586   5.728   5.699   1.677
 5527TIP3    H116587   5.766   5.663   1.596
 5527TIP3    H216588   5.744   5.794   1.670
 5528TIP3   OH216589   1.188   5.919   3.957
 5528TIP3    H116590   1.248   5.962   3.898
 5528TIP3    H216591   1.207   5.825   3.948
 5529TIP3   OH216592   5.240   4.249   0.897
 5529TIP3    H116593   5.322   4.284   0.862
 5529TIP3    H216594   5.249   4.154   0.888
 5530TIP3   OH216595   3.016   3.160   1.233
 5530TIP3    H116596   3.095   3.161   1.286
 5530TIP3    H216597   2.960   3.228   1.271
 5531TIP3   OH216598   5.447   5.653   0.522
 5531TIP3    H116599   5.416   5.601   0.596
 5531TIP3    H216600   5.400   5.736   0.529
 5532TIP3   OH216601   5.589   2.209   3.160
 5532TIP3    H116602   5.614   2.127   3.202
 5532TIP3    H216603   5.497   2.222   3.184
 5533TIP3   OH216604   0.075   3.689   0.030
 5533TIP3    H116605   0.107   3.599   0.031
 5533TIP3    H216606   0.059   3.708  -0.063
 5534TIP3   OH216607   2.666   5.115   2.167
 5534TIP3    H116608   2.624   5.058   2.231
 5534TIP3    H216609   2.638   5.082   2.082
 5535TIP3   OH216610   1.736   1.897   1.552
 5535TIP3    H116611   1.717   1.882   1.459
 5535TIP3    H216612   1.690   1.978   1.574
 5536TIP3   OH216613   3.834   1.630   2.396
 5536TIP3    H116614   3.743   1.636   2.367
 5536TIP3    H216615   3.840   1.545   2.441
 5537TIP3   OH216616   4.236   1.740   4.678
 5537TIP3    H116617   4.203   1.698   4.757
 5537TIP3    H216618   4.228   1.673   4.610
 5538TIP3   OH216619   1.629   0.982   3.287
 5538TIP3    H116620   1.600   0.933   3.364
 5538TIP3    H216621   1.645   1.071   3.320
 5539TIP3   OH216622   0.927   2.633   0.904
 5539TIP3    H116623   0.963   2.712   0.945
 5539TIP3    H216624   0.975   2.561   0.944
 5540TIP3   OH216625   2.666   4.489   2.151
 5540TIP3    H116626   2.760   4.506   2.154
 5540TIP3    H216627   2.637   4.504   2.241
 5541TIP3   OH216628   0.681   5.552   4.527
 5541TIP3    H116629   0.736   5.610   4.579
 5541TIP3    H216630   0.609   5.529   4.585
 5542TIP3   OH216631   1.884   5.965   3.723
 5542TIP3    H116632   1.907   6.058   3.721
 5542TIP3    H216633   1.967   5.920   3.737
 5543TIP3   OH216634   3.668   1.488   3.765
 5543TIP3    H116635   3.591   1.482   3.708
 5543TIP3    H216636   3.691   1.581   3.764
 5544TIP3   OH216637   1.011   4.196   4.085
 5544TIP3    H116638   1.041   4.201   4.176
 5544TIP3    H216639   1.083   4.233   4.034
 5545TIP3   OH216640   5.527   4.481   1.397
 5545TIP3    H116641   5.544   4.389   1.378
 5545TIP3    H216642   5.486   4.482   1.484
 5546TIP3   OH216643   3.835   4.489   3.108
 5546TIP3    H116644   3.898   4.464   3.040
 5546TIP3    H216645   3.791   4.566   3.072
 5547TIP3   OH216646   5.027   3.476   4.916
 5547TIP3    H116647   4.997   3.386   4.929
 5547TIP3    H216648   4.946   3.528   4.916
 5548TIP3   OH216649   4.396   5.030   0.056
 5548TIP3    H116650   4.454   4.970   0.010
 5548TIP3    H216651   4.430   5.117   0.035
 5549TIP3   OH216652   4.499   1.924   1.210
 5549TIP3    H116653   4.438   1.986   1.170
 5549TIP3    H216654   4.521   1.864   1.139
 5550TIP3   OH216655   2.776   2.523   2.251
 5550TIP3    H116656   2.859   2.496   2.291
 5550TIP3    H216657   2.710   2.493   2.313
 5551TIP3   OH216658   4.438   2.346   2.821
 5551TIP3    H116659   4.529   2.318   2.807
 5551TIP3    H216660   4.441   2.442   2.813
 5552TIP3   OH216661   0.317   3.519   2.817
 5552TIP3    H116662   0.353   3.557   2.898
 5552TIP3    H216663   0.394   3.486   2.770
 5553TIP3   OH216664   1.223   1.624   4.061
 5553TIP3    H116665   1.170   1.545   4.052
 5553TIP3    H216666   1.187   1.685   3.996
 5554TIP3   OH216667   0.488   4.346   0.818
 5554TIP3    H116668   0.562   4.394   0.780
 5554TIP3    H216669   0.432   4.414   0.856
 5555TIP3   OH216670   0.627   4.303   1.843
 5555TIP3    H116671   0.666   4.216   1.857
 5555TIP3    H216672   0.674   4.338   1.768
 5556TIP3   OH216673   5.187   5.905   5.172
 5556TIP3    H116674   5.132   5.907   5.251
 5556TIP3    H216675   5.127   5.882   5.101
 5557TIP3   OH216676   5.411   3.007   4.154
 5557TIP3    H116677   5.449   3.077   4.207
 5557TIP3    H216678   5.411   3.042   4.065
 5558TIP3   OH216679   3.413   5.174   2.544
 5558TIP3    H116680   3.378   5.165   2.633
 5558TIP3    H216681   3.340   5.208   2.493
 5559TIP3   OH216682   0.630   0.237   3.346
 5559TIP3    H116683   0.598   0.288   3.421
 5559TIP3    H216684   0.638   0.300   3.275
 5560TIP3   OH216685   5.835   2.448   0.353
 5560TIP3    H116686   5.884   2.398   0.419
 5560TIP3    H216687   5.743   2.434   0.376
 5561TIP3   OH216688   2.133   3.965   4.515
 5561TIP3    H116689   2.164   3.950   4.426
 5561TIP3    H216690   2.213   3.967   4.568
 5562TIP3   OH216691   3.817   2.743   0.492
 5562TIP3    H116692   3.730   2.749   0.532
 5562TIP3    H216693   3.876   2.778   0.559
 5563TIP3   OH216694   4.081   0.492   0.894
 5563TIP3    H116695   4.109   0.564   0.837
 5563TIP3    H216696   4.017   0.531   0.953
 5564TIP3   OH216697   3.632   4.894   3.848
 5564TIP3    H116698   3.670   4.901   3.935
 5564TIP3    H216699   3.580   4.813   3.850
 5565TIP3   OH216700   4.456   4.906   3.852
 5565TIP3    H116701   4.443   4.850   3.928
 5565TIP3    H216702   4.477   4.845   3.781
 5566TIP3   OH216703   4.755   2.556   2.590
 5566TIP3    H116704   4.725   2.481   2.643
 5566TIP3    H216705   4.841   2.577   2.625
 5567TIP3   OH216706   3.996   3.758   2.018
 5567TIP3    H116707   4.068   3.770   1.957
 5567TIP3    H216708   3.979   3.664   2.017
 5568TIP3   OH216709   1.482   1.335   2.833
 5568TIP3    H116710   1.548   1.391   2.874
 5568TIP3    H216711   1.500   1.247   2.867
 5569TIP3   OH216712   4.404   1.427   1.615
 5569TIP3    H116713   4.458   1.456   1.541
 5569TIP3    H216714   4.316   1.457   1.594
 5570TIP3   OH216715   2.702   4.642   0.541
 5570TIP3    H116716   2.717   4.551   0.566
 5570TIP3    H216717   2.718   4.644   0.446
 5571TIP3   OH216718   2.098   3.279   3.466
 5571TIP3    H116719   2.004   3.295   3.466
 5571TIP3    H216720   2.112   3.226   3.545
 5572TIP3   OH216721  -0.035   4.444   4.689
 5572TIP3    H116722  -0.037   4.533   4.653
 5572TIP3    H216723  -0.006   4.457   4.780
 5573TIP3   OH216724   6.048   2.630   1.106
 5573TIP3    H116725   6.007   2.659   1.024
 5573TIP3    H216726   6.123   2.690   1.117
 5574TIP3   OH216727   2.495   3.568   1.305
 5574TIP3    H116728   2.548   3.579   1.226
 5574TIP3    H216729   2.550   3.603   1.375
 5575TIP3   OH216730   2.936   1.566   3.437
 5575TIP3    H116731   2.975   1.494   3.387
 5575TIP3    H216732   2.853   1.584   3.393
 5576TIP3   OH216733   5.413   1.309   4.351
 5576TIP3    H116734   5.325   1.346   4.359
 5576TIP3    H216735   5.425   1.298   4.257
 5577TIP3   OH216736   6.101   4.630   3.738
 5577TIP3    H116737   6.051   4.557   3.775
 5577TIP3    H216738   6.047   4.707   3.755
 5578TIP3   OH216739   0.670   5.564   2.030
 5578TIP3    H116740   0.665   5.540   1.937
 5578TIP3    H216741   0.741   5.628   2.034
 5579TIP3   OH216742   4.990   4.265   1.478
 5579TIP3    H116743   4.922   4.197   1.469
 5579TIP3    H216744   5.070   4.222   1.449
 5580TIP3   OH216745   2.403   0.656   1.828
 5580TIP3    H116746   2.349   0.622   1.756
 5580TIP3    H216747   2.373   0.607   1.905
 5581TIP3   OH216748   0.445   2.592   1.318
 5581TIP3    H116749   0.388   2.619   1.390
 5581TIP3    H216750   0.413   2.504   1.295
 5582TIP3   OH216751   3.800   2.968   2.726
 5582TIP3    H116752   3.803   2.925   2.641
 5582TIP3    H216753   3.867   2.924   2.778
 5583TIP3   OH216754   5.936   4.506   1.874
 5583TIP3    H116755   5.917   4.498   1.968
 5583TIP3    H216756   6.011   4.448   1.860
 5584TIP3   OH216757   3.686   3.172   1.138
 5584TIP3    H116758   3.604   3.216   1.115
 5584TIP3    H216759   3.728   3.154   1.054
 5585TIP3   OH216760   6.239   0.700   0.358
 5585TIP3    H116761   6.300   0.745   0.300
 5585TIP3    H216762   6.170   0.667   0.299
 5586TIP3   OH216763   1.348   3.480   1.683
 5586TIP3    H116764   1.350   3.495   1.778
 5586TIP3    H216765   1.376   3.389   1.673
 5587TIP3   OH216766   2.229   2.594   1.283
 5587TIP3    H116767   2.194   2.521   1.333
 5587TIP3    H216768   2.314   2.613   1.323
 5588TIP3   OH216769   0.885   2.679   2.302
 5588TIP3    H116770   0.932   2.674   2.218
 5588TIP3    H216771   0.793   2.669   2.279
 5589TIP3   OH216772   0.461   5.481   1.478
 5589TIP3    H116773   0.536   5.428   1.452
 5589TIP3    H216774   0.498   5.548   1.536
 5590TIP3   OH216775   2.487   3.250   2.731
 5590TIP3    H116776   2.491   3.240   2.826
 5590TIP3    H216777   2.479   3.161   2.698
 5591TIP3   OH216778   5.413   3.281   0.238
 5591TIP3    H116779   5.497   3.305   0.277
 5591TIP3    H216780   5.390   3.198   0.279
 5592TIP3   OH216781   3.399   0.301   3.028
 5592TIP3    H116782   3.363   0.247   2.957
 5592TIP3    H216783   3.344   0.282   3.104
 5593TIP3   OH216784   5.970   1.372   4.310
 5593TIP3    H116785   5.973   1.278   4.290
 5593TIP3    H216786   6.037   1.411   4.254
 5594TIP3   OH216787   5.672   4.340   3.753
 5594TIP3    H116788   5.614   4.361   3.826
 5594TIP3    H216789   5.632   4.263   3.712
 5595TIP3   OH216790   0.275   2.076   3.711
 5595TIP3    H116791   0.352   2.073   3.767
 5595TIP3    H216792   0.305   2.116   3.630
 5596TIP3   OH216793   4.000   1.041   1.245
 5596TIP3    H116794   3.916   1.045   1.290
 5596TIP3    H216795   3.987   0.978   1.174
 5597TIP3   OH216796  -0.007   0.633   2.512
 5597TIP3    H116797   0.000   0.696   2.584
 5597TIP3    H216798  -0.011   0.548   2.554
 5598TIP3   OH216799   0.960   1.129   0.454
 5598TIP3    H116800   0.985   1.127   0.362
 5598TIP3    H216801   0.872   1.167   0.454
 5599TIP3   OH216802   0.368   2.041   3.240
 5599TIP3    H116803   0.298   2.094   3.279
 5599TIP3    H216804   0.338   1.951   3.251
 5600TIP3   OH216805   2.420   4.040   1.581
 5600TIP3    H116806   2.515   4.025   1.582
 5600TIP3    H216807   2.402   4.077   1.495
 5601TIP3   OH216808   0.101   3.436   1.719
 5601TIP3    H116809   0.093   3.530   1.707
 5601TIP3    H216810   0.078   3.421   1.810
 5602TIP3   OH216811   4.423   3.537   0.727
 5602TIP3    H116812   4.479   3.606   0.692
 5602TIP3    H216813   4.401   3.483   0.651
 5603TIP3   OH216814   2.345   5.569   3.715
 5603TIP3    H116815   2.291   5.490   3.708
 5603TIP3    H216816   2.403   5.551   3.790
 5604TIP3   OH216817   2.409   2.216   2.768
 5604TIP3    H116818   2.450   2.160   2.834
 5604TIP3    H216819   2.372   2.154   2.705
 5605TIP3   OH216820   1.567   1.258   0.703
 5605TIP3    H116821   1.493   1.200   0.681
 5605TIP3    H216822   1.530   1.321   0.765
 5606TIP3   OH216823   3.083   2.023   0.778
 5606TIP3    H116824   3.029   2.057   0.849
 5606TIP3    H216825   3.148   2.092   0.763
 5607TIP3   OH216826   5.606   2.102   4.840
 5607TIP3    H116827   5.543   2.113   4.768
 5607TIP3    H216828   5.647   2.188   4.849
 5608TIP3   OH216829   0.502   4.732   3.751
 5608TIP3    H116830   0.584   4.714   3.705
 5608TIP3    H216831   0.517   4.698   3.840
 5609TIP3   OH216832   0.287   0.031   0.328
 5609TIP3    H116833   0.303  -0.040   0.390
 5609TIP3    H216834   0.197   0.058   0.345
 5610TIP3   OH216835   3.315   3.475   0.375
 5610TIP3    H116836   3.302   3.417   0.450
 5610TIP3    H216837   3.235   3.465   0.323
 5611TIP3   OH216838   2.207   2.742   3.982
 5611TIP3    H116839   2.291   2.710   4.015
 5611TIP3    H216840   2.171   2.794   4.054
 5612TIP3   OH216841   2.999   1.870   4.064
 5612TIP3    H116842   2.963   1.921   3.992
 5612TIP3    H216843   3.077   1.919   4.092
 5613TIP3   OH216844   4.653   4.468   1.970
 5613TIP3    H116845   4.617   4.551   1.940
 5613TIP3    H216846   4.580   4.406   1.963
 5614TIP3   OH216847   1.421   0.696   4.454
 5614TIP3    H116848   1.397   0.786   4.429
 5614TIP3    H216849   1.338   0.648   4.449
 5615TIP3   OH216850   1.705   0.987   1.768
 5615TIP3    H116851   1.674   0.914   1.714
 5615TIP3    H216852   1.758   0.946   1.836
 5616TIP3   OH216853   0.600   2.677   2.896
 5616TIP3    H116854   0.604   2.772   2.905
 5616TIP3    H216855   0.671   2.645   2.952
 5617TIP3   OH216856   4.543   2.306   0.469
 5617TIP3    H116857   4.491   2.289   0.548
 5617TIP3    H216858   4.610   2.238   0.469
 5618TIP3   OH216859   6.362   1.498   1.048
 5618TIP3    H116860   6.318   1.429   0.999
 5618TIP3    H216861   6.358   1.469   1.139
 5619TIP3   OH216862   5.013   1.972   0.258
 5619TIP3    H116863   4.939   2.032   0.259
 5619TIP3    H216864   5.025   1.946   0.350
 5620TIP3   OH216865   4.996   4.923   1.574
 5620TIP3    H116866   5.024   4.992   1.513
 5620TIP3    H216867   5.069   4.914   1.635
 5621TIP3   OH216868   5.791   4.074   4.299
 5621TIP3    H116869   5.834   4.098   4.217
 5621TIP3    H216870   5.804   3.979   4.307
 5622TIP3   OH216871   3.404   0.066   1.069
 5622TIP3    H116872   3.384  -0.010   1.123
 5622TIP3    H216873   3.499   0.072   1.069
 5623TIP3   OH216874   2.389   1.288   2.254
 5623TIP3    H116875   2.317   1.351   2.245
 5623TIP3    H216876   2.409   1.288   2.347
 5624TIP3   OH216877   2.396   4.097   4.405
 5624TIP3    H116878   2.470   4.157   4.409
 5624TIP3    H216879   2.420   4.034   4.336
 5625TIP3   OH216880   0.862   1.549   0.152
 5625TIP3    H116881   0.889   1.535   0.061
 5625TIP3    H216882   0.841   1.643   0.157
 5626TIP3   OH216883   3.556   4.101   0.623
 5626TIP3    H116884   3.509   4.021   0.603
 5626TIP3    H216885   3.648   4.081   0.605
 5627TIP3   OH216886   2.636   2.484   0.670
 5627TIP3    H116887   2.604   2.550   0.732
 5627TIP3    H216888   2.704   2.437   0.718
 5628TIP3   OH216889   5.698   3.963   0.874
 5628TIP3    H116890   5.725   3.975   0.965
 5628TIP3    H216891   5.625   4.023   0.862
 5629TIP3   OH216892   3.412   4.269   1.349
 5629TIP3    H116893   3.404   4.328   1.274
 5629TIP3    H216894   3.457   4.320   1.416
 5630TIP3   OH216895   2.113   3.806   0.460
 5630TIP3    H116896   2.124   3.820   0.554
 5630TIP3    H216897   2.021   3.826   0.444
 5631TIP3   OH216898   2.938   4.685   0.909
 5631TIP3    H116899   2.935   4.590   0.894
 5631TIP3    H216900   2.855   4.717   0.872
 5632TIP3   OH216901   3.793   1.154   4.816
 5632TIP3    H116902   3.721   1.098   4.844
 5632TIP3    H216903   3.861   1.092   4.788
 5633TIP3   OH216904   0.537   2.298   3.856
 5633TIP3    H116905   0.602   2.244   3.901
 5633TIP3    H216906   0.463   2.302   3.915
 5634TIP3   OH216907   1.312   3.353   5.084
 5634TIP3    H116908   1.226   3.339   5.045
 5634TIP3    H216909   1.369   3.290   5.041
 5635TIP3   OH216910   3.966   2.542   1.663
 5635TIP3    H116911   3.934   2.574   1.747
 5635TIP3    H216912   3.977   2.621   1.609
 5636TIP3   OH216913   2.940   0.855   3.062
 5636TIP3    H116914   2.976   0.845   2.974
 5636TIP3    H216915   3.016   0.878   3.116
 5637TIP3   OH216916   0.233   2.054   2.525
 5637TIP3    H116917   0.224   1.960   2.540
 5637TIP3    H216918   0.294   2.084   2.593
 5638TIP3   OH216919   5.342   1.134   3.582
 5638TIP3    H116920   5.275   1.152   3.648
 5638TIP3    H216921   5.394   1.214   3.578
 5639TIP3   OH216922   5.234   4.155   1.452
 5639TIP3    H116923   5.283   4.103   1.516
 5639TIP3    H216924   5.300   4.211   1.411
 5640TIP3   OH216925   0.497   1.400   3.188
 5640TIP3    H116926   0.404   1.384   3.203
 5640TIP3    H216927   0.539   1.384   3.272
 5641TIP3   OH216928   5.697   4.989   1.194
 5641TIP3    H116929   5.679   4.907   1.240
 5641TIP3    H216930   5.792   4.987   1.179
 5642TIP3   OH216931   5.939   1.771   1.212
 5642TIP3    H116932   6.018   1.807   1.252
 5642TIP3    H216933   5.890   1.732   1.285
 5643TIP3   OH216934   0.952   5.288   0.105
 5643TIP3    H116935   0.920   5.375   0.083
 5643TIP3    H216936   1.012   5.302   0.178
 5644TIP3   OH216937   2.930   5.261   1.234
 5644TIP3    H116938   2.896   5.210   1.161
 5644TIP3    H216939   2.856   5.317   1.260
 5645TIP3   OH216940   1.720   5.328   4.810
 5645TIP3    H116941   1.632   5.361   4.824
 5645TIP3    H216942   1.778   5.396   4.845
 5646TIP3   OH216943   5.416   4.843   2.493
 5646TIP3    H116944   5.362   4.860   2.570
 5646TIP3    H216945   5.500   4.816   2.529
 5647TIP3   OH216946   3.284   1.135   1.371
 5647TIP3    H116947   3.222   1.093   1.430
 5647TIP3    H216948   3.321   1.207   1.423
 5648TIP3   OH216949   4.775   4.152   4.904
 5648TIP3    H116950   4.755   4.169   4.812
 5648TIP3    H216951   4.689   4.136   4.944
 5649TIP3   OH216952   1.380   0.214   2.383
 5649TIP3    H116953   1.341   0.183   2.301
 5649TIP3    H216954   1.316   0.277   2.418
 5650TIP3   OH216955   0.544   0.486   4.678
 5650TIP3    H116956   0.560   0.442   4.762
 5650TIP3    H216957   0.566   0.578   4.695
 5651TIP3   OH216958   3.051   4.403   0.597
 5651TIP3    H116959   3.022   4.362   0.515
 5651TIP3    H216960   3.085   4.489   0.570
 5652TIP3   OH216961   2.191   2.312   2.179
 5652TIP3    H116962   2.156   2.293   2.266
 5652TIP3    H216963   2.275   2.355   2.196
 5653TIP3   OH216964   5.847   1.943   0.692
 5653TIP3    H116965   5.870   1.856   0.723
 5653TIP3    H216966   5.888   2.003   0.755
 5654TIP3   OH216967   0.714   1.968   1.504
 5654TIP3    H116968   0.740   2.057   1.478
 5654TIP3    H216969   0.651   1.982   1.575
 5655TIP3   OH216970   5.728   5.258   4.776
 5655TIP3    H116971   5.646   5.212   4.796
 5655TIP3    H216972   5.724   5.338   4.828
 5656TIP3   OH216973   3.959   2.664   3.859
 5656TIP3    H116974   3.880   2.718   3.849
 5656TIP3    H216975   3.957   2.636   3.951
 5657TIP3   OH216976   0.709   0.879   0.434
 5657TIP3    H116977   0.654   0.858   0.510
 5657TIP3    H216978   0.715   0.974   0.435
 5658TIP3   OH216979   3.843   2.397   4.280
 5658TIP3    H116980   3.883   2.337   4.343
 5658TIP3    H216981   3.786   2.342   4.227
 5659TIP3   OH216982   0.668   5.653   1.110
 5659TIP3    H116983   0.616   5.722   1.151
 5659TIP3    H216984   0.606   5.582   1.093
 5660TIP3   OH216985   4.613   0.129   0.104
 5660TIP3    H116986   4.586   0.195   0.167
 5660TIP3    H216987   4.694   0.093   0.141
 5661TIP3   OH216988   0.700   5.392   1.796
 5661TIP3    H116989   0.663   5.454   1.734
 5661TIP3    H216990   0.792   5.384   1.771
 5662TIP3   OH216991   1.302   4.755   4.226
 5662TIP3    H116992   1.337   4.678   4.181
 5662TIP3    H216993   1.338   4.829   4.178
 5663TIP3   OH216994   6.300   0.791   1.008
 5663TIP3    H116995   6.355   0.858   0.969
 5663TIP3    H216996   6.234   0.772   0.941
 5664TIP3   OH216997   0.519   2.621   3.802
 5664TIP3    H116998   0.459   2.548   3.810
 5664TIP3    H216999   0.606   2.581   3.803
 5665TIP3   OH217000   3.600   5.927   1.055
 5665TIP3    H117001   3.551   5.915   1.136
 5665TIP3    H217002   3.552   5.994   1.007
 5666TIP3   OH217003   1.080   2.741   2.099
 5666TIP3    H117004   1.124   2.659   2.078
 5666TIP3    H217005   1.149   2.807   2.096
 5667TIP3   OH217006   4.782   0.980   1.620
 5667TIP3    H117007   4.767   1.023   1.704
 5667TIP3    H217008   4.701   0.994   1.571
 5668TIP3   OH217009   6.016   1.947   2.856
 5668TIP3    H117010   6.038   1.983   2.942
 5668TIP3    H217011   5.921   1.951   2.852
 5669TIP3   OH217012   4.718   2.403   2.011
 5669TIP3    H117013   4.777   2.342   2.055
 5669TIP3    H217014   4.636   2.356   2.002
 5670TIP3   OH217015   2.918   5.900   1.140
 5670TIP3    H117016   2.932   5.865   1.229
 5670TIP3    H217017   2.892   5.824   1.089
 5671TIP3   OH217018   4.037   4.755   4.704
 5671TIP3    H117019   4.020   4.670   4.663
 5671TIP3    H217020   3.950   4.795   4.712
 5672TIP3   OH217021   5.031   2.549   0.152
 5672TIP3    H117022   5.051   2.631   0.198
 5672TIP3    H217023   5.026   2.483   0.221
 5673TIP3   OH217024   1.042   1.711   2.556
 5673TIP3    H117025   1.056   1.628   2.602
 5673TIP3    H217026   0.960   1.745   2.591
 5674TIP3   OH217027   1.740   2.297   0.979
 5674TIP3    H117028   1.672   2.241   0.941
 5674TIP3    H217029   1.745   2.371   0.919
 5675TIP3   OH217030   2.168   0.265   3.852
 5675TIP3    H117031   2.114   0.273   3.931
 5675TIP3    H217032   2.106   0.262   3.780
 5676TIP3   OH217033   2.767   3.947   3.320
 5676TIP3    H117034   2.743   3.896   3.397
 5676TIP3    H217035   2.701   3.926   3.254
 5677TIP3   OH217036   6.257   1.363   3.422
 5677TIP3    H117037   6.312   1.294   3.386
 5677TIP3    H217038   6.168   1.327   3.419
 5678TIP3   OH217039   5.371   5.054   3.488
 5678TIP3    H117040   5.365   5.032   3.395
 5678TIP3    H217041   5.342   5.145   3.493
 5679TIP3   OH217042   4.884   5.231   1.274
 5679TIP3    H117043   4.936   5.254   1.350
 5679TIP3    H217044   4.811   5.292   1.275
 5680TIP3   OH217045   3.164   3.491   3.392
 5680TIP3    H117046   3.205   3.505   3.478
 5680TIP3    H217047   3.237   3.467   3.334
 5681TIP3   OH217048   2.212   4.684   3.493
 5681TIP3    H117049   2.251   4.718   3.413
 5681TIP3    H217050   2.278   4.703   3.561
 5682TIP3   OH217051   1.658   2.133   2.947
 5682TIP3    H117052   1.712   2.056   2.961
 5682TIP3    H217053   1.615   2.118   2.864
 5683TIP3   OH217054   0.613   4.309   3.710
 5683TIP3    H117055   0.682   4.308   3.776
 5683TIP3    H217056   0.648   4.362   3.639
 5684TIP3   OH217057   2.364   2.576   4.687
 5684TIP3    H117058   2.281   2.624   4.685
 5684TIP3    H217059   2.341   2.491   4.724
 5685TIP3   OH217060   4.725   2.598   3.050
 5685TIP3    H117061   4.753   2.511   3.078
 5685TIP3    H217062   4.807   2.643   3.028
 5686TIP3   OH217063   1.113   1.549   2.334
 5686TIP3    H117064   1.035   1.554   2.389
 5686TIP3    H217065   1.170   1.619   2.367
 5687TIP3   OH217066   5.805   2.230   3.596
 5687TIP3    H117067   5.738   2.295   3.576
 5687TIP3    H217068   5.820   2.239   3.691
 5688TIP3   OH217069   5.217   4.947   3.022
 5688TIP3    H117070   5.237   5.037   2.994
 5688TIP3    H217071   5.124   4.950   3.046
 5689TIP3   OH217072   0.635   1.503   0.318
 5689TIP3    H117073   0.690   1.509   0.240
 5689TIP3    H217074   0.691   1.534   0.389
 5690TIP3   OH217075   1.249   3.532   0.899
 5690TIP3    H117076   1.269   3.596   0.830
 5690TIP3    H217077   1.192   3.579   0.959
 5691TIP3   OH217078   5.997   2.537   3.487
 5691TIP3    H117079   6.024   2.495   3.569
 5691TIP3    H217080   6.048   2.618   3.484
 5692TIP3   OH217081   0.670   2.622   3.498
 5692TIP3    H117082   0.700   2.583   3.580
 5692TIP3    H217083   0.629   2.549   3.450
 5693TIP3   OH217084   6.262   3.110   0.675
 5693TIP3    H117085   6.335   3.131   0.733
 5693TIP3    H217086   6.213   3.192   0.667
 5694TIP3   OH217087   1.137   1.603   0.575
 5694TIP3    H117088   1.198   1.553   0.630
 5694TIP3    H217089   1.102   1.670   0.632
 5695TIP3   OH217090   4.035   5.446   0.446
 5695TIP3    H117091   4.039   5.528   0.396
 5695TIP3    H217092   4.047   5.378   0.380
 5696TIP3   OH217093   1.613   2.355   3.061
 5696TIP3    H117094   1.581   2.331   3.148
 5696TIP3    H217095   1.628   2.271   3.018
 5697TIP3   OH217096   5.963   0.376   2.537
 5697TIP3    H117097   5.984   0.288   2.506
 5697TIP3    H217098   5.903   0.411   2.472
 5698TIP3   OH217099   4.869   2.530   0.530
 5698TIP3    H117100   4.803   2.533   0.461
 5698TIP3    H217101   4.839   2.593   0.595
 5699TIP3   OH217102   6.227   3.774   0.212
 5699TIP3    H117103   6.264   3.858   0.240
 5699TIP3    H217104   6.288   3.743   0.145
 5700TIP3   OH217105   2.380   4.640   4.623
 5700TIP3    H117106   2.420   4.560   4.657
 5700TIP3    H217107   2.435   4.711   4.658
 5701TIP3   OH217108   3.074   1.944   2.524
 5701TIP3    H117109   3.138   1.983   2.465
 5701TIP3    H217110   3.038   1.869   2.475
 5702TIP3   OH217111   4.567   0.698   3.444
 5702TIP3    H117112   4.569   0.729   3.534
 5702TIP3    H217113   4.659   0.684   3.421
 5703TIP3   OH217114   3.698   1.929   4.994
 5703TIP3    H117115   3.716   1.936   5.088
 5703TIP3    H217116   3.609   1.895   4.989
 5704TIP3   OH217117   3.200   0.255   5.172
 5704TIP3    H117118   3.222   0.266   5.265
 5704TIP3    H217119   3.204   0.160   5.158
 5705TIP3   OH217120   6.162   3.868   4.615
 5705TIP3    H117121   6.074   3.895   4.639
 5705TIP3    H217122   6.173   3.897   4.524
 5706TIP3   OH217123   0.164   2.473   0.679
 5706TIP3    H117124   0.179   2.558   0.721
 5706TIP3    H217125   0.248   2.429   0.683
 5707TIP3   OH217126   3.102   2.189   3.700
 5707TIP3    H117127   3.128   2.116   3.644
 5707TIP3    H217128   3.036   2.152   3.759
 5708TIP3   OH217129   1.356   1.338   3.654
 5708TIP3    H117130   1.330   1.294   3.573
 5708TIP3    H217131   1.447   1.364   3.639
 5709TIP3   OH217132   5.332   0.318   5.020
 5709TIP3    H117133   5.310   0.225   5.018
 5709TIP3    H217134   5.304   0.348   5.106
 5710TIP3   OH217135   0.013   5.314   4.386
 5710TIP3    H117136  -0.082   5.317   4.393
 5710TIP3    H217137   0.040   5.405   4.396
 5711TIP3   OH217138   3.226   0.494   4.897
 5711TIP3    H117139   3.316   0.465   4.882
 5711TIP3    H217140   3.235   0.586   4.923
 5712TIP3   OH217141   0.637   2.071   4.328
 5712TIP3    H117142   0.693   2.005   4.369
 5712TIP3    H217143   0.560   2.022   4.300
 5713TIP3   OH217144   2.729   4.954   4.106
 5713TIP3    H117145   2.762   5.042   4.124
 5713TIP3    H217146   2.654   4.968   4.048
 5714TIP3   OH217147   1.789   5.753   4.831
 5714TIP3    H117148   1.809   5.673   4.879
 5714TIP3    H217149   1.731   5.725   4.760
 5715TIP3   OH217150   2.268   2.859   3.724
 5715TIP3    H117151   2.238   2.834   3.812
 5715TIP3    H217152   2.203   2.820   3.665
 5716TIP3   OH217153   1.438   3.819   3.264
 5716TIP3    H117154   1.346   3.824   3.288
 5716TIP3    H217155   1.476   3.900   3.298
 5717TIP3   OH217156   2.253   4.411   2.974
 5717TIP3    H117157   2.236   4.505   2.965
 5717TIP3    H217158   2.175   4.377   3.018
 5718TIP3   OH217159   1.692   2.760   0.934
 5718TIP3    H117160   1.714   2.795   1.020
 5718TIP3    H217161   1.600   2.785   0.920
 5719TIP3   OH217162   4.651   3.956   3.299
 5719TIP3    H117163   4.724   4.010   3.271
 5719TIP3    H217164   4.691   3.875   3.331
 5720TIP3   OH217165   4.450   5.046   3.127
 5720TIP3    H117166   4.422   5.137   3.122
 5720TIP3    H217167   4.526   5.046   3.185
 5721TIP3   OH217168   2.987  -0.033   1.536
 5721TIP3    H117169   3.048   0.039   1.521
 5721TIP3    H217170   2.971  -0.032   1.630
 5722TIP3   OH217171   3.057   2.460   3.657
 5722TIP3    H117172   3.052   2.365   3.647
 5722TIP3    H217173   3.005   2.495   3.585
 5723TIP3   OH217174   5.271   1.962   4.294
 5723TIP3    H117175   5.218   2.027   4.340
 5723TIP3    H217176   5.243   1.878   4.331
 5724TIP3   OH217177   0.963   0.433   4.344
 5724TIP3    H117178   0.894   0.380   4.306
 5724TIP3    H217179   0.930   0.458   4.430
 5725TIP3   OH217180   4.299   0.891   3.107
 5725TIP3    H117181   4.357   0.899   3.183
 5725TIP3    H217182   4.215   0.864   3.143
 5726TIP3   OH217183   2.991   2.585   0.334
 5726TIP3    H117184   3.053   2.515   0.351
 5726TIP3    H217185   3.044   2.655   0.296
 5727TIP3   OH217186   5.004   2.956   1.530
 5727TIP3    H117187   4.973   3.034   1.485
 5727TIP3    H217188   5.094   2.975   1.553
 5728TIP3   OH217189   1.454   5.412   1.423
 5728TIP3    H117190   1.447   5.369   1.338
 5728TIP3    H217191   1.369   5.455   1.435
 5729TIP3   OH217192   4.248   3.241   4.351
 5729TIP3    H117193   4.269   3.153   4.384
 5729TIP3    H217194   4.324   3.266   4.299
 5730TIP3   OH217195   5.089   5.399   2.581
 5730TIP3    H117196   5.133   5.321   2.548
 5730TIP3    H217197   5.111   5.467   2.517
 5731TIP3   OH217198   5.686   1.937   1.578
 5731TIP3    H117199   5.747   1.946   1.651
 5731TIP3    H217200   5.732   1.977   1.504
 5732TIP3   OH217201   1.968   5.514   0.897
 5732TIP3    H117202   1.880   5.478   0.881
 5732TIP3    H217203   1.958   5.608   0.882
 5733TIP3   OH217204   1.171   1.543   3.723
 5733TIP3    H117205   1.186   1.603   3.650
 5733TIP3    H217206   1.239   1.477   3.714
 5734TIP3   OH217207   2.605   0.197   4.396
 5734TIP3    H117208   2.649   0.267   4.445
 5734TIP3    H217209   2.514   0.202   4.423
 5735TIP3   OH217210   0.841   0.429   4.884
 5735TIP3    H117211   0.772   0.430   4.951
 5735TIP3    H217212   0.887   0.346   4.897
 5736TIP3   OH217213   4.887   3.908   0.859
 5736TIP3    H117214   4.913   3.927   0.949
 5736TIP3    H217215   4.813   3.848   0.868
 5737TIP3   OH217216   4.171   3.635   3.762
 5737TIP3    H117217   4.161   3.542   3.781
 5737TIP3    H217218   4.234   3.666   3.826
 5738TIP3   OH217219   2.974   3.402   3.663
 5738TIP3    H117220   2.940   3.327   3.712
 5738TIP3    H217221   3.063   3.376   3.638
 5739TIP3   OH217222   3.036   4.490   4.343
 5739TIP3    H117223   2.941   4.507   4.347
 5739TIP3    H217224   3.075   4.562   4.393
 5740TIP3   OH217225   5.483   5.864   4.637
 5740TIP3    H117226   5.454   5.815   4.714
 5740TIP3    H217227   5.540   5.803   4.590
 5741TIP3   OH217228   2.962   4.412   3.101
 5741TIP3    H117229   2.920   4.328   3.084
 5741TIP3    H217230   2.913   4.449   3.174
 5742TIP3   OH217231   4.535   5.590   0.973
 5742TIP3    H117232   4.585   5.665   1.006
 5742TIP3    H217233   4.587   5.558   0.899
 5743TIP3   OH217234   4.938   1.165   2.274
 5743TIP3    H117235   4.880   1.156   2.198
 5743TIP3    H217236   5.015   1.210   2.240
 5744TIP3   OH217237   0.933   0.817   0.878
 5744TIP3    H117238   0.960   0.824   0.787
 5744TIP3    H217239   0.959   0.901   0.917
 5745TIP3   OH217240   4.713   3.654   1.492
 5745TIP3    H117241   4.734   3.740   1.455
 5745TIP3    H217242   4.679   3.672   1.579
 5746TIP3   OH217243   5.441   0.961   1.839
 5746TIP3    H117244   5.418   0.877   1.878
 5746TIP3    H217245   5.374   1.021   1.871
 5747TIP3   OH217246   3.953   5.257   1.012
 5747TIP3    H117247   4.036   5.257   0.964
 5747TIP3    H217248   3.970   5.310   1.090
 5748TIP3   OH217249   4.041   2.517   2.519
 5748TIP3    H117250   3.998   2.447   2.468
 5748TIP3    H217251   4.096   2.471   2.582
 5749TIP3   OH217252   0.653   5.024   2.982
 5749TIP3    H117253   0.668   4.932   3.001
 5749TIP3    H217254   0.608   5.057   3.060
 5750TIP3   OH217255   4.018   1.866   4.148
 5750TIP3    H117256   3.935   1.884   4.106
 5750TIP3    H217257   4.013   1.911   4.233
 5751TIP3   OH217258   0.576   3.388   3.435
 5751TIP3    H117259   0.665   3.404   3.467
 5751TIP3    H217260   0.521   3.397   3.512
 5752TIP3   OH217261   2.078   3.566   4.568
 5752TIP3    H117262   2.160   3.608   4.592
 5752TIP3    H217263   2.038   3.541   4.651
 5753TIP3   OH217264   1.517   5.086   4.975
 5753TIP3    H117265   1.610   5.064   4.963
 5753TIP3    H217266   1.472   5.002   4.965
 5754TIP3   OH217267   6.283   5.600   0.730
 5754TIP3    H117268   6.227   5.647   0.669
 5754TIP3    H217269   6.288   5.511   0.694
 5755TIP3   OH217270   6.336   1.100   5.068
 5755TIP3    H117271   6.385   1.173   5.106
 5755TIP3    H217272   6.324   1.038   5.140
 5756TIP3   OH217273   6.305   4.917   0.823
 5756TIP3    H117274   6.355   4.863   0.761
 5756TIP3    H217275   6.365   4.988   0.847
 5757TIP3   OH217276   1.460   2.715   2.878
 5757TIP3    H117277   1.457   2.705   2.783
 5757TIP3    H217278   1.388   2.662   2.911
 5758TIP3   OH217279   2.289   5.653   1.689
 5758TIP3    H117280   2.356   5.585   1.697
 5758TIP3    H217281   2.308   5.715   1.759
 5759TIP3   OH217282   5.658   3.724   1.584
 5759TIP3    H117283   5.747   3.688   1.586
 5759TIP3    H217284   5.647   3.765   1.670
 5760TIP3   OH217285   6.066   3.668   3.279
 5760TIP3    H117286   6.146   3.649   3.230
 5760TIP3    H217287   6.094   3.673   3.370
 5761TIP3   OH217288   2.609   5.264   2.524
 5761TIP3    H117289   2.518   5.258   2.497
 5761TIP3    H217290   2.628   5.358   2.524
 5762TIP3   OH217291   0.633   2.684   1.960
 5762TIP3    H117292   0.684   2.636   1.895
 5762TIP3    H217293   0.542   2.660   1.943
 5763TIP3   OH217294   3.566   5.159   3.746
 5763TIP3    H117295   3.520   5.144   3.663
 5763TIP3    H217296   3.583   5.071   3.780
 5764TIP3   OH217297   1.662   2.110   5.187
 5764TIP3    H117298   1.710   2.029   5.169
 5764TIP3    H217299   1.571   2.083   5.199
 5765TIP3   OH217300   4.231   5.433   5.099
 5765TIP3    H117301   4.323   5.441   5.072
 5765TIP3    H217302   4.189   5.512   5.064
 5766TIP3   OH217303   1.405   0.637   4.174
 5766TIP3    H117304   1.441   0.642   4.263
 5766TIP3    H217305   1.323   0.685   4.179
 5767TIP3   OH217306   3.009   1.764   4.604
 5767TIP3    H117307   3.057   1.715   4.671
 5767TIP3    H217308   3.028   1.718   4.523
 5768TIP3   OH217309   1.876   5.895   3.988
 5768TIP3    H117310   1.819   5.884   4.064
 5768TIP3    H217311   1.892   5.806   3.956
 5769TIP3   OH217312   0.014   0.037   1.823
 5769TIP3    H117313   0.059   0.102   1.770
 5769TIP3    H217314   0.083  -0.021   1.854
 5770TIP3   OH217315   4.014   4.399   2.923
 5770TIP3    H117316   4.092   4.347   2.941
 5770TIP3    H217317   3.963   4.345   2.863
 5771TIP3   OH217318   4.823   2.598   4.445
 5771TIP3    H117319   4.749   2.573   4.390
 5771TIP3    H217320   4.868   2.667   4.395
 5772TIP3   OH217321   3.070   4.519   5.100
 5772TIP3    H117322   3.163   4.529   5.081
 5772TIP3    H217323   3.028   4.514   5.014
 5773TIP3   OH217324   5.507   2.324   4.363
 5773TIP3    H117325   5.501   2.314   4.458
 5773TIP3    H217326   5.571   2.258   4.337
 5774TIP3   OH217327   3.145   3.096   1.973
 5774TIP3    H117328   3.053   3.086   1.951
 5774TIP3    H217329   3.145   3.122   2.065
 5775TIP3   OH217330   4.439   3.625   3.919
 5775TIP3    H117331   4.506   3.565   3.951
 5775TIP3    H217332   4.431   3.690   3.989
 5776TIP3   OH217333   3.924   1.052   1.724
 5776TIP3    H117334   3.972   0.971   1.710
 5776TIP3    H217335   3.843   1.025   1.766
 5777TIP3   OH217336   0.760   4.456   2.194
 5777TIP3    H117337   0.742   4.363   2.210
 5777TIP3    H217338   0.800   4.458   2.107
 5778TIP3   OH217339   4.081   1.930   4.482
 5778TIP3    H117340   4.151   1.965   4.538
 5778TIP3    H217341   4.122   1.858   4.435
 5779TIP3   OH217342   3.633   5.085   0.684
 5779TIP3    H117343   3.575   5.150   0.723
 5779TIP3    H217344   3.595   5.001   0.709
 5780TIP3   OH217345   4.440   0.592   4.254
 5780TIP3    H117346   4.479   0.634   4.177
 5780TIP3    H217347   4.359   0.553   4.221
 5781TIP3   OH217348   4.538   3.940   2.562
 5781TIP3    H117349   4.595   3.906   2.630
 5781TIP3    H217350   4.503   3.863   2.518
 5782TIP3   OH217351   2.944   3.190   2.422
 5782TIP3    H117352   2.952   3.250   2.496
 5782TIP3    H217353   2.890   3.118   2.455
 5783TIP3   OH217354   1.844   5.695   0.139
 5783TIP3    H117355   1.896   5.726   0.064
 5783TIP3    H217356   1.881   5.609   0.159
 5784TIP3   OH217357   1.200   3.896   0.525
 5784TIP3    H117358   1.157   3.937   0.600
 5784TIP3    H217359   1.197   3.962   0.456
 5785TIP3   OH217360   1.281   5.645   3.021
 5785TIP3    H117361   1.219   5.707   2.984
 5785TIP3    H217362   1.358   5.697   3.044
 5786TIP3   OH217363   1.180   1.377   1.361
 5786TIP3    H117364   1.218   1.455   1.320
 5786TIP3    H217365   1.088   1.379   1.336
 5787TIP3   OH217366   1.226   1.999   2.135
 5787TIP3    H117367   1.203   2.000   2.228
 5787TIP3    H217368   1.235   1.906   2.114
 5788TIP3   OH217369   3.186   4.538   1.509
 5788TIP3    H117370   3.170   4.451   1.545
 5788TIP3    H217371   3.105   4.561   1.465
 5789TIP3   OH217372   4.427   0.933   3.353
 5789TIP3    H117373   4.499   0.870   3.355
 5789TIP3    H217374   4.383   0.921   3.437
 5790TIP3   OH217375   5.458   4.597   2.827
 5790TIP3    H117376   5.495   4.583   2.740
 5790TIP3    H217377   5.534   4.601   2.885
 5791TIP3   OH217378   2.380   4.799   3.292
 5791TIP3    H117379   2.368   4.875   3.234
 5791TIP3    H217380   2.468   4.810   3.327
 5792TIP3   OH217381   1.427   3.553   3.036
 5792TIP3    H117382   1.427   3.467   3.078
 5792TIP3    H217383   1.342   3.591   3.060
 5793TIP3   OH217384   2.209   2.210   1.741
 5793TIP3    H117385   2.149   2.161   1.685
 5793TIP3    H217386   2.154   2.242   1.813
 5794TIP3   OH217387   4.402   1.652   4.044
 5794TIP3    H117388   4.481   1.706   4.046
 5794TIP3    H217389   4.339   1.703   3.994
 5795TIP3   OH217390   4.221   2.032   1.397
 5795TIP3    H117391   4.285   1.979   1.444
 5795TIP3    H217392   4.265   2.055   1.315
 5796TIP3   OH217393   2.914   1.359   3.737
 5796TIP3    H117394   2.863   1.374   3.657
 5796TIP3    H217395   2.992   1.413   3.726
 5797TIP3   OH217396   6.081   3.724   3.792
 5797TIP3    H117397   6.045   3.768   3.870
 5797TIP3    H217398   6.079   3.791   3.724
 5798TIP3   OH217399   1.077   4.629   1.145
 5798TIP3    H117400   1.078   4.622   1.241
 5798TIP3    H217401   1.034   4.713   1.128
 5799TIP3   OH217402   5.067   5.971   2.111
 5799TIP3    H117403   5.141   5.926   2.152
 5799TIP3    H217404   5.096   5.989   2.022
 5800TIP3   OH217405   3.499   4.859   2.972
 5800TIP3    H117406   3.553   4.872   2.894
 5800TIP3    H217407   3.525   4.929   3.031
 5801TIP3   OH217408   4.638   1.148   2.345
 5801TIP3    H117409   4.615   1.232   2.306
 5801TIP3    H217410   4.554   1.103   2.356
 5802TIP3   OH217411   3.450   0.802   3.109
 5802TIP3    H117412   3.525   0.806   3.168
 5802TIP3    H217413   3.424   0.710   3.109
 5803TIP3   OH217414   0.427   3.849   0.389
 5803TIP3    H117415   0.342   3.805   0.379
 5803TIP3    H217416   0.441   3.892   0.305
 5804TIP3   OH217417   4.860   3.309   4.580
 5804TIP3    H117418   4.938   3.278   4.626
 5804TIP3    H217419   4.867   3.270   4.492
 5805TIP3   OH217420   4.618   5.705   2.238
 5805TIP3    H117421   4.599   5.640   2.306
 5805TIP3    H217422   4.678   5.767   2.280
 5806TIP3   OH217423   0.135   3.890   1.161
 5806TIP3    H117424   0.071   3.960   1.166
 5806TIP3    H217425   0.084   3.810   1.174
 5807TIP3   OH217426   5.042   2.536   2.290
 5807TIP3    H117427   4.948   2.529   2.303
 5807TIP3    H217428   5.058   2.500   2.203
 5808TIP3   OH217429   5.989   3.178   4.088
 5808TIP3    H117430   6.025   3.092   4.064
 5808TIP3    H217431   5.928   3.199   4.018
 5809TIP3   OH217432   2.846   5.798   3.558
 5809TIP3    H117433   2.941   5.802   3.568
 5809TIP3    H217434   2.823   5.708   3.583
 5810TIP3   OH217435   5.980   5.918   2.357
 5810TIP3    H117436   5.975   5.977   2.282
 5810TIP3    H217437   5.971   5.831   2.320
 5811TIP3   OH217438   5.401   5.823   2.593
 5811TIP3    H117439   5.350   5.899   2.621
 5811TIP3    H217440   5.412   5.836   2.498
 5812TIP3   OH217441   0.683   0.108   4.181
 5812TIP3    H117442   0.760   0.159   4.154
 5812TIP3    H217443   0.710   0.017   4.168
 5813TIP3   OH217444   0.424   5.136   0.349
 5813TIP3    H117445   0.429   5.184   0.266
 5813TIP3    H217446   0.515   5.125   0.376
 5814TIP3   OH217447   2.264   2.393   2.635
 5814TIP3    H117448   2.301   2.356   2.715
 5814TIP3    H217449   2.331   2.378   2.569
 5815TIP3   OH217450   0.655   5.252   5.154
 5815TIP3    H117451   0.734   5.280   5.198
 5815TIP3    H217452   0.682   5.178   5.100
 5816TIP3   OH217453   0.197   1.622   0.893
 5816TIP3    H117454   0.277   1.594   0.938
 5816TIP3    H217455   0.128   1.572   0.935
 5817TIP3   OH217456   3.848   1.181   0.843
 5817TIP3    H117457   3.859   1.222   0.929
 5817TIP3    H217458   3.753   1.179   0.829
 5818TIP3   OH217459   4.649   5.955   3.187
 5818TIP3    H117460   4.633   5.925   3.097
 5818TIP3    H217461   4.584   6.024   3.200
 5819TIP3   OH217462   0.794   1.854   4.442
 5819TIP3    H117463   0.771   1.765   4.469
 5819TIP3    H217464   0.855   1.841   4.369
 5820TIP3   OH217465   0.730   5.244   0.374
 5820TIP3    H117466   0.806   5.279   0.421
 5820TIP3    H217467   0.709   5.311   0.310
 5821TIP3   OH217468   4.850   3.582   3.258
 5821TIP3    H117469   4.783   3.588   3.326
 5821TIP3    H217470   4.862   3.672   3.228
 5822TIP3   OH217471   5.323   2.279   3.135
 5822TIP3    H117472   5.311   2.229   3.055
 5822TIP3    H217473   5.236   2.278   3.177
 5823TIP3   OH217474   0.146   1.993   2.989
 5823TIP3    H117475   0.098   1.914   2.963
 5823TIP3    H217476   0.123   2.006   3.081
 5824TIP3   OH217477   0.590   1.305   1.061
 5824TIP3    H117478   0.524   1.266   1.119
 5824TIP3    H217479   0.671   1.260   1.084
 5825TIP3   OH217480   5.730   2.215   4.250
 5825TIP3    H117481   5.757   2.296   4.206
 5825TIP3    H217482   5.781   2.147   4.207
 5826TIP3   OH217483   5.794   5.390   0.845
 5826TIP3    H117484   5.767   5.456   0.781
 5826TIP3    H217485   5.840   5.324   0.793
 5827TIP3   OH217486   2.190   5.990   3.157
 5827TIP3    H117487   2.263   5.985   3.218
 5827TIP3    H217488   2.189   5.906   3.112
 5828TIP3   OH217489   4.764   1.772   0.660
 5828TIP3    H117490   4.831   1.715   0.698
 5828TIP3    H217491   4.785   1.774   0.566
 5829TIP3   OH217492   2.327   3.921   0.312
 5829TIP3    H117493   2.320   3.853   0.245
 5829TIP3    H217494   2.279   3.885   0.387
 5830TIP3   OH217495   4.014   5.713   4.397
 5830TIP3    H117496   4.101   5.674   4.400
 5830TIP3    H217497   4.020   5.780   4.329
 5831TIP3   OH217498   0.734   3.026   3.199
 5831TIP3    H117499   0.705   3.034   3.289
 5831TIP3    H217500   0.786   3.104   3.183
 5832TIP3   OH217501   2.058   4.166   0.650
 5832TIP3    H117502   2.119   4.095   0.668
 5832TIP3    H217503   1.972   4.128   0.664
 5833TIP3   OH217504   0.835   5.807   0.985
 5833TIP3    H117505   0.751   5.785   1.026
 5833TIP3    H217506   0.893   5.828   1.059
 5834TIP3   OH217507   0.320   4.634   1.790
 5834TIP3    H117508   0.225   4.628   1.801
 5834TIP3    H217509   0.345   4.550   1.753
 5835TIP3   OH217510   4.086   0.577   4.572
 5835TIP3    H117511   4.042   0.544   4.494
 5835TIP3    H217512   4.143   0.505   4.600
 5836TIP3   OH217513   0.564   3.703   4.391
 5836TIP3    H117514   0.505   3.688   4.318
 5836TIP3    H217515   0.601   3.789   4.375
 5837TIP3   OH217516   3.643   4.321   4.293
 5837TIP3    H117517   3.606   4.378   4.226
 5837TIP3    H217518   3.675   4.380   4.361
 5838TIP3   OH217519   0.716   0.765   3.924
 5838TIP3    H117520   0.677   0.755   4.011
 5838TIP3    H217521   0.735   0.675   3.896
 5839TIP3   OH217522   0.070   1.536   0.456
 5839TIP3    H117523  -0.019   1.502   0.444
 5839TIP3    H217524   0.081   1.545   0.550
 5840TIP3   OH217525   1.818   4.136   4.350
 5840TIP3    H117526   1.792   4.052   4.311
 5840TIP3    H217527   1.819   4.197   4.276
 5841TIP3   OH217528   2.024   0.217   1.135
 5841TIP3    H117529   1.973   0.142   1.101
 5841TIP3    H217530   2.064   0.184   1.215
 5842TIP3   OH217531   2.929   3.921   1.640
 5842TIP3    H117532   2.956   3.972   1.716
 5842TIP3    H217533   2.962   3.833   1.658
 5843TIP3   OH217534   2.738   1.754   4.860
 5843TIP3    H117535   2.672   1.799   4.808
 5843TIP3    H217536   2.694   1.730   4.941
 5844TIP3   OH217537   5.978   3.031   4.606
 5844TIP3    H117538   5.964   2.999   4.695
 5844TIP3    H217539   6.035   2.966   4.565
 5845TIP3   OH217540   6.013   1.856   2.605
 5845TIP3    H117541   5.923   1.823   2.599
 5845TIP3    H217542   6.021   1.889   2.694
 5846TIP3   OH217543   1.156   2.852   3.765
 5846TIP3    H117544   1.102   2.795   3.710
 5846TIP3    H217545   1.209   2.792   3.816
 5847TIP3   OH217546   1.802   2.599   0.504
 5847TIP3    H117547   1.723   2.629   0.460
 5847TIP3    H217548   1.835   2.528   0.449
 5848TIP3   OH217549   2.015   1.120   5.058
 5848TIP3    H117550   1.955   1.128   4.984
 5848TIP3    H217551   2.058   1.036   5.046
 5849TIP3   OH217552   2.143   2.735   4.688
 5849TIP3    H117553   2.141   2.785   4.607
 5849TIP3    H217554   2.056   2.750   4.727
 5850TIP3   OH217555   5.451   5.140   2.807
 5850TIP3    H117556   5.366   5.184   2.809
 5850TIP3    H217557   5.515   5.210   2.798
 5851TIP3   OH217558   0.991   3.033   4.606
 5851TIP3    H117559   1.066   2.976   4.613
 5851TIP3    H217560   0.985   3.053   4.512
 5852TIP3   OH217561   0.201   0.490   2.247
 5852TIP3    H117562   0.124   0.491   2.189
 5852TIP3    H217563   0.191   0.410   2.298
 5853TIP3   OH217564   1.716   2.210   1.541
 5853TIP3    H117565   1.726   2.183   1.633
 5853TIP3    H217566   1.710   2.306   1.545
 5854TIP3   OH217567   5.192   2.542   2.938
 5854TIP3    H117568   5.255   2.560   3.007
 5854TIP3    H217569   5.206   2.450   2.916
 5855TIP3   OH217570   1.453   2.646   1.539
 5855TIP3    H117571   1.365   2.623   1.569
 5855TIP3    H217572   1.479   2.574   1.483
 5856TIP3   OH217573   2.517   0.421   2.830
 5856TIP3    H117574   2.485   0.365   2.900
 5856TIP3    H217575   2.462   0.499   2.834
 5857TIP3   OH217576   3.199   4.389   3.288
 5857TIP3    H117577   3.147   4.361   3.213
 5857TIP3    H217578   3.246   4.467   3.258
 5858TIP3   OH217579   3.246   0.168   2.821
 5858TIP3    H117580   3.264   0.208   2.736
 5858TIP3    H217581   3.159   0.198   2.845
 5859TIP3   OH217582   4.073   1.695   3.740
 5859TIP3    H117583   4.070   1.613   3.788
 5859TIP3    H217584   4.022   1.678   3.661
 5860TIP3   OH217585   2.624   0.226   0.298
 5860TIP3    H117586   2.652   0.214   0.389
 5860TIP3    H217587   2.645   0.318   0.279
 5861TIP3   OH217588   3.749   1.569   4.379
 5861TIP3    H117589   3.689   1.506   4.339
 5861TIP3    H217590   3.784   1.619   4.306
 5862TIP3   OH217591   5.445   5.384   1.919
 5862TIP3    H117592   5.464   5.330   1.842
 5862TIP3    H217593   5.512   5.452   1.917
 5863TIP3   OH217594   3.890   2.541   1.058
 5863TIP3    H117595   3.837   2.462   1.061
 5863TIP3    H217596   3.901   2.566   1.150
 5864TIP3   OH217597   4.017   2.618   4.535
 5864TIP3    H117598   4.007   2.573   4.619
 5864TIP3    H217599   4.045   2.550   4.474
 5865TIP3   OH217600   0.208   4.605   3.971
 5865TIP3    H117601   0.217   4.682   4.027
 5865TIP3    H217602   0.149   4.634   3.901
 5866TIP3   OH217603   2.921   3.592   3.217
 5866TIP3    H117604   2.990   3.583   3.284
 5866TIP3    H217605   2.839   3.591   3.267
 5867TIP3   OH217606   4.447   4.349   4.700
 5867TIP3    H117607   4.440   4.444   4.687
 5867TIP3    H217608   4.472   4.316   4.614
 5868TIP3   OH217609   0.799   0.527   3.840
 5868TIP3    H117610   0.834   0.540   3.753
 5868TIP3    H217611   0.779   0.433   3.844
 5869TIP3   OH217612   5.495   2.037   0.798
 5869TIP3    H117613   5.557   1.971   0.829
 5869TIP3    H217614   5.430   2.043   0.868
 5870TIP3   OH217615   5.421   5.004   2.042
 5870TIP3    H117616   5.502   4.952   2.036
 5870TIP3    H217617   5.353   4.946   2.006
 5871TIP3   OH217618   1.034   2.387   3.560
 5871TIP3    H117619   1.034   2.480   3.541
 5871TIP3    H217620   1.121   2.357   3.532
 5872TIP3   OH217621   5.936   4.906   0.066
 5872TIP3    H117622   6.017   4.957   0.065
 5872TIP3    H217623   5.934   4.868   0.154
 5873TIP3   OH217624   4.867   4.603   4.445
 5873TIP3    H117625   4.959   4.610   4.421
 5873TIP3    H217626   4.842   4.515   4.417
 5874TIP3   OH217627   5.291   2.220   4.179
 5874TIP3    H117628   5.246   2.147   4.220
 5874TIP3    H217629   5.322   2.274   4.252
 5875TIP3   OH217630   0.748   2.325   4.335
 5875TIP3    H117631   0.679   2.383   4.303
 5875TIP3    H217632   0.702   2.246   4.362
 5876TIP3   OH217633   2.104   0.111   3.508
 5876TIP3    H117634   2.198   0.128   3.494
 5876TIP3    H217635   2.062   0.194   3.487
 5877TIP3   OH217636   5.886   3.024   3.330
 5877TIP3    H117637   5.914   2.994   3.417
 5877TIP3    H217638   5.839   2.949   3.294
 5878TIP3   OH217639   1.592   2.266   4.881
 5878TIP3    H117640   1.529   2.282   4.951
 5878TIP3    H217641   1.654   2.339   4.887
 5879TIP3   OH217642   0.957   0.817   4.584
 5879TIP3    H117643   0.986   0.848   4.498
 5879TIP3    H217644   1.034   0.828   4.640
 5880TIP3   OH217645   2.979   3.347   0.817
 5880TIP3    H117646   2.910   3.360   0.883
 5880TIP3    H217647   3.049   3.302   0.864
 5881TIP3   OH217648   5.646   3.172   3.951
 5881TIP3    H117649   5.699   3.234   3.902
 5881TIP3    H217650   5.580   3.142   3.888
 5882TIP3   OH217651   2.809   1.543   1.156
 5882TIP3    H117652   2.801   1.503   1.243
 5882TIP3    H217653   2.796   1.637   1.172
 5883TIP3   OH217654   3.154   4.604   0.423
 5883TIP3    H117655   3.197   4.581   0.340
 5883TIP3    H217656   3.117   4.691   0.408
 5884TIP3   OH217657   0.158   3.162   0.485
 5884TIP3    H117658   0.217   3.148   0.558
 5884TIP3    H217659   0.095   3.226   0.517
 5885TIP3   OH217660   0.770   1.235   3.272
 5885TIP3    H117661   0.857   1.224   3.312
 5885TIP3    H217662   0.752   1.328   3.281
 5886TIP3   OH217663   3.639   0.361   4.927
 5886TIP3    H117664   3.563   0.390   4.978
 5886TIP3    H217665   3.634   0.266   4.928
 5887TIP3   OH217666   5.958   5.556   2.222
 5887TIP3    H117667   5.990   5.504   2.149
 5887TIP3    H217668   5.863   5.556   2.213
 5888TIP3   OH217669   2.189   2.669   2.903
 5888TIP3    H117670   2.228   2.753   2.880
 5888TIP3    H217671   2.208   2.659   2.996
 5889TIP3   OH217672   1.234   5.176   1.033
 5889TIP3    H117673   1.263   5.260   1.068
 5889TIP3    H217674   1.258   5.178   0.941
 5890TIP3   OH217675   5.381   3.069   3.300
 5890TIP3    H117676   5.427   3.131   3.356
 5890TIP3    H217677   5.366   3.116   3.218
 5891TIP3   OH217678   6.007   0.997   4.802
 5891TIP3    H117679   5.939   0.930   4.798
 5891TIP3    H217680   5.961   1.080   4.788
 5892TIP3   OH217681   5.371   3.665   1.220
 5892TIP3    H117682   5.343   3.602   1.154
 5892TIP3    H217683   5.336   3.749   1.190
 5893TIP3   OH217684   4.784   1.990   0.841
 5893TIP3    H117685   4.877   1.994   0.862
 5893TIP3    H217686   4.779   1.936   0.762
 5894TIP3   OH217687   2.310   0.679   0.318
 5894TIP3    H117688   2.244   0.747   0.307
 5894TIP3    H217689   2.300   0.649   0.408
 5895TIP3   OH217690   3.322   1.754   1.522
 5895TIP3    H117691   3.402   1.747   1.574
 5895TIP3    H217692   3.254   1.716   1.577
 5896TIP3   OH217693   2.653   5.725   2.997
 5896TIP3    H117694   2.742   5.756   3.013
 5896TIP3    H217695   2.608   5.736   3.081
 5897TIP3   OH217696   1.602   4.062   2.596
 5897TIP3    H117697   1.597   3.993   2.662
 5897TIP3    H217698   1.650   4.022   2.523
 5898TIP3   OH217699   1.576   5.132   2.323
 5898TIP3    H117700   1.525   5.067   2.372
 5898TIP3    H217701   1.547   5.123   2.233
 5899TIP3   OH217702   0.196   3.437   4.111
 5899TIP3    H117703   0.133   3.503   4.139
 5899TIP3    H217704   0.187   3.433   4.016
 5900TIP3   OH217705   5.830   5.201   3.541
 5900TIP3    H117706   5.830   5.258   3.465
 5900TIP3    H217707   5.910   5.223   3.588
 5901TIP3   OH217708   0.047   0.149   0.022
 5901TIP3    H117709   0.071   0.175   0.112
 5901TIP3    H217710  -0.018   0.213  -0.005
 5902TIP3   OH217711   1.199   2.874   1.816
 5902TIP3    H117712   1.261   2.826   1.760
 5902TIP3    H217713   1.161   2.808   1.873
 5903TIP3   OH217714   6.319   1.140   2.152
 5903TIP3    H117715   6.396   1.107   2.198
 5903TIP3    H217716   6.261   1.063   2.144
 5904TIP3   OH217717   3.573   1.154   0.812
 5904TIP3    H117718   3.543   1.104   0.737
 5904TIP3    H217719   3.522   1.236   0.808
 5905TIP3   OH217720   1.972   0.549   0.430
 5905TIP3    H117721   1.979   0.624   0.371
 5905TIP3    H217722   1.960   0.474   0.372
 5906TIP3   OH217723   4.902   0.622   3.645
 5906TIP3    H117724   4.889   0.623   3.551
 5906TIP3    H217725   4.864   0.540   3.674
 5907TIP3   OH217726   0.517   4.362   1.448
 5907TIP3    H117727   0.496   4.406   1.366
 5907TIP3    H217728   0.591   4.412   1.483
 5908TIP3   OH217729   0.622   0.452   4.196
 5908TIP3    H117730   0.701   0.405   4.170
 5908TIP3    H217731   0.590   0.403   4.272
 5909TIP3   OH217732   1.243   4.489   1.881
 5909TIP3    H117733   1.328   4.531   1.863
 5909TIP3    H217734   1.254   4.399   1.851
 5910TIP3   OH217735   6.037   3.932   0.369
 5910TIP3    H117736   6.062   4.022   0.347
 5910TIP3    H217737   6.079   3.878   0.302
 5911TIP3   OH217738   1.259   2.351   3.887
 5911TIP3    H117739   1.306   2.289   3.943
 5911TIP3    H217740   1.175   2.364   3.932
 5912TIP3   OH217741   0.530   3.128   4.773
 5912TIP3    H117742   0.574   3.158   4.853
 5912TIP3    H217743   0.593   3.069   4.732
 5913TIP3   OH217744   1.123   2.730   5.194
 5913TIP3    H117745   1.048   2.770   5.149
 5913TIP3    H217746   1.147   2.656   5.139
 5914TIP3   OH217747   5.822   0.163   3.812
 5914TIP3    H117748   5.811   0.211   3.894
 5914TIP3    H217749   5.892   0.101   3.829
 5915TIP3   OH217750   2.608   0.121   5.092
 5915TIP3    H117751   2.588   0.215   5.094
 5915TIP3    H217752   2.691   0.115   5.045
 5916TIP3   OH217753   1.876   2.138  -0.007
 5916TIP3    H117754   1.900   2.169   0.081
 5916TIP3    H217755   1.874   2.043   0.001
 5917TIP3   OH217756   6.136   3.827   0.596
 5917TIP3    H117757   6.142   3.905   0.651
 5917TIP3    H217758   6.089   3.857   0.518
 5918TIP3   OH217759   1.710   3.527   4.130
 5918TIP3    H117760   1.624   3.569   4.133
 5918TIP3    H217761   1.713   3.473   4.209
 5919TIP3   OH217762   1.944   6.002   1.840
 5919TIP3    H117763   1.980   5.989   1.928
 5919TIP3    H217764   1.868   5.944   1.837
 5920TIP3   OH217765   3.724   1.365   4.084
 5920TIP3    H117766   3.697   1.430   4.019
 5920TIP3    H217767   3.651   1.358   4.145
 5921TIP3   OH217768   2.866   4.943   2.918
 5921TIP3    H117769   2.796   5.006   2.933
 5921TIP3    H217770   2.937   4.971   2.976
 5922TIP3   OH217771   3.594   0.604   0.167
 5922TIP3    H117772   3.512   0.564   0.195
 5922TIP3    H217773   3.580   0.627   0.075
 5923TIP3   OH217774   1.302   1.505   1.987
 5923TIP3    H117775   1.248   1.429   1.966
 5923TIP3    H217776   1.342   1.530   1.904
 5924TIP3   OH217777   6.214   1.288   3.093
 5924TIP3    H117778   6.229   1.211   3.148
 5924TIP3    H217779   6.119   1.291   3.081
 5925TIP3   OH217780   1.955   5.582   0.498
 5925TIP3    H117781   1.959   5.568   0.404
 5925TIP3    H217782   1.974   5.496   0.536
 5926TIP3   OH217783   4.972   1.484   1.099
 5926TIP3    H117784   4.985   1.471   1.193
 5926TIP3    H217785   5.051   1.448   1.059
 5927TIP3   OH217786   2.738   4.660   1.769
 5927TIP3    H117787   2.693   4.708   1.838
 5927TIP3    H217788   2.831   4.665   1.792
 5928TIP3   OH217789   0.171   2.374   2.627
 5928TIP3    H117790   0.209   2.288   2.611
 5928TIP3    H217791   0.144   2.371   2.719
 5929TIP3   OH217792   2.462   2.371   0.254
 5929TIP3    H117793   2.524   2.392   0.325
 5929TIP3    H217794   2.467   2.447   0.195
 5930TIP3   OH217795   3.157   1.387   4.882
 5930TIP3    H117796   3.182   1.399   4.974
 5930TIP3    H217797   3.089   1.453   4.868
 5931TIP3   OH217798   3.907   4.183   0.345
 5931TIP3    H117799   3.984   4.214   0.392
 5931TIP3    H217800   3.942   4.137   0.269
 5932TIP3   OH217801   3.168   0.870   0.582
 5932TIP3    H117802   3.076   0.893   0.572
 5932TIP3    H217803   3.193   0.904   0.668
 5933TIP3   OH217804   0.555   5.826   1.871
 5933TIP3    H117805   0.468   5.865   1.881
 5933TIP3    H217806   0.587   5.816   1.961
 5934TIP3   OH217807   1.799   0.782   2.962
 5934TIP3    H117808   1.714   0.803   3.001
 5934TIP3    H217809   1.811   0.688   2.979
 5935TIP3   OH217810   5.402   3.332   4.709
 5935TIP3    H117811   5.416   3.414   4.662
 5935TIP3    H217812   5.450   3.267   4.658
 5936TIP3   OH217813   2.079   0.457   4.867
 5936TIP3    H117814   2.050   0.366   4.877
 5936TIP3    H217815   2.074   0.473   4.773
 5937TIP3   OH217816   3.363   5.742   2.091
 5937TIP3    H117817   3.431   5.718   2.029
 5937TIP3    H217818   3.333   5.659   2.127
 5938TIP3   OH217819   3.146   5.603   2.676
 5938TIP3    H117820   3.122   5.518   2.714
 5938TIP3    H217821   3.127   5.666   2.745
 5939TIP3   OH217822   4.654   0.445   3.513
 5939TIP3    H117823   4.596   0.459   3.438
 5939TIP3    H217824   4.736   0.488   3.488
 5940TIP3   OH217825   0.693   5.058   0.761
 5940TIP3    H117826   0.674   4.986   0.821
 5940TIP3    H217827   0.608   5.099   0.745
 5941TIP3   OH217828   5.660   5.293   1.063
 5941TIP3    H117829   5.693   5.330   0.981
 5941TIP3    H217830   5.733   5.241   1.096
 5942TIP3   OH217831   3.964   2.170   4.429
 5942TIP3    H117832   3.997   2.080   4.436
 5942TIP3    H217833   4.044   2.224   4.424
 5943TIP3   OH217834   4.678   2.294   0.828
 5943TIP3    H117835   4.667   2.203   0.802
 5943TIP3    H217836   4.772   2.302   0.845
 5944TIP3   OH217837   2.980   4.004   0.723
 5944TIP3    H117838   3.029   4.058   0.785
 5944TIP3    H217839   2.900   3.980   0.770
 5945TIP3   OH217840   0.647   4.785   4.694
 5945TIP3    H117841   0.625   4.715   4.755
 5945TIP3    H217842   0.738   4.808   4.715
 5946TIP3   OH217843   1.854   2.462   3.054
 5946TIP3    H117844   1.896   2.456   2.968
 5946TIP3    H217845   1.767   2.426   3.041
 5947TIP3   OH217846   5.148   2.849   2.034
 5947TIP3    H117847   5.159   2.901   1.955
 5947TIP3    H217848   5.230   2.861   2.083
 5948TIP3   OH217849   2.518   2.810   3.338
 5948TIP3    H117850   2.549   2.800   3.428
 5948TIP3    H217851   2.464   2.890   3.340
 5949TIP3   OH217852   0.375   2.839   4.610
 5949TIP3    H117853   0.390   2.795   4.526
 5949TIP3    H217854   0.331   2.921   4.587
 5950TIP3   OH217855   0.503   0.212   0.445
 5950TIP3    H117856   0.465   0.251   0.524
 5950TIP3    H217857   0.427   0.182   0.395
 5951TIP3   OH217858   0.610   3.525   2.770
 5951TIP3    H117859   0.641   3.446   2.726
 5951TIP3    H217860   0.689   3.563   2.809
 5952TIP3   OH217861   3.545   2.918   0.417
 5952TIP3    H117862   3.547   2.879   0.504
 5952TIP3    H217863   3.532   2.844   0.358
 5953TIP3   OH217864   2.302   4.655   4.163
 5953TIP3    H117865   2.221   4.704   4.178
 5953TIP3    H217866   2.356   4.672   4.240
 5954TIP3   OH217867   1.222   2.059   0.834
 5954TIP3    H117868   1.140   2.077   0.880
 5954TIP3    H217869   1.201   1.986   0.776
 5955TIP3   OH217870   1.733   0.196   3.754
 5955TIP3    H117871   1.673   0.212   3.827
 5955TIP3    H217872   1.685   0.225   3.677
 5956TIP3   OH217873   0.676   5.287   4.392
 5956TIP3    H117874   0.770   5.280   4.380
 5956TIP3    H217875   0.663   5.370   4.439
 5957TIP3   OH217876   3.696   2.312   4.984
 5957TIP3    H117877   3.722   2.332   4.894
 5957TIP3    H217878   3.675   2.397   5.022
 5958TIP3   OH217879   4.495   3.002   0.017
 5958TIP3    H117880   4.520   2.916   0.054
 5958TIP3    H217881   4.573   3.030  -0.031
 5959TIP3   OH217882   3.140   3.865   1.417
 5959TIP3    H117883   3.075   3.868   1.487
 5959TIP3    H217884   3.211   3.921   1.448
 5960TIP3   OH217885   0.003   4.272   3.952
 5960TIP3    H117886   0.020   4.195   4.006
 5960TIP3    H217887   0.054   4.258   3.872
 5961TIP3   OH217888   3.031   3.674   1.639
 5961TIP3    H117889   3.055   3.648   1.728
 5961TIP3    H217890   3.075   3.612   1.582
 5962TIP3   OH217891   6.070   5.003   4.789
 5962TIP3    H117892   6.005   5.004   4.860
 5962TIP3    H217893   6.066   4.915   4.754
 5963TIP3   OH217894   1.179   5.748   1.867
 5963TIP3    H117895   1.268   5.735   1.902
 5963TIP3    H217896   1.189   5.738   1.773
 5964TIP3   OH217897   4.091   3.615   0.850
 5964TIP3    H117898   4.083   3.709   0.835
 5964TIP3    H217899   4.123   3.581   0.766
 5965TIP3   OH217900   3.904   3.284   3.498
 5965TIP3    H117901   3.823   3.291   3.447
 5965TIP3    H217902   3.879   3.314   3.585
 5966TIP3   OH217903   2.686   3.208   0.073
 5966TIP3    H117904   2.700   3.280   0.012
 5966TIP3    H217905   2.751   3.223   0.143
 5967TIP3   OH217906   2.094   5.710   4.957
 5967TIP3    H117907   2.131   5.771   5.021
 5967TIP3    H217908   2.151   5.633   4.962
 5968TIP3   OH217909   3.028   0.605   2.860
 5968TIP3    H117910   3.054   0.553   2.936
 5968TIP3    H217911   3.065   0.692   2.877
 5969TIP3   OH217912   4.286   2.696   5.052
 5969TIP3    H117913   4.381   2.691   5.049
 5969TIP3    H217914   4.268   2.788   5.072
 5970TIP3   OH217915   3.415   5.193   2.018
 5970TIP3    H117916   3.360   5.116   2.004
 5970TIP3    H217917   3.446   5.216   1.931
 5971TIP3   OH217918   0.732   0.390   1.610
 5971TIP3    H117919   0.733   0.384   1.515
 5971TIP3    H217920   0.821   0.368   1.637
 5972TIP3   OH217921   3.030   0.670   1.233
 5972TIP3    H117922   3.040   0.628   1.148
 5972TIP3    H217923   2.937   0.694   1.237
 5973TIP3   OH217924   1.758   1.725   1.032
 5973TIP3    H117925   1.742   1.633   1.012
 5973TIP3    H217926   1.758   1.768   0.946
 5974TIP3   OH217927   1.139   0.397   1.062
 5974TIP3    H117928   1.052   0.359   1.053
 5974TIP3    H217929   1.140   0.434   1.150
 5975TIP3   OH217930   3.080   0.819  -0.010
 5975TIP3    H117931   3.067   0.895   0.046
 5975TIP3    H217932   3.021   0.753   0.026
 5976TIP3   OH217933   1.729   5.546   1.373
 5976TIP3    H117934   1.680   5.626   1.354
 5976TIP3    H217935   1.664   5.476   1.366
 5977TIP3   OH217936   4.839   1.241   4.889
 5977TIP3    H117937   4.757   1.263   4.844
 5977TIP3    H217938   4.815   1.235   4.981
 5978TIP3   OH217939   4.393   1.742   3.669
 5978TIP3    H117940   4.403   1.653   3.704
 5978TIP3    H217941   4.300   1.747   3.645
 5979TIP3   OH217942   5.557   2.417   3.723
 5979TIP3    H117943   5.503   2.452   3.652
 5979TIP3    H217944   5.498   2.357   3.770
 5980TIP3   OH217945   6.243   3.990   2.175
 5980TIP3    H117946   6.165   4.046   2.186
 5980TIP3    H217947   6.312   4.036   2.222
 5981TIP3   OH217948   4.453   4.902   1.101
 5981TIP3    H117949   4.514   4.859   1.161
 5981TIP3    H217950   4.420   4.831   1.045
 5982TIP3   OH217951   1.407   4.814   4.462
 5982TIP3    H117952   1.467   4.740   4.454
 5982TIP3    H217953   1.365   4.821   4.376
 5983TIP3   OH217954   4.027   2.109   0.833
 5983TIP3    H117955   4.038   2.035   0.772
 5983TIP3    H217956   4.058   2.185   0.784
 5984TIP3   OH217957   0.332   3.483   1.416
 5984TIP3    H117958   0.237   3.470   1.411
 5984TIP3    H217959   0.345   3.575   1.394
 5985TIP3   OH217960   1.233   5.799   1.585
 5985TIP3    H117961   1.276   5.808   1.500
 5985TIP3    H217962   1.141   5.821   1.568
 5986TIP3   OH217963   3.450   2.736   4.542
 5986TIP3    H117964   3.454   2.666   4.608
 5986TIP3    H217965   3.510   2.708   4.474
 5987TIP3   OH217966   0.845   2.188   2.356
 5987TIP3    H117967   0.761   2.233   2.353
 5987TIP3    H217968   0.825   2.097   2.336
 5988TIP3   OH217969   3.014   1.613   4.109
 5988TIP3    H117970   3.037   1.706   4.104
 5988TIP3    H217971   2.991   1.599   4.200
 5989TIP3   OH217972   1.505   1.133   0.977
 5989TIP3    H117973   1.538   1.222   0.970
 5989TIP3    H217974   1.560   1.083   0.916
 5990TIP3   OH217975   3.649   0.372   3.223
 5990TIP3    H117976   3.577   0.368   3.160
 5990TIP3    H217977   3.696   0.290   3.210
 5991TIP3   OH217978   2.111   5.409   4.291
 5991TIP3    H117979   2.151   5.460   4.362
 5991TIP3    H217980   2.184   5.380   4.237
 5992TIP3   OH217981   1.210   3.305   4.506
 5992TIP3    H117982   1.231   3.337   4.418
 5992TIP3    H217983   1.181   3.215   4.492
 5993TIP3   OH217984   5.074   2.537   5.004
 5993TIP3    H117985   5.084   2.629   4.982
 5993TIP3    H217986   5.041   2.537   5.094
 5994TIP3   OH217987   0.469   4.459   2.781
 5994TIP3    H117988   0.445   4.367   2.781
 5994TIP3    H217989   0.455   4.487   2.690
 5995TIP3   OH217990   3.617   3.781   3.255
 5995TIP3    H117991   3.649   3.784   3.345
 5995TIP3    H217992   3.527   3.749   3.262
 5996TIP3   OH217993   4.592   5.513   3.348
 5996TIP3    H117994   4.616   5.578   3.282
 5996TIP3    H217995   4.630   5.545   3.430
 5997TIP3   OH217996   3.812   1.185   2.288
 5997TIP3    H117997   3.801   1.182   2.193
 5997TIP3    H217998   3.728   1.158   2.324
 5998TIP3   OH217999   5.808   3.801   0.316
 5998TIP3    H118000   5.887   3.855   0.318
 5998TIP3    H218001   5.744   3.854   0.269
 5999TIP3   OH218002   3.627   0.843   4.626
 5999TIP3    H118003   3.653   0.768   4.679
 5999TIP3    H218004   3.700   0.857   4.566
 6000TIP3   OH218005   0.786   5.557   1.336
 6000TIP3    H118006   0.749   5.613   1.268
 6000TIP3    H218007   0.854   5.610   1.377
 6001TIP3   OH218008   3.164   2.029   1.209
 6001TIP3    H118009   3.141   1.939   1.231
 6001TIP3    H218010   3.139   2.081   1.285
 6002TIP3   OH218011   4.788   5.826   0.813
 6002TIP3    H118012   4.746   5.778   0.743
 6002TIP3    H218013   4.878   5.839   0.783
 6003TIP3   OH218014   4.473   4.172   3.686
 6003TIP3    H118015   4.546   4.204   3.633
 6003TIP3    H218016   4.514   4.116   3.752
 6004TIP3   OH218017   2.458   4.691   0.635
 6004TIP3    H118018   2.448   4.778   0.596
 6004TIP3    H218019   2.549   4.667   0.616
 6005TIP3   OH218020   5.929   4.476   4.393
 6005TIP3    H118021   6.021   4.499   4.406
 6005TIP3    H218022   5.916   4.398   4.446
 6006TIP3   OH218023   2.342   0.892   1.220
 6006TIP3    H118024   2.381   0.978   1.203
 6006TIP3    H218025   2.359   0.875   1.312
 6007TIP3   OH218026   4.761   0.738   1.311
 6007TIP3    H118027   4.818   0.704   1.379
 6007TIP3    H218028   4.819   0.787   1.253
 6008TIP3   OH218029   5.395   1.506   2.255
 6008TIP3    H118030   5.352   1.569   2.197
 6008TIP3    H218031   5.423   1.558   2.330
 6009TIP3   OH218032   3.501   1.308   2.206
 6009TIP3    H118033   3.443   1.233   2.197
 6009TIP3    H218034   3.566   1.297   2.138
 6010TIP3   OH218035   2.089   1.572   0.185
 6010TIP3    H118036   2.126   1.660   0.198
 6010TIP3    H218037   2.154   1.514   0.224
 6011TIP3   OH218038   0.308   0.363   4.646
 6011TIP3    H118039   0.313   0.340   4.553
 6011TIP3    H218040   0.392   0.404   4.665
 6012TIP3   OH218041   2.182   3.606   4.326
 6012TIP3    H118042   2.228   3.529   4.295
 6012TIP3    H218043   2.141   3.579   4.408
 6013TIP3   OH218044   2.007   3.539   3.069
 6013TIP3    H118045   2.016   3.447   3.093
 6013TIP3    H218046   1.924   3.566   3.109
 6014TIP3   OH218047   3.271   5.542   2.978
 6014TIP3    H118048   3.188   5.586   2.993
 6014TIP3    H218049   3.329   5.611   2.946
 6015TIP3   OH218050   3.983   5.618   1.814
 6015TIP3    H118051   3.981   5.540   1.760
 6015TIP3    H218052   4.017   5.687   1.757
 6016TIP3   OH218053   3.877   2.883   2.138
 6016TIP3    H118054   3.899   2.932   2.058
 6016TIP3    H218055   3.826   2.945   2.191
 6017TIP3   OH218056   2.431   3.069   4.139
 6017TIP3    H118057   2.491   3.094   4.069
 6017TIP3    H218058   2.487   3.029   4.205
 6018TIP3   OH218059   1.914   0.118   1.964
 6018TIP3    H118060   1.940   0.197   2.011
 6018TIP3    H218061   1.838   0.085   2.012
 6019TIP3   OH218062   5.337   4.605   1.067
 6019TIP3    H118063   5.390   4.600   0.987
 6019TIP3    H218064   5.345   4.518   1.106
 6020TIP3   OH218065   5.843   4.755   0.735
 6020TIP3    H118066   5.860   4.665   0.761
 6020TIP3    H218067   5.832   4.751   0.640
 6021TIP3   OH218068   2.190   3.983   2.480
 6021TIP3    H118069   2.285   3.970   2.480
 6021TIP3    H218070   2.179   4.077   2.496
 6022TIP3   OH218071   0.071   2.217   1.379
 6022TIP3    H118072   0.055   2.270   1.301
 6022TIP3    H218073   0.078   2.127   1.346
 6023TIP3   OH218074   2.723   0.645   3.974
 6023TIP3    H118075   2.683   0.583   3.913
 6023TIP3    H218076   2.802   0.601   4.004
 6024TIP3   OH218077   1.935   0.692   1.184
 6024TIP3    H118078   2.006   0.660   1.128
 6024TIP3    H218079   1.881   0.614   1.201
 6025TIP3   OH218080   1.047   1.837   5.083
 6025TIP3    H118081   1.036   1.885   5.165
 6025TIP3    H218082   1.118   1.775   5.101
 6026TIP3   OH218083   5.177   3.629   1.472
 6026TIP3    H118084   5.143   3.661   1.388
 6026TIP3    H218085   5.247   3.691   1.495
 6027TIP3   OH218086   2.164   3.909   3.563
 6027TIP3    H118087   2.069   3.921   3.574
 6027TIP3    H218088   2.203   3.971   3.624
 6028TIP3   OH218089   0.448   3.586   3.048
 6028TIP3    H118090   0.490   3.505   3.078
 6028TIP3    H218091   0.488   3.655   3.101
 6029TIP3   OH218092   2.810   0.244   0.026
 6029TIP3    H118093   2.788   0.277   0.114
 6029TIP3    H218094   2.773   0.156   0.024
 6030TIP3   OH218095   5.022   5.819   3.050
 6030TIP3    H118096   5.090   5.858   2.995
 6030TIP3    H218097   5.020   5.873   3.128
 6031TIP3   OH218098   3.360   4.679   2.590
 6031TIP3    H118099   3.433   4.739   2.577
 6031TIP3    H218100   3.380   4.633   2.671
 6032TIP3   OH218101   1.222   4.245   3.929
 6032TIP3    H118102   1.296   4.255   3.989
 6032TIP3    H218103   1.261   4.216   3.847
 6033TIP3   OH218104   0.554   2.880   4.323
 6033TIP3    H118105   0.589   2.947   4.380
 6033TIP3    H218106   0.489   2.925   4.269
 6034TIP3   OH218107   2.013   2.049   4.029
 6034TIP3    H118108   1.946   2.098   4.077
 6034TIP3    H218109   2.014   2.089   3.942
 6035TIP3   OH218110   5.868   0.284   0.157
 6035TIP3    H118111   5.894   0.223   0.088
 6035TIP3    H218112   5.820   0.353   0.111
 6036TIP3   OH218113   2.421   2.624   3.641
 6036TIP3    H118114   2.373   2.693   3.686
 6036TIP3    H218115   2.446   2.563   3.711
 6037TIP3   OH218116   1.138   0.176   3.071
 6037TIP3    H118117   1.209   0.121   3.106
 6037TIP3    H218118   1.182   0.255   3.041
 6038TIP3   OH218119   5.953   1.042   2.084
 6038TIP3    H118120   5.940   1.012   2.174
 6038TIP3    H218121   6.044   1.021   2.064
 6039TIP3   OH218122   2.277   5.091   2.277
 6039TIP3    H118123   2.219   5.021   2.309
 6039TIP3    H218124   2.357   5.081   2.327
 6040TIP3   OH218125   4.548   0.748   2.413
 6040TIP3    H118126   4.636   0.771   2.444
 6040TIP3    H218127   4.541   0.791   2.328
 6041TIP3   OH218128   1.725   4.532   4.798
 6041TIP3    H118129   1.795   4.597   4.787
 6041TIP3    H218130   1.733   4.476   4.721
 6042TIP3   OH218131   2.450   5.981   5.001
 6042TIP3    H118132   2.378   5.918   5.003
 6042TIP3    H218133   2.469   5.993   4.908
 6043TIP3   OH218134   4.059   3.952   0.965
 6043TIP3    H118135   4.039   4.044   0.981
 6043TIP3    H218136   4.001   3.926   0.894
 6044TIP3   OH218137   6.259   5.329   1.733
 6044TIP3    H118138   6.228   5.249   1.773
 6044TIP3    H218139   6.268   5.391   1.805
 6045TIP3   OH218140   5.078   0.764   0.833
 6045TIP3    H118141   5.040   0.695   0.888
 6045TIP3    H218142   5.037   0.752   0.747
 6046TIP3   OH218143   1.549   4.183   4.782
 6046TIP3    H118144   1.577   4.092   4.793
 6046TIP3    H218145   1.571   4.224   4.866
 6047TIP3   OH218146   4.201   1.798   2.608
 6047TIP3    H118147   4.176   1.711   2.641
 6047TIP3    H218148   4.291   1.788   2.579
 6048TIP3   OH218149   5.605   5.355   2.739
 6048TIP3    H118150   5.571   5.316   2.658
 6048TIP3    H218151   5.553   5.435   2.749
 6049TIP3   OH218152   0.821   5.485   3.408
 6049TIP3    H118153   0.899   5.477   3.354
 6049TIP3    H218154   0.850   5.533   3.486
 6050TIP3   OH218155   2.461   1.516   0.193
 6050TIP3    H118156   2.537   1.574   0.191
 6050TIP3    H218157   2.397   1.562   0.247
 6051TIP3   OH218158   3.358   1.662   2.504
 6051TIP3    H118159   3.349   1.734   2.566
 6051TIP3    H218160   3.425   1.605   2.542
 6052TIP3   OH218161   0.682   5.332   1.477
 6052TIP3    H118162   0.743   5.390   1.430
 6052TIP3    H218163   0.738   5.283   1.537
 6053TIP3   OH218164   1.063   1.051   0.945
 6053TIP3    H118165   1.147   1.040   0.901
 6053TIP3    H218166   1.073   1.129   0.999
 6054TIP3   OH218167   1.097   5.034   1.841
 6054TIP3    H118168   1.137   4.947   1.843
 6054TIP3    H218169   1.012   5.023   1.883
 6055TIP3   OH218170   3.328   1.215   3.870
 6055TIP3    H118171   3.267   1.142   3.865
 6055TIP3    H218172   3.272   1.292   3.877
 6056TIP3   OH218173   4.148   5.483   2.008
 6056TIP3    H118174   4.083   5.521   1.948
 6056TIP3    H218175   4.112   5.500   2.096
 6057TIP3   OH218176   0.924   5.364   2.195
 6057TIP3    H118177   0.944   5.438   2.137
 6057TIP3    H218178   1.008   5.344   2.237
 6058TIP3   OH218179   5.551   2.211   0.099
 6058TIP3    H118180   5.602   2.274   0.149
 6058TIP3    H218181   5.476   2.190   0.155
 6059TIP3   OH218182   2.265   2.368   4.804
 6059TIP3    H118183   2.298   2.295   4.857
 6059TIP3    H218184   2.219   2.424   4.866
 6060TIP3   OH218185   2.164   5.764   3.694
 6060TIP3    H118186   2.236   5.702   3.707
 6060TIP3    H218187   2.086   5.709   3.687
 6061TIP3   OH218188   2.885   5.099   1.809
 6061TIP3    H118189   2.870   5.193   1.818
 6061TIP3    H218190   2.844   5.075   1.726
 6062TIP3   OH218191   3.478   5.535   1.248
 6062TIP3    H118192   3.514   5.447   1.254
 6062TIP3    H218193   3.495   5.574   1.334
 6063TIP3   OH218194   4.480   3.761   1.992
 6063TIP3    H118195   4.482   3.696   2.062
 6063TIP3    H218196   4.514   3.841   2.031
 6064TIP3   OH218197   0.479   4.995   5.151
 6064TIP3    H118198   0.553   5.033   5.103
 6064TIP3    H218199   0.402   5.034   5.110
 6065TIP3   OH218200   3.242   2.533   1.074
 6065TIP3    H118201   3.166   2.553   1.129
 6065TIP3    H218202   3.309   2.503   1.135
 6066TIP3   OH218203   1.485   1.182   2.185
 6066TIP3    H118204   1.416   1.176   2.250
 6066TIP3    H218205   1.439   1.201   2.103
 6067TIP3   OH218206   2.604   3.350   0.707
 6067TIP3    H118207   2.528   3.301   0.676
 6067TIP3    H218208   2.679   3.309   0.664
 6068TIP3   OH218209   3.723   4.569   3.480
 6068TIP3    H118210   3.642   4.591   3.526
 6068TIP3    H218211   3.696   4.512   3.408
 6069TIP3   OH218212   3.622   2.898   4.740
 6069TIP3    H118213   3.603   2.971   4.681
 6069TIP3    H218214   3.677   2.840   4.688
 6070TIP3   OH218215   4.297   4.797   1.543
 6070TIP3    H118216   4.262   4.752   1.467
 6070TIP3    H218217   4.379   4.835   1.513
 6071TIP3   OH218218   1.497   1.060   2.717
 6071TIP3    H118219   1.422   1.040   2.662
 6071TIP3    H218220   1.560   1.102   2.658
 6072TIP3   OH218221   1.533   3.631   3.607
 6072TIP3    H118222   1.613   3.628   3.660
 6072TIP3    H218223   1.565   3.645   3.517
 6073TIP3   OH218224   5.514   0.682   1.550
 6073TIP3    H118225   5.571   0.734   1.607
 6073TIP3    H218226   5.488   0.608   1.604
 6074TIP3   OH218227   1.241   5.050   1.569
 6074TIP3    H118228   1.332   5.076   1.583
 6074TIP3    H218229   1.201   5.056   1.656
 6075TIP3   OH218230   3.309   2.882   5.101
 6075TIP3    H118231   3.291   2.965   5.145
 6075TIP3    H218232   3.395   2.894   5.061
 6076TIP3   OH218233   0.138   1.472   2.713
 6076TIP3    H118234   0.126   1.412   2.787
 6076TIP3    H218235   0.156   1.415   2.638
 6077TIP3   OH218236   3.402   3.219   0.742
 6077TIP3    H118237   3.354   3.284   0.692
 6077TIP3    H218238   3.338   3.151   0.761
 6078TIP3   OH218239   0.941   5.000   2.351
 6078TIP3    H118240   1.004   4.946   2.400
 6078TIP3    H218241   0.905   5.060   2.416
 6079TIP3   OH218242   1.714   4.044   3.069
 6079TIP3    H118243   1.735   4.008   3.155
 6079TIP3    H218244   1.796   4.086   3.040
 6080TIP3   OH218245   5.045   2.141   1.500
 6080TIP3    H118246   4.949   2.141   1.502
 6080TIP3    H218247   5.070   2.070   1.559
 6081TIP3   OH218248   0.583   1.823   1.307
 6081TIP3    H118249   0.623   1.889   1.363
 6081TIP3    H218250   0.545   1.872   1.234
 6082TIP3   OH218251   0.540   5.086   2.275
 6082TIP3    H118252   0.605   5.148   2.241
 6082TIP3    H218253   0.515   5.121   2.360
 6083TIP3   OH218254   0.378   0.994   4.686
 6083TIP3    H118255   0.336   1.060   4.742
 6083TIP3    H218256   0.355   0.910   4.726
 6084TIP3   OH218257   5.934   0.431   0.596
 6084TIP3    H118258   6.022   0.421   0.632
 6084TIP3    H218259   5.893   0.497   0.652
 6085TIP3   OH218260   4.911   0.121   1.338
 6085TIP3    H118261   4.827   0.099   1.298
 6085TIP3    H218262   4.976   0.083   1.279
 6086TIP3   OH218263   3.538   2.972   3.845
 6086TIP3    H118264   3.447   2.985   3.819
 6086TIP3    H218265   3.538   2.980   3.940
 6087TIP3   OH218266   1.982   3.821   2.365
 6087TIP3    H118267   2.050   3.867   2.413
 6087TIP3    H218268   2.020   3.805   2.279
 6088TIP3   OH218269   1.106   1.051   0.162
 6088TIP3    H118270   1.065   0.968   0.186
 6088TIP3    H218271   1.156   1.031   0.083
 6089TIP3   OH218272   4.964   5.253   4.190
 6089TIP3    H118273   5.046   5.261   4.140
 6089TIP3    H218274   4.896   5.278   4.129
 6090TIP3   OH218275   2.707   4.004   5.133
 6090TIP3    H118276   2.632   4.062   5.117
 6090TIP3    H218277   2.755   4.045   5.205
 6091TIP3   OH218278   5.330   2.247   1.885
 6091TIP3    H118279   5.267   2.176   1.898
 6091TIP3    H218280   5.362   2.267   1.973
 6092TIP3   OH218281   2.009   0.436   2.422
 6092TIP3    H118282   1.921   0.400   2.438
 6092TIP3    H218283   2.058   0.411   2.501
 6093TIP3   OH218284   3.914   4.772   3.246
 6093TIP3    H118285   3.973   4.729   3.183
 6093TIP3    H218286   3.827   4.749   3.216
 6094TIP3   OH218287   3.304   1.182   1.079
 6094TIP3    H118288   3.212   1.187   1.054
 6094TIP3    H218289   3.303   1.159   1.172
 6095TIP3   OH218290   2.944   1.357   2.113
 6095TIP3    H118291   3.035   1.358   2.082
 6095TIP3    H218292   2.917   1.449   2.110
 6096TIP3   OH218293   5.502   4.067   0.627
 6096TIP3    H118294   5.571   4.112   0.577
 6096TIP3    H218295   5.420   4.101   0.590
 6097TIP3   OH218296   3.203   4.868   2.961
 6097TIP3    H118297   3.297   4.862   2.979
 6097TIP3    H218298   3.172   4.936   3.021
 6098TIP3   OH218299   5.393   5.466   2.245
 6098TIP3    H118300   5.356   5.552   2.224
 6098TIP3    H218301   5.332   5.428   2.307
 6099TIP3   OH218302   1.555   3.353   3.345
 6099TIP3    H118303   1.470   3.351   3.301
 6099TIP3    H218304   1.566   3.444   3.373
 6100TIP3   OH218305   2.844   0.783   2.559
 6100TIP3    H118306   2.908   0.814   2.495
 6100TIP3    H218307   2.885   0.708   2.601
 6101TIP3   OH218308   1.801   4.800   4.521
 6101TIP3    H118309   1.762   4.762   4.442
 6101TIP3    H218310   1.729   4.847   4.563
 6102TIP3   OH218311   4.743   0.020   1.905
 6102TIP3    H118312   4.786  -0.047   1.853
 6102TIP3    H218313   4.815   0.074   1.939
 6103TIP3   OH218314   3.428   3.973   2.583
 6103TIP3    H118315   3.404   3.887   2.616
 6103TIP3    H218316   3.514   3.960   2.543
 6104TIP3   OH218317   0.576   0.727   4.187
 6104TIP3    H118318   0.669   0.752   4.192
 6104TIP3    H218319   0.578   0.633   4.168
 6105TIP3   OH218320   6.282   5.970   4.438
 6105TIP3    H118321   6.311   6.046   4.488
 6105TIP3    H218322   6.190   5.959   4.461
 6106TIP3   OH218323   4.346   3.325   3.222
 6106TIP3    H118324   4.307   3.297   3.139
 6106TIP3    H218325   4.440   3.318   3.207
 6107TIP3   OH218326   3.253   1.778   3.235
 6107TIP3    H118327   3.177   1.773   3.178
 6107TIP3    H218328   3.255   1.869   3.265
 6108TIP3   OH218329   2.836   2.215   3.868
 6108TIP3    H118330   2.865   2.125   3.853
 6108TIP3    H218331   2.865   2.235   3.957
 6109TIP3   OH218332   1.376   1.468   1.586
 6109TIP3    H118333   1.311   1.475   1.516
 6109TIP3    H218334   1.410   1.557   1.595
 6110TIP3   OH218335   3.238  -0.001   3.012
 6110TIP3    H118336   3.328  -0.019   3.040
 6110TIP3    H218337   3.248   0.058   2.937
 6111TIP3   OH218338   1.596   1.585   2.544
 6111TIP3    H118339   1.603   1.516   2.478
 6111TIP3    H218340   1.506   1.579   2.576
 6112TIP3   OH218341   1.132   0.109   5.050
 6112TIP3    H118342   1.225   0.092   5.040
 6112TIP3    H218343   1.104   0.053   5.122
 6113TIP3   OH218344   3.485   0.523   0.853
 6113TIP3    H118345   3.521   0.597   0.903
 6113TIP3    H218346   3.554   0.457   0.855
 6114TIP3   OH218347   3.095   1.334   5.183
 6114TIP3    H118348   3.011   1.306   5.146
 6114TIP3    H218349   3.076   1.344   5.277
 6115TIP3   OH218350   1.923   2.339   3.742
 6115TIP3    H118351   1.970   2.256   3.737
 6115TIP3    H218352   1.988   2.403   3.772
 6116TIP3   OH218353   4.367   3.742   2.452
 6116TIP3    H118354   4.370   3.691   2.533
 6116TIP3    H218355   4.306   3.693   2.396
 6117TIP3   OH218356   1.235   2.629   3.917
 6117TIP3    H118357   1.250   2.540   3.883
 6117TIP3    H218358   1.144   2.628   3.946
 6118TIP3   OH218359   2.083   2.240   5.109
 6118TIP3    H118360   2.030   2.184   5.052
 6118TIP3    H218361   2.031   2.247   5.190
 6119TIP3   OH218362   0.139   1.408   3.704
 6119TIP3    H118363   0.224   1.365   3.713
 6119TIP3    H218364   0.076   1.347   3.743
 6120TIP3   OH218365   3.796   1.584   1.635
 6120TIP3    H118366   3.808   1.493   1.610
 6120TIP3    H218367   3.759   1.626   1.557
 6121TIP3   OH218368   3.188   2.356   1.375
 6121TIP3    H118369   3.233   2.339   1.458
 6121TIP3    H218370   3.248   2.320   1.309
 6122TIP3   OH218371   4.257   5.406   0.621
 6122TIP3    H118372   4.207   5.399   0.540
 6122TIP3    H218373   4.348   5.399   0.594
 6123TIP3   OH218374   2.215   3.281   4.957
 6123TIP3    H118375   2.258   3.272   5.041
 6123TIP3    H218376   2.250   3.361   4.919
 6124TIP3   OH218377   5.563   5.756   5.081
 6124TIP3    H118378   5.566   5.851   5.093
 6124TIP3    H218379   5.613   5.721   5.155
 6125TIP3   OH218380   3.205   0.365   2.041
 6125TIP3    H118381   3.159   0.435   1.995
 6125TIP3    H218382   3.214   0.295   1.977
 6126TIP3   OH218383   6.107   0.801   4.151
 6126TIP3    H118384   6.030   0.773   4.199
 6126TIP3    H218385   6.080   0.801   4.059
 6127TIP3   OH218386   1.569   5.835   3.378
 6127TIP3    H118387   1.570   5.914   3.433
 6127TIP3    H218388   1.479   5.830   3.346
 6128TIP3   OH218389   3.638   3.354   3.630
 6128TIP3    H118390   3.548   3.382   3.646
 6128TIP3    H218391   3.691   3.432   3.644
 6129TIP3   OH218392   0.149   2.926   2.742
 6129TIP3    H118393   0.082   2.920   2.674
 6129TIP3    H218394   0.114   2.990   2.804
 6130TIP3   OH218395   2.351   5.088   0.779
 6130TIP3    H118396   2.386   5.057   0.862
 6130TIP3    H218397   2.394   5.172   0.765
 6131TIP3   OH218398   2.346   1.874   1.840
 6131TIP3    H118399   2.304   1.815   1.778
 6131TIP3    H218400   2.429   1.897   1.800
 6132TIP3   OH218401   0.769   2.791   4.035
 6132TIP3    H118402   0.696   2.838   3.994
 6132TIP3    H218403   0.728   2.730   4.095
 6133TIP3   OH218404   2.097   5.175   2.521
 6133TIP3    H118405   2.125   5.088   2.491
 6133TIP3    H218406   2.023   5.198   2.464
 6134TIP3   OH218407   5.350   2.210   5.085
 6134TIP3    H118408   5.296   2.164   5.021
 6134TIP3    H218409   5.289   2.241   5.151
 6135TIP3   OH218410   0.305   1.156   1.899
 6135TIP3    H118411   0.231   1.095   1.896
 6135TIP3    H218412   0.382   1.101   1.891
 6136TIP3   OH218413   5.082   1.825   3.228
 6136TIP3    H118414   5.018   1.774   3.179
 6136TIP3    H218415   5.136   1.759   3.272
 6137TIP3   OH218416   3.573   1.434   1.354
 6137TIP3    H118417   3.585   1.529   1.362
 6137TIP3    H218418   3.631   1.398   1.421
 6138TIP3   OH218419   2.163   5.351   3.656
 6138TIP3    H118420   2.151   5.333   3.563
 6138TIP3    H218421   2.103   5.291   3.700
 6139TIP3   OH218422   0.489   0.493   1.026
 6139TIP3    H118423   0.443   0.449   0.955
 6139TIP3    H218424   0.521   0.575   0.987
 6140TIP3   OH218425   0.907   0.853   3.731
 6140TIP3    H118426   0.843   0.827   3.797
 6140TIP3    H218427   0.971   0.905   3.780
 6141TIP3   OH218428   5.169   1.386   0.945
 6141TIP3    H118429   5.225   1.461   0.928
 6141TIP3    H218430   5.229   1.314   0.964
 6142TIP3   OH218431   4.635   1.241   1.650
 6142TIP3    H118432   4.553   1.290   1.653
 6142TIP3    H218433   4.631   1.192   1.568
 6143TIP3   OH218434   4.831   1.404  -0.026
 6143TIP3    H118435   4.842   1.383   0.067
 6143TIP3    H218436   4.819   1.499  -0.028
 6144TIP3   OH218437   5.492   1.864   0.419
 6144TIP3    H118438   5.500   1.882   0.325
 6144TIP3    H218439   5.466   1.772   0.423
 6145TIP3   OH218440   0.979   2.591   3.106
 6145TIP3    H118441   0.895   2.577   3.149
 6145TIP3    H218442   0.988   2.516   3.048
 6146TIP3   OH218443   4.013   4.727   1.150
 6146TIP3    H118444   4.041   4.809   1.109
 6146TIP3    H218445   3.929   4.747   1.191
 6147TIP3   OH218446   4.549   3.262   2.895
 6147TIP3    H118447   4.616   3.196   2.913
 6147TIP3    H218448   4.582   3.341   2.939
 6148TIP3   OH218449   5.560   4.029   5.088
 6148TIP3    H118450   5.604   3.997   5.009
 6148TIP3    H218451   5.467   4.016   5.071
 6149TIP3   OH218452   2.253   4.342   1.852
 6149TIP3    H118453   2.185   4.281   1.880
 6149TIP3    H218454   2.206   4.409   1.803
 6150TIP3   OH218455   1.372   5.355   5.035
 6150TIP3    H118456   1.386   5.272   5.082
 6150TIP3    H218457   1.369   5.421   5.104
 6151TIP3   OH218458   0.757   3.303   2.619
 6151TIP3    H118459   0.810   3.244   2.565
 6151TIP3    H218460   0.776   3.390   2.583
 6152TIP3   OH218461   3.398   4.374   3.851
 6152TIP3    H118462   3.313   4.417   3.847
 6152TIP3    H218463   3.378   4.281   3.837
 6153TIP3   OH218464   0.397   4.129   0.266
 6153TIP3    H118465   0.427   4.202   0.212
 6153TIP3    H218466   0.397   4.054   0.207
 6154TIP3   OH218467   2.315   1.793   2.146
 6154TIP3    H118468   2.308   1.701   2.120
 6154TIP3    H218469   2.368   1.791   2.226
 6155TIP3   OH218470   3.024   4.667   1.753
 6155TIP3    H118471   3.069   4.672   1.838
 6155TIP3    H218472   3.093   4.682   1.689
 6156TIP3   OH218473   1.830   2.341   2.099
 6156TIP3    H118474   1.741   2.362   2.069
 6156TIP3    H218475   1.827   2.358   2.193
 6157TIP3   OH218476   2.211   5.057   1.658
 6157TIP3    H118477   2.153   4.981   1.646
 6157TIP3    H218478   2.195   5.111   1.581
 6158TIP3   OH218479   4.315   1.137   5.162
 6158TIP3    H118480   4.257   1.165   5.091
 6158TIP3    H218481   4.394   1.189   5.151
 6159TIP3   OH218482   3.784   0.589   3.379
 6159TIP3    H118483   3.699   0.549   3.358
 6159TIP3    H218484   3.781   0.604   3.474
 6160TIP3   OH218485   3.229   5.521   2.204
 6160TIP3    H118486   3.154   5.555   2.253
 6160TIP3    H218487   3.192   5.486   2.123
 6161TIP3   OH218488   4.091   5.912   2.017
 6161TIP3    H118489   4.113   5.950   1.932
 6161TIP3    H218490   4.172   5.870   2.046
 6162TIP3   OH218491   1.802   5.699   2.623
 6162TIP3    H118492   1.803   5.775   2.565
 6162TIP3    H218493   1.710   5.672   2.625
 6163TIP3   OH218494   3.976   1.398   2.027
 6163TIP3    H118495   4.037   1.404   2.100
 6163TIP3    H218496   3.928   1.480   2.029
 6164TIP3   OH218497   4.681   5.232   2.099
 6164TIP3    H118498   4.665   5.305   2.039
 6164TIP3    H218499   4.770   5.204   2.078
 6165TIP3   OH218500   0.970   4.610   0.475
 6165TIP3    H118501   1.038   4.676   0.460
 6165TIP3    H218502   0.968   4.559   0.393
 6166TIP3   OH218503   3.348   5.526   0.369
 6166TIP3    H118504   3.317   5.516   0.459
 6166TIP3    H218505   3.274   5.498   0.314
 6167TIP3   OH218506   0.198   0.751   0.058
 6167TIP3    H118507   0.289   0.739   0.032
 6167TIP3    H218508   0.160   0.664   0.053
 6168TIP3   OH218509   0.848   0.734   4.268
 6168TIP3    H118510   0.919   0.702   4.212
 6168TIP3    H218511   0.852   0.678   4.345
 6169TIP3   OH218512   3.278   3.578   4.116
 6169TIP3    H118513   3.210   3.643   4.096
 6169TIP3    H218514   3.315   3.608   4.199
 6170TIP3   OH218515   1.935   2.165   3.117
 6170TIP3    H118516   1.842   2.185   3.105
 6170TIP3    H218517   1.968   2.146   3.029
 6171TIP3   OH218518   0.916   4.119   0.420
 6171TIP3    H118519   0.924   4.116   0.325
 6171TIP3    H218520   0.885   4.032   0.445
 6172TIP3   OH218521   4.911   0.234   4.539
 6172TIP3    H118522   4.982   0.242   4.602
 6172TIP3    H218523   4.877   0.324   4.529
 6173TIP3   OH218524   5.844   1.408   2.672
 6173TIP3    H118525   5.772   1.429   2.732
 6173TIP3    H218526   5.866   1.317   2.691
 6174TIP3   OH218527   1.312   1.001   0.849
 6174TIP3    H118528   1.373   1.037   0.913
 6174TIP3    H218529   1.317   1.062   0.775
 6175TIP3   OH218530   5.457   5.081   4.556
 6175TIP3    H118531   5.409   5.087   4.638
 6175TIP3    H218532   5.414   5.145   4.499
 6176TIP3   OH218533   4.142   2.233   3.206
 6176TIP3    H118534   4.071   2.288   3.174
 6176TIP3    H218535   4.132   2.232   3.301
 6177TIP3   OH218536   4.822   4.315   1.815
 6177TIP3    H118537   4.770   4.354   1.885
 6177TIP3    H218538   4.792   4.358   1.735
 6178TIP3   OH218539  -0.019   2.519   1.738
 6178TIP3    H118540   0.008   2.523   1.829
 6178TIP3    H218541   0.015   2.600   1.699
 6179TIP3   OH218542   5.450   2.302   4.638
 6179TIP3    H118543   5.393   2.363   4.684
 6179TIP3    H218544   5.535   2.312   4.681
 6180TIP3   OH218545   5.924   2.697   4.477
 6180TIP3    H118546   6.016   2.706   4.502
 6180TIP3    H218547   5.918   2.735   4.390
 6181TIP3   OH218548   4.299   5.750   0.925
 6181TIP3    H118549   4.378   5.695   0.928
 6181TIP3    H218550   4.255   5.725   0.844
 6182TIP3   OH218551   3.159   3.169   0.211
 6182TIP3    H118552   3.093   3.112   0.173
 6182TIP3    H218553   3.242   3.125   0.193
 6183TIP3   OH218554   5.222   3.288   5.124
 6183TIP3    H118555   5.171   3.209   5.104
 6183TIP3    H218556   5.156   3.356   5.141
 6184TIP3   OH218557   3.493   3.005   4.953
 6184TIP3    H118558   3.572   2.971   4.909
 6184TIP3    H218559   3.494   3.099   4.935
 6185TIP3   OH218560   2.992   1.185   4.832
 6185TIP3    H118561   2.924   1.215   4.893
 6185TIP3    H218562   3.067   1.242   4.849
 6186TIP3   OH218563   4.322   5.827   0.419
 6186TIP3    H118564   4.233   5.815   0.387
 6186TIP3    H218565   4.315   5.893   0.488
 6187TIP3   OH218566   2.662   4.209   2.802
 6187TIP3    H118567   2.754   4.226   2.782
 6187TIP3    H218568   2.631   4.287   2.847
 6188TIP3   OH218569   3.787   5.884   2.501
 6188TIP3    H118570   3.858   5.823   2.516
 6188TIP3    H218571   3.759   5.866   2.411
 6189TIP3   OH218572   5.676   3.348   5.073
 6189TIP3    H118573   5.636   3.345   5.160
 6189TIP3    H218574   5.764   3.382   5.088
 6190TIP3   OH218575   6.075   0.248   2.825
 6190TIP3    H118576   6.056   0.155   2.811
 6190TIP3    H218577   6.037   0.291   2.748
 6191TIP3   OH218578   2.021   2.493   1.731
 6191TIP3    H118579   2.106   2.535   1.741
 6191TIP3    H218580   2.020   2.423   1.796
 6192TIP3   OH218581   3.365   1.474   4.550
 6192TIP3    H118582   3.376   1.431   4.634
 6192TIP3    H218583   3.355   1.567   4.571
 6193TIP3   OH218584   1.102   0.951   4.336
 6193TIP3    H118585   1.188   0.984   4.359
 6193TIP3    H218586   1.114   0.909   4.251
 6194TIP3   OH218587   3.028   4.374   2.547
 6194TIP3    H118588   3.007   4.308   2.613
 6194TIP3    H218589   3.033   4.325   2.465
 6195TIP3   OH218590   4.771   5.754   0.194
 6195TIP3    H118591   4.782   5.676   0.138
 6195TIP3    H218592   4.708   5.808   0.147
 6196TIP3   OH218593   1.263   0.541   1.768
 6196TIP3    H118594   1.188   0.560   1.711
 6196TIP3    H218595   1.336   0.526   1.707
 6197TIP3   OH218596   3.021   4.120   5.097
 6197TIP3    H118597   2.998   4.106   5.189
 6197TIP3    H218598   3.107   4.163   5.100
 6198TIP3   OH218599   4.809   3.211   0.971
 6198TIP3    H118600   4.761   3.245   1.047
 6198TIP3    H218601   4.805   3.281   0.906
 6199TIP3   OH218602   1.774   1.032   1.007
 6199TIP3    H118603   1.760   0.965   1.073
 6199TIP3    H218604   1.817   1.104   1.053
 6200TIP3   OH218605   6.075   2.074   3.099
 6200TIP3    H118606   6.095   2.050   3.189
 6200TIP3    H218607   6.141   2.139   3.075
 6201TIP3   OH218608   2.515   5.935   0.445
 6201TIP3    H118609   2.423   5.948   0.423
 6201TIP3    H218610   2.558   5.923   0.360
 6202TIP3   OH218611   5.962   1.658   3.484
 6202TIP3    H118612   6.035   1.605   3.517
 6202TIP3    H218613   5.995   1.696   3.403
 6203TIP3   OH218614   2.935   0.496   3.563
 6203TIP3    H118615   2.938   0.498   3.659
 6203TIP3    H218616   2.893   0.413   3.542
 6204TIP3   OH218617   4.582   2.225   1.285
 6204TIP3    H118618   4.563   2.141   1.242
 6204TIP3    H218619   4.512   2.283   1.257
 6205TIP3   OH218620   6.288   4.068   3.292
 6205TIP3    H118621   6.331   3.989   3.325
 6205TIP3    H218622   6.354   4.137   3.302
 6206TIP3   OH218623   1.076   0.591   4.981
 6206TIP3    H118624   1.021   0.516   4.958
 6206TIP3    H218625   1.091   0.582   5.075
 6207TIP3   OH218626   5.217   0.257   0.447
 6207TIP3    H118627   5.169   0.233   0.368
 6207TIP3    H218628   5.158   0.317   0.494
 6208TIP3   OH218629   0.480   5.190   4.803
 6208TIP3    H118630   0.556   5.245   4.819
 6208TIP3    H218631   0.506   5.103   4.835
 6209TIP3   OH218632   4.124   4.002   1.428
 6209TIP3    H118633   4.191   3.935   1.437
 6209TIP3    H218634   4.163   4.067   1.369
 6210TIP3   OH218635   3.930   3.215   2.107
 6210TIP3    H118636   3.986   3.280   2.150
 6210TIP3    H218637   3.866   3.267   2.059
 6211TIP3   OH218638   5.818   0.265   0.430
 6211TIP3    H118639   5.872   0.336   0.462
 6211TIP3    H218640   5.842   0.256   0.337
 6212TIP3   OH218641   3.205   2.290   0.166
 6212TIP3    H118642   3.194   2.314   0.259
 6212TIP3    H218643   3.116   2.291   0.131
 6213TIP3   OH218644   2.322   0.475   5.051
 6213TIP3    H118645   2.280   0.435   4.975
 6213TIP3    H218646   2.258   0.538   5.083
 6214TIP3   OH218647   4.234   4.449   4.859
 6214TIP3    H118648   4.154   4.465   4.808
 6214TIP3    H218649   4.294   4.409   4.796
 6215TIP3   OH218650   6.325   2.798   3.025
 6215TIP3    H118651   6.260   2.841   3.080
 6215TIP3    H218652   6.314   2.837   2.939
 6216TIP3   OH218653   1.088   5.065   3.943
 6216TIP3    H118654   1.031   5.134   3.978
 6216TIP3    H218655   1.081   4.994   4.007
 6217TIP3   OH218656   5.424   5.583   0.003
 6217TIP3    H118657   5.456   5.589   0.093
 6217TIP3    H218658   5.414   5.674  -0.025
 6218TIP3   OH218659   5.241   1.149   2.365
 6218TIP3    H118660   5.283   1.065   2.383
 6218TIP3    H218661   5.237   1.192   2.450
 6219TIP3   OH218662   0.564   0.714   0.264
 6219TIP3    H118663   0.606   0.780   0.319
 6219TIP3    H218664   0.585   0.631   0.306
 6220TIP3   OH218665   5.053   5.172   1.480
 6220TIP3    H118666   5.133   5.202   1.436
 6220TIP3    H218667   5.051   5.221   1.562
 6221TIP3   OH218668   1.379   3.031   0.370
 6221TIP3    H118669   1.471   3.018   0.346
 6221TIP3    H218670   1.371   2.990   0.456
 6222TIP3   OH218671   3.677   5.131   1.072
 6222TIP3    H118672   3.660   5.049   1.025
 6222TIP3    H218673   3.753   5.169   1.028
 6223TIP3   OH218674   4.016   5.741   3.694
 6223TIP3    H118675   4.027   5.654   3.732
 6223TIP3    H218676   4.099   5.786   3.711
 6224TIP3   OH218677   5.682   2.942   3.010
 6224TIP3    H118678   5.630   2.887   2.952
 6224TIP3    H218679   5.681   2.896   3.094
 6225TIP3   OH218680   4.320   0.398   3.711
 6225TIP3    H118681   4.362   0.484   3.709
 6225TIP3    H218682   4.336   0.366   3.800
 6226TIP3   OH218683   3.761   3.071   2.306
 6226TIP3    H118684   3.671   3.091   2.332
 6226TIP3    H218685   3.783   3.139   2.242
 6227TIP3   OH218686   1.047   0.360   0.146
 6227TIP3    H118687   1.101   0.343   0.224
 6227TIP3    H218688   0.972   0.408   0.179
 6228TIP3   OH218689   5.610   3.176   1.975
 6228TIP3    H118690   5.647   3.251   1.928
 6228TIP3    H218691   5.650   3.099   1.933
 6229TIP3   OH218692   4.540   0.948   5.009
 6229TIP3    H118693   4.447   0.944   5.034
 6229TIP3    H218694   4.545   1.022   4.949
 6230TIP3   OH218695   4.270   1.756   4.322
 6230TIP3    H118696   4.270   1.678   4.378
 6230TIP3    H218697   4.304   1.725   4.238
 6231TIP3   OH218698   1.445   1.378   4.388
 6231TIP3    H118699   1.353   1.362   4.409
 6231TIP3    H218700   1.493   1.313   4.440
 6232TIP3   OH218701   0.337   5.462   2.531
 6232TIP3    H118702   0.384   5.379   2.543
 6232TIP3    H218703   0.315   5.464   2.437
 6233TIP3   OH218704   2.985   0.039   4.512
 6233TIP3    H118705   3.058   0.032   4.451
 6233TIP3    H218706   2.907   0.032   4.457
 6234TIP3   OH218707   1.755   4.188   3.867
 6234TIP3    H118708   1.849   4.195   3.852
 6234TIP3    H218709   1.745   4.114   3.926
 6235TIP3   OH218710   4.162   2.801   0.323
 6235TIP3    H118711   4.200   2.884   0.349
 6235TIP3    H218712   4.129   2.815   0.235
 6236TIP3   OH218713   2.788   1.915   1.573
 6236TIP3    H118714   2.762   1.828   1.543
 6236TIP3    H218715   2.712   1.948   1.620
 6237TIP3   OH218716   0.685   2.634   3.206
 6237TIP3    H118717   0.639   2.711   3.238
 6237TIP3    H218718   0.660   2.564   3.266
 6238TIP3   OH218719   5.659   3.031   5.031
 6238TIP3    H118720   5.698   3.100   5.085
 6238TIP3    H218721   5.701   3.040   4.946
 6239TIP3   OH218722   2.578   3.086   1.095
 6239TIP3    H118723   2.520   3.159   1.072
 6239TIP3    H218724   2.602   3.103   1.186
 6240TIP3   OH218725   3.439   1.356   4.868
 6240TIP3    H118726   3.347   1.383   4.867
 6240TIP3    H218727   3.436   1.260   4.867
 6241TIP3   OH218728   5.717   5.828   4.072
 6241TIP3    H118729   5.642   5.812   4.129
 6241TIP3    H218730   5.721   5.923   4.063
 6242TIP3   OH218731   2.102   4.120   2.745
 6242TIP3    H118732   2.176   4.120   2.806
 6242TIP3    H218733   2.106   4.034   2.702
 6243TIP3   OH218734   6.322   2.753   3.809
 6243TIP3    H118735   6.407   2.776   3.771
 6243TIP3    H218736   6.278   2.837   3.824
 6244TIP3   OH218737   4.729   3.066   2.995
 6244TIP3    H118738   4.797   3.056   2.929
 6244TIP3    H218739   4.772   3.111   3.068
 6245TIP3   OH218740   0.801   5.738   2.346
 6245TIP3    H118741   0.891   5.704   2.338
 6245TIP3    H218742   0.746   5.662   2.327
 6246TIP3   OH218743   3.316   4.361   4.282
 6246TIP3    H118744   3.223   4.371   4.301
 6246TIP3    H218745   3.323   4.271   4.248
 6247TIP3   OH218746   4.582   0.478   2.507
 6247TIP3    H118747   4.496   0.436   2.499
 6247TIP3    H218748   4.565   0.571   2.491
 6248TIP3   OH218749   5.783   2.920   0.758
 6248TIP3    H118750   5.852   2.942   0.695
 6248TIP3    H218751   5.821   2.852   0.812
 6249TIP3   OH218752   1.131   3.317   2.837
 6249TIP3    H118753   1.166   3.264   2.765
 6249TIP3    H218754   1.148   3.264   2.915
 6250TIP3   OH218755   0.064   2.541   1.997
 6250TIP3    H118756   0.123   2.616   2.000
 6250TIP3    H218757   0.013   2.547   2.078
 6251TIP3   OH218758   4.083   2.795   0.589
 6251TIP3    H118759   4.128   2.813   0.506
 6251TIP3    H218760   4.143   2.827   0.656
 6252TIP3   OH218761   2.705   1.584   3.295
 6252TIP3    H118762   2.686   1.666   3.249
 6252TIP3    H218763   2.636   1.524   3.266
 6253TIP3   OH218764   2.387   0.068   3.856
 6253TIP3    H118765   2.338  -0.007   3.888
 6253TIP3    H218766   2.321   0.135   3.838
 6254TIP3   OH218767   2.201   0.345   2.854
 6254TIP3    H118768   2.215   0.427   2.901
 6254TIP3    H218769   2.213   0.367   2.762
 6255TIP3   OH218770   0.089   5.167   0.767
 6255TIP3    H118771   0.048   5.247   0.734
 6255TIP3    H218772   0.169   5.197   0.809
 6256TIP3   OH218773   6.178   1.829   2.392
 6256TIP3    H118774   6.107   1.804   2.334
 6256TIP3    H218775   6.136   1.852   2.475
 6257TIP3   OH218776   5.934   5.781   5.101
 6257TIP3    H118777   5.866   5.748   5.043
 6257TIP3    H218778   5.986   5.703   5.123
 6258TIP3   OH218779   0.946   1.570   4.292
 6258TIP3    H118780   1.018   1.585   4.231
 6258TIP3    H218781   0.965   1.628   4.366
 6259TIP3   OH218782   5.403   2.734   3.852
 6259TIP3    H118783   5.343   2.663   3.875
 6259TIP3    H218784   5.350   2.793   3.797
 6260TIP3   OH218785   4.129   4.702   2.653
 6260TIP3    H118786   4.110   4.758   2.728
 6260TIP3    H218787   4.225   4.696   2.651
 6261TIP3   OH218788   4.818   2.684   0.748
 6261TIP3    H118789   4.833   2.777   0.766
 6261TIP3    H218790   4.859   2.638   0.822
 6262TIP3   OH218791   4.464   3.804   1.475
 6262TIP3    H118792   4.523   3.782   1.404
 6262TIP3    H218793   4.376   3.798   1.437
 6263TIP3   OH218794   5.432   5.322   3.599
 6263TIP3    H118795   5.460   5.273   3.677
 6263TIP3    H218796   5.339   5.339   3.614
 6264TIP3   OH218797   5.085   5.444   4.406
 6264TIP3    H118798   5.140   5.465   4.330
 6264TIP3    H218799   4.996   5.445   4.372
 6265TIP3   OH218800   0.457   5.444   4.629
 6265TIP3    H118801   0.477   5.380   4.697
 6265TIP3    H218802   0.362   5.458   4.636
 6266TIP3   OH218803   4.800   2.264   1.430
 6266TIP3    H118804   4.721   2.252   1.376
 6266TIP3    H218805   4.835   2.349   1.403
 6267TIP3   OH218806   5.608   4.593   1.682
 6267TIP3    H118807   5.521   4.555   1.676
 6267TIP3    H218808   5.617   4.619   1.774
 6268TIP3   OH218809   4.860   0.031   3.009
 6268TIP3    H118810   4.935  -0.028   3.003
 6268TIP3    H218811   4.820   0.012   3.094
 6269TIP3   OH218812   4.333   2.045   2.238
 6269TIP3    H118813   4.383   2.094   2.173
 6269TIP3    H218814   4.258   2.010   2.190
 6270TIP3   OH218815   3.688   1.036   0.493
 6270TIP3    H118816   3.667   0.980   0.418
 6270TIP3    H218817   3.627   1.007   0.561
 6271TIP3   OH218818   2.950   5.832   2.066
 6271TIP3    H118819   2.926   5.843   1.973
 6271TIP3    H218820   2.867   5.841   2.113
 6272TIP3   OH218821   3.740   3.973   3.655
 6272TIP3    H118822   3.768   3.979   3.747
 6272TIP3    H218823   3.740   4.064   3.625
 6273TIP3   OH218824   5.898   2.352   3.014
 6273TIP3    H118825   5.938   2.289   2.954
 6273TIP3    H218826   5.921   2.319   3.102
 6274TIP3   OH218827   3.790   3.544   0.199
 6274TIP3    H118828   3.716   3.484   0.207
 6274TIP3    H218829   3.815   3.565   0.289
 6275TIP3   OH218830   4.002   4.693   3.490
 6275TIP3    H118831   3.976   4.716   3.401
 6275TIP3    H218832   4.012   4.777   3.535
 6276TIP3   OH218833   5.426   4.743   5.194
 6276TIP3    H118834   5.452   4.808   5.128
 6276TIP3    H218835   5.375   4.679   5.145
 6277TIP3   OH218836   0.536   1.454   4.280
 6277TIP3    H118837   0.513   1.496   4.197
 6277TIP3    H218838   0.558   1.364   4.256
 6278TIP3   OH218839   4.210   3.747   1.333
 6278TIP3    H118840   4.132   3.690   1.335
 6278TIP3    H218841   4.208   3.788   1.247
 6279TIP3   OH218842   2.635   0.068   2.712
 6279TIP3    H118843   2.594   0.066   2.626
 6279TIP3    H218844   2.654   0.161   2.727
 6280TIP3   OH218845   2.037   2.280   0.152
 6280TIP3    H118846   2.055   2.334   0.074
 6280TIP3    H218847   2.124   2.264   0.190
 6281TIP3   OH218848   0.928   4.588   2.382
 6281TIP3    H118849   0.881   4.555   2.305
 6281TIP3    H218850   0.963   4.510   2.425
 6282TIP3   OH218851   3.710   0.866   3.264
 6282TIP3    H118852   3.677   0.854   3.353
 6282TIP3    H218853   3.769   0.942   3.271
 6283TIP3   OH218854   3.578   1.225   2.650
 6283TIP3    H118855   3.653   1.184   2.694
 6283TIP3    H218856   3.578   1.188   2.562
 6284TIP3   OH218857   5.743   5.672   4.831
 6284TIP3    H118858   5.669   5.633   4.878
 6284TIP3    H218859   5.817   5.615   4.851
 6285TIP3   OH218860   4.599   2.698   1.402
 6285TIP3    H118861   4.655   2.775   1.414
 6285TIP3    H218862   4.596   2.657   1.489
 6286TIP3   OH218863   5.453   3.046   1.397
 6286TIP3    H118864   5.453   3.023   1.490
 6286TIP3    H218865   5.504   2.977   1.355
 6287TIP3   OH218866   3.780   2.999   5.056
 6287TIP3    H118867   3.823   3.019   5.139
 6287TIP3    H218868   3.714   3.068   5.045
 6288TIP3   OH218869   5.012   5.864   4.939
 6288TIP3    H118870   4.992   5.856   4.845
 6288TIP3    H218871   5.010   5.775   4.972
 6289TIP3   OH218872   0.088   1.923   4.612
 6289TIP3    H118873   0.177   1.951   4.588
 6289TIP3    H218874   0.072   1.965   4.696
 6290TIP3   OH218875   2.594   4.636   3.134
 6290TIP3    H118876   2.668   4.693   3.158
 6290TIP3    H218877   2.552   4.615   3.217
 6291TIP3   OH218878   1.675   3.521   4.431
 6291TIP3    H118879   1.656   3.546   4.521
 6291TIP3    H218880   1.596   3.542   4.382
 6292TIP3   OH218881   4.094   1.358   0.232
 6292TIP3    H118882   4.134   1.329   0.150
 6292TIP3    H218883   4.099   1.281   0.289
 6293TIP3   OH218884   4.124   1.475   1.492
 6293TIP3    H118885   4.071   1.404   1.528
 6293TIP3    H218886   4.130   1.454   1.398
 6294TIP3   OH218887   3.984   4.993   3.519
 6294TIP3    H118888   3.997   5.057   3.589
 6294TIP3    H218889   4.028   5.031   3.443
 6295TIP3   OH218890   4.272   2.572   3.926
 6295TIP3    H118891   4.260   2.479   3.911
 6295TIP3    H218892   4.195   2.613   3.885
 6296TIP3   OH218893   0.848   4.283   0.011
 6296TIP3    H118894   0.931   4.247  -0.021
 6296TIP3    H218895   0.865   4.301   0.104
 6297TIP3   OH218896   5.870   4.465   0.767
 6297TIP3    H118897   5.868   4.399   0.836
 6297TIP3    H218898   5.830   4.422   0.691
 6298TIP3   OH218899   1.867   2.776   2.880
 6298TIP3    H118900   1.843   2.826   2.803
 6298TIP3    H218901   1.899   2.692   2.846
 6299TIP3   OH218902   3.391   2.547   4.722
 6299TIP3    H118903   3.315   2.591   4.682
 6299TIP3    H218904   3.405   2.594   4.804
 6300TIP3   OH218905   1.780   2.702   0.131
 6300TIP3    H118906   1.773   2.613   0.097
 6300TIP3    H218907   1.874   2.719   0.135
 6301TIP3   OH218908   3.203   0.474   3.488
 6301TIP3    H118909   3.125   0.505   3.535
 6301TIP3    H218910   3.267   0.455   3.557
 6302TIP3   OH218911   3.190   2.418   0.418
 6302TIP3    H118912   3.281   2.423   0.445
 6302TIP3    H218913   3.143   2.390   0.497
 6303TIP3   OH218914   1.417   2.711   1.905
 6303TIP3    H118915   1.458   2.724   1.819
 6303TIP3    H218916   1.489   2.722   1.967
 6304TIP3   OH218917   0.648   5.521   2.388
 6304TIP3    H118918   0.556   5.495   2.381
 6304TIP3    H218919   0.696   5.454   2.340
 6305TIP3   OH218920   2.111   1.518   3.506
 6305TIP3    H118921   2.151   1.455   3.565
 6305TIP3    H218922   2.085   1.591   3.562
 6306TIP3   OH218923   4.996   4.150   4.634
 6306TIP3    H118924   5.029   4.114   4.552
 6306TIP3    H218925   4.901   4.153   4.622
 6307TIP3   OH218926   0.030   2.862   3.348
 6307TIP3    H118927   0.043   2.930   3.282
 6307TIP3    H218928   0.089   2.791   3.321
 6308TIP3   OH218929   1.628   2.372   0.016
 6308TIP3    H118930   1.578   2.431  -0.041
 6308TIP3    H218931   1.624   2.287  -0.028
 6309TIP3   OH218932   1.455   5.731   4.467
 6309TIP3    H118933   1.545   5.723   4.499
 6309TIP3    H218934   1.454   5.813   4.418
 6310TIP3   OH218935   1.454   1.754   2.172
 6310TIP3    H118936   1.463   1.781   2.264
 6310TIP3    H218937   1.360   1.756   2.155
 6311TIP3   OH218938   3.604   0.323   1.382
 6311TIP3    H118939   3.526   0.270   1.398
 6311TIP3    H218940   3.677   0.269   1.409
 6312TIP3   OH218941   4.169   2.350   1.623
 6312TIP3    H118942   4.096   2.403   1.655
 6312TIP3    H218943   4.229   2.413   1.583
 6313TIP3   OH218944   6.058   5.565   1.426
 6313TIP3    H118945   5.972   5.522   1.429
 6313TIP3    H218946   6.120   5.494   1.417
 6314TIP3   OH218947   0.137   4.235   4.549
 6314TIP3    H118948   0.130   4.139   4.555
 6314TIP3    H218949   0.059   4.268   4.593
 6315TIP3   OH218950   5.930   2.626   3.044
 6315TIP3    H118951   6.019   2.621   3.080
 6315TIP3    H218952   5.905   2.534   3.032
 6316TIP3   OH218953   3.530   0.058   4.967
 6316TIP3    H118954   3.536   0.027   4.877
 6316TIP3    H218955   3.618   0.046   5.003
 6317TIP3   OH218956   3.760   0.460   0.367
 6317TIP3    H118957   3.843   0.428   0.333
 6317TIP3    H218958   3.716   0.499   0.291
 6318TIP3   OH218959   0.930   5.760   3.902
 6318TIP3    H118960   0.881   5.693   3.950
 6318TIP3    H218961   0.900   5.843   3.939
 6319TIP3   OH218962   4.309   0.883   4.098
 6319TIP3    H118963   4.378   0.947   4.113
 6319TIP3    H218964   4.228   0.931   4.111
 6320TIP3   OH218965   3.794   0.128   1.448
 6320TIP3    H118966   3.772   0.036   1.465
 6320TIP3    H218967   3.880   0.124   1.408
 6321TIP3   OH218968   2.137   4.563   0.851
 6321TIP3    H118969   2.066   4.532   0.907
 6321TIP3    H218970   2.166   4.485   0.804
 6322TIP3   OH218971   6.274   1.764   4.337
 6322TIP3    H118972   6.186   1.742   4.367
 6322TIP3    H218973   6.329   1.694   4.371
 6323TIP3   OH218974   1.424   4.459   0.766
 6323TIP3    H118975   1.409   4.365   0.778
 6323TIP3    H218976   1.360   4.500   0.823
 6324TIP3   OH218977   2.539   3.108   1.621
 6324TIP3    H118978   2.491   3.157   1.554
 6324TIP3    H218979   2.492   3.127   1.702
 6325TIP3   OH218980   2.071   4.077   1.239
 6325TIP3    H118981   1.993   4.023   1.230
 6325TIP3    H218982   2.094   4.072   1.332
 6326TIP3   OH218983   1.112   1.450   0.257
 6326TIP3    H118984   1.027   1.467   0.217
 6326TIP3    H218985   1.100   1.472   0.349
 6327TIP3   OH218986   3.308   1.447   0.345
 6327TIP3    H118987   3.384   1.504   0.358
 6327TIP3    H218988   3.284   1.419   0.433
 6328TIP3   OH218989   5.077   5.893   0.880
 6328TIP3    H118990   5.113   5.809   0.908
 6328TIP3    H218991   5.094   5.952   0.954
 6329TIP3   OH218992   0.142   1.507   4.171
 6329TIP3    H118993   0.150   1.555   4.088
 6329TIP3    H218994   0.137   1.415   4.145
 6330TIP3   OH218995   0.343   0.326   4.366
 6330TIP3    H118996   0.436   0.349   4.378
 6330TIP3    H218997   0.344   0.231   4.355
 6331TIP3   OH218998   2.659   1.963   3.639
 6331TIP3    H118999   2.607   1.937   3.563
 6331TIP3    H219000   2.725   2.023   3.604
 6332TIP3   OH219001   1.320   1.167   0.619
 6332TIP3    H119002   1.328   1.125   0.533
 6332TIP3    H219003   1.232   1.206   0.618
 6333TIP3   OH219004   3.676   3.841   5.132
 6333TIP3    H119005   3.722   3.823   5.214
 6333TIP3    H219006   3.745   3.844   5.066
 6334TIP3   OH219007   2.905   0.212   1.369
 6334TIP3    H119008   2.928   0.178   1.456
 6334TIP3    H219009   2.988   0.241   1.332
 6335TIP3   OH219010   2.479   4.417   4.732
 6335TIP3    H119011   2.570   4.392   4.748
 6335TIP3    H219012   2.436   4.335   4.706
 6336TIP3   OH219013   3.454   0.781   2.813
 6336TIP3    H119014   3.430   0.808   2.902
 6336TIP3    H219015   3.544   0.750   2.821
 6337TIP3   OH219016   1.097   1.951   2.411
 6337TIP3    H119017   1.109   2.007   2.488
 6337TIP3    H219018   1.100   1.862   2.446
 6338TIP3   OH219019   6.299   3.682   3.096
 6338TIP3    H119020   6.338   3.646   3.016
 6338TIP3    H219021   6.371   3.728   3.140
 6339TIP3   OH219022   4.235   0.349   4.560
 6339TIP3    H119023   4.314   0.357   4.506
 6339TIP3    H219024   4.255   0.279   4.622
 6340TIP3   OH219025   2.720   5.984   0.128
 6340TIP3    H119026   2.724   5.891   0.107
 6340TIP3    H219027   2.777   6.026   0.064
 6341TIP3   OH219028   0.595   5.146   3.235
 6341TIP3    H119029   0.563   5.228   3.199
 6341TIP3    H219030   0.679   5.169   3.277
 6342TIP3   OH219031   2.203   5.919   2.755
 6342TIP3    H119032   2.273   5.936   2.693
 6342TIP3    H219033   2.247   5.903   2.839
 6343TIP3   OH219034   0.699   1.600   4.432
 6343TIP3    H119035   0.628   1.546   4.396
 6343TIP3    H219036   0.769   1.594   4.367
 6344TIP3   OH219037   6.125   4.070   0.786
 6344TIP3    H119038   6.057   4.135   0.771
 6344TIP3    H219039   6.203   4.107   0.746
 6345TIP3   OH219040   3.432   1.710   3.587
 6345TIP3    H119041   3.521   1.739   3.604
 6345TIP3    H219042   3.442   1.638   3.525
 6346TIP3   OH219043   1.259   3.013   2.336
 6346TIP3    H119044   1.330   2.976   2.388
 6346TIP3    H219045   1.265   2.968   2.252
 6347TIP3   OH219046   4.558   1.857   0.925
 6347TIP3    H119047   4.636   1.911   0.909
 6347TIP3    H219048   4.572   1.778   0.872
 6348TIP3   OH219049   0.258   0.767   4.793
 6348TIP3    H119050   0.211   0.799   4.870
 6348TIP3    H219051   0.192   0.766   4.724
 6349TIP3   OH219052   0.836   0.273   4.565
 6349TIP3    H119053   0.848   0.361   4.601
 6349TIP3    H219054   0.922   0.233   4.569
 6350TIP3   OH219055   5.734   1.099   3.383
 6350TIP3    H119056   5.744   1.061   3.470
 6350TIP3    H219057   5.700   1.027   3.329
 6351TIP3   OH219058   1.405   4.937   1.057
 6351TIP3    H119059   1.357   5.020   1.060
 6351TIP3    H219060   1.403   4.911   0.965
 6352TIP3   OH219061   2.190   1.739   1.649
 6352TIP3    H119062   2.094   1.731   1.651
 6352TIP3    H219063   2.222   1.651   1.666
 6353TIP3   OH219064   4.466   2.761   3.813
 6353TIP3    H119065   4.389   2.803   3.775
 6353TIP3    H219066   4.431   2.690   3.866
 6354TIP3   OH219067   5.794   5.697   3.643
 6354TIP3    H119068   5.852   5.759   3.687
 6354TIP3    H219069   5.779   5.628   3.708
 6355TIP3   OH219070   5.456   2.374   2.745
 6355TIP3    H119071   5.520   2.439   2.775
 6355TIP3    H219072   5.458   2.306   2.812
 6356TIP3   OH219073   2.254   5.206   5.155
 6356TIP3    H119074   2.308   5.259   5.095
 6356TIP3    H219075   2.311   5.133   5.180
 6357TIP3   OH219076   4.138   3.644   0.026
 6357TIP3    H119077   4.122   3.736   0.004
 6357TIP3    H219078   4.206   3.645   0.092
 6358TIP3   OH219079   4.795   1.755   0.386
 6358TIP3    H119080   4.870   1.696   0.380
 6358TIP3    H219081   4.783   1.787   0.296
 6359TIP3   OH219082   1.969   4.933   1.284
 6359TIP3    H119083   1.927   4.847   1.279
 6359TIP3    H219084   1.916   4.983   1.346
 6360TIP3   OH219085   1.216   5.309   2.593
 6360TIP3    H119086   1.275   5.380   2.619
 6360TIP3    H219087   1.136   5.324   2.644
 6361TIP3   OH219088   5.129   5.763   1.291
 6361TIP3    H119089   5.130   5.740   1.198
 6361TIP3    H219090   5.113   5.680   1.336
 6362TIP3   OH219091   5.210   1.994   0.082
 6362TIP3    H119092   5.234   2.086   0.093
 6362TIP3    H219093   5.122   1.987   0.120
 6363TIP3   OH219094   0.292   1.973   0.043
 6363TIP3    H119095   0.248   1.889   0.029
 6363TIP3    H219096   0.380   1.961   0.007
 6364TIP3   OH219097   0.617   2.478   0.483
 6364TIP3    H119098   0.676   2.463   0.409
 6364TIP3    H219099   0.667   2.532   0.544
 6365TIP3   OH219100   2.067   0.674   0.696
 6365TIP3    H119101   2.024   0.755   0.723
 6365TIP3    H219102   2.006   0.635   0.633
 6366TIP3   OH219103   2.522   2.692   0.842
 6366TIP3    H119104   2.445   2.679   0.786
 6366TIP3    H219105   2.530   2.787   0.852
 6367TIP3   OH219106   5.887   4.225   4.536
 6367TIP3    H119107   5.917   4.255   4.622
 6367TIP3    H219108   5.968   4.208   4.488
 6368TIP3   OH219109   5.236   4.179   3.652
 6368TIP3    H119110   5.158   4.129   3.677
 6368TIP3    H219111   5.210   4.270   3.662
 6369TIP3   OH219112   3.993   0.515   4.060
 6369TIP3    H119113   3.900   0.517   4.041
 6369TIP3    H219114   4.030   0.590   4.014
 6370TIP3   OH219115   5.045   2.280   4.080
 6370TIP3    H119116   5.044   2.344   4.152
 6370TIP3    H219117   5.130   2.237   4.087
 6371TIP3   OH219118   3.245   5.329   1.044
 6371TIP3    H119119   3.220   5.421   1.036
 6371TIP3    H219120   3.197   5.297   1.120
 6372TIP3   OH219121   2.435   3.599   4.066
 6372TIP3    H119122   2.390   3.532   4.117
 6372TIP3    H219123   2.490   3.645   4.130
 6373TIP3   OH219124   4.395   2.147   1.072
 6373TIP3    H119125   4.421   2.156   0.980
 6373TIP3    H219126   4.363   2.233   1.096
 6374TIP3   OH219127   2.386   4.535   0.305
 6374TIP3    H119128   2.460   4.512   0.362
 6374TIP3    H219129   2.419   4.607   0.252
 6375TIP3   OH219130   5.071   5.615   5.010
 6375TIP3    H119131   5.110   5.528   4.997
 6375TIP3    H219132   5.013   5.604   5.085
 6376TIP3   OH219133   5.127   4.049   0.122
 6376TIP3    H119134   5.051   4.071   0.176
 6376TIP3    H219135   5.101   4.073   0.033
 6377TIP3   OH219136   5.441   4.507   2.553
 6377TIP3    H119137   5.435   4.415   2.529
 6377TIP3    H219138   5.353   4.531   2.581
 6378TIP3   OH219139   3.090   4.599   3.447
 6378TIP3    H119140   3.129   4.517   3.418
 6378TIP3    H219141   3.096   4.657   3.370
 6379TIP3   OH219142   2.346   0.761   4.231
 6379TIP3    H119143   2.310   0.735   4.146
 6379TIP3    H219144   2.440   0.746   4.222
 6380TIP3   OH219145   3.140   0.674   4.084
 6380TIP3    H119146   3.104   0.752   4.127
 6380TIP3    H219147   3.147   0.697   3.992
 6381TIP3   OH219148   2.091   0.621   0.966
 6381TIP3    H119149   2.079   0.629   0.871
 6381TIP3    H219150   2.091   0.527   0.982
 6382TIP3   OH219151   1.941   4.643   4.701
 6382TIP3    H119152   1.896   4.685   4.627
 6382TIP3    H219153   2.034   4.663   4.686
 6383TIP3   OH219154   1.977   3.534   2.382
 6383TIP3    H119155   1.940   3.501   2.300
 6383TIP3    H219156   1.980   3.629   2.371
 6384TIP3   OH219157   0.960   1.767   0.841
 6384TIP3    H119158   0.953   1.792   0.749
 6384TIP3    H219159   0.914   1.836   0.889
 6385TIP3   OH219160   5.175   1.727   4.423
 6385TIP3    H119161   5.101   1.692   4.472
 6385TIP3    H219162   5.233   1.652   4.410
 6386TIP3   OH219163   4.013   4.717   4.111
 6386TIP3    H119164   4.051   4.726   4.198
 6386TIP3    H219165   4.080   4.672   4.060
 6387TIP3   OH219166   2.955   2.060   1.398
 6387TIP3    H119167   2.902   2.137   1.376
 6387TIP3    H219168   2.891   1.998   1.434
 6388TIP3   OH219169   3.497   1.186   3.607
 6388TIP3    H119170   3.522   1.272   3.573
 6388TIP3    H219171   3.402   1.191   3.619
 6389TIP3   OH219172   3.707   4.802   1.612
 6389TIP3    H119173   3.770   4.873   1.600
 6389TIP3    H219174   3.716   4.748   1.534
 6390TIP3   OH219175   6.155   1.176   4.535
 6390TIP3    H119176   6.087   1.113   4.511
 6390TIP3    H219177   6.236   1.124   4.538
 6391TIP3   OH219178   5.226   5.074   5.141
 6391TIP3    H119179   5.180   5.007   5.091
 6391TIP3    H219180   5.213   5.049   5.233
 6392TIP3   OH219181   4.507   1.385   2.267
 6392TIP3    H119182   4.483   1.406   2.357
 6392TIP3    H219183   4.584   1.438   2.249
 6393TIP3   OH219184   0.373   5.115   3.065
 6393TIP3    H119185   0.327   5.067   3.134
 6393TIP3    H219186   0.345   5.073   2.984
 6394TIP3   OH219187   3.646   5.924   0.140
 6394TIP3    H119188   3.578   5.895   0.080
 6394TIP3    H219189   3.664   5.848   0.195
 6395TIP3   OH219190   3.934   0.504   1.648
 6395TIP3    H119191   3.872   0.432   1.659
 6395TIP3    H219192   4.014   0.473   1.691
 6396TIP3   OH219193   0.219   1.356   2.206
 6396TIP3    H119194   0.269   1.274   2.204
 6396TIP3    H219195   0.222   1.383   2.297
 6397TIP3   OH219196   2.396   0.713   3.856
 6397TIP3    H119197   2.392   0.629   3.810
 6397TIP3    H219198   2.314   0.717   3.905
 6398TIP3   OH219199   2.396   3.198   3.568
 6398TIP3    H119200   2.443   3.165   3.645
 6398TIP3    H219201   2.452   3.268   3.534
 6399TIP3   OH219202   2.258   1.562   4.427
 6399TIP3    H119203   2.255   1.647   4.471
 6399TIP3    H219204   2.170   1.550   4.390
 6400TIP3   OH219205   3.135   3.816   0.587
 6400TIP3    H119206   3.079   3.886   0.622
 6400TIP3    H219207   3.122   3.820   0.493
 6401TIP3   OH219208   0.510   2.548   2.560
 6401TIP3    H119209   0.508   2.517   2.650
 6401TIP3    H219210   0.436   2.609   2.554
 6402TIP3   OH219211   4.169   5.634   4.075
 6402TIP3    H119212   4.148   5.543   4.097
 6402TIP3    H219213   4.201   5.631   3.985
 6403TIP3   OH219214   5.157   0.149   2.152
 6403TIP3    H119215   5.132   0.207   2.224
 6403TIP3    H219216   5.202   0.076   2.195
 6404TIP3   OH219217   5.210   2.777   1.120
 6404TIP3    H119218   5.293   2.816   1.093
 6404TIP3    H219219   5.235   2.703   1.175
 6405TIP3   OH219220   0.858   3.404   4.772
 6405TIP3    H119221   0.807   3.436   4.698
 6405TIP3    H219222   0.842   3.309   4.773
 6406TIP3   OH219223   3.427   3.851   2.994
 6406TIP3    H119224   3.480   3.930   2.986
 6406TIP3    H219225   3.347   3.880   3.039
 6407TIP3   OH219226   1.029   4.658   0.169
 6407TIP3    H119227   1.044   4.708   0.089
 6407TIP3    H219228   1.077   4.705   0.237
 6408TIP3   OH219229   3.417   4.015   1.486
 6408TIP3    H119230   3.497   3.975   1.520
 6408TIP3    H219231   3.447   4.081   1.423
 6409TIP3   OH219232   2.524   4.219   5.106
 6409TIP3    H119233   2.578   4.294   5.131
 6409TIP3    H219234   2.440   4.234   5.150
 6410TIP3   OH219235   5.663   2.057   0.507
 6410TIP3    H119236   5.712   2.012   0.574
 6410TIP3    H219237   5.605   1.991   0.470
 6411TIP3   OH219238   1.542   5.708   4.097
 6411TIP3    H119239   1.494   5.626   4.095
 6411TIP3    H219240   1.573   5.720   4.007
 6412TIP3   OH219241   0.805   4.103   2.495
 6412TIP3    H119242   0.897   4.081   2.501
 6412TIP3    H219243   0.759   4.027   2.530
 6413TIP3   OH219244   0.925   2.857   3.087
 6413TIP3    H119245   0.906   2.778   3.137
 6413TIP3    H219246   0.840   2.897   3.071
 6414TIP3   OH219247   5.991   5.482   1.936
 6414TIP3    H119248   6.047   5.548   1.893
 6414TIP3    H219249   5.903   5.502   1.905
 6415TIP3   OH219250   5.079   0.436   3.950
 6415TIP3    H119251   5.059   0.357   3.999
 6415TIP3    H219252   5.014   0.500   3.979
 6416TIP3   OH219253   1.333   2.705   0.754
 6416TIP3    H119254   1.376   2.624   0.779
 6416TIP3    H219255   1.386   2.775   0.793
 6417TIP3   OH219256   3.745   5.621   2.734
 6417TIP3    H119257   3.776   5.638   2.645
 6417TIP3    H219258   3.734   5.708   2.773
 6418TIP3   OH219259   2.827   3.693   2.857
 6418TIP3    H119260   2.915   3.708   2.891
 6418TIP3    H219261   2.783   3.642   2.925
 6419TIP3   OH219262   1.006   1.213   3.393
 6419TIP3    H119263   1.099   1.234   3.401
 6419TIP3    H219264   1.001   1.119   3.413
 6420TIP3   OH219265   2.223   3.423   0.636
 6420TIP3    H119266   2.191   3.335   0.657
 6420TIP3    H219267   2.172   3.450   0.560
 6421TIP3   OH219268   1.787   2.622   2.560
 6421TIP3    H119269   1.773   2.691   2.496
 6421TIP3    H219270   1.882   2.618   2.571
 6422TIP3   OH219271   4.976   3.185   4.852
 6422TIP3    H119272   4.987   3.118   4.920
 6422TIP3    H219273   4.885   3.176   4.825
 6423TIP3   OH219274   3.106   3.560   2.773
 6423TIP3    H119275   3.177   3.623   2.784
 6423TIP3    H219276   3.070   3.549   2.861
 6424TIP3   OH219277   1.111   4.126   1.329
 6424TIP3    H119278   1.087   4.056   1.268
 6424TIP3    H219279   1.045   4.193   1.315
 6425TIP3   OH219280   1.126   5.540   3.384
 6425TIP3    H119281   1.154   5.576   3.468
 6425TIP3    H219282   1.159   5.450   3.383
 6426TIP3   OH219283   4.272   2.408   4.986
 6426TIP3    H119284   4.271   2.492   4.938
 6426TIP3    H219285   4.201   2.416   5.049
 6427TIP3   OH219286   0.683   4.082   2.912
 6427TIP3    H119287   0.721   4.053   2.995
 6427TIP3    H219288   0.708   4.174   2.906
 6428TIP3   OH219289   2.991   0.512   2.598
 6428TIP3    H119290   3.019   0.509   2.690
 6428TIP3    H219291   3.071   0.530   2.550
 6429TIP3   OH219292   4.494   0.226   4.445
 6429TIP3    H119293   4.545   0.254   4.521
 6429TIP3    H219294   4.492   0.130   4.452
 6430TIP3   OH219295   5.267   0.345   4.604
 6430TIP3    H119296   5.220   0.387   4.676
 6430TIP3    H219297   5.226   0.382   4.525
 6431TIP3   OH219298   0.749   5.006   1.536
 6431TIP3    H119299   0.817   4.958   1.490
 6431TIP3    H219300   0.744   4.965   1.622
 6432TIP3   OH219301   3.397   1.373   1.705
 6432TIP3    H119302   3.408   1.284   1.671
 6432TIP3    H219303   3.370   1.425   1.629
 6433TIP3   OH219304   1.668   0.900   4.666
 6433TIP3    H119305   1.729   0.837   4.628
 6433TIP3    H219306   1.659   0.968   4.600
 6434TIP3   OH219307   3.937   3.599   4.349
 6434TIP3    H119308   4.017   3.630   4.307
 6434TIP3    H219309   3.930   3.507   4.324
 6435TIP3   OH219310   0.688   2.650   4.264
 6435TIP3    H119311   0.640   2.731   4.278
 6435TIP3    H219312   0.764   2.657   4.321
 6436TIP3   OH219313   6.230   3.642   2.439
 6436TIP3    H119314   6.320   3.616   2.456
 6436TIP3    H219315   6.226   3.659   2.345
 6437TIP3   OH219316   0.739   4.572   3.829
 6437TIP3    H119317   0.672   4.541   3.890
 6437TIP3    H219318   0.820   4.569   3.879
 6438TIP3   OH219319   3.563   4.153   2.956
 6438TIP3    H119320   3.492   4.216   2.941
 6438TIP3    H219321   3.608   4.147   2.872
 6439TIP3   OH219322   3.468   1.054   4.544
 6439TIP3    H119323   3.521   0.975   4.554
 6439TIP3    H219324   3.532   1.124   4.528
 6440TIP3   OH219325   5.255   1.325   3.404
 6440TIP3    H119326   5.260   1.241   3.449
 6440TIP3    H219327   5.197   1.378   3.458
 6441TIP3   OH219328   5.506   5.869   4.208
 6441TIP3    H119329   5.457   5.787   4.196
 6441TIP3    H219330   5.442   5.938   4.188
 6442TIP3   OH219331   0.022   4.194   0.687
 6442TIP3    H119332   0.061   4.132   0.626
 6442TIP3    H219333   0.015   4.275   0.636
 6443TIP3   OH219334   1.515   3.198   0.872
 6443TIP3    H119335   1.521   3.267   0.806
 6443TIP3    H219336   1.598   3.205   0.920
 6444TIP3   OH219337   5.187   5.654   2.803
 6444TIP3    H119338   5.100   5.621   2.828
 6444TIP3    H219339   5.169   5.732   2.751
 6445TIP3   OH219340   5.257   1.703   4.745
 6445TIP3    H119341   5.310   1.703   4.666
 6445TIP3    H219342   5.244   1.610   4.766
 6446TIP3   OH219343   1.839   2.195   4.196
 6446TIP3    H119344   1.789   2.270   4.164
 6446TIP3    H219345   1.864   2.219   4.285
 6447TIP3   OH219346   1.865   5.061   0.529
 6447TIP3    H119347   1.941   5.036   0.581
 6447TIP3    H219348   1.803   4.989   0.540
 6448TIP3   OH219349   4.374   2.292   4.270
 6448TIP3    H119350   4.424   2.323   4.194
 6448TIP3    H219351   4.420   2.330   4.345
 6449TIP3   OH219352   4.470   4.956   1.427
 6449TIP3    H119353   4.450   5.045   1.456
 6449TIP3    H219354   4.554   4.964   1.381
 6450TIP3   OH219355   4.394   4.363   1.686
 6450TIP3    H119356   4.349   4.304   1.625
 6450TIP3    H219357   4.352   4.448   1.672
 6451TIP3   OH219358   2.559   3.725   4.354
 6451TIP3    H119359   2.636   3.679   4.321
 6451TIP3    H219360   2.554   3.699   4.446
 6452TIP3   OH219361   0.908   1.122   4.513
 6452TIP3    H119362   0.825   1.077   4.501
 6452TIP3    H219363   0.974   1.061   4.480
 6453TIP3   OH219364   5.171   5.676   1.008
 6453TIP3    H119365   5.262   5.705   1.010
 6453TIP3    H219366   5.174   5.585   1.037
 6454TIP3   OH219367   0.235   1.123   1.042
 6454TIP3    H119368   0.253   1.208   1.081
 6454TIP3    H219369   0.179   1.079   1.106
 6455TIP3   OH219370   1.300   3.514   1.959
 6455TIP3    H119371   1.305   3.596   2.007
 6455TIP3    H219372   1.243   3.458   2.011
 6456TIP3   OH219373   5.220   0.483   1.787
 6456TIP3    H119374   5.141   0.441   1.753
 6456TIP3    H219375   5.203   0.576   1.777
 6457TIP3   OH219376   1.234   2.909   4.594
 6457TIP3    H119377   1.246   2.881   4.685
 6457TIP3    H219378   1.284   2.846   4.542
 6458TIP3   OH219379   2.209   0.768   4.606
 6458TIP3    H119380   2.124   0.749   4.646
 6458TIP3    H219381   2.231   0.688   4.558
 6459TIP3   OH219382   3.840   4.293   1.310
 6459TIP3    H119383   3.928   4.290   1.271
 6459TIP3    H219384   3.785   4.334   1.243
 6460TIP3   OH219385   4.835   0.967   0.584
 6460TIP3    H119386   4.747   1.004   0.586
 6460TIP3    H219387   4.827   0.890   0.527
 6461TIP3   OH219388   1.671   3.325   3.082
 6461TIP3    H119389   1.708   3.240   3.105
 6461TIP3    H219390   1.607   3.344   3.151
 6462TIP3   OH219391   3.645   4.712   3.172
 6462TIP3    H119392   3.619   4.725   3.080
 6462TIP3    H219393   3.570   4.667   3.212
 6463TIP3   OH219394   5.211   3.758   0.127
 6463TIP3    H119395   5.204   3.852   0.111
 6463TIP3    H219396   5.194   3.749   0.221
 6464TIP3   OH219397   2.052   1.417   4.309
 6464TIP3    H119398   2.133   1.366   4.312
 6464TIP3    H219399   1.985   1.354   4.282
 6465TIP3   OH219400   5.285   1.666   2.933
 6465TIP3    H119401   5.201   1.620   2.923
 6465TIP3    H219402   5.317   1.637   3.019
 6466TIP3   OH219403   6.342   2.337   0.854
 6466TIP3    H119404   6.256   2.364   0.822
 6466TIP3    H219405   6.404   2.373   0.791
 6467TIP3   OH219406   6.052   1.189   5.047
 6467TIP3    H119407   6.130   1.143   5.015
 6467TIP3    H219408   6.058   1.185   5.142
 6468TIP3   OH219409   4.000   2.802   2.908
 6468TIP3    H119410   3.990   2.864   2.981
 6468TIP3    H219411   4.033   2.722   2.950
 6469TIP3   OH219412   5.139   3.011   5.024
 6469TIP3    H119413   5.223   3.017   4.979
 6469TIP3    H219414   5.107   2.922   5.005
 6470TIP3   OH219415   1.690   0.244   5.061
 6470TIP3    H119416   1.674   0.210   4.973
 6470TIP3    H219417   1.740   0.325   5.048
 6471TIP3   OH219418   1.779   0.476   1.883
 6471TIP3    H119419   1.705   0.419   1.864
 6471TIP3    H219420   1.743   0.564   1.878
 6472TIP3   OH219421   6.042   2.505   4.197
 6472TIP3    H119422   5.953   2.474   4.181
 6472TIP3    H219423   6.066   2.467   4.282
 6473TIP3   OH219424   4.175   1.241   2.890
 6473TIP3    H119425   4.113   1.314   2.891
 6473TIP3    H219426   4.181   1.214   2.982
 6474TIP3   OH219427   0.901   1.214   1.530
 6474TIP3    H119428   0.807   1.201   1.519
 6474TIP3    H219429   0.918   1.298   1.488
 6475TIP3   OH219430   1.128   5.681   4.861
 6475TIP3    H119431   1.112   5.737   4.937
 6475TIP3    H219432   1.219   5.700   4.836
 6476TIP3   OH219433   3.906   2.838   4.886
 6476TIP3    H119434   3.837   2.779   4.854
 6476TIP3    H219435   3.861   2.900   4.942
 6477TIP3   OH219436   0.146   3.644   0.984
 6477TIP3    H119437   0.170   3.729   0.948
 6477TIP3    H219438   0.161   3.582   0.912
 6478TIP3   OH219439   6.289   3.161   2.112
 6478TIP3    H119440   6.261   3.073   2.086
 6478TIP3    H219441   6.318   3.202   2.030
 6479TIP3   OH219442   2.903   4.056   0.321
 6479TIP3    H119443   2.954   3.990   0.275
 6479TIP3    H219444   2.813   4.024   0.317
 6480TIP3   OH219445   2.915   4.271   3.597
 6480TIP3    H119446   2.987   4.262   3.534
 6480TIP3    H219447   2.947   4.227   3.676
 6481TIP3   OH219448   2.070   3.795   3.162
 6481TIP3    H119449   1.984   3.791   3.202
 6481TIP3    H219450   2.077   3.712   3.113
 6482TIP3   OH219451   1.822   3.630   1.581
 6482TIP3    H119452   1.784   3.718   1.585
 6482TIP3    H219453   1.857   3.623   1.492
 6483TIP3   OH219454   4.532   0.872   2.766
 6483TIP3    H119455   4.479   0.940   2.809
 6483TIP3    H219456   4.567   0.916   2.688
 6484TIP3   OH219457   5.277   2.767   5.207
 6484TIP3    H119458   5.359   2.792   5.250
 6484TIP3    H219459   5.303   2.752   5.116
 6485TIP3   OH219460   0.155   1.997   4.271
 6485TIP3    H119461   0.149   1.992   4.175
 6485TIP3    H219462   0.097   1.927   4.302
 6486TIP3   OH219463   5.279   0.859   4.889
 6486TIP3    H119464   5.248   0.820   4.807
 6486TIP3    H219465   5.244   0.801   4.957
 6487TIP3   OH219466   4.459   1.049   0.076
 6487TIP3    H119467   4.505   1.112   0.020
 6487TIP3    H219468   4.516   0.972   0.078
 6488TIP3   OH219469   4.217   4.570   3.968
 6488TIP3    H119470   4.267   4.505   3.918
 6488TIP3    H219471   4.176   4.625   3.902
 6489TIP3   OH219472   0.985   5.956   4.171
 6489TIP3    H119473   1.056   5.962   4.107
 6489TIP3    H219474   1.029   5.966   4.256
 6490TIP3   OH219475   1.874   3.931   3.641
 6490TIP3    H119476   1.917   3.943   3.725
 6490TIP3    H219477   1.829   4.015   3.625
 6491TIP3   OH219478   4.530   2.094   4.734
 6491TIP3    H119479   4.531   2.045   4.816
 6491TIP3    H219480   4.557   2.182   4.758
 6492TIP3   OH219481   5.946   1.386   0.529
 6492TIP3    H119482   5.919   1.329   0.457
 6492TIP3    H219483   6.017   1.439   0.492
 6493TIP3   OH219484   2.667   5.335   1.353
 6493TIP3    H119485   2.589   5.390   1.349
 6493TIP3    H219486   2.634   5.246   1.342
 6494TIP3   OH219487   0.242   1.368   3.254
 6494TIP3    H119488   0.221   1.430   3.325
 6494TIP3    H219489   0.192   1.289   3.277
 6495TIP3   OH219490   4.973   2.669   0.985
 6495TIP3    H119491   4.963   2.750   1.035
 6495TIP3    H219492   5.059   2.634   1.011
 6496TIP3   OH219493   3.237   5.942   3.169
 6496TIP3    H119494   3.232   5.878   3.241
 6496TIP3    H219495   3.217   6.026   3.210
 6497TIP3   OH219496   4.758   3.371   3.543
 6497TIP3    H119497   4.735   3.279   3.541
 6497TIP3    H219498   4.841   3.376   3.495
 6498TIP3   OH219499   3.478   3.750   0.155
 6498TIP3    H119500   3.433   3.667   0.140
 6498TIP3    H219501   3.509   3.745   0.245
 6499TIP3   OH219502   4.224   5.624   2.652
 6499TIP3    H119503   4.234   5.622   2.557
 6499TIP3    H219504   4.254   5.538   2.681
 6500TIP3   OH219505   4.718   2.324   2.757
 6500TIP3    H119506   4.804   2.305   2.720
 6500TIP3    H219507   4.705   2.258   2.824
 6501TIP3   OH219508   1.097   2.404   0.551
 6501TIP3    H119509   1.188   2.376   0.560
 6501TIP3    H219510   1.096   2.494   0.586
 6502TIP3   OH219511   2.944   5.108   2.206
 6502TIP3    H119512   2.973   5.080   2.120
 6502TIP3    H219513   2.849   5.116   2.199
 6503TIP3   OH219514   6.258   0.912   1.545
 6503TIP3    H119515   6.320   0.861   1.596
 6503TIP3    H219516   6.234   0.855   1.472
 6504TIP3   OH219517   4.570   3.071   3.353
 6504TIP3    H119518   4.620   3.000   3.312
 6504TIP3    H219519   4.627   3.103   3.422
 6505TIP3   OH219520   3.801   2.871   3.488
 6505TIP3    H119521   3.723   2.923   3.507
 6505TIP3    H219522   3.870   2.936   3.474
 6506TIP3   OH219523   4.848   4.785   4.708
 6506TIP3    H119524   4.865   4.724   4.781
 6506TIP3    H219525   4.852   4.731   4.630
 6507TIP3   OH219526   5.842   0.449   3.306
 6507TIP3    H119527   5.905   0.391   3.264
 6507TIP3    H219528   5.757   0.410   3.285
 6508TIP3   OH219529   2.856   0.113   4.974
 6508TIP3    H119530   2.882   0.192   5.020
 6508TIP3    H219531   2.917   0.107   4.900
 6509TIP3   OH219532   0.437   1.158   2.215
 6509TIP3    H119533   0.500   1.189   2.280
 6509TIP3    H219534   0.491   1.132   2.141
 6510TIP3   OH219535   2.864   3.003   1.049
 6510TIP3    H119536   2.790   3.063   1.038
 6510TIP3    H219537   2.933   3.058   1.086
 6511TIP3   OH219538   3.438   2.948   1.597
 6511TIP3    H119539   3.412   3.009   1.529
 6511TIP3    H219540   3.400   2.983   1.677
 6512TIP3   OH219541   5.672   0.451   4.461
 6512TIP3    H119542   5.742   0.402   4.418
 6512TIP3    H219543   5.665   0.411   4.548
 6513TIP3   OH219544   5.354   2.616   2.029
 6513TIP3    H119545   5.396   2.606   2.114
 6513TIP3    H219546   5.427   2.636   1.970
 6514TIP3   OH219547   1.803   4.306   2.559
 6514TIP3    H119548   1.767   4.223   2.589
 6514TIP3    H219549   1.727   4.357   2.532
 6515TIP3   OH219550   1.563   4.142   1.675
 6515TIP3    H119551   1.527   4.112   1.591
 6515TIP3    H219552   1.489   4.138   1.736
 6516TIP3   OH219553   5.818   0.734   4.002
 6516TIP3    H119554   5.796   0.656   3.951
 6516TIP3    H219555   5.765   0.726   4.082
 6517TIP3   OH219556   3.370   5.411   1.646
 6517TIP3    H119557   3.425   5.348   1.693
 6517TIP3    H219558   3.333   5.361   1.573
 6518TIP3   OH219559   1.855   4.239   0.156
 6518TIP3    H119560   1.873   4.328   0.185
 6518TIP3    H219561   1.902   4.183   0.217
 6519TIP3   OH219562   0.071   2.768   0.290
 6519TIP3    H119563   0.060   2.769   0.385
 6519TIP3    H219564   0.047   2.856   0.262
 6520TIP3   OH219565   0.946   5.281   4.299
 6520TIP3    H119566   1.026   5.319   4.335
 6520TIP3    H219567   0.976   5.201   4.256
 6521TIP3   OH219568   1.865   4.402   2.022
 6521TIP3    H119569   1.835   4.411   2.113
 6521TIP3    H219570   1.805   4.339   1.983
 6522TIP3   OH219571   0.666   4.759   3.154
 6522TIP3    H119572   0.708   4.804   3.227
 6522TIP3    H219573   0.572   4.771   3.170
 6523TIP3   OH219574   2.336   3.048   2.049
 6523TIP3    H119575   2.241   3.037   2.052
 6523TIP3    H219576   2.356   3.104   2.124
 6524TIP3   OH219577   2.478   2.737   0.458
 6524TIP3    H119578   2.521   2.659   0.425
 6524TIP3    H219579   2.428   2.706   0.534
 6525TIP3   OH219580   4.321   4.909   2.399
 6525TIP3    H119581   4.379   4.922   2.324
 6525TIP3    H219582   4.285   4.822   2.387
 6526TIP3   OH219583   6.205   0.900   2.569
 6526TIP3    H119584   6.170   0.972   2.516
 6526TIP3    H219585   6.170   0.821   2.527
 6527TIP3   OH219586   0.696   1.153   0.394
 6527TIP3    H119587   0.613   1.176   0.435
 6527TIP3    H219588   0.678   1.156   0.300
 6528TIP3   OH219589   5.030   2.342   0.333
 6528TIP3    H119590   5.052   2.310   0.421
 6528TIP3    H219591   4.938   2.317   0.321
 6529TIP3   OH219592   5.517   4.403   0.940
 6529TIP3    H119593   5.518   4.452   0.857
 6529TIP3    H219594   5.599   4.427   0.983
 6530TIP3   OH219595   2.499   3.897   2.574
 6530TIP3    H119596   2.468   3.808   2.557
 6530TIP3    H219597   2.492   3.907   2.669
 6531TIP3   OH219598   0.352   2.447   4.747
 6531TIP3    H119599   0.330   2.361   4.710
 6531TIP3    H219600   0.390   2.496   4.674
 6532TIP3   OH219601   3.806   1.169   0.223
 6532TIP3    H119602   3.761   1.179   0.307
 6532TIP3    H219603   3.741   1.197   0.159
 6533TIP3   OH219604   4.220   4.989   0.552
 6533TIP3    H119605   4.282   4.985   0.479
 6533TIP3    H219606   4.271   5.026   0.624
 6534TIP3   OH219607   2.182   4.413   3.467
 6534TIP3    H119608   2.188   4.507   3.481
 6534TIP3    H219609   2.093   4.399   3.436
 6535TIP3   OH219610   1.562   2.613   0.386
 6535TIP3    H119611   1.528   2.524   0.381
 6535TIP3    H219612   1.585   2.636   0.296
 6536TIP3   OH219613   3.875   1.151   3.936
 6536TIP3    H119614   3.836   1.230   3.973
 6536TIP3    H219615   3.814   1.124   3.867
 6537TIP3   OH219616   0.783   2.371   2.942
 6537TIP3    H119617   0.753   2.298   2.888
 6537TIP3    H219618   0.877   2.356   2.952
 6538TIP3   OH219619   5.291   2.602   0.856
 6538TIP3    H119620   5.364   2.582   0.799
 6538TIP3    H219621   5.239   2.522   0.858
 6539TIP3   OH219622   4.027   0.273   2.879
 6539TIP3    H119623   4.096   0.336   2.858
 6539TIP3    H219624   3.971   0.318   2.942
 6540TIP3   OH219625   4.447   1.295   0.691
 6540TIP3    H119626   4.486   1.355   0.627
 6540TIP3    H219627   4.368   1.340   0.722
 6541TIP3   OH219628   4.230   3.959   3.122
 6541TIP3    H119629   4.201   3.981   3.211
 6541TIP3    H219630   4.155   3.979   3.066
 6542TIP3   OH219631   1.721   2.878   1.174
 6542TIP3    H119632   1.676   2.919   1.247
 6542TIP3    H219633   1.801   2.929   1.163
 6543TIP3   OH219634   1.098   4.646   5.007
 6543TIP3    H119635   1.088   4.619   4.916
 6543TIP3    H219636   1.017   4.617   5.050
 6544TIP3   OH219637   6.391   4.813   2.352
 6544TIP3    H119638   6.331   4.780   2.420
 6544TIP3    H219639   6.379   4.908   2.356
 6545TIP3   OH219640   4.487   3.714   2.837
 6545TIP3    H119641   4.458   3.740   2.925
 6545TIP3    H219642   4.581   3.700   2.846
 6546TIP3   OH219643   0.336   5.247   0.873
 6546TIP3    H119644   0.342   5.155   0.897
 6546TIP3    H219645   0.381   5.253   0.788
 6547TIP3   OH219646   0.462   4.449   2.508
 6547TIP3    H119647   0.539   4.507   2.509
 6547TIP3    H219648   0.498   4.361   2.502
 6548TIP3   OH219649   3.626   3.219   0.077
 6548TIP3    H119650   3.648   3.255   0.163
 6548TIP3    H219651   3.695   3.250   0.019
 6549TIP3   OH219652   5.733   4.550   1.048
 6549TIP3    H119653   5.719   4.636   1.010
 6549TIP3    H219654   5.819   4.556   1.091
 6550TIP3   OH219655   2.949   3.461   1.880
 6550TIP3    H119656   3.016   3.455   1.812
 6550TIP3    H219657   2.998   3.450   1.962
 6551TIP3   OH219658   5.452   5.188   0.589
 6551TIP3    H119659   5.455   5.282   0.608
 6551TIP3    H219660   5.523   5.174   0.526
 6552TIP3   OH219661   3.224   4.096   2.443
 6552TIP3    H119662   3.247   4.174   2.393
 6552TIP3    H219663   3.301   4.076   2.495
 6553TIP3   OH219664   5.002   0.124   2.574
 6553TIP3    H119665   4.920   0.092   2.537
 6553TIP3    H219666   5.046   0.166   2.500
 6554TIP3   OH219667   4.482   4.950   4.344
 6554TIP3    H119668   4.443   4.915   4.264
 6554TIP3    H219669   4.560   4.896   4.358
 6555TIP3   OH219670   4.647   0.128   2.189
 6555TIP3    H119671   4.618   0.215   2.160
 6555TIP3    H219672   4.570   0.073   2.182
 6556TIP3   OH219673   3.396   2.242   2.369
 6556TIP3    H119674   3.342   2.321   2.375
 6556TIP3    H219675   3.482   2.269   2.399
 6557TIP3   OH219676   6.049   2.463   2.554
 6557TIP3    H119677   6.140   2.464   2.525
 6557TIP3    H219678   6.050   2.410   2.634
 6558TIP3   OH219679   4.579   0.011   3.505
 6558TIP3    H119680   4.538   0.095   3.525
 6558TIP3    H219681   4.507  -0.043   3.472
 6559TIP3   OH219682   3.935   1.570   1.231
 6559TIP3    H119683   3.966   1.488   1.269
 6559TIP3    H219684   4.010   1.629   1.238
 6560TIP3   OH219685   4.155   5.239   2.236
 6560TIP3    H119686   4.135   5.329   2.262
 6560TIP3    H219687   4.190   5.248   2.147
 6561TIP3   OH219688   2.100   5.355   1.078
 6561TIP3    H119689   2.051   5.411   1.017
 6561TIP3    H219690   2.189   5.389   1.074
 6562TIP3   OH219691   2.801   1.391   1.755
 6562TIP3    H119692   2.820   1.332   1.828
 6562TIP3    H219693   2.770   1.471   1.796
 6563TIP3   OH219694   6.200   2.268   0.053
 6563TIP3    H119695   6.291   2.238   0.041
 6563TIP3    H219696   6.162   2.206   0.115
 6564TIP3   OH219697   0.218   3.944   4.934
 6564TIP3    H119698   0.201   3.866   4.880
 6564TIP3    H219699   0.143   4.001   4.917
 6565TIP3   OH219700   4.613   3.395   1.466
 6565TIP3    H119701   4.526   3.423   1.439
 6565TIP3    H219702   4.663   3.476   1.473
 6566TIP3   OH219703   5.994   1.476   1.993
 6566TIP3    H119704   6.001   1.523   1.910
 6566TIP3    H219705   5.953   1.392   1.970
 6567TIP3   OH219706   0.569   4.328  -0.033
 6567TIP3    H119707   0.649   4.283  -0.006
 6567TIP3    H219708   0.598   4.416  -0.058
 6568TIP3   OH219709   4.822   5.338   1.585
 6568TIP3    H119710   4.774   5.418   1.560
 6568TIP3    H219711   4.776   5.268   1.540
 6569TIP3   OH219712   0.672   5.920   0.023
 6569TIP3    H119713   0.752   5.967  -0.002
 6569TIP3    H219714   0.699   5.863   0.095
 6570TIP3   OH219715   2.016   1.350   3.004
 6570TIP3    H119716   2.080   1.293   3.047
 6570TIP3    H219717   1.995   1.417   3.069
 6571TIP3   OH219718   3.677   3.145   0.374
 6571TIP3    H119719   3.619   3.076   0.405
 6571TIP3    H219720   3.752   3.098   0.336
 6572TIP3   OH219721   2.929   1.467   2.478
 6572TIP3    H119722   2.852   1.427   2.436
 6572TIP3    H219723   2.989   1.393   2.491
 6573TIP3   OH219724   5.398   1.767   0.937
 6573TIP3    H119725   5.372   1.845   0.986
 6573TIP3    H219726   5.488   1.786   0.908
 6574TIP3   OH219727   5.682   5.486   2.202
 6574TIP3    H119728   5.723   5.400   2.209
 6574TIP3    H219729   5.590   5.471   2.222
 6575TIP3   OH219730   2.397   2.477   2.229
 6575TIP3    H119731   2.399   2.573   2.234
 6575TIP3    H219732   2.422   2.457   2.139
 6576TIP3   OH219733   4.916   2.837   1.767
 6576TIP3    H119734   4.926   2.879   1.682
 6576TIP3    H219735   4.955   2.750   1.756
 6577TIP3   OH219736   3.287   3.667   1.231
 6577TIP3    H119737   3.327   3.612   1.299
 6577TIP3    H219738   3.248   3.740   1.278
 6578TIP3   OH219739   6.222   3.898   4.339
 6578TIP3    H119740   6.223   3.955   4.263
 6578TIP3    H219741   6.293   3.836   4.324
 6579TIP3   OH219742   2.855   4.907   1.312
 6579TIP3    H119743   2.871   4.939   1.224
 6579TIP3    H219744   2.934   4.856   1.333
 6580TIP3   OH219745   3.932   0.125   1.091
 6580TIP3    H119746   3.950   0.134   0.998
 6580TIP3    H219747   3.955   0.210   1.128
 6581TIP3   OH219748   0.594   5.641   1.677
 6581TIP3    H119749   0.599   5.696   1.755
 6581TIP3    H219750   0.638   5.693   1.609
 6582TIP3   OH219751   3.497   2.166   2.820
 6582TIP3    H119752   3.409   2.180   2.787
 6582TIP3    H219753   3.551   2.229   2.773
 6583TIP3   OH219754   3.808   2.985   4.039
 6583TIP3    H119755   3.840   3.048   4.104
 6583TIP3    H219756   3.862   3.002   3.962
 6584TIP3   OH219757   1.096   4.799   2.448
 6584TIP3    H119758   1.167   4.739   2.474
 6584TIP3    H219759   1.023   4.741   2.425
 6585TIP3   OH219760   5.715   1.826   2.602
 6585TIP3    H119761   5.698   1.857   2.691
 6585TIP3    H219762   5.669   1.888   2.545
 6586TIP3   OH219763   1.001   4.464   3.233
 6586TIP3    H119764   1.005   4.544   3.286
 6586TIP3    H219765   0.907   4.447   3.223
 6587TIP3   OH219766   3.154   0.179   1.526
 6587TIP3    H119767   3.173   0.267   1.495
 6587TIP3    H219768   3.151   0.186   1.621
 6588TIP3   OH219769   0.642   0.521   1.853
 6588TIP3    H119770   0.638   0.444   1.909
 6588TIP3    H219771   0.711   0.501   1.790
 6589TIP3   OH219772   0.584   2.738   1.680
 6589TIP3    H119773   0.529   2.787   1.619
 6589TIP3    H219774   0.589   2.794   1.758
 6590TIP3   OH219775   4.538   5.643   3.821
 6590TIP3    H119776   4.594   5.630   3.898
 6590TIP3    H219777   4.598   5.639   3.747
 6591TIP3   OH219778   2.968   4.656   3.870
 6591TIP3    H119779   2.877   4.653   3.840
 6591TIP3    H219780   2.992   4.565   3.885
 6592TIP3   OH219781   0.869   1.114   5.041
 6592TIP3    H119782   0.890   1.152   4.956
 6592TIP3    H219783   0.789   1.158   5.069
 6593TIP3   OH219784   4.888   1.722   0.985
 6593TIP3    H119785   4.893   1.786   1.056
 6593TIP3    H219786   4.933   1.645   1.019
 6594TIP3   OH219787   2.199   4.272   0.901
 6594TIP3    H119788   2.119   4.316   0.929
 6594TIP3    H219789   2.168   4.205   0.839
 6595TIP3   OH219790   0.397   5.300   4.353
 6595TIP3    H119791   0.376   5.311   4.446
 6595TIP3    H219792   0.484   5.336   4.343
 6596TIP3   OH219793   3.178   3.914   3.150
 6596TIP3    H119794   3.138   3.949   3.229
 6596TIP3    H219795   3.167   3.983   3.084
 6597TIP3   OH219796   0.381   5.672   3.462
 6597TIP3    H119797   0.399   5.705   3.550
 6597TIP3    H219798   0.285   5.666   3.459
 6598TIP3   OH219799   3.893   5.706   0.655
 6598TIP3    H119800   3.861   5.773   0.594
 6598TIP3    H219801   3.822   5.642   0.659
 6599TIP3   OH219802   0.832   5.708   3.594
 6599TIP3    H119803   0.824   5.792   3.547
 6599TIP3    H219804   0.919   5.712   3.635
 6600TIP3   OH219805   1.845   5.227   2.396
 6600TIP3    H119806   1.759   5.214   2.355
 6600TIP3    H219807   1.830   5.294   2.463
 6601TIP3   OH219808   4.014   3.162   4.859
 6601TIP3    H119809   4.041   3.074   4.832
 6601TIP3    H219810   3.947   3.187   4.796
 6602TIP3   OH219811   2.583   0.091   1.653
 6602TIP3    H119812   2.618   0.176   1.625
 6602TIP3    H219813   2.513   0.113   1.715
 6603TIP3   OH219814   1.346   2.535   4.594
 6603TIP3    H119815   1.351   2.592   4.670
 6603TIP3    H219816   1.345   2.595   4.519
 6604TIP3   OH219817   4.998   0.826   3.023
 6604TIP3    H119818   5.040   0.741   3.035
 6604TIP3    H219819   4.929   0.809   2.959
 6605TIP3   OH219820   1.663   2.481   4.149
 6605TIP3    H119821   1.645   2.431   4.070
 6605TIP3    H219822   1.742   2.530   4.129
 6606TIP3   OH219823   1.483   4.617   4.863
 6606TIP3    H119824   1.577   4.614   4.846
 6606TIP3    H219825   1.474   4.586   4.953
 6607TIP3   OH219826   5.824   4.179   2.907
 6607TIP3    H119827   5.773   4.223   2.840
 6607TIP3    H219828   5.904   4.232   2.915
 6608TIP3   OH219829   4.684   4.703   2.539
 6608TIP3    H119830   4.711   4.611   2.535
 6608TIP3    H219831   4.761   4.749   2.572
 6609TIP3   OH219832   5.442   3.700   4.744
 6609TIP3    H119833   5.394   3.642   4.803
 6609TIP3    H219834   5.434   3.658   4.658
 6610TIP3   OH219835   5.933   3.349   0.592
 6610TIP3    H119836   5.922   3.265   0.548
 6610TIP3    H219837   5.845   3.370   0.624
 6611TIP3   OH219838   2.969   3.604   0.709
 6611TIP3    H119839   2.991   3.550   0.785
 6611TIP3    H219840   3.040   3.668   0.703
 6612TIP3   OH219841   1.713   0.538   0.586
 6612TIP3    H119842   1.728   0.533   0.680
 6612TIP3    H219843   1.789   0.586   0.552
 6613TIP3   OH219844   2.724   4.440   5.168
 6613TIP3    H119845   2.685   4.491   5.239
 6613TIP3    H219846   2.772   4.504   5.116
 6614TIP3   OH219847   2.075   1.799   1.302
 6614TIP3    H119848   2.072   1.704   1.308
 6614TIP3    H219849   2.052   1.819   1.212
 6615TIP3   OH219850   0.380   5.546   1.822
 6615TIP3    H119851   0.449   5.592   1.774
 6615TIP3    H219852   0.308   5.609   1.828
 6616TIP3   OH219853   5.400   0.917   1.078
 6616TIP3    H119854   5.427   0.901   1.168
 6616TIP3    H219855   5.469   0.971   1.041
 6617TIP3   OH219856   6.300   4.803   0.281
 6617TIP3    H119857   6.385   4.838   0.256
 6617TIP3    H219858   6.254   4.789   0.198
 6618TIP3   OH219859   4.223   1.432   3.394
 6618TIP3    H119860   4.241   1.340   3.373
 6618TIP3    H219861   4.304   1.463   3.434
 6619TIP3   OH219862   4.637   0.282   1.799
 6619TIP3    H119863   4.688   0.203   1.820
 6619TIP3    H219864   4.677   0.315   1.719
 6620TIP3   OH219865   2.211   0.124   2.172
 6620TIP3    H119866   2.136   0.177   2.145
 6620TIP3    H219867   2.188   0.035   2.146
 6621TIP3   OH219868   4.827   3.924   2.636
 6621TIP3    H119869   4.812   3.977   2.558
 6621TIP3    H219870   4.882   3.979   2.692
 6622TIP3   OH219871   2.339   1.223   0.778
 6622TIP3    H119872   2.285   1.225   0.856
 6622TIP3    H219873   2.354   1.130   0.761
 6623TIP3   OH219874   2.520   0.572   2.275
 6623TIP3    H119875   2.489   0.482   2.268
 6623TIP3    H219876   2.518   0.590   2.369
 6624TIP3   OH219877   1.822   3.635   0.388
 6624TIP3    H119878   1.734   3.633   0.349
 6624TIP3    H219879   1.807   3.664   0.478
 6625TIP3   OH219880   1.782   1.512   1.689
 6625TIP3    H119881   1.791   1.417   1.694
 6625TIP3    H219882   1.833   1.537   1.612
 6626TIP3   OH219883   4.533   4.030   0.418
 6626TIP3    H119884   4.561   4.111   0.374
 6626TIP3    H219885   4.535   3.964   0.349
 6627TIP3   OH219886   3.297   2.272   4.112
 6627TIP3    H119887   3.359   2.257   4.183
 6627TIP3    H219888   3.341   2.238   4.034
 6628TIP3   OH219889   5.043   2.694   4.255
 6628TIP3    H119890   5.104   2.636   4.302
 6628TIP3    H219891   5.094   2.724   4.179
 6629TIP3   OH219892   1.572   0.127   4.120
 6629TIP3    H119893   1.508   0.152   4.187
 6629TIP3    H219894   1.551   0.180   4.044
 6630TIP3   OH219895   2.516   3.692   4.906
 6630TIP3    H119896   2.537   3.774   4.861
 6630TIP3    H219897   2.542   3.707   4.997
 6631TIP3   OH219898   0.658   3.611   0.395
 6631TIP3    H119899   0.650   3.651   0.482
 6631TIP3    H219900   0.684   3.521   0.413
 6632TIP3   OH219901   1.058   5.748   2.903
 6632TIP3    H119902   0.964   5.740   2.918
 6632TIP3    H219903   1.084   5.824   2.955
 6633TIP3   OH219904   5.357   4.968   1.538
 6633TIP3    H119905   5.444   4.936   1.515
 6633TIP3    H219906   5.368   5.063   1.549
 6634TIP3   OH219907   4.041   4.352   2.059
 6634TIP3    H119908   4.107   4.283   2.059
 6634TIP3    H219909   4.090   4.431   2.035
 6635TIP3   OH219910   2.282   0.461   3.346
 6635TIP3    H119911   2.201   0.409   3.347
 6635TIP3    H219912   2.280   0.509   3.429
 6636TIP3   OH219913   5.221   3.523   3.431
 6636TIP3    H119914   5.261   3.594   3.380
 6636TIP3    H219915   5.190   3.565   3.511
 6637TIP3   OH219916   1.980   5.447   4.655
 6637TIP3    H119917   1.999   5.538   4.635
 6637TIP3    H219918   1.925   5.417   4.583
 6638TIP3   OH219919   0.215   1.404   0.247
 6638TIP3    H119920   0.217   1.459   0.169
 6638TIP3    H219921   0.188   1.463   0.318
 6639TIP3   OH219922   2.815   0.729   0.887
 6639TIP3    H119923   2.836   0.710   0.978
 6639TIP3    H219924   2.900   0.725   0.842
 6640TIP3   OH219925   5.842   5.258   2.847
 6640TIP3    H119926   5.759   5.282   2.807
 6640TIP3    H219927   5.900   5.239   2.774
 6641TIP3   OH219928   6.189   2.893   2.094
 6641TIP3    H119929   6.210   2.803   2.117
 6641TIP3    H219930   6.157   2.889   2.004
 6642TIP3   OH219931   2.002   0.305   3.346
 6642TIP3    H119932   1.915   0.271   3.369
 6642TIP3    H219933   2.009   0.289   3.252
 6643TIP3   OH219934   1.368   0.981   0.074
 6643TIP3    H119935   1.379   0.938   0.159
 6643TIP3    H219936   1.434   0.938   0.018
 6644TIP3   OH219937   6.343   5.769   0.368
 6644TIP3    H119938   6.434   5.743   0.379
 6644TIP3    H219939   6.320   5.812   0.450
 6645TIP3   OH219940   0.289   2.991   4.945
 6645TIP3    H119941   0.204   3.028   4.921
 6645TIP3    H219942   0.353   3.058   4.921
   6.35527   5.99181   5.18906   0.00000   0.00000  -2.11843   0.00000  -2.11843  -2.99590
