Title t= 224.00000 step= 112000
19942
    1ASP      N    1   2.130   2.448   2.622
    1ASP    HT1    2   2.175   2.374   2.564
    1ASP    HT2    3   2.182   2.445   2.712
    1ASP    HT3    4   2.158   2.540   2.583
    1ASP     CA    5   1.985   2.433   2.640
    1ASP     HA    6   1.958   2.506   2.715
    1ASP     CB    7   1.914   2.467   2.505
    1ASP    HB1    8   1.923   2.379   2.438
    1ASP    HB2    9   1.977   2.546   2.458
    1ASP     CG   10   1.772   2.513   2.523
    1ASP    OD1   11   1.718   2.574   2.431
    1ASP    OD2   12   1.714   2.490   2.633
    1ASP      C   13   1.952   2.291   2.694
    1ASP      O   14   2.036   2.222   2.749
    2ALA      N   15   1.821   2.245   2.693
    2ALA     HN   16   1.753   2.311   2.661
    2ALA     CA   17   1.788   2.113   2.729
    2ALA     HA   18   1.867   2.044   2.700
    2ALA     CB   19   1.770   2.110   2.882
    2ALA    HB1   20   1.737   2.007   2.910
    2ALA    HB2   21   1.694   2.188   2.905
    2ALA    HB3   22   1.861   2.147   2.934
    2ALA      C   23   1.656   2.074   2.659
    2ALA      O   24   1.585   2.153   2.592
    3ASP      N   25   1.621   1.947   2.662
    3ASP     HN   26   1.670   1.886   2.725
    3ASP     CA   27   1.513   1.894   2.584
    3ASP     HA   28   1.493   1.966   2.506
    3ASP     CB   29   1.546   1.754   2.525
    3ASP    HB1   30   1.463   1.694   2.481
    3ASP    HB2   31   1.594   1.690   2.602
    3ASP     CG   32   1.649   1.762   2.415
    3ASP    OD1   33   1.692   1.653   2.370
    3ASP    OD2   34   1.681   1.873   2.364
    3ASP      C   35   1.386   1.879   2.669
    3ASP      O   36   1.386   1.871   2.796
    4GLY      N   37   1.274   1.870   2.601
    4GLY     HN   38   1.275   1.868   2.502
    4GLY     CA   39   1.143   1.854   2.649
    4GLY    HA1   40   1.071   1.870   2.570
    4GLY    HA2   41   1.132   1.917   2.736
    4GLY      C   42   1.111   1.717   2.706
    4GLY      O   43   1.186   1.622   2.694
    5PRO      N   44   0.985   1.693   2.761
    5PRO     CD   45   0.894   1.803   2.782
    5PRO    HD1   46   0.862   1.824   2.677
    5PRO    HD2   47   0.931   1.893   2.834
    5PRO     CA   48   0.929   1.570   2.810
    5PRO     HA   49   0.965   1.564   2.912
    5PRO     CB   50   0.783   1.603   2.811
    5PRO    HB1   51   0.728   1.543   2.888
    5PRO    HB2   52   0.741   1.579   2.711
    5PRO     CG   53   0.777   1.751   2.857
    5PRO    HG1   54   0.676   1.789   2.828
    5PRO    HG2   55   0.784   1.760   2.967
    5PRO      C   56   0.963   1.444   2.731
    5PRO      O   57   0.972   1.441   2.607
    6GLY      N   58   0.976   1.335   2.801
    6GLY     HN   59   0.974   1.333   2.900
    6GLY     CA   60   0.995   1.203   2.754
    6GLY    HA1   61   1.053   1.143   2.823
    6GLY    HA2   62   1.026   1.218   2.652
    6GLY      C   63   0.859   1.139   2.749
    6GLY      O   64   0.753   1.190   2.795
    7ASP      N   65   0.858   1.023   2.684
    7ASP     HN   66   0.945   0.985   2.651
    7ASP     CA   67   0.741   0.955   2.635
    7ASP     HA   68   0.654   1.017   2.648
    7ASP     CB   69   0.757   0.921   2.486
    7ASP    HB1   70   0.834   0.845   2.459
    7ASP    HB2   71   0.776   1.015   2.430
    7ASP     CG   72   0.633   0.872   2.422
    7ASP    OD1   73   0.640   0.870   2.294
    7ASP    OD2   74   0.535   0.832   2.487
    7ASP      C   75   0.720   0.826   2.719
    7ASP      O   76   0.803   0.735   2.716
    8PRO      N   77   0.609   0.808   2.798
    8PRO     CD   78   0.510   0.917   2.828
    8PRO    HD1   79   0.432   0.899   2.751
    8PRO    HD2   80   0.550   1.020   2.822
    8PRO     CA   81   0.609   0.708   2.903
    8PRO     HA   82   0.693   0.732   2.966
    8PRO     CB   83   0.479   0.732   2.978
    8PRO    HB1   84   0.484   0.715   3.088
    8PRO    HB2   85   0.401   0.660   2.947
    8PRO     CG   86   0.452   0.882   2.966
    8PRO    HG1   87   0.347   0.916   2.981
    8PRO    HG2   88   0.510   0.927   3.050
    8PRO      C   89   0.633   0.565   2.856
    8PRO      O   90   0.704   0.491   2.921
    9ASP      N   91   0.583   0.524   2.736
    9ASP     HN   92   0.526   0.586   2.683
    9ASP     CA   93   0.596   0.382   2.700
    9ASP     HA   94   0.609   0.330   2.793
    9ASP     CB   95   0.468   0.330   2.615
    9ASP    HB1   96   0.499   0.273   2.525
    9ASP    HB2   97   0.415   0.418   2.574
    9ASP     CG   98   0.372   0.244   2.688
    9ASP    OD1   99   0.345   0.125   2.648
    9ASP    OD2  100   0.318   0.292   2.798
    9ASP      C  101   0.732   0.350   2.628
    9ASP      O  102   0.764   0.232   2.598
   10ALA      N  103   0.814   0.455   2.616
   10ALA     HN  104   0.791   0.547   2.649
   10ALA     CA  105   0.943   0.448   2.543
   10ALA     HA  106   0.941   0.364   2.475
   10ALA     CB  107   0.977   0.580   2.477
   10ALA    HB1  108   0.891   0.612   2.413
   10ALA    HB2  109   1.061   0.565   2.406
   10ALA    HB3  110   0.999   0.662   2.548
   10ALA      C  111   1.063   0.422   2.639
   10ALA      O  112   1.068   0.488   2.742
   11GLY      N  113   1.159   0.336   2.609
   11GLY     HN  114   1.147   0.296   2.518
   11GLY     CA  115   1.277   0.308   2.688
   11GLY    HA1  116   1.295   0.393   2.752
   11GLY    HA2  117   1.359   0.283   2.622
   11GLY      C  118   1.262   0.177   2.763
   11GLY    OT1  119   1.344   0.081   2.729
   11GLY    OT2  120   1.180   0.166   2.856
   12LIT    LIT  121   3.721   5.515   2.031
   13LIT    LIT  122   1.331   3.035   2.421
   14LIT    LIT  123   0.093   3.696   2.583
   15LIT    LIT  124   0.339   1.850   2.645
   16LIT    LIT  125   5.067   5.714   4.353
   17LIT    LIT  126   4.011   4.665   4.410
   18LIT    LIT  127   4.549   3.078   0.000
   19LIT    LIT  128   4.485   5.952   2.645
   20LIT    LIT  129   3.539   1.800   4.080
   21LIT    LIT  130   1.911   5.939   1.558
   22LIT    LIT  131   5.878   4.022   1.022
   23LIT    LIT  132   2.828   3.165   1.730
   24LIT    LIT  133   4.614   2.713   2.731
   25LIT    LIT  134   4.900   1.475   4.914
   26LIT    LIT  135   2.254   0.391   3.453
   27LIT    LIT  136   0.685   0.877   3.607
   28LIT    LIT  137   1.012   1.894   4.287
   29LIT    LIT  138   3.066   4.752   0.383
   30LIT    LIT  139   2.478   3.946   2.489
   31LIT    LIT  140   5.948   0.338   0.291
   32LIT    LIT  141   4.516   5.931   1.492
   33LIT    LIT  142   4.193   0.235   0.524
   34CLA    CLA  143   2.943   3.200   2.328
   35CLA    CLA  144   2.440   2.268   4.703
   36CLA    CLA  145   6.030   3.752   1.935
   37CLA    CLA  146   5.671   4.481   2.398
   38CLA    CLA  147   4.811   5.214   1.350
   39CLA    CLA  148   4.520   4.949   3.900
   40CLA    CLA  149   0.490   3.442   2.710
   41CLA    CLA  150   1.243   3.408   0.520
   42CLA    CLA  151   5.240   3.493   0.243
   43CLA    CLA  152   1.364   3.186   0.111
   44CLA    CLA  153   5.149   1.621   4.569
   45CLA    CLA  154   0.155   5.383   0.179
   46CLA    CLA  155   2.488   0.239   5.020
   47CLA    CLA  156   2.099   0.218   3.458
   48CLA    CLA  157   2.379   4.830   4.052
   49CLA    CLA  158   1.628   1.557   4.120
   50CLA    CLA  159   1.639   2.472   0.718
   51CLA    CLA  160   4.252   0.328   1.679
   52TIP3   OH2  161   5.135   1.230   0.158
   52TIP3    H1  162   5.094   1.245   0.243
   52TIP3    H2  163   5.168   1.315   0.131
   53TIP3   OH2  164   4.442   2.188   0.492
   53TIP3    H1  165   4.455   2.155   0.403
   53TIP3    H2  166   4.350   2.212   0.496
   54TIP3   OH2  167   1.690   2.039   4.352
   54TIP3    H1  168   1.664   1.997   4.270
   54TIP3    H2  169   1.619   2.019   4.413
   55TIP3   OH2  170   5.288   1.661   2.686
   55TIP3    H1  171   5.298   1.694   2.596
   55TIP3    H2  172   5.235   1.582   2.676
   56TIP3   OH2  173   3.603   5.088   1.778
   56TIP3    H1  174   3.657   5.012   1.800
   56TIP3    H2  175   3.661   5.145   1.729
   57TIP3   OH2  176   1.898   2.905   1.223
   57TIP3    H1  177   1.990   2.914   1.248
   57TIP3    H2  178   1.881   2.981   1.167
   58TIP3   OH2  179   1.322   4.320   2.371
   58TIP3    H1  180   1.311   4.406   2.411
   58TIP3    H2  181   1.416   4.302   2.378
   59TIP3   OH2  182   1.960   0.231   5.108
   59TIP3    H1  183   1.947   0.313   5.060
   59TIP3    H2  184   2.048   0.203   5.083
   60TIP3   OH2  185   2.959   4.360   2.006
   60TIP3    H1  186   2.944   4.455   2.012
   60TIP3    H2  187   2.957   4.329   2.097
   61TIP3   OH2  188   5.537   3.114   0.823
   61TIP3    H1  189   5.536   3.060   0.745
   61TIP3    H2  190   5.526   3.204   0.790
   62TIP3   OH2  191   0.420   2.585   3.250
   62TIP3    H1  192   0.325   2.588   3.235
   62TIP3    H2  193   0.444   2.677   3.263
   63TIP3   OH2  194   1.772   4.413   4.074
   63TIP3    H1  195   1.757   4.319   4.061
   63TIP3    H2  196   1.842   4.434   4.013
   64TIP3   OH2  197   0.579   2.584   0.878
   64TIP3    H1  198   0.614   2.550   0.961
   64TIP3    H2  199   0.655   2.586   0.819
   65TIP3   OH2  200   4.058   1.556   4.044
   65TIP3    H1  201   4.149   1.536   4.066
   65TIP3    H2  202   4.063   1.637   3.993
   66TIP3   OH2  203   5.967   2.500   1.118
   66TIP3    H1  204   6.014   2.452   1.049
   66TIP3    H2  205   6.018   2.579   1.132
   67TIP3   OH2  206   2.794   1.030   0.554
   67TIP3    H1  207   2.781   1.072   0.639
   67TIP3    H2  208   2.772   1.098   0.490
   68TIP3   OH2  209   1.563   0.992   4.570
   68TIP3    H1  210   1.549   1.042   4.489
   68TIP3    H2  211   1.656   0.967   4.566
   69TIP3   OH2  212   2.417   4.692   0.605
   69TIP3    H1  213   2.395   4.612   0.556
   69TIP3    H2  214   2.373   4.762   0.557
   70TIP3   OH2  215   5.862   1.459   1.961
   70TIP3    H1  216   5.850   1.550   1.988
   70TIP3    H2  217   5.795   1.411   2.009
   71TIP3   OH2  218   3.430   1.876   4.565
   71TIP3    H1  219   3.487   1.801   4.552
   71TIP3    H2  220   3.373   1.851   4.638
   72TIP3   OH2  221   0.552   5.687   5.067
   72TIP3    H1  222   0.489   5.644   5.009
   72TIP3    H2  223   0.637   5.657   5.036
   73TIP3   OH2  224   4.248   5.491   2.030
   73TIP3    H1  225   4.176   5.440   1.994
   73TIP3    H2  226   4.325   5.462   1.981
   74TIP3   OH2  227   2.732   1.389   1.554
   74TIP3    H1  228   2.639   1.376   1.570
   74TIP3    H2  229   2.742   1.484   1.546
   75TIP3   OH2  230   0.475   1.039   1.794
   75TIP3    H1  231   0.517   0.954   1.782
   75TIP3    H2  232   0.483   1.082   1.709
   76TIP3   OH2  233   6.291   5.910   3.010
   76TIP3    H1  234   6.227   5.974   3.042
   76TIP3    H2  235   6.372   5.932   3.057
   77TIP3   OH2  236   3.298   3.241   1.658
   77TIP3    H1  237   3.267   3.323   1.694
   77TIP3    H2  238   3.256   3.173   1.711
   78TIP3   OH2  239   0.169   5.866   0.032
   78TIP3    H1  240   0.217   5.783   0.034
   78TIP3    H2  241   0.216   5.919  -0.033
   79TIP3   OH2  242   2.809   4.063   1.986
   79TIP3    H1  243   2.811   4.159   1.980
   79TIP3    H2  244   2.900   4.039   2.003
   80TIP3   OH2  245   1.109   1.963   4.705
   80TIP3    H1  246   1.173   2.019   4.749
   80TIP3    H2  247   1.027   2.013   4.710
   81TIP3   OH2  248   2.919   0.269   1.025
   81TIP3    H1  249   2.906   0.353   1.069
   81TIP3    H2  250   2.830   0.240   1.003
   82TIP3   OH2  251   5.114   0.232   1.606
   82TIP3    H1  252   5.058   0.294   1.559
   82TIP3    H2  253   5.098   0.251   1.699
   83TIP3   OH2  254   5.313   0.664   3.851
   83TIP3    H1  255   5.254   0.658   3.926
   83TIP3    H2  256   5.295   0.585   3.800
   84TIP3   OH2  257   2.279   2.418   3.931
   84TIP3    H1  258   2.212   2.451   3.871
   84TIP3    H2  259   2.360   2.422   3.881
   85TIP3   OH2  260   1.250   5.303   2.035
   85TIP3    H1  261   1.205   5.293   2.119
   85TIP3    H2  262   1.222   5.228   1.984
   86TIP3   OH2  263   5.089   2.513   0.988
   86TIP3    H1  264   5.181   2.495   1.006
   86TIP3    H2  265   5.075   2.602   1.020
   87TIP3   OH2  266   2.060   3.239   3.338
   87TIP3    H1  267   2.031   3.220   3.427
   87TIP3    H2  268   2.067   3.335   3.335
   88TIP3   OH2  269   2.611   0.914   3.652
   88TIP3    H1  270   2.558   0.986   3.618
   88TIP3    H2  271   2.552   0.838   3.652
   89TIP3   OH2  272   5.940   5.310   1.500
   89TIP3    H1  273   5.950   5.378   1.433
   89TIP3    H2  274   5.948   5.356   1.583
   90TIP3   OH2  275   1.834   0.925   4.556
   90TIP3    H1  276   1.845   1.019   4.574
   90TIP3    H2  277   1.921   0.895   4.531
   91TIP3   OH2  278   5.908   3.435   0.808
   91TIP3    H1  279   5.997   3.458   0.833
   91TIP3    H2  280   5.888   3.493   0.734
   92TIP3   OH2  281   4.025   4.806   2.083
   92TIP3    H1  282   4.074   4.793   2.164
   92TIP3    H2  283   3.951   4.862   2.108
   93TIP3   OH2  284   6.224   1.652   0.275
   93TIP3    H1  285   6.311   1.691   0.287
   93TIP3    H2  286   6.242   1.567   0.235
   94TIP3   OH2  287   3.822   4.598   2.917
   94TIP3    H1  288   3.780   4.647   2.987
   94TIP3    H2  289   3.848   4.515   2.958
   95TIP3   OH2  290   4.699   1.354   4.348
   95TIP3    H1  291   4.744   1.417   4.405
   95TIP3    H2  292   4.766   1.328   4.284
   96TIP3   OH2  293   0.527   0.388   0.638
   96TIP3    H1  294   0.463   0.410   0.570
   96TIP3    H2  295   0.556   0.300   0.616
   97TIP3   OH2  296   4.508   5.924   4.720
   97TIP3    H1  297   4.506   5.902   4.627
   97TIP3    H2  298   4.565   6.001   4.726
   98TIP3   OH2  299   0.164   4.709   4.874
   98TIP3    H1  300   0.120   4.744   4.952
   98TIP3    H2  301   0.249   4.754   4.873
   99TIP3   OH2  302   5.161   3.646   0.622
   99TIP3    H1  303   5.181   3.692   0.703
   99TIP3    H2  304   5.077   3.603   0.639
  100TIP3   OH2  305   3.692   2.200   4.334
  100TIP3    H1  306   3.617   2.161   4.380
  100TIP3    H2  307   3.676   2.294   4.337
  101TIP3   OH2  308   3.811   0.963   1.793
  101TIP3    H1  309   3.880   0.912   1.749
  101TIP3    H2  310   3.760   0.898   1.840
  102TIP3   OH2  311   5.517   4.481   0.408
  102TIP3    H1  312   5.486   4.430   0.483
  102TIP3    H2  313   5.567   4.553   0.448
  103TIP3   OH2  314   4.000   5.003   1.270
  103TIP3    H1  315   3.946   5.010   1.191
  103TIP3    H2  316   3.973   5.076   1.325
  104TIP3   OH2  317   0.545   4.812   2.599
  104TIP3    H1  318   0.463   4.817   2.549
  104TIP3    H2  319   0.598   4.884   2.564
  105TIP3   OH2  320   1.663   4.866   2.380
  105TIP3    H1  321   1.590   4.914   2.341
  105TIP3    H2  322   1.727   4.934   2.403
  106TIP3   OH2  323   0.143   4.556   2.799
  106TIP3    H1  324   0.152   4.463   2.776
  106TIP3    H2  325   0.228   4.594   2.778
  107TIP3   OH2  326   2.562   3.966   3.717
  107TIP3    H1  327   2.482   3.954   3.768
  107TIP3    H2  328   2.574   3.884   3.670
  108TIP3   OH2  329   3.773   5.887   3.082
  108TIP3    H1  330   3.690   5.935   3.089
  108TIP3    H2  331   3.790   5.884   2.988
  109TIP3   OH2  332   2.213   2.819   2.917
  109TIP3    H1  333   2.256   2.789   2.837
  109TIP3    H2  334   2.263   2.897   2.942
  110TIP3   OH2  335   3.462   0.213   0.866
  110TIP3    H1  336   3.515   0.279   0.911
  110TIP3    H2  337   3.442   0.148   0.933
  111TIP3   OH2  338   4.109   4.171   5.084
  111TIP3    H1  339   4.019   4.166   5.054
  111TIP3    H2  340   4.114   4.252   5.134
  112TIP3   OH2  341   5.024   5.593   3.282
  112TIP3    H1  342   5.039   5.527   3.213
  112TIP3    H2  343   5.112   5.617   3.310
  113TIP3   OH2  344   2.717   5.951   3.015
  113TIP3    H1  345   2.648   6.017   3.028
  113TIP3    H2  346   2.787   5.997   2.970
  114TIP3   OH2  347   3.115   5.914   0.957
  114TIP3    H1  348   3.109   5.832   0.908
  114TIP3    H2  349   3.092   5.889   1.047
  115TIP3   OH2  350   5.813   4.882   1.245
  115TIP3    H1  351   5.868   4.809   1.217
  115TIP3    H2  352   5.807   4.873   1.340
  116TIP3   OH2  353   4.297   2.365   2.901
  116TIP3    H1  354   4.269   2.434   2.841
  116TIP3    H2  355   4.361   2.314   2.852
  117TIP3   OH2  356   2.482   4.401   0.415
  117TIP3    H1  357   2.496   4.318   0.368
  117TIP3    H2  358   2.442   4.375   0.497
  118TIP3   OH2  359   4.249   5.951   2.272
  118TIP3    H1  360   4.305   5.921   2.200
  118TIP3    H2  361   4.229   6.042   2.250
  119TIP3   OH2  362   5.736   2.934   2.095
  119TIP3    H1  363   5.688   2.867   2.046
  119TIP3    H2  364   5.738   3.010   2.036
  120TIP3   OH2  365   4.744   5.048   4.106
  120TIP3    H1  366   4.819   5.050   4.047
  120TIP3    H2  367   4.670   5.027   4.049
  121TIP3   OH2  368   5.827   0.840   0.163
  121TIP3    H1  369   5.772   0.766   0.137
  121TIP3    H2  370   5.766   0.912   0.179
  122TIP3   OH2  371   0.093   2.667   1.028
  122TIP3    H1  372   0.176   2.627   1.002
  122TIP3    H2  373   0.118   2.750   1.068
  123TIP3   OH2  374   4.588   0.089   3.310
  123TIP3    H1  375   4.633   0.162   3.268
  123TIP3    H2  376   4.518   0.130   3.360
  124TIP3   OH2  377   3.837   3.125   2.469
  124TIP3    H1  378   3.908   3.096   2.411
  124TIP3    H2  379   3.775   3.168   2.410
  125TIP3   OH2  380   2.024   1.352   0.343
  125TIP3    H1  381   2.091   1.399   0.395
  125TIP3    H2  382   1.967   1.312   0.409
  126TIP3   OH2  383   3.900   4.023   3.464
  126TIP3    H1  384   3.848   3.975   3.528
  126TIP3    H2  385   3.990   4.014   3.494
  127TIP3   OH2  386   2.590   3.178   2.502
  127TIP3    H1  387   2.635   3.218   2.427
  127TIP3    H2  388   2.660   3.163   2.566
  128TIP3   OH2  389   5.343   2.225   1.664
  128TIP3    H1  390   5.379   2.167   1.731
  128TIP3    H2  391   5.417   2.280   1.638
  129TIP3   OH2  392   4.271   3.617   3.559
  129TIP3    H1  393   4.300   3.526   3.565
  129TIP3    H2  394   4.351   3.668   3.568
  130TIP3   OH2  395   4.570   0.098   1.932
  130TIP3    H1  396   4.570   0.193   1.943
  130TIP3    H2  397   4.547   0.085   1.840
  131TIP3   OH2  398   4.526   5.551   5.043
  131TIP3    H1  399   4.550   5.642   5.060
  131TIP3    H2  400   4.482   5.554   4.958
  132TIP3   OH2  401   3.632   1.183   0.859
  132TIP3    H1  402   3.551   1.146   0.892
  132TIP3    H2  403   3.615   1.277   0.852
  133TIP3   OH2  404   5.270   5.302   5.085
  133TIP3    H1  405   5.334   5.324   5.152
  133TIP3    H2  406   5.230   5.220   5.114
  134TIP3   OH2  407   4.590   0.623   4.094
  134TIP3    H1  408   4.556   0.695   4.147
  134TIP3    H2  409   4.577   0.545   4.149
  135TIP3   OH2  410   4.683   2.688   3.347
  135TIP3    H1  411   4.634   2.605   3.341
  135TIP3    H2  412   4.711   2.692   3.438
  136TIP3   OH2  413   4.037   1.675   5.140
  136TIP3    H1  414   3.993   1.754   5.110
  136TIP3    H2  415   4.061   1.695   5.231
  137TIP3   OH2  416   3.347   2.320   3.903
  137TIP3    H1  417   3.314   2.408   3.922
  137TIP3    H2  418   3.295   2.291   3.828
  138TIP3   OH2  419   4.375   0.336   3.161
  138TIP3    H1  420   4.342   0.357   3.249
  138TIP3    H2  421   4.359   0.415   3.110
  139TIP3   OH2  422   1.174   0.795   4.769
  139TIP3    H1  423   1.258   0.748   4.767
  139TIP3    H2  424   1.181   0.858   4.697
  140TIP3   OH2  425   0.657   2.442   2.606
  140TIP3    H1  426   0.702   2.382   2.665
  140TIP3    H2  427   0.664   2.527   2.649
  141TIP3   OH2  428   4.151   4.774   1.377
  141TIP3    H1  429   4.103   4.697   1.346
  141TIP3    H2  430   4.101   4.848   1.342
  142TIP3   OH2  431   4.970   2.974   2.366
  142TIP3    H1  432   4.912   3.044   2.335
  142TIP3    H2  433   4.951   2.900   2.309
  143TIP3   OH2  434   0.735   0.148   1.444
  143TIP3    H1  435   0.829   0.166   1.446
  143TIP3    H2  436   0.725   0.077   1.382
  144TIP3   OH2  437   6.183   0.275   2.513
  144TIP3    H1  438   6.127   0.207   2.477
  144TIP3    H2  439   6.139   0.357   2.490
  145TIP3   OH2  440   4.329   3.708   4.130
  145TIP3    H1  441   4.360   3.738   4.045
  145TIP3    H2  442   4.387   3.634   4.151
  146TIP3   OH2  443   4.153   3.630   1.385
  146TIP3    H1  444   4.230   3.577   1.365
  146TIP3    H2  445   4.121   3.596   1.468
  147TIP3   OH2  446   4.975   2.829   2.844
  147TIP3    H1  447   5.011   2.761   2.787
  147TIP3    H2  448   5.040   2.899   2.844
  148TIP3   OH2  449   1.391   1.191   1.816
  148TIP3    H1  450   1.416   1.232   1.899
  148TIP3    H2  451   1.336   1.117   1.842
  149TIP3   OH2  452   4.544   4.789   1.911
  149TIP3    H1  453   4.566   4.882   1.909
  149TIP3    H2  454   4.592   4.751   1.838
  150TIP3   OH2  455   6.295   1.414   0.157
  150TIP3    H1  456   6.335   1.333   0.188
  150TIP3    H2  457   6.231   1.385   0.092
  151TIP3   OH2  458   4.498   3.194   2.403
  151TIP3    H1  459   4.503   3.289   2.401
  151TIP3    H2  460   4.405   3.174   2.405
  152TIP3   OH2  461   3.503   4.289   3.332
  152TIP3    H1  462   3.566   4.227   3.368
  152TIP3    H2  463   3.418   4.257   3.363
  153TIP3   OH2  464   3.267   5.865   4.805
  153TIP3    H1  465   3.183   5.884   4.847
  153TIP3    H2  466   3.313   5.809   4.867
  154TIP3   OH2  467   0.528   3.443   3.394
  154TIP3    H1  468   0.493   3.459   3.306
  154TIP3    H2  469   0.560   3.353   3.390
  155TIP3   OH2  470   1.751   3.734   4.491
  155TIP3    H1  471   1.678   3.672   4.494
  155TIP3    H2  472   1.739   3.790   4.568
  156TIP3   OH2  473   4.760   1.975   3.688
  156TIP3    H1  474   4.671   1.980   3.723
  156TIP3    H2  475   4.814   1.951   3.763
  157TIP3   OH2  476   5.663   5.036   4.383
  157TIP3    H1  477   5.628   5.102   4.444
  157TIP3    H2  478   5.757   5.035   4.401
  158TIP3   OH2  479   1.900   0.244   1.672
  158TIP3    H1  480   1.970   0.195   1.714
  158TIP3    H2  481   1.945   0.310   1.619
  159TIP3   OH2  482   1.545   2.406   0.225
  159TIP3    H1  483   1.535   2.481   0.284
  159TIP3    H2  484   1.615   2.354   0.264
  160TIP3   OH2  485   4.408   1.181   4.739
  160TIP3    H1  486   4.365   1.266   4.739
  160TIP3    H2  487   4.495   1.198   4.703
  161TIP3   OH2  488   4.820   3.776   1.541
  161TIP3    H1  489   4.783   3.778   1.452
  161TIP3    H2  490   4.799   3.862   1.577
  162TIP3   OH2  491   1.069   5.127   2.252
  162TIP3    H1  492   1.016   5.066   2.303
  162TIP3    H2  493   1.137   5.073   2.212
  163TIP3   OH2  494   3.428   3.709   1.445
  163TIP3    H1  495   3.335   3.729   1.460
  163TIP3    H2  496   3.458   3.777   1.385
  164TIP3   OH2  497   5.462   0.751   3.627
  164TIP3    H1  498   5.417   0.700   3.694
  164TIP3    H2  499   5.398   0.816   3.599
  165TIP3   OH2  500   3.950   1.324   3.975
  165TIP3    H1  501   4.038   1.302   3.943
  165TIP3    H2  502   3.957   1.417   4.000
  166TIP3   OH2  503   3.726   0.045   5.110
  166TIP3    H1  504   3.689   0.122   5.152
  166TIP3    H2  505   3.819   0.045   5.134
  167TIP3   OH2  506   5.088   0.783   0.304
  167TIP3    H1  507   5.098   0.720   0.232
  167TIP3    H2  508   5.178   0.807   0.326
  168TIP3   OH2  509   5.893   5.992   0.023
  168TIP3    H1  510   5.854   6.016   0.107
  168TIP3    H2  511   5.833   5.928  -0.014
  169TIP3   OH2  512   4.589   3.950   1.344
  169TIP3    H1  513   4.566   4.042   1.355
  169TIP3    H2  514   4.536   3.904   1.410
  170TIP3   OH2  515   4.375   0.310   4.451
  170TIP3    H1  516   4.287   0.318   4.415
  170TIP3    H2  517   4.432   0.349   4.384
  171TIP3   OH2  518   0.038   2.685   2.643
  171TIP3    H1  519  -0.016   2.762   2.631
  171TIP3    H2  520   0.040   2.642   2.558
  172TIP3   OH2  521   0.693   5.538   0.697
  172TIP3    H1  522   0.689   5.620   0.747
  172TIP3    H2  523   0.605   5.527   0.661
  173TIP3   OH2  524   6.206   4.722   4.244
  173TIP3    H1  525   6.299   4.706   4.229
  173TIP3    H2  526   6.163   4.686   4.167
  174TIP3   OH2  527   2.917   5.825   3.643
  174TIP3    H1  528   2.974   5.748   3.645
  174TIP3    H2  529   2.834   5.794   3.679
  175TIP3   OH2  530   2.749   5.568   2.694
  175TIP3    H1  531   2.682   5.565   2.762
  175TIP3    H2  532   2.705   5.534   2.616
  176TIP3   OH2  533   6.199   5.733   1.298
  176TIP3    H1  534   6.167   5.821   1.316
  176TIP3    H2  535   6.200   5.727   1.202
  177TIP3   OH2  536   3.846   5.503   4.296
  177TIP3    H1  537   3.894   5.505   4.379
  177TIP3    H2  538   3.842   5.594   4.268
  178TIP3   OH2  539   2.644   4.420   2.117
  178TIP3    H1  540   2.579   4.490   2.124
  178TIP3    H2  541   2.664   4.415   2.023
  179TIP3   OH2  542   4.319   0.342   0.980
  179TIP3    H1  543   4.379   0.341   0.906
  179TIP3    H2  544   4.365   0.390   1.048
  180TIP3   OH2  545   6.279   5.893   4.116
  180TIP3    H1  546   6.242   5.810   4.086
  180TIP3    H2  547   6.204   5.941   4.151
  181TIP3   OH2  548   5.465   5.116   2.320
  181TIP3    H1  549   5.494   5.080   2.403
  181TIP3    H2  550   5.543   5.161   2.285
  182TIP3   OH2  551   3.546   0.040   4.615
  182TIP3    H1  552   3.493   0.092   4.554
  182TIP3    H2  553   3.502   0.052   4.700
  183TIP3   OH2  554   4.578   1.451   2.437
  183TIP3    H1  555   4.667   1.466   2.404
  183TIP3    H2  556   4.573   1.356   2.448
  184TIP3   OH2  557   2.453   1.332   1.474
  184TIP3    H1  558   2.442   1.292   1.560
  184TIP3    H2  559   2.454   1.259   1.413
  185TIP3   OH2  560   1.779   0.698   2.897
  185TIP3    H1  561   1.715   0.766   2.919
  185TIP3    H2  562   1.735   0.643   2.832
  186TIP3   OH2  563   3.477   5.260   5.034
  186TIP3    H1  564   3.398   5.297   4.996
  186TIP3    H2  565   3.449   5.221   5.117
  187TIP3   OH2  566   3.952   1.185   1.380
  187TIP3    H1  567   3.971   1.237   1.459
  187TIP3    H2  568   3.921   1.101   1.414
  188TIP3   OH2  569   3.942   4.429   0.687
  188TIP3    H1  570   3.936   4.353   0.630
  188TIP3    H2  571   3.941   4.504   0.628
  189TIP3   OH2  572   2.954   0.937   0.180
  189TIP3    H1  573   2.910   0.853   0.162
  189TIP3    H2  574   3.041   0.926   0.143
  190TIP3   OH2  575   3.766   2.710   2.671
  190TIP3    H1  576   3.748   2.761   2.750
  190TIP3    H2  577   3.830   2.644   2.699
  191TIP3   OH2  578   0.728   3.834   5.064
  191TIP3    H1  579   0.723   3.798   4.976
  191TIP3    H2  580   0.748   3.927   5.051
  192TIP3   OH2  581   0.250   2.411   0.660
  192TIP3    H1  582   0.253   2.334   0.603
  192TIP3    H2  583   0.195   2.384   0.734
  193TIP3   OH2  584   5.017   5.317   1.952
  193TIP3    H1  585   5.044   5.326   2.044
  193TIP3    H2  586   5.040   5.227   1.929
  194TIP3   OH2  587   2.070   3.045   2.827
  194TIP3    H1  588   2.037   3.079   2.910
  194TIP3    H2  589   2.106   2.959   2.848
  195TIP3   OH2  590   3.188   1.170   2.205
  195TIP3    H1  591   3.128   1.173   2.131
  195TIP3    H2  592   3.140   1.125   2.274
  196TIP3   OH2  593   1.145   3.532   2.489
  196TIP3    H1  594   1.172   3.609   2.540
  196TIP3    H2  595   1.175   3.551   2.400
  197TIP3   OH2  596   5.791   1.679   0.549
  197TIP3    H1  597   5.754   1.759   0.511
  197TIP3    H2  598   5.871   1.707   0.592
  198TIP3   OH2  599   3.682   2.425   3.972
  198TIP3    H1  600   3.643   2.407   3.887
  198TIP3    H2  601   3.610   2.461   4.024
  199TIP3   OH2  602   2.461   1.051   1.024
  199TIP3    H1  603   2.504   1.103   0.957
  199TIP3    H2  604   2.369   1.050   0.997
  200TIP3   OH2  605   6.257   1.194   3.058
  200TIP3    H1  606   6.275   1.111   3.013
  200TIP3    H2  607   6.334   1.248   3.040
  201TIP3   OH2  608   4.638   4.748   4.599
  201TIP3    H1  609   4.704   4.693   4.558
  201TIP3    H2  610   4.606   4.804   4.529
  202TIP3   OH2  611   1.396   3.969   3.425
  202TIP3    H1  612   1.368   4.060   3.416
  202TIP3    H2  613   1.318   3.924   3.458
  203TIP3   OH2  614   0.956   3.511   4.621
  203TIP3    H1  615   0.994   3.511   4.709
  203TIP3    H2  616   0.864   3.490   4.635
  204TIP3   OH2  617   2.791   2.541   0.223
  204TIP3    H1  618   2.807   2.472   0.288
  204TIP3    H2  619   2.851   2.521   0.151
  205TIP3   OH2  620   0.081   5.155   0.853
  205TIP3    H1  621   0.159   5.111   0.887
  205TIP3    H2  622   0.026   5.169   0.930
  206TIP3   OH2  623   2.238   2.445   4.432
  206TIP3    H1  624   2.158   2.408   4.471
  206TIP3    H2  625   2.278   2.496   4.502
  207TIP3   OH2  626   0.503   4.099   4.663
  207TIP3    H1  627   0.495   4.015   4.619
  207TIP3    H2  628   0.563   4.083   4.736
  208TIP3   OH2  629   5.895   1.922   0.856
  208TIP3    H1  630   5.885   2.000   0.802
  208TIP3    H2  631   5.980   1.886   0.831
  209TIP3   OH2  632   1.224   4.751   3.064
  209TIP3    H1  633   1.155   4.719   3.121
  209TIP3    H2  634   1.194   4.837   3.035
  210TIP3   OH2  635   2.282   0.572   3.089
  210TIP3    H1  636   2.293   0.659   3.049
  210TIP3    H2  637   2.250   0.517   3.017
  211TIP3   OH2  638   3.611   0.370   4.443
  211TIP3    H1  639   3.617   0.465   4.453
  211TIP3    H2  640   3.551   0.343   4.512
  212TIP3   OH2  641   2.182   0.163   1.729
  212TIP3    H1  642   2.265   0.192   1.692
  212TIP3    H2  643   2.169   0.075   1.693
  213TIP3   OH2  644   4.228   2.535   4.926
  213TIP3    H1  645   4.164   2.603   4.948
  213TIP3    H2  646   4.308   2.583   4.905
  214TIP3   OH2  647   5.814   4.789   4.815
  214TIP3    H1  648   5.882   4.736   4.857
  214TIP3    H2  649   5.746   4.797   4.882
  215TIP3   OH2  650   5.634   1.171   4.243
  215TIP3    H1  651   5.727   1.151   4.238
  215TIP3    H2  652   5.620   1.198   4.334
  216TIP3   OH2  653   0.353   4.961   1.943
  216TIP3    H1  654   0.268   4.940   1.982
  216TIP3    H2  655   0.394   5.021   2.005
  217TIP3   OH2  656   3.048   2.092   1.782
  217TIP3    H1  657   3.126   2.078   1.836
  217TIP3    H2  658   3.070   2.168   1.728
  218TIP3   OH2  659   5.351   2.617   3.327
  218TIP3    H1  660   5.297   2.553   3.281
  218TIP3    H2  661   5.441   2.596   3.301
  219TIP3   OH2  662   4.856   1.537   4.484
  219TIP3    H1  663   4.935   1.536   4.539
  219TIP3    H2  664   4.783   1.533   4.545
  220TIP3   OH2  665   1.098   0.800   1.438
  220TIP3    H1  666   1.131   0.888   1.419
  220TIP3    H2  667   1.006   0.814   1.463
  221TIP3   OH2  668   0.965   5.726   5.144
  221TIP3    H1  669   1.056   5.724   5.115
  221TIP3    H2  670   0.958   5.806   5.196
  222TIP3   OH2  671   6.353   4.497   0.347
  222TIP3    H1  672   6.370   4.513   0.439
  222TIP3    H2  673   6.325   4.405   0.343
  223TIP3   OH2  674   3.589   1.467   2.587
  223TIP3    H1  675   3.670   1.448   2.633
  223TIP3    H2  676   3.615   1.526   2.516
  224TIP3   OH2  677   4.376   4.870   4.322
  224TIP3    H1  678   4.422   4.807   4.267
  224TIP3    H2  679   4.293   4.883   4.278
  225TIP3   OH2  680   2.263   5.558   3.746
  225TIP3    H1  681   2.244   5.605   3.665
  225TIP3    H2  682   2.323   5.615   3.794
  226TIP3   OH2  683   5.533   2.791   2.620
  226TIP3    H1  684   5.516   2.822   2.709
  226TIP3    H2  685   5.448   2.794   2.577
  227TIP3   OH2  686   5.005   1.639   4.259
  227TIP3    H1  687   5.083   1.671   4.303
  227TIP3    H2  688   4.958   1.589   4.326
  228TIP3   OH2  689   4.489   2.585   2.655
  228TIP3    H1  690   4.401   2.575   2.691
  228TIP3    H2  691   4.476   2.588   2.560
  229TIP3   OH2  692   3.720   5.052   5.148
  229TIP3    H1  693   3.639   5.100   5.130
  229TIP3    H2  694   3.721   4.982   5.083
  230TIP3   OH2  695   6.008   5.074   1.897
  230TIP3    H1  696   6.098   5.063   1.927
  230TIP3    H2  697   5.994   5.169   1.899
  231TIP3   OH2  698   5.379   3.165   1.798
  231TIP3    H1  699   5.391   3.253   1.764
  231TIP3    H2  700   5.467   3.133   1.816
  232TIP3   OH2  701   3.560   2.648   4.504
  232TIP3    H1  702   3.559   2.572   4.446
  232TIP3    H2  703   3.653   2.673   4.509
  233TIP3   OH2  704   5.456   2.484   4.711
  233TIP3    H1  705   5.524   2.538   4.672
  233TIP3    H2  706   5.434   2.529   4.793
  234TIP3   OH2  707   4.525   1.167   3.862
  234TIP3    H1  708   4.436   1.155   3.829
  234TIP3    H2  709   4.568   1.223   3.797
  235TIP3   OH2  710   1.162   5.503   1.087
  235TIP3    H1  711   1.087   5.460   1.046
  235TIP3    H2  712   1.164   5.468   1.176
  236TIP3   OH2  713   1.820   4.104   4.272
  236TIP3    H1  714   1.759   4.101   4.199
  236TIP3    H2  715   1.822   4.014   4.305
  237TIP3   OH2  716   1.650   3.021   4.864
  237TIP3    H1  717   1.556   3.005   4.855
  237TIP3    H2  718   1.671   3.083   4.795
  238TIP3   OH2  719   4.226   5.745   0.768
  238TIP3    H1  720   4.274   5.756   0.686
  238TIP3    H2  721   4.269   5.671   0.811
  239TIP3   OH2  722   5.369   0.243   5.086
  239TIP3    H1  723   5.339   0.327   5.121
  239TIP3    H2  724   5.460   0.237   5.114
  240TIP3   OH2  725   2.785   1.661   1.605
  240TIP3    H1  726   2.854   1.719   1.637
  240TIP3    H2  727   2.704   1.707   1.627
  241TIP3   OH2  728   0.973   0.065   3.831
  241TIP3    H1  729   0.927   0.072   3.915
  241TIP3    H2  730   0.915   0.107   3.768
  242TIP3   OH2  731   0.429   3.468   0.583
  242TIP3    H1  732   0.367   3.450   0.513
  242TIP3    H2  733   0.507   3.501   0.538
  243TIP3   OH2  734   4.775   0.428   2.863
  243TIP3    H1  735   4.734   0.463   2.942
  243TIP3    H2  736   4.758   0.494   2.796
  244TIP3   OH2  737   1.891   4.744   4.743
  244TIP3    H1  738   1.809   4.792   4.730
  244TIP3    H2  739   1.867   4.652   4.728
  245TIP3   OH2  740   5.741   4.376   5.119
  245TIP3    H1  741   5.778   4.358   5.205
  245TIP3    H2  742   5.809   4.350   5.057
  246TIP3   OH2  743   1.337   1.112   4.699
  246TIP3    H1  744   1.350   1.085   4.790
  246TIP3    H2  745   1.423   1.098   4.658
  247TIP3   OH2  746   2.769   4.651   5.034
  247TIP3    H1  747   2.823   4.666   5.111
  247TIP3    H2  748   2.830   4.653   4.961
  248TIP3   OH2  749   2.985   5.509   3.458
  248TIP3    H1  750   3.081   5.516   3.460
  248TIP3    H2  751   2.957   5.551   3.539
  249TIP3   OH2  752   0.517   0.144   3.501
  249TIP3    H1  753   0.471   0.123   3.420
  249TIP3    H2  754   0.485   0.231   3.525
  250TIP3   OH2  755   2.312   3.073   3.958
  250TIP3    H1  756   2.222   3.098   3.939
  250TIP3    H2  757   2.324   2.990   3.912
  251TIP3   OH2  758   1.070   2.601   4.725
  251TIP3    H1  759   1.013   2.651   4.782
  251TIP3    H2  760   1.012   2.541   4.679
  252TIP3   OH2  761   1.965   4.034   0.040
  252TIP3    H1  762   1.979   3.942   0.064
  252TIP3    H2  763   1.963   4.080   0.124
  253TIP3   OH2  764   5.128   1.465   3.223
  253TIP3    H1  765   5.145   1.435   3.313
  253TIP3    H2  766   5.054   1.526   3.232
  254TIP3   OH2  767   5.848   4.952   3.285
  254TIP3    H1  768   5.910   4.961   3.357
  254TIP3    H2  769   5.779   5.015   3.304
  255TIP3   OH2  770   3.658   3.184   2.252
  255TIP3    H1  771   3.634   3.096   2.222
  255TIP3    H2  772   3.740   3.203   2.207
  256TIP3   OH2  773   4.062   4.328   4.659
  256TIP3    H1  774   4.126   4.305   4.591
  256TIP3    H2  775   4.008   4.250   4.669
  257TIP3   OH2  776   0.962   2.697   1.868
  257TIP3    H1  777   0.967   2.781   1.822
  257TIP3    H2  778   0.995   2.633   1.806
  258TIP3   OH2  779   3.210   3.509   4.440
  258TIP3    H1  780   3.123   3.476   4.463
  258TIP3    H2  781   3.270   3.460   4.497
  259TIP3   OH2  782   0.603   2.864   3.028
  259TIP3    H1  783   0.565   2.784   2.991
  259TIP3    H2  784   0.583   2.858   3.122
  260TIP3   OH2  785   0.163   0.355   1.020
  260TIP3    H1  786   0.104   0.326   1.090
  260TIP3    H2  787   0.237   0.394   1.066
  261TIP3   OH2  788   3.527   2.832   5.130
  261TIP3    H1  789   3.535   2.771   5.204
  261TIP3    H2  790   3.433   2.845   5.120
  262TIP3   OH2  791   4.942   1.427   2.077
  262TIP3    H1  792   4.908   1.467   1.997
  262TIP3    H2  793   5.031   1.462   2.086
  263TIP3   OH2  794   0.512   5.378   4.704
  263TIP3    H1  795   0.467   5.445   4.653
  263TIP3    H2  796   0.532   5.309   4.641
  264TIP3   OH2  797   0.451   0.411   4.818
  264TIP3    H1  798   0.357   0.405   4.798
  264TIP3    H2  799   0.455   0.471   4.893
  265TIP3   OH2  800   2.403   2.257   1.500
  265TIP3    H1  801   2.322   2.303   1.481
  265TIP3    H2  802   2.422   2.280   1.592
  266TIP3   OH2  803   5.327   4.949   2.168
  266TIP3    H1  804   5.395   4.999   2.213
  266TIP3    H2  805   5.279   4.904   2.238
  267TIP3   OH2  806   0.813   0.292   0.945
  267TIP3    H1  807   0.841   0.200   0.947
  267TIP3    H2  808   0.721   0.288   0.919
  268TIP3   OH2  809   2.148   5.624   3.020
  268TIP3    H1  810   2.215   5.562   2.989
  268TIP3    H2  811   2.140   5.687   2.948
  269TIP3   OH2  812   2.825   3.936   0.930
  269TIP3    H1  813   2.811   3.997   1.003
  269TIP3    H2  814   2.849   3.853   0.972
  270TIP3   OH2  815   2.671   4.136   3.106
  270TIP3    H1  816   2.720   4.091   3.038
  270TIP3    H2  817   2.732   4.139   3.181
  271TIP3   OH2  818   1.199   4.693   0.162
  271TIP3    H1  819   1.267   4.626   0.159
  271TIP3    H2  820   1.240   4.768   0.204
  272TIP3   OH2  821   2.965   4.622   0.480
  272TIP3    H1  822   2.962   4.530   0.505
  272TIP3    H2  823   2.882   4.658   0.509
  273TIP3   OH2  824   1.462   0.894   4.845
  273TIP3    H1  825   1.491   0.917   4.757
  273TIP3    H2  826   1.518   0.945   4.903
  274TIP3   OH2  827   2.034   4.205   5.075
  274TIP3    H1  828   2.028   4.152   5.155
  274TIP3    H2  829   2.093   4.156   5.018
  275TIP3   OH2  830   4.023   2.422   2.313
  275TIP3    H1  831   4.068   2.499   2.277
  275TIP3    H2  832   4.050   2.350   2.256
  276TIP3   OH2  833   5.741   5.894   3.497
  276TIP3    H1  834   5.753   5.874   3.404
  276TIP3    H2  835   5.684   5.824   3.529
  277TIP3   OH2  836   2.090   0.718   3.712
  277TIP3    H1  837   2.032   0.653   3.674
  277TIP3    H2  838   2.087   0.701   3.806
  278TIP3   OH2  839   3.468   1.273   3.846
  278TIP3    H1  840   3.480   1.183   3.877
  278TIP3    H2  841   3.470   1.266   3.750
  279TIP3   OH2  842   3.025   2.700   3.058
  279TIP3    H1  843   2.997   2.625   3.005
  279TIP3    H2  844   3.001   2.675   3.148
  280TIP3   OH2  845   4.412   0.285   5.084
  280TIP3    H1  846   4.332   0.307   5.036
  280TIP3    H2  847   4.483   0.306   5.023
  281TIP3   OH2  848   2.075   5.937   1.912
  281TIP3    H1  849   2.131   5.960   1.986
  281TIP3    H2  850   2.131   5.884   1.855
  282TIP3   OH2  851   2.579   4.956   4.954
  282TIP3    H1  852   2.526   4.906   5.016
  282TIP3    H2  853   2.607   4.892   4.888
  283TIP3   OH2  854   5.219   4.991   1.553
  283TIP3    H1  855   5.246   4.916   1.501
  283TIP3    H2  856   5.126   4.978   1.569
  284TIP3   OH2  857   2.124   4.764   0.873
  284TIP3    H1  858   2.143   4.781   0.781
  284TIP3    H2  859   2.032   4.789   0.883
  285TIP3   OH2  860   6.013   1.668   2.458
  285TIP3    H1  861   6.062   1.661   2.541
  285TIP3    H2  862   5.993   1.761   2.450
  286TIP3   OH2  863   0.737   4.715   0.252
  286TIP3    H1  864   0.676   4.733   0.180
  286TIP3    H2  865   0.735   4.620   0.261
  287TIP3   OH2  866   2.085   0.474   1.091
  287TIP3    H1  867   2.074   0.379   1.091
  287TIP3    H2  868   2.113   0.496   1.003
  288TIP3   OH2  869   1.826   4.115   1.806
  288TIP3    H1  870   1.842   4.070   1.723
  288TIP3    H2  871   1.788   4.048   1.863
  289TIP3   OH2  872   0.826   1.590   3.237
  289TIP3    H1  873   0.827   1.559   3.328
  289TIP3    H2  874   0.760   1.659   3.237
  290TIP3   OH2  875   0.992   2.232   2.344
  290TIP3    H1  876   1.052   2.259   2.274
  290TIP3    H2  877   1.048   2.221   2.421
  291TIP3   OH2  878   2.186   3.563   1.193
  291TIP3    H1  879   2.281   3.559   1.181
  291TIP3    H2  880   2.173   3.637   1.253
  292TIP3   OH2  881   1.155   1.682   1.000
  292TIP3    H1  882   1.151   1.769   1.040
  292TIP3    H2  883   1.219   1.634   1.052
  293TIP3   OH2  884   1.796   0.726   4.943
  293TIP3    H1  885   1.890   0.735   4.926
  293TIP3    H2  886   1.760   0.813   4.923
  294TIP3   OH2  887   1.259   1.616   1.554
  294TIP3    H1  888   1.236   1.699   1.597
  294TIP3    H2  889   1.338   1.637   1.503
  295TIP3   OH2  890   2.115   2.439   1.870
  295TIP3    H1  891   2.057   2.465   1.798
  295TIP3    H2  892   2.077   2.358   1.903
  296TIP3   OH2  893   1.327   2.133   2.890
  296TIP3    H1  894   1.343   2.040   2.901
  296TIP3    H2  895   1.316   2.145   2.796
  297TIP3   OH2  896   3.466   4.806   2.720
  297TIP3    H1  897   3.382   4.843   2.745
  297TIP3    H2  898   3.455   4.711   2.732
  298TIP3   OH2  899   2.753   4.366   2.551
  298TIP3    H1  900   2.806   4.287   2.559
  298TIP3    H2  901   2.665   4.333   2.532
  299TIP3   OH2  902   1.479   2.459   2.421
  299TIP3    H1  903   1.564   2.499   2.441
  299TIP3    H2  904   1.468   2.473   2.327
  300TIP3   OH2  905   1.358   5.254   3.315
  300TIP3    H1  906   1.450   5.265   3.338
  300TIP3    H2  907   1.355   5.265   3.220
  301TIP3   OH2  908   4.512   4.479   2.414
  301TIP3    H1  909   4.430   4.445   2.449
  301TIP3    H2  910   4.492   4.502   2.323
  302TIP3   OH2  911   3.818   1.518   5.059
  302TIP3    H1  912   3.755   1.568   5.111
  302TIP3    H2  913   3.904   1.548   5.088
  303TIP3   OH2  914   2.640   0.643   3.932
  303TIP3    H1  915   2.711   0.602   3.883
  303TIP3    H2  916   2.633   0.591   4.012
  304TIP3   OH2  917   6.152   3.295   3.981
  304TIP3    H1  918   6.178   3.344   3.903
  304TIP3    H2  919   6.102   3.358   4.033
  305TIP3   OH2  920   5.604   4.967   3.776
  305TIP3    H1  921   5.583   5.033   3.842
  305TIP3    H2  922   5.629   4.890   3.827
  306TIP3   OH2  923   2.246   0.277   2.977
  306TIP3    H1  924   2.334   0.241   2.969
  306TIP3    H2  925   2.196   0.233   2.908
  307TIP3   OH2  926   4.232   2.610   2.761
  307TIP3    H1  927   4.215   2.704   2.753
  307TIP3    H2  928   4.146   2.570   2.772
  308TIP3   OH2  929   3.581   5.283   3.647
  308TIP3    H1  930   3.600   5.321   3.561
  308TIP3    H2  931   3.621   5.196   3.644
  309TIP3   OH2  932   5.897   1.146   4.262
  309TIP3    H1  933   5.945   1.111   4.187
  309TIP3    H2  934   5.891   1.073   4.324
  310TIP3   OH2  935   0.642   4.347   4.605
  310TIP3    H1  936   0.615   4.257   4.618
  310TIP3    H2  937   0.633   4.362   4.511
  311TIP3   OH2  938   2.626   2.667   3.957
  311TIP3    H1  939   2.596   2.751   3.921
  311TIP3    H2  940   2.656   2.688   4.045
  312TIP3   OH2  941   5.501   1.950   1.347
  312TIP3    H1  942   5.514   2.025   1.289
  312TIP3    H2  943   5.411   1.961   1.380
  313TIP3   OH2  944   5.874   2.845   1.197
  313TIP3    H1  945   5.919   2.777   1.147
  313TIP3    H2  946   5.794   2.862   1.147
  314TIP3   OH2  947   3.575   4.602   3.494
  314TIP3    H1  948   3.500   4.592   3.552
  314TIP3    H2  949   3.566   4.530   3.431
  315TIP3   OH2  950   4.263   4.802   3.733
  315TIP3    H1  951   4.301   4.890   3.726
  315TIP3    H2  952   4.179   4.816   3.777
  316TIP3   OH2  953   4.638   0.320   3.118
  316TIP3    H1  954   4.545   0.338   3.132
  316TIP3    H2  955   4.684   0.387   3.169
  317TIP3   OH2  956   1.726   3.379   1.203
  317TIP3    H1  957   1.729   3.474   1.195
  317TIP3    H2  958   1.635   3.356   1.188
  318TIP3   OH2  959   5.864   5.167   5.043
  318TIP3    H1  960   5.783   5.136   5.003
  318TIP3    H2  961   5.836   5.233   5.105
  319TIP3   OH2  962   3.861   0.210   2.479
  319TIP3    H1  963   3.770   0.241   2.483
  319TIP3    H2  964   3.911   0.285   2.448
  320TIP3   OH2  965   1.953   3.969   4.489
  320TIP3    H1  966   1.876   3.929   4.530
  320TIP3    H2  967   2.020   3.967   4.557
  321TIP3   OH2  968   2.648   1.021   0.240
  321TIP3    H1  969   2.674   0.943   0.191
  321TIP3    H2  970   2.626   1.086   0.173
  322TIP3   OH2  971   4.989   2.636   0.506
  322TIP3    H1  972   4.980   2.566   0.441
  322TIP3    H2  973   4.902   2.646   0.544
  323TIP3   OH2  974   1.993   3.245   1.896
  323TIP3    H1  975   1.901   3.219   1.896
  323TIP3    H2  976   2.037   3.175   1.945
  324TIP3   OH2  977   6.047   0.508   4.367
  324TIP3    H1  978   6.079   0.593   4.399
  324TIP3    H2  979   6.038   0.455   4.447
  325TIP3   OH2  980   1.941   4.413   1.125
  325TIP3    H1  981   1.929   4.324   1.092
  325TIP3    H2  982   1.968   4.463   1.048
  326TIP3   OH2  983   0.983   1.754   2.313
  326TIP3    H1  984   1.078   1.738   2.314
  326TIP3    H2  985   0.947   1.684   2.259
  327TIP3   OH2  986   3.077   1.878   0.365
  327TIP3    H1  987   3.132   1.955   0.376
  327TIP3    H2  988   3.009   1.905   0.304
  328TIP3   OH2  989   3.945   5.158   1.735
  328TIP3    H1  990   3.977   5.070   1.713
  328TIP3    H2  991   3.915   5.150   1.826
  329TIP3   OH2  992   4.905   5.540   2.828
  329TIP3    H1  993   4.939   5.482   2.760
  329TIP3    H2  994   4.814   5.514   2.840
  330TIP3   OH2  995   1.455   3.486   0.119
  330TIP3    H1  996   1.449   3.391   0.127
  330TIP3    H2  997   1.387   3.508   0.054
  331TIP3   OH2  998   0.228   3.568   2.522
  331TIP3    H1  999   0.212   3.483   2.481
  331TIP3    H2 1000   0.313   3.559   2.565
  332TIP3   OH2 1001   0.908   2.587   0.170
  332TIP3    H1 1002   0.879   2.636   0.094
  332TIP3    H2 1003   0.844   2.516   0.179
  333TIP3   OH2 1004   3.773   4.578   1.211
  333TIP3    H1 1005   3.700   4.607   1.266
  333TIP3    H2 1006   3.768   4.635   1.134
  334TIP3   OH2 1007   4.518   0.121   0.366
  334TIP3    H1 1008   4.492   0.038   0.327
  334TIP3    H2 1009   4.478   0.188   0.311
  335TIP3   OH2 1010   3.477   4.557   0.397
  335TIP3    H1 1011   3.434   4.492   0.454
  335TIP3    H2 1012   3.562   4.572   0.437
  336TIP3   OH2 1013   0.787   3.450   3.549
  336TIP3    H1 1014   0.718   3.458   3.615
  336TIP3    H2 1015   0.754   3.496   3.472
  337TIP3   OH2 1016   0.697   1.037   1.189
  337TIP3    H1 1017   0.613   0.992   1.199
  337TIP3    H2 1018   0.678   1.129   1.209
  338TIP3   OH2 1019   5.310   4.905   4.698
  338TIP3    H1 1020   5.320   4.832   4.759
  338TIP3    H2 1021   5.231   4.882   4.648
  339TIP3   OH2 1022   1.875   3.519   3.968
  339TIP3    H1 1023   1.932   3.490   4.039
  339TIP3    H2 1024   1.857   3.611   3.987
  340TIP3   OH2 1025   6.010   4.955   0.939
  340TIP3    H1 1026   5.926   4.960   0.985
  340TIP3    H2 1027   6.005   4.873   0.889
  341TIP3   OH2 1028   3.679   1.722   0.039
  341TIP3    H1 1029   3.635   1.721  -0.046
  341TIP3    H2 1030   3.694   1.815   0.057
  342TIP3   OH2 1031   1.227   4.776   1.559
  342TIP3    H1 1032   1.171   4.733   1.495
  342TIP3    H2 1033   1.176   4.852   1.589
  343TIP3   OH2 1034   2.319   0.456   0.854
  343TIP3    H1 1035   2.385   0.464   0.923
  343TIP3    H2 1036   2.369   0.465   0.772
  344TIP3   OH2 1037   0.920   4.735   3.128
  344TIP3    H1 1038   0.894   4.792   3.056
  344TIP3    H2 1039   0.843   4.732   3.184
  345TIP3   OH2 1040   4.814   1.095   0.943
  345TIP3    H1 1041   4.832   1.184   0.975
  345TIP3    H2 1042   4.774   1.109   0.857
  346TIP3   OH2 1043   2.305   4.314   1.678
  346TIP3    H1 1044   2.226   4.272   1.645
  346TIP3    H2 1045   2.277   4.403   1.701
  347TIP3   OH2 1046   6.120   2.534   4.980
  347TIP3    H1 1047   6.118   2.441   4.958
  347TIP3    H2 1048   6.051   2.573   4.926
  348TIP3   OH2 1049   0.201   4.503   4.065
  348TIP3    H1 1050   0.296   4.498   4.057
  348TIP3    H2 1051   0.182   4.464   4.151
  349TIP3   OH2 1052   1.445   3.591   1.417
  349TIP3    H1 1053   1.537   3.597   1.390
  349TIP3    H2 1054   1.440   3.509   1.466
  350TIP3   OH2 1055   1.205   4.806   4.183
  350TIP3    H1 1056   1.226   4.863   4.109
  350TIP3    H2 1057   1.112   4.821   4.199
  351TIP3   OH2 1058   3.383   1.607   2.201
  351TIP3    H1 1059   3.339   1.690   2.181
  351TIP3    H2 1060   3.428   1.584   2.119
  352TIP3   OH2 1061   2.032   0.774   0.680
  352TIP3    H1 1062   1.990   0.731   0.754
  352TIP3    H2 1063   1.964   0.777   0.612
  353TIP3   OH2 1064   3.943   3.897   4.240
  353TIP3    H1 1065   3.979   3.903   4.328
  353TIP3    H2 1066   3.893   3.978   4.229
  354TIP3   OH2 1067   3.568   3.280   1.640
  354TIP3    H1 1068   3.577   3.318   1.553
  354TIP3    H2 1069   3.474   3.265   1.650
  355TIP3   OH2 1070   5.792   1.616   4.751
  355TIP3    H1 1071   5.770   1.701   4.789
  355TIP3    H2 1072   5.887   1.609   4.759
  356TIP3   OH2 1073   1.666   5.742   5.098
  356TIP3    H1 1074   1.595   5.805   5.104
  356TIP3    H2 1075   1.634   5.665   5.145
  357TIP3   OH2 1076   3.807   4.209   4.089
  357TIP3    H1 1077   3.791   4.179   3.999
  357TIP3    H2 1078   3.769   4.141   4.144
  358TIP3   OH2 1079   5.385   1.414   0.310
  358TIP3    H1 1080   5.463   1.390   0.261
  358TIP3    H2 1081   5.328   1.456   0.246
  359TIP3   OH2 1082   0.960   0.486   1.512
  359TIP3    H1 1083   0.918   0.402   1.495
  359TIP3    H2 1084   0.928   0.544   1.443
  360TIP3   OH2 1085   6.003   1.937   2.486
  360TIP3    H1 1086   6.048   1.972   2.563
  360TIP3    H2 1087   6.019   2.001   2.417
  361TIP3   OH2 1088   4.733   4.394   3.302
  361TIP3    H1 1089   4.815   4.425   3.264
  361TIP3    H2 1090   4.683   4.474   3.320
  362TIP3   OH2 1091   0.087   3.399   4.484
  362TIP3    H1 1092   0.088   3.322   4.428
  362TIP3    H2 1093   0.177   3.409   4.515
  363TIP3   OH2 1094   4.154   1.033   2.480
  363TIP3    H1 1095   4.067   1.028   2.439
  363TIP3    H2 1096   4.189   0.944   2.471
  364TIP3   OH2 1097   1.838   1.175   0.469
  364TIP3    H1 1098   1.765   1.120   0.498
  364TIP3    H2 1099   1.882   1.199   0.551
  365TIP3   OH2 1100   3.580   3.688   0.809
  365TIP3    H1 1101   3.644   3.620   0.790
  365TIP3    H2 1102   3.500   3.659   0.766
  366TIP3   OH2 1103   4.774   5.665   4.684
  366TIP3    H1 1104   4.760   5.650   4.778
  366TIP3    H2 1105   4.807   5.754   4.679
  367TIP3   OH2 1106   3.619   3.993   2.505
  367TIP3    H1 1107   3.691   3.947   2.462
  367TIP3    H2 1108   3.657   4.024   2.587
  368TIP3   OH2 1109   3.087   0.912   2.916
  368TIP3    H1 1110   3.030   0.835   2.911
  368TIP3    H2 1111   3.104   0.935   2.824
  369TIP3   OH2 1112   2.387   1.161   2.804
  369TIP3    H1 1113   2.313   1.187   2.750
  369TIP3    H2 1114   2.349   1.143   2.890
  370TIP3   OH2 1115   5.297   1.872   3.553
  370TIP3    H1 1116   5.269   1.897   3.641
  370TIP3    H2 1117   5.268   1.944   3.497
  371TIP3   OH2 1118   1.559   3.007   2.131
  371TIP3    H1 1119   1.474   2.999   2.087
  371TIP3    H2 1120   1.537   3.033   2.220
  372TIP3   OH2 1121   3.307   2.902   2.394
  372TIP3    H1 1122   3.317   2.825   2.450
  372TIP3    H2 1123   3.272   2.970   2.453
  373TIP3   OH2 1124   5.819   5.469   2.225
  373TIP3    H1 1125   5.743   5.429   2.182
  373TIP3    H2 1126   5.891   5.454   2.164
  374TIP3   OH2 1127   0.709   4.001   0.964
  374TIP3    H1 1128   0.790   4.042   0.933
  374TIP3    H2 1129   0.708   3.915   0.922
  375TIP3   OH2 1130   3.715   0.621   2.859
  375TIP3    H1 1131   3.706   0.630   2.954
  375TIP3    H2 1132   3.688   0.531   2.840
  376TIP3   OH2 1133   5.636   3.078   2.586
  376TIP3    H1 1134   5.674   3.098   2.500
  376TIP3    H2 1135   5.595   2.992   2.574
  377TIP3   OH2 1136   6.103   0.955   0.070
  377TIP3    H1 1137   6.114   1.009   0.148
  377TIP3    H2 1138   6.048   0.882   0.099
  378TIP3   OH2 1139   0.534   2.009   4.232
  378TIP3    H1 1140   0.576   1.958   4.302
  378TIP3    H2 1141   0.549   1.958   4.153
  379TIP3   OH2 1142   5.554   3.892   0.283
  379TIP3    H1 1143   5.488   3.848   0.337
  379TIP3    H2 1144   5.592   3.823   0.230
  380TIP3   OH2 1145   2.477   3.124   1.387
  380TIP3    H1 1146   2.437   3.082   1.464
  380TIP3    H2 1147   2.569   3.099   1.393
  381TIP3   OH2 1148   1.374   4.879   3.403
  381TIP3    H1 1149   1.453   4.857   3.354
  381TIP3    H2 1150   1.398   4.956   3.455
  382TIP3   OH2 1151   3.085   3.290   3.616
  382TIP3    H1 1152   3.175   3.269   3.642
  382TIP3    H2 1153   3.041   3.205   3.611
  383TIP3   OH2 1154   6.288   2.635   2.393
  383TIP3    H1 1155   6.357   2.627   2.327
  383TIP3    H2 1156   6.227   2.699   2.356
  384TIP3   OH2 1157   3.607   1.027   3.859
  384TIP3    H1 1158   3.677   1.042   3.923
  384TIP3    H2 1159   3.559   0.951   3.893
  385TIP3   OH2 1160   3.263   4.761   2.016
  385TIP3    H1 1161   3.209   4.721   2.084
  385TIP3    H2 1162   3.237   4.717   1.935
  386TIP3   OH2 1163   1.007   0.456   4.760
  386TIP3    H1 1164   0.968   0.404   4.831
  386TIP3    H2 1165   1.101   0.446   4.772
  387TIP3   OH2 1166   5.124   0.998   4.545
  387TIP3    H1 1167   5.102   0.906   4.553
  387TIP3    H2 1168   5.180   1.016   4.621
  388TIP3   OH2 1169   0.699   3.447   4.678
  388TIP3    H1 1170   0.632   3.417   4.739
  388TIP3    H2 1171   0.674   3.409   4.594
  389TIP3   OH2 1172   0.846   0.925   3.009
  389TIP3    H1 1173   0.811   1.009   3.038
  389TIP3    H2 1174   0.808   0.861   3.069
  390TIP3   OH2 1175   2.286   3.757   2.785
  390TIP3    H1 1176   2.361   3.735   2.840
  390TIP3    H2 1177   2.211   3.719   2.832
  391TIP3   OH2 1178   3.117   5.001   3.919
  391TIP3    H1 1179   3.100   4.940   3.848
  391TIP3    H2 1180   3.122   4.946   3.997
  392TIP3   OH2 1181   3.928   5.162   4.888
  392TIP3    H1 1182   3.963   5.216   4.817
  392TIP3    H2 1183   4.000   5.156   4.951
  393TIP3   OH2 1184   5.035   3.086   0.429
  393TIP3    H1 1185   5.003   3.048   0.347
  393TIP3    H2 1186   5.130   3.077   0.424
  394TIP3   OH2 1187   2.814   2.405   4.634
  394TIP3    H1 1188   2.758   2.396   4.712
  394TIP3    H2 1189   2.903   2.401   4.668
  395TIP3   OH2 1190   2.527   3.707   1.000
  395TIP3    H1 1191   2.489   3.681   1.085
  395TIP3    H2 1192   2.505   3.799   0.992
  396TIP3   OH2 1193   2.306   5.121   5.088
  396TIP3    H1 1194   2.388   5.171   5.093
  396TIP3    H2 1195   2.259   5.158   5.014
  397TIP3   OH2 1196   2.888   5.486   4.396
  397TIP3    H1 1197   2.816   5.516   4.452
  397TIP3    H2 1198   2.927   5.413   4.444
  398TIP3   OH2 1199   5.326   2.388   4.199
  398TIP3    H1 1200   5.382   2.454   4.159
  398TIP3    H2 1201   5.370   2.365   4.281
  399TIP3   OH2 1202   2.449   0.806   5.090
  399TIP3    H1 1203   2.525   0.757   5.059
  399TIP3    H2 1204   2.432   0.870   5.020
  400TIP3   OH2 1205   5.734   2.332   1.042
  400TIP3    H1 1206   5.797   2.286   0.987
  400TIP3    H2 1207   5.788   2.384   1.102
  401TIP3   OH2 1208   3.253   3.841   2.448
  401TIP3    H1 1209   3.196   3.765   2.436
  401TIP3    H2 1210   3.303   3.821   2.527
  402TIP3   OH2 1211   4.790   0.633   1.233
  402TIP3    H1 1212   4.723   0.691   1.269
  402TIP3    H2 1213   4.790   0.652   1.139
  403TIP3   OH2 1214   2.351   1.274   3.723
  403TIP3    H1 1215   2.386   1.217   3.792
  403TIP3    H2 1216   2.307   1.345   3.771
  404TIP3   OH2 1217   1.764   0.619   2.597
  404TIP3    H1 1218   1.679   0.582   2.577
  404TIP3    H2 1219   1.800   0.562   2.666
  405TIP3   OH2 1220   1.226   4.003   1.339
  405TIP3    H1 1221   1.245   4.085   1.293
  405TIP3    H2 1222   1.272   3.936   1.288
  406TIP3   OH2 1223   2.172   2.464   2.893
  406TIP3    H1 1224   2.109   2.444   2.963
  406TIP3    H2 1225   2.258   2.448   2.932
  407TIP3   OH2 1226   6.321   2.920   1.151
  407TIP3    H1 1227   6.409   2.902   1.184
  407TIP3    H2 1228   6.286   2.985   1.211
  408TIP3   OH2 1229   1.291   5.450   4.451
  408TIP3    H1 1230   1.307   5.394   4.376
  408TIP3    H2 1231   1.357   5.424   4.516
  409TIP3   OH2 1232   3.281   2.643   3.881
  409TIP3    H1 1233   3.321   2.672   3.963
  409TIP3    H2 1234   3.191   2.620   3.905
  410TIP3   OH2 1235   0.307   2.793   2.720
  410TIP3    H1 1236   0.265   2.825   2.799
  410TIP3    H2 1237   0.234   2.758   2.667
  411TIP3   OH2 1238   3.441   1.807   1.199
  411TIP3    H1 1239   3.491   1.876   1.155
  411TIP3    H2 1240   3.437   1.736   1.135
  412TIP3   OH2 1241   3.290   3.838   0.042
  412TIP3    H1 1242   3.381   3.866   0.032
  412TIP3    H2 1243   3.278   3.771  -0.025
  413TIP3   OH2 1244   3.914   4.210   2.872
  413TIP3    H1 1245   3.949   4.178   2.789
  413TIP3    H2 1246   3.991   4.235   2.923
  414TIP3   OH2 1247   1.126   0.910   0.408
  414TIP3    H1 1248   1.106   0.904   0.314
  414TIP3    H2 1249   1.221   0.911   0.411
  415TIP3   OH2 1250   2.189   2.760   2.122
  415TIP3    H1 1251   2.131   2.725   2.189
  415TIP3    H2 1252   2.227   2.683   2.080
  416TIP3   OH2 1253   3.986   4.571   4.746
  416TIP3    H1 1254   3.899   4.577   4.708
  416TIP3    H2 1255   4.014   4.481   4.729
  417TIP3   OH2 1256   4.504   3.253   4.600
  417TIP3    H1 1257   4.460   3.191   4.543
  417TIP3    H2 1258   4.454   3.334   4.591
  418TIP3   OH2 1259   3.315   1.262   1.647
  418TIP3    H1 1260   3.310   1.297   1.736
  418TIP3    H2 1261   3.394   1.302   1.611
  419TIP3   OH2 1262   1.039   3.566   4.872
  419TIP3    H1 1263   1.134   3.577   4.871
  419TIP3    H2 1264   1.019   3.535   4.960
  420TIP3   OH2 1265   3.897   1.996   2.698
  420TIP3    H1 1266   3.930   2.009   2.609
  420TIP3    H2 1267   3.948   1.923   2.732
  421TIP3   OH2 1268   0.773   3.396   2.625
  421TIP3    H1 1269   0.693   3.445   2.646
  421TIP3    H2 1270   0.754   3.307   2.653
  422TIP3   OH2 1271   6.209   0.453   0.629
  422TIP3    H1 1272   6.279   0.437   0.691
  422TIP3    H2 1273   6.204   0.548   0.622
  423TIP3   OH2 1274   3.386   3.985   1.048
  423TIP3    H1 1275   3.356   3.994   0.957
  423TIP3    H2 1276   3.394   4.075   1.079
  424TIP3   OH2 1277   4.755   0.116   5.077
  424TIP3    H1 1278   4.765   0.021   5.075
  424TIP3    H2 1279   4.781   0.140   5.166
  425TIP3   OH2 1280   2.313   2.387   4.954
  425TIP3    H1 1281   2.279   2.308   4.996
  425TIP3    H2 1282   2.340   2.358   4.867
  426TIP3   OH2 1283   1.500   5.843   3.137
  426TIP3    H1 1284   1.462   5.800   3.060
  426TIP3    H2 1285   1.456   5.802   3.211
  427TIP3   OH2 1286   4.191   5.301   1.724
  427TIP3    H1 1287   4.101   5.309   1.692
  427TIP3    H2 1288   4.181   5.278   1.817
  428TIP3   OH2 1289   1.457   5.123   1.728
  428TIP3    H1 1290   1.470   5.052   1.665
  428TIP3    H2 1291   1.455   5.078   1.813
  429TIP3   OH2 1292   5.629   5.165   2.847
  429TIP3    H1 1293   5.588   5.155   2.761
  429TIP3    H2 1294   5.721   5.181   2.827
  430TIP3   OH2 1295   5.312   0.100   4.542
  430TIP3    H1 1296   5.321   0.009   4.513
  430TIP3    H2 1297   5.400   0.137   4.531
  431TIP3   OH2 1298   0.742   3.046   4.450
  431TIP3    H1 1299   0.709   3.133   4.475
  431TIP3    H2 1300   0.723   3.039   4.357
  432TIP3   OH2 1301   1.067   5.257   3.335
  432TIP3    H1 1302   1.156   5.225   3.318
  432TIP3    H2 1303   1.073   5.297   3.421
  433TIP3   OH2 1304   1.708   3.203   1.980
  433TIP3    H1 1305   1.676   3.117   2.006
  433TIP3    H2 1306   1.737   3.244   2.062
  434TIP3   OH2 1307   2.552   2.651   3.626
  434TIP3    H1 1308   2.582   2.578   3.681
  434TIP3    H2 1309   2.517   2.715   3.688
  435TIP3   OH2 1310   1.682   4.446   0.255
  435TIP3    H1 1311   1.722   4.441   0.169
  435TIP3    H2 1312   1.675   4.355   0.284
  436TIP3   OH2 1313   2.419   4.394   3.584
  436TIP3    H1 1314   2.499   4.438   3.615
  436TIP3    H2 1315   2.385   4.451   3.515
  437TIP3   OH2 1316   3.860   1.272   2.705
  437TIP3    H1 1317   3.830   1.283   2.795
  437TIP3    H2 1318   3.945   1.316   2.703
  438TIP3   OH2 1319   4.847   2.335   3.252
  438TIP3    H1 1320   4.764   2.364   3.289
  438TIP3    H2 1321   4.914   2.371   3.310
  439TIP3   OH2 1322   1.332   0.691   3.639
  439TIP3    H1 1323   1.323   0.632   3.563
  439TIP3    H2 1324   1.337   0.778   3.601
  440TIP3   OH2 1325   2.045   0.319   3.156
  440TIP3    H1 1326   2.122   0.324   3.100
  440TIP3    H2 1327   2.075   0.276   3.236
  441TIP3   OH2 1328   3.967   1.539   4.785
  441TIP3    H1 1329   3.888   1.521   4.836
  441TIP3    H2 1330   4.027   1.468   4.808
  442TIP3   OH2 1331   0.889   4.128   3.795
  442TIP3    H1 1332   0.969   4.131   3.743
  442TIP3    H2 1333   0.819   4.126   3.730
  443TIP3   OH2 1334   3.488   2.618   1.060
  443TIP3    H1 1335   3.425   2.672   1.109
  443TIP3    H2 1336   3.436   2.577   0.991
  444TIP3   OH2 1337   4.565   2.558   0.036
  444TIP3    H1 1338   4.598   2.526  -0.048
  444TIP3    H2 1339   4.602   2.497   0.100
  445TIP3   OH2 1340   2.593   4.533   4.357
  445TIP3    H1 1341   2.686   4.549   4.339
  445TIP3    H2 1342   2.576   4.582   4.438
  446TIP3   OH2 1343   3.799   3.562   0.716
  446TIP3    H1 1344   3.888   3.582   0.684
  446TIP3    H2 1345   3.774   3.483   0.667
  447TIP3   OH2 1346   6.272   4.337   2.553
  447TIP3    H1 1347   6.331   4.318   2.627
  447TIP3    H2 1348   6.194   4.284   2.570
  448TIP3   OH2 1349   4.650   4.674   3.256
  448TIP3    H1 1350   4.644   4.668   3.351
  448TIP3    H2 1351   4.601   4.752   3.233
  449TIP3   OH2 1352   1.806  -0.010   1.365
  449TIP3    H1 1353   1.758   0.066   1.399
  449TIP3    H2 1354   1.801   0.000   1.270
  450TIP3   OH2 1355   5.240   2.916   4.840
  450TIP3    H1 1356   5.161   2.860   4.842
  450TIP3    H2 1357   5.305   2.862   4.795
  451TIP3   OH2 1358   3.588   4.026   3.198
  451TIP3    H1 1359   3.621   4.007   3.110
  451TIP3    H2 1360   3.493   4.028   3.187
  452TIP3   OH2 1361   0.585   4.352   0.624
  452TIP3    H1 1362   0.571   4.439   0.586
  452TIP3    H2 1363   0.604   4.296   0.549
  453TIP3   OH2 1364   5.812   2.064   2.156
  453TIP3    H1 1365   5.903   2.090   2.171
  453TIP3    H2 1366   5.792   2.097   2.068
  454TIP3   OH2 1367   6.298   2.451   0.625
  454TIP3    H1 1368   6.366   2.518   0.634
  454TIP3    H2 1369   6.302   2.401   0.706
  455TIP3   OH2 1370   6.109   3.808   3.449
  455TIP3    H1 1371   6.103   3.880   3.386
  455TIP3    H2 1372   6.034   3.752   3.430
  456TIP3   OH2 1373   5.014   3.928   5.033
  456TIP3    H1 1374   5.089   3.873   5.011
  456TIP3    H2 1375   5.042   4.017   5.011
  457TIP3   OH2 1376   4.107   4.503   0.947
  457TIP3    H1 1377   4.108   4.569   0.878
  457TIP3    H2 1378   4.134   4.422   0.904
  458TIP3   OH2 1379   1.892   3.138   1.454
  458TIP3    H1 1380   1.890   3.065   1.516
  458TIP3    H2 1381   1.895   3.096   1.368
  459TIP3   OH2 1382   3.904   2.208   4.674
  459TIP3    H1 1383   3.870   2.272   4.612
  459TIP3    H2 1384   3.995   2.235   4.688
  460TIP3   OH2 1385   0.038   2.792   2.151
  460TIP3    H1 1386   0.021   2.768   2.060
  460TIP3    H2 1387   0.116   2.846   2.148
  461TIP3   OH2 1388   1.308   2.331   3.711
  461TIP3    H1 1389   1.338   2.241   3.702
  461TIP3    H2 1390   1.219   2.331   3.677
  462TIP3   OH2 1391   1.636   5.260   3.295
  462TIP3    H1 1392   1.643   5.339   3.242
  462TIP3    H2 1393   1.646   5.188   3.232
  463TIP3   OH2 1394   1.338   2.882   0.021
  463TIP3    H1 1395   1.370   2.971   0.029
  463TIP3    H2 1396   1.298   2.863   0.106
  464TIP3   OH2 1397   0.663   1.783   5.222
  464TIP3    H1 1398   0.628   1.863   5.182
  464TIP3    H2 1399   0.670   1.721   5.150
  465TIP3   OH2 1400   6.322   3.065   0.311
  465TIP3    H1 1401   6.289   2.977   0.292
  465TIP3    H2 1402   6.278   3.090   0.392
  466TIP3   OH2 1403   4.517   1.893   1.448
  466TIP3    H1 1404   4.478   1.814   1.409
  466TIP3    H2 1405   4.570   1.930   1.378
  467TIP3   OH2 1406   3.201   4.192   1.915
  467TIP3    H1 1407   3.149   4.113   1.926
  467TIP3    H2 1408   3.148   4.261   1.955
  468TIP3   OH2 1409   0.684   2.306   1.306
  468TIP3    H1 1410   0.711   2.220   1.274
  468TIP3    H2 1411   0.747   2.326   1.375
  469TIP3   OH2 1412   2.670   1.075   2.694
  469TIP3    H1 1413   2.657   1.154   2.746
  469TIP3    H2 1414   2.708   1.012   2.755
  470TIP3   OH2 1415   2.459   2.513   5.134
  470TIP3    H1 1416   2.407   2.477   5.062
  470TIP3    H2 1417   2.547   2.477   5.119
  471TIP3   OH2 1418   4.729   2.701   4.606
  471TIP3    H1 1419   4.798   2.766   4.615
  471TIP3    H2 1420   4.769   2.630   4.556
  472TIP3   OH2 1421   1.733   3.851   0.185
  472TIP3    H1 1422   1.818   3.824   0.222
  472TIP3    H2 1423   1.685   3.770   0.174
  473TIP3   OH2 1424   2.528   4.174   2.878
  473TIP3    H1 1425   2.581   4.246   2.843
  473TIP3    H2 1426   2.558   4.164   2.968
  474TIP3   OH2 1427   0.510   3.845   4.523
  474TIP3    H1 1428   0.585   3.839   4.464
  474TIP3    H2 1429   0.435   3.819   4.469
  475TIP3   OH2 1430   0.987   2.213   0.982
  475TIP3    H1 1431   1.023   2.215   1.071
  475TIP3    H2 1432   1.058   2.180   0.928
  476TIP3   OH2 1433   4.511   5.026   0.880
  476TIP3    H1 1434   4.593   5.059   0.841
  476TIP3    H2 1435   4.536   5.002   0.970
  477TIP3   OH2 1436   3.024   1.115   5.139
  477TIP3    H1 1437   3.055   1.097   5.228
  477TIP3    H2 1438   2.996   1.207   5.142
  478TIP3   OH2 1439   2.669   3.955   2.465
  478TIP3    H1 1440   2.701   4.021   2.404
  478TIP3    H2 1441   2.729   3.881   2.454
  479TIP3   OH2 1442   2.708   0.758   0.188
  479TIP3    H1 1443   2.636   0.712   0.145
  479TIP3    H2 1444   2.737   0.700   0.258
  480TIP3   OH2 1445   2.836   4.833   2.384
  480TIP3    H1 1446   2.821   4.756   2.439
  480TIP3    H2 1447   2.815   4.907   2.441
  481TIP3   OH2 1448   1.598   5.265   2.559
  481TIP3    H1 1449   1.689   5.281   2.534
  481TIP3    H2 1450   1.597   5.270   2.654
  482TIP3   OH2 1451   2.293   0.871   3.787
  482TIP3    H1 1452   2.326   0.805   3.848
  482TIP3    H2 1453   2.222   0.827   3.740
  483TIP3   OH2 1454   2.965   5.778   0.430
  483TIP3    H1 1455   2.945   5.753   0.340
  483TIP3    H2 1456   3.043   5.833   0.424
  484TIP3   OH2 1457   0.226   4.252   3.886
  484TIP3    H1 1458   0.287   4.309   3.933
  484TIP3    H2 1459   0.161   4.227   3.951
  485TIP3   OH2 1460   4.886   5.538   4.953
  485TIP3    H1 1461   4.862   5.477   5.023
  485TIP3    H2 1462   4.920   5.482   4.883
  486TIP3   OH2 1463   2.389   4.120   0.753
  486TIP3    H1 1464   2.405   4.201   0.705
  486TIP3    H2 1465   2.307   4.135   0.800
  487TIP3   OH2 1466   4.511   2.849   4.438
  487TIP3    H1 1467   4.558   2.882   4.515
  487TIP3    H2 1468   4.573   2.790   4.395
  488TIP3   OH2 1469   3.003   4.173   1.320
  488TIP3    H1 1470   2.935   4.222   1.367
  488TIP3    H2 1471   2.966   4.161   1.232
  489TIP3   OH2 1472   0.188   2.904   0.712
  489TIP3    H1 1473   0.148   2.943   0.790
  489TIP3    H2 1474   0.244   2.973   0.677
  490TIP3   OH2 1475   5.910   3.096   3.943
  490TIP3    H1 1476   5.998   3.134   3.942
  490TIP3    H2 1477   5.853   3.170   3.961
  491TIP3   OH2 1478   2.508   2.124   1.261
  491TIP3    H1 1479   2.482   2.198   1.316
  491TIP3    H2 1480   2.598   2.144   1.236
  492TIP3   OH2 1481   0.387   5.051   3.058
  492TIP3    H1 1482   0.382   5.035   3.152
  492TIP3    H2 1483   0.382   5.146   3.048
  493TIP3   OH2 1484   1.998   4.762   1.235
  493TIP3    H1 1485   1.988   4.810   1.317
  493TIP3    H2 1486   2.080   4.796   1.198
  494TIP3   OH2 1487   3.946   1.264   3.310
  494TIP3    H1 1488   3.922   1.295   3.398
  494TIP3    H2 1489   3.870   1.213   3.281
  495TIP3   OH2 1490   1.215   4.638   5.123
  495TIP3    H1 1491   1.304   4.605   5.125
  495TIP3    H2 1492   1.178   4.604   5.042
  496TIP3   OH2 1493   1.753   2.307   4.771
  496TIP3    H1 1494   1.792   2.287   4.856
  496TIP3    H2 1495   1.661   2.281   4.780
  497TIP3   OH2 1496   2.090   0.061   1.391
  497TIP3    H1 1497   1.996   0.077   1.384
  497TIP3    H2 1498   2.100   0.012   1.472
  498TIP3   OH2 1499   3.181   1.211   3.778
  498TIP3    H1 1500   3.197   1.238   3.868
  498TIP3    H2 1501   3.143   1.289   3.736
  499TIP3   OH2 1502   4.554   0.345   1.839
  499TIP3    H1 1503   4.606   0.307   1.768
  499TIP3    H2 1504   4.466   0.354   1.803
  500TIP3   OH2 1505   0.986   1.852   1.340
  500TIP3    H1 1506   0.910   1.898   1.376
  500TIP3    H2 1507   0.962   1.759   1.344
  501TIP3   OH2 1508   3.743   4.902   3.008
  501TIP3    H1 1509   3.771   4.889   2.918
  501TIP3    H2 1510   3.687   4.827   3.027
  502TIP3   OH2 1511   3.983   0.025   2.324
  502TIP3    H1 1512   3.944   0.094   2.378
  502TIP3    H2 1513   3.913   0.002   2.262
  503TIP3   OH2 1514   3.035   1.658   1.807
  503TIP3    H1 1515   3.125   1.691   1.810
  503TIP3    H2 1516   3.044   1.565   1.785
  504TIP3   OH2 1517   4.750   3.390   3.563
  504TIP3    H1 1518   4.738   3.425   3.475
  504TIP3    H2 1519   4.661   3.384   3.598
  505TIP3   OH2 1520   1.457   0.093   0.674
  505TIP3    H1 1521   1.396   0.120   0.743
  505TIP3    H2 1522   1.544   0.111   0.711
  506TIP3   OH2 1523   1.981   5.401   1.057
  506TIP3    H1 1524   2.020   5.388   1.143
  506TIP3    H2 1525   1.889   5.418   1.075
  507TIP3   OH2 1526   3.496   5.830   2.843
  507TIP3    H1 1527   3.545   5.762   2.890
  507TIP3    H2 1528   3.557   5.904   2.840
  508TIP3   OH2 1529   5.421   1.797   4.090
  508TIP3    H1 1530   5.486   1.726   4.085
  508TIP3    H2 1531   5.363   1.782   4.016
  509TIP3   OH2 1532   5.378   4.078   0.202
  509TIP3    H1 1533   5.329   4.113   0.276
  509TIP3    H2 1534   5.458   4.042   0.241
  510TIP3   OH2 1535   0.767   3.696   4.832
  510TIP3    H1 1536   0.860   3.679   4.843
  510TIP3    H2 1537   0.731   3.614   4.800
  511TIP3   OH2 1538   6.275   3.454   4.693
  511TIP3    H1 1539   6.255   3.548   4.687
  511TIP3    H2 1540   6.323   3.435   4.612
  512TIP3   OH2 1541   3.290   5.181   0.926
  512TIP3    H1 1542   3.305   5.087   0.927
  512TIP3    H2 1543   3.306   5.207   0.836
  513TIP3   OH2 1544   2.028   0.761   3.326
  513TIP3    H1 1545   2.015   0.831   3.390
  513TIP3    H2 1546   1.947   0.760   3.275
  514TIP3   OH2 1547   1.597   3.100   2.673
  514TIP3    H1 1548   1.664   3.169   2.671
  514TIP3    H2 1549   1.646   3.018   2.667
  515TIP3   OH2 1550   4.667   2.653   2.070
  515TIP3    H1 1551   4.749   2.630   2.026
  515TIP3    H2 1552   4.609   2.579   2.055
  516TIP3   OH2 1553   3.892   1.847   2.977
  516TIP3    H1 1554   3.830   1.801   3.034
  516TIP3    H2 1555   3.837   1.884   2.907
  517TIP3   OH2 1556   3.105   0.075   1.477
  517TIP3    H1 1557   3.155   0.156   1.493
  517TIP3    H2 1558   3.046   0.068   1.552
  518TIP3   OH2 1559   5.200   5.908   4.233
  518TIP3    H1 1560   5.233   5.884   4.147
  518TIP3    H2 1561   5.274   5.950   4.277
  519TIP3   OH2 1562   5.433   4.528   4.466
  519TIP3    H1 1563   5.414   4.508   4.375
  519TIP3    H2 1564   5.369   4.595   4.490
  520TIP3   OH2 1565   0.203   3.642   1.621
  520TIP3    H1 1566   0.117   3.662   1.583
  520TIP3    H2 1567   0.239   3.728   1.643
  521TIP3   OH2 1568   1.823   2.075   2.050
  521TIP3    H1 1569   1.897   2.073   2.111
  521TIP3    H2 1570   1.834   2.158   2.002
  522TIP3   OH2 1571   2.452   3.979   4.596
  522TIP3    H1 1572   2.511   3.913   4.559
  522TIP3    H2 1573   2.497   4.010   4.675
  523TIP3   OH2 1574   0.738   1.026   3.291
  523TIP3    H1 1575   0.701   1.078   3.219
  523TIP3    H2 1576   0.663   1.007   3.348
  524TIP3   OH2 1577   4.172   0.915   5.132
  524TIP3    H1 1578   4.256   0.915   5.086
  524TIP3    H2 1579   4.125   0.840   5.096
  525TIP3   OH2 1580   4.737   0.673   0.294
  525TIP3    H1 1581   4.758   0.583   0.271
  525TIP3    H2 1582   4.654   0.666   0.342
  526TIP3   OH2 1583   2.799   2.379   3.223
  526TIP3    H1 1584   2.708   2.395   3.196
  526TIP3    H2 1585   2.833   2.465   3.245
  527TIP3   OH2 1586   6.321   1.610   3.493
  527TIP3    H1 1587   6.246   1.598   3.551
  527TIP3    H2 1588   6.286   1.595   3.405
  528TIP3   OH2 1589   1.103   1.064   1.365
  528TIP3    H1 1590   1.129   1.048   1.274
  528TIP3    H2 1591   1.018   1.106   1.358
  529TIP3   OH2 1592   5.078   2.072   1.768
  529TIP3    H1 1593   5.112   2.031   1.847
  529TIP3    H2 1594   5.131   2.150   1.757
  530TIP3   OH2 1595   5.693   0.001   0.188
  530TIP3    H1 1596   5.635  -0.062   0.232
  530TIP3    H2 1597   5.663   0.087   0.218
  531TIP3   OH2 1598   3.978   4.342   3.756
  531TIP3    H1 1599   4.026   4.424   3.751
  531TIP3    H2 1600   3.970   4.313   3.665
  532TIP3   OH2 1601   0.266   0.593   1.241
  532TIP3    H1 1602   0.276   0.598   1.336
  532TIP3    H2 1603   0.182   0.636   1.224
  533TIP3   OH2 1604   0.282   5.767   4.865
  533TIP3    H1 1605   0.308   5.676   4.880
  533TIP3    H2 1606   0.192   5.772   4.898
  534TIP3   OH2 1607   3.913   1.738   2.182
  534TIP3    H1 1608   3.933   1.646   2.167
  534TIP3    H2 1609   3.952   1.784   2.108
  535TIP3   OH2 1610   4.227   5.947   0.324
  535TIP3    H1 1611   4.240   5.859   0.289
  535TIP3    H2 1612   4.132   5.961   0.320
  536TIP3   OH2 1613   1.361   2.168   3.174
  536TIP3    H1 1614   1.320   2.247   3.209
  536TIP3    H2 1615   1.344   2.171   3.080
  537TIP3   OH2 1616   0.699   4.985   3.159
  537TIP3    H1 1617   0.777   5.013   3.207
  537TIP3    H2 1618   0.625   5.019   3.210
  538TIP3   OH2 1619   5.486   5.661   3.014
  538TIP3    H1 1620   5.459   5.733   3.070
  538TIP3    H2 1621   5.545   5.701   2.950
  539TIP3   OH2 1622   4.607   0.880   0.095
  539TIP3    H1 1623   4.603   0.878  -0.001
  539TIP3    H2 1624   4.698   0.900   0.115
  540TIP3   OH2 1625   5.529   5.809   1.724
  540TIP3    H1 1626   5.620   5.826   1.749
  540TIP3    H2 1627   5.502   5.738   1.783
  541TIP3   OH2 1628   5.495  -0.004   2.124
  541TIP3    H1 1629   5.429   0.020   2.189
  541TIP3    H2 1630   5.578   0.003   2.171
  542TIP3   OH2 1631   3.705   1.707   0.303
  542TIP3    H1 1632   3.749   1.627   0.332
  542TIP3    H2 1633   3.717   1.709   0.208
  543TIP3   OH2 1634   3.620   2.000   4.047
  543TIP3    H1 1635   3.708   2.018   4.081
  543TIP3    H2 1636   3.599   2.074   3.991
  544TIP3   OH2 1637   2.631   3.420   4.422
  544TIP3    H1 1638   2.554   3.452   4.376
  544TIP3    H2 1639   2.686   3.381   4.354
  545TIP3   OH2 1640   4.312   3.609   1.019
  545TIP3    H1 1641   4.228   3.564   1.025
  545TIP3    H2 1642   4.309   3.674   1.089
  546TIP3   OH2 1643   5.375   4.140   2.199
  546TIP3    H1 1644   5.449   4.177   2.150
  546TIP3    H2 1645   5.382   4.180   2.286
  547TIP3   OH2 1646   0.984   5.294   2.560
  547TIP3    H1 1647   0.949   5.229   2.621
  547TIP3    H2 1648   0.930   5.372   2.574
  548TIP3   OH2 1649   4.427   1.725   1.185
  548TIP3    H1 1650   4.376   1.645   1.174
  548TIP3    H2 1651   4.368   1.795   1.159
  549TIP3   OH2 1652   0.821   0.819   0.127
  549TIP3    H1 1653   0.815   0.760   0.202
  549TIP3    H2 1654   0.827   0.760   0.051
  550TIP3   OH2 1655   0.718   1.191   3.079
  550TIP3    H1 1656   0.795   1.242   3.053
  550TIP3    H2 1657   0.648   1.223   3.022
  551TIP3   OH2 1658   5.780   5.622   0.413
  551TIP3    H1 1659   5.686   5.634   0.395
  551TIP3    H2 1660   5.795   5.529   0.399
  552TIP3   OH2 1661   1.275   4.231   3.431
  552TIP3    H1 1662   1.279   4.311   3.483
  552TIP3    H2 1663   1.247   4.260   3.345
  553TIP3   OH2 1664   5.061   0.434   5.027
  553TIP3    H1 1665   4.973   0.459   4.997
  553TIP3    H2 1666   5.046   0.399   5.115
  554TIP3   OH2 1667   1.257   1.862   1.811
  554TIP3    H1 1668   1.282   1.928   1.746
  554TIP3    H2 1669   1.328   1.863   1.875
  555TIP3   OH2 1670   2.147   4.751   3.334
  555TIP3    H1 1671   2.216   4.814   3.315
  555TIP3    H2 1672   2.120   4.770   3.424
  556TIP3   OH2 1673   6.043   3.710   2.647
  556TIP3    H1 1674   5.953   3.679   2.641
  556TIP3    H2 1675   6.044   3.792   2.596
  557TIP3   OH2 1676   5.953   2.239   0.930
  557TIP3    H1 1677   6.032   2.201   0.968
  557TIP3    H2 1678   5.979   2.265   0.842
  558TIP3   OH2 1679   5.423   3.017   2.207
  558TIP3    H1 1680   5.359   2.991   2.273
  558TIP3    H2 1681   5.484   2.944   2.203
  559TIP3   OH2 1682   3.710   5.801   4.899
  559TIP3    H1 1683   3.723   5.863   4.970
  559TIP3    H2 1684   3.632   5.752   4.923
  560TIP3   OH2 1685   2.907   3.507   3.732
  560TIP3    H1 1686   2.985   3.467   3.692
  560TIP3    H2 1687   2.835   3.451   3.703
  561TIP3   OH2 1688   5.689   2.184   3.931
  561TIP3    H1 1689   5.753   2.248   3.898
  561TIP3    H2 1690   5.720   2.100   3.898
  562TIP3   OH2 1691   6.114   5.149   3.161
  562TIP3    H1 1692   6.084   5.135   3.071
  562TIP3    H2 1693   6.052   5.211   3.198
  563TIP3   OH2 1694   1.512   2.205   2.106
  563TIP3    H1 1695   1.573   2.201   2.179
  563TIP3    H2 1696   1.567   2.221   2.029
  564TIP3   OH2 1697   0.926   0.558   3.653
  564TIP3    H1 1698   0.839   0.544   3.692
  564TIP3    H2 1699   0.987   0.550   3.727
  565TIP3   OH2 1700   3.399   5.476   3.084
  565TIP3    H1 1701   3.375   5.450   3.173
  565TIP3    H2 1702   3.334   5.433   3.029
  566TIP3   OH2 1703   5.039   4.706   4.213
  566TIP3    H1 1704   4.947   4.683   4.224
  566TIP3    H2 1705   5.076   4.637   4.158
  567TIP3   OH2 1706   1.270   0.119   3.875
  567TIP3    H1 1707   1.322   0.125   3.795
  567TIP3    H2 1708   1.197   0.062   3.851
  568TIP3   OH2 1709   2.218   2.628   1.021
  568TIP3    H1 1710   2.133   2.656   1.055
  568TIP3    H2 1711   2.235   2.544   1.065
  569TIP3   OH2 1712   2.307   5.396   2.460
  569TIP3    H1 1713   2.399   5.408   2.485
  569TIP3    H2 1714   2.271   5.485   2.460
  570TIP3   OH2 1715   2.269   4.718   4.909
  570TIP3    H1 1716   2.292   4.735   5.000
  570TIP3    H2 1717   2.208   4.645   4.913
  571TIP3   OH2 1718   2.125   4.717   0.317
  571TIP3    H1 1719   2.221   4.713   0.316
  571TIP3    H2 1720   2.097   4.641   0.267
  572TIP3   OH2 1721   1.167   5.734   0.892
  572TIP3    H1 1722   1.220   5.811   0.874
  572TIP3    H2 1723   1.185   5.714   0.984
  573TIP3   OH2 1724   0.630   4.834   0.476
  573TIP3    H1 1725   0.654   4.925   0.493
  573TIP3    H2 1726   0.678   4.811   0.397
  574TIP3   OH2 1727   6.035   0.344   2.798
  574TIP3    H1 1728   5.979   0.358   2.722
  574TIP3    H2 1729   6.103   0.284   2.768
  575TIP3   OH2 1730   5.126   2.570   2.856
  575TIP3    H1 1731   5.213   2.535   2.878
  575TIP3    H2 1732   5.097   2.612   2.936
  576TIP3   OH2 1733   5.321   2.990   0.626
  576TIP3    H1 1734   5.250   2.927   0.637
  576TIP3    H2 1735   5.298   3.062   0.684
  577TIP3   OH2 1736   5.502   5.165   3.917
  577TIP3    H1 1737   5.473   5.125   4.000
  577TIP3    H2 1738   5.435   5.231   3.898
  578TIP3   OH2 1739   3.245   0.124   4.800
  578TIP3    H1 1740   3.195   0.193   4.844
  578TIP3    H2 1741   3.181   0.056   4.781
  579TIP3   OH2 1742   4.873   5.791   2.148
  579TIP3    H1 1743   4.893   5.802   2.055
  579TIP3    H2 1744   4.941   5.733   2.181
  580TIP3   OH2 1745   1.346   3.748   3.675
  580TIP3    H1 1746   1.288   3.781   3.606
  580TIP3    H2 1747   1.421   3.807   3.673
  581TIP3   OH2 1748   2.234   1.939   0.941
  581TIP3    H1 1749   2.298   1.913   1.008
  581TIP3    H2 1750   2.149   1.921   0.981
  582TIP3   OH2 1751   4.451   0.988   2.680
  582TIP3    H1 1752   4.366   1.024   2.706
  582TIP3    H2 1753   4.486   0.949   2.760
  583TIP3   OH2 1754   6.074   1.717   0.895
  583TIP3    H1 1755   6.003   1.697   0.956
  583TIP3    H2 1756   6.083   1.639   0.840
  584TIP3   OH2 1757   3.509   3.150   4.665
  584TIP3    H1 1758   3.551   3.230   4.695
  584TIP3    H2 1759   3.575   3.108   4.609
  585TIP3   OH2 1760   3.478   2.929   3.927
  585TIP3    H1 1761   3.487   2.836   3.907
  585TIP3    H2 1762   3.568   2.962   3.930
  586TIP3   OH2 1763   0.419   5.160   2.162
  586TIP3    H1 1764   0.335   5.193   2.129
  586TIP3    H2 1765   0.416   5.177   2.256
  587TIP3   OH2 1766   1.197   4.967   0.285
  587TIP3    H1 1767   1.225   5.029   0.353
  587TIP3    H2 1768   1.102   4.977   0.280
  588TIP3   OH2 1769   4.310   3.690   0.638
  588TIP3    H1 1770   4.366   3.728   0.571
  588TIP3    H2 1771   4.362   3.695   0.719
  589TIP3   OH2 1772   5.401   6.024   3.194
  589TIP3    H1 1773   5.404   5.990   3.284
  589TIP3    H2 1774   5.357   5.956   3.144
  590TIP3   OH2 1775   0.280   4.096   0.135
  590TIP3    H1 1776   0.267   4.119   0.228
  590TIP3    H2 1777   0.326   4.012   0.138
  591TIP3   OH2 1778   5.038   5.428   4.745
  591TIP3    H1 1779   5.043   5.334   4.728
  591TIP3    H2 1780   5.032   5.467   4.658
  592TIP3   OH2 1781   5.800   3.150   1.599
  592TIP3    H1 1782   5.722   3.097   1.590
  592TIP3    H2 1783   5.844   3.144   1.514
  593TIP3   OH2 1784   0.868   1.541   3.498
  593TIP3    H1 1785   0.933   1.590   3.549
  593TIP3    H2 1786   0.813   1.499   3.563
  594TIP3   OH2 1787   2.087   2.753   4.507
  594TIP3    H1 1788   2.141   2.806   4.448
  594TIP3    H2 1789   2.026   2.708   4.450
  595TIP3   OH2 1790   2.834   2.303   0.381
  595TIP3    H1 1791   2.778   2.285   0.306
  595TIP3    H2 1792   2.774   2.337   0.448
  596TIP3   OH2 1793   2.067   5.475   1.557
  596TIP3    H1 1794   1.978   5.465   1.522
  596TIP3    H2 1795   2.096   5.386   1.575
  597TIP3   OH2 1796   5.741   1.146   1.554
  597TIP3    H1 1797   5.689   1.172   1.478
  597TIP3    H2 1798   5.746   1.226   1.607
  598TIP3   OH2 1799   4.615   4.582   4.812
  598TIP3    H1 1800   4.604   4.634   4.732
  598TIP3    H2 1801   4.528   4.583   4.853
  599TIP3   OH2 1802   4.919   3.347   0.356
  599TIP3    H1 1803   4.935   3.422   0.412
  599TIP3    H2 1804   4.978   3.279   0.390
  600TIP3   OH2 1805   2.092   4.452   4.383
  600TIP3    H1 1806   2.121   4.531   4.337
  600TIP3    H2 1807   2.144   4.450   4.463
  601TIP3   OH2 1808   6.243   0.173   4.585
  601TIP3    H1 1809   6.290   0.089   4.584
  601TIP3    H2 1810   6.291   0.228   4.524
  602TIP3   OH2 1811   0.517   5.927   1.834
  602TIP3    H1 1812   0.483   5.869   1.903
  602TIP3    H2 1813   0.609   5.905   1.827
  603TIP3   OH2 1814   3.486   3.201   0.120
  603TIP3    H1 1815   3.545   3.138   0.160
  603TIP3    H2 1816   3.471   3.166   0.032
  604TIP3   OH2 1817   6.016   0.531   1.913
  604TIP3    H1 1818   5.921   0.517   1.912
  604TIP3    H2 1819   6.043   0.516   1.822
  605TIP3   OH2 1820   2.031   0.196   2.286
  605TIP3    H1 1821   2.051   0.283   2.252
  605TIP3    H2 1822   1.973   0.157   2.220
  606TIP3   OH2 1823   3.346   3.845   1.790
  606TIP3    H1 1824   3.254   3.818   1.798
  606TIP3    H2 1825   3.392   3.764   1.767
  607TIP3   OH2 1826   3.175   0.367   3.827
  607TIP3    H1 1827   3.222   0.411   3.756
  607TIP3    H2 1828   3.220   0.396   3.907
  608TIP3   OH2 1829   3.112   4.167   3.103
  608TIP3    H1 1830   3.186   4.127   3.149
  608TIP3    H2 1831   3.079   4.233   3.165
  609TIP3   OH2 1832   1.943   5.578   0.060
  609TIP3    H1 1833   1.897   5.658   0.085
  609TIP3    H2 1834   1.901   5.551  -0.022
  610TIP3   OH2 1835   5.660   4.878   2.935
  610TIP3    H1 1836   5.728   4.828   2.981
  610TIP3    H2 1837   5.694   4.967   2.933
  611TIP3   OH2 1838   5.639   4.603   4.670
  611TIP3    H1 1839   5.590   4.645   4.601
  611TIP3    H2 1840   5.682   4.675   4.717
  612TIP3   OH2 1841   0.792   2.848   2.817
  612TIP3    H1 1842   0.881   2.816   2.829
  612TIP3    H2 1843   0.755   2.851   2.905
  613TIP3   OH2 1844   4.554   3.695   1.846
  613TIP3    H1 1845   4.629   3.750   1.868
  613TIP3    H2 1846   4.593   3.611   1.820
  614TIP3   OH2 1847   1.979   3.190   3.592
  614TIP3    H1 1848   1.946   3.249   3.660
  614TIP3    H2 1849   2.071   3.177   3.615
  615TIP3   OH2 1850   0.520   1.436   0.289
  615TIP3    H1 1851   0.538   1.529   0.279
  615TIP3    H2 1852   0.572   1.410   0.365
  616TIP3   OH2 1853   5.735   0.633   4.831
  616TIP3    H1 1854   5.649   0.607   4.862
  616TIP3    H2 1855   5.776   0.677   4.905
  617TIP3   OH2 1856   0.525   5.669   3.959
  617TIP3    H1 1857   0.474   5.635   4.032
  617TIP3    H2 1858   0.465   5.664   3.884
  618TIP3   OH2 1859   1.706   0.803   3.627
  618TIP3    H1 1860   1.676   0.771   3.712
  618TIP3    H2 1861   1.643   0.767   3.565
  619TIP3   OH2 1862   3.038   4.458   2.768
  619TIP3    H1 1863   3.095   4.384   2.748
  619TIP3    H2 1864   3.035   4.460   2.864
  620TIP3   OH2 1865   0.447   5.386   4.026
  620TIP3    H1 1866   0.450   5.394   3.930
  620TIP3    H2 1867   0.354   5.379   4.046
  621TIP3   OH2 1868   5.151   1.320   1.028
  621TIP3    H1 1869   5.164   1.229   1.003
  621TIP3    H2 1870   5.193   1.371   0.959
  622TIP3   OH2 1871   5.657   4.026   2.198
  622TIP3    H1 1872   5.729   4.013   2.136
  622TIP3    H2 1873   5.645   4.121   2.200
  623TIP3   OH2 1874   2.878   2.059   2.090
  623TIP3    H1 1875   2.947   1.995   2.078
  623TIP3    H2 1876   2.918   2.143   2.065
  624TIP3   OH2 1877   1.614   4.120   0.074
  624TIP3    H1 1878   1.689   4.069   0.103
  624TIP3    H2 1879   1.594   4.178   0.147
  625TIP3   OH2 1880   0.560   4.462   1.128
  625TIP3    H1 1881   0.496   4.503   1.071
  625TIP3    H2 1882   0.509   4.401   1.182
  626TIP3   OH2 1883   2.548   5.254   3.363
  626TIP3    H1 1884   2.643   5.263   3.368
  626TIP3    H2 1885   2.525   5.198   3.437
  627TIP3   OH2 1886   5.246   0.065   2.739
  627TIP3    H1 1887   5.268   0.012   2.816
  627TIP3    H2 1888   5.272   0.154   2.764
  628TIP3   OH2 1889   3.011   2.591   4.253
  628TIP3    H1 1890   3.097   2.551   4.238
  628TIP3    H2 1891   2.964   2.528   4.307
  629TIP3   OH2 1892   2.478   2.042   4.918
  629TIP3    H1 1893   2.498   2.081   5.003
  629TIP3    H2 1894   2.475   2.117   4.858
  630TIP3   OH2 1895   4.174   3.995   2.929
  630TIP3    H1 1896   4.111   3.976   2.999
  630TIP3    H2 1897   4.206   4.083   2.949
  631TIP3   OH2 1898   1.756   2.520   1.022
  631TIP3    H1 1899   1.754   2.474   0.938
  631TIP3    H2 1900   1.705   2.599   1.008
  632TIP3   OH2 1901   3.642   3.687   4.430
  632TIP3    H1 1902   3.574   3.689   4.363
  632TIP3    H2 1903   3.595   3.677   4.512
  633TIP3   OH2 1904   4.951   0.678   3.989
  633TIP3    H1 1905   4.922   0.750   3.932
  633TIP3    H2 1906   4.870   0.636   4.017
  634TIP3   OH2 1907   2.060   1.431   5.170
  634TIP3    H1 1908   2.036   1.464   5.083
  634TIP3    H2 1909   2.129   1.491   5.200
  635TIP3   OH2 1910   0.044   2.889   4.280
  635TIP3    H1 1911   0.118   2.899   4.339
  635TIP3    H2 1912   0.083   2.872   4.194
  636TIP3   OH2 1913   0.758   5.180   0.215
  636TIP3    H1 1914   0.764   5.187   0.120
  636TIP3    H2 1915   0.700   5.252   0.241
  637TIP3   OH2 1916   0.255   1.852   4.500
  637TIP3    H1 1917   0.306   1.807   4.433
  637TIP3    H2 1918   0.169   1.864   4.460
  638TIP3   OH2 1919   5.225   5.905   2.483
  638TIP3    H1 1920   5.229   5.950   2.567
  638TIP3    H2 1921   5.132   5.889   2.469
  639TIP3   OH2 1922   2.878   0.113   1.308
  639TIP3    H1 1923   2.939   0.142   1.239
  639TIP3    H2 1924   2.933   0.104   1.386
  640TIP3   OH2 1925   5.213   1.259   1.424
  640TIP3    H1 1926   5.149   1.252   1.353
  640TIP3    H2 1927   5.287   1.306   1.385
  641TIP3   OH2 1928   4.825   5.966   4.189
  641TIP3    H1 1929   4.807   5.872   4.189
  641TIP3    H2 1930   4.743   6.006   4.162
  642TIP3   OH2 1931   1.626   5.544   1.888
  642TIP3    H1 1932   1.555   5.533   1.952
  642TIP3    H2 1933   1.605   5.481   1.819
  643TIP3   OH2 1934   2.490   3.221   4.759
  643TIP3    H1 1935   2.433   3.294   4.734
  643TIP3    H2 1936   2.579   3.256   4.749
  644TIP3   OH2 1937   1.682   3.388   4.563
  644TIP3    H1 1938   1.588   3.393   4.581
  644TIP3    H2 1939   1.723   3.402   4.648
  645TIP3   OH2 1940   3.507   0.341   2.173
  645TIP3    H1 1941   3.443   0.307   2.236
  645TIP3    H2 1942   3.574   0.382   2.228
  646TIP3   OH2 1943   1.746   3.084   3.482
  646TIP3    H1 1944   1.704   3.160   3.442
  646TIP3    H2 1945   1.811   3.121   3.541
  647TIP3   OH2 1946   1.162   4.998   0.819
  647TIP3    H1 1947   1.223   4.932   0.852
  647TIP3    H2 1948   1.098   4.948   0.767
  648TIP3   OH2 1949   0.453   1.096   4.309
  648TIP3    H1 1950   0.528   1.125   4.361
  648TIP3    H2 1951   0.429   1.173   4.258
  649TIP3   OH2 1952   2.930   0.141   3.609
  649TIP3    H1 1953   2.854   0.084   3.602
  649TIP3    H2 1954   2.921   0.182   3.696
  650TIP3   OH2 1955   0.737   5.854   3.311
  650TIP3    H1 1956   0.824   5.818   3.323
  650TIP3    H2 1957   0.700   5.858   3.399
  651TIP3   OH2 1958   4.758   2.132   4.034
  651TIP3    H1 1959   4.830   2.170   4.085
  651TIP3    H2 1960   4.683   2.134   4.093
  652TIP3   OH2 1961   4.688   5.309   0.400
  652TIP3    H1 1962   4.628   5.252   0.448
  652TIP3    H2 1963   4.741   5.249   0.348
  653TIP3   OH2 1964   4.602   2.608   3.864
  653TIP3    H1 1965   4.522   2.558   3.851
  653TIP3    H2 1966   4.666   2.545   3.897
  654TIP3   OH2 1967   4.021   3.747   4.013
  654TIP3    H1 1968   4.105   3.786   3.990
  654TIP3    H2 1969   4.012   3.761   4.107
  655TIP3   OH2 1970   1.671   2.391   1.270
  655TIP3    H1 1971   1.697   2.391   1.178
  655TIP3    H2 1972   1.624   2.309   1.283
  656TIP3   OH2 1973   3.099   2.353   0.906
  656TIP3    H1 1974   3.146   2.419   0.856
  656TIP3    H2 1975   3.082   2.283   0.842
  657TIP3   OH2 1976   5.302   1.838   0.492
  657TIP3    H1 1977   5.332   1.849   0.582
  657TIP3    H2 1978   5.374   1.792   0.448
  658TIP3   OH2 1979   4.714   3.306   4.048
  658TIP3    H1 1980   4.752   3.227   4.010
  658TIP3    H2 1981   4.627   3.279   4.077
  659TIP3   OH2 1982   1.341   3.050   2.611
  659TIP3    H1 1983   1.422   3.064   2.660
  659TIP3    H2 1984   1.278   3.019   2.677
  660TIP3   OH2 1985   1.643   3.852   3.641
  660TIP3    H1 1986   1.655   3.947   3.639
  660TIP3    H2 1987   1.619   3.828   3.552
  661TIP3   OH2 1988   2.668   4.106   3.924
  661TIP3    H1 1989   2.642   4.078   3.837
  661TIP3    H2 1990   2.606   4.176   3.946
  662TIP3   OH2 1991   3.684   3.122   4.960
  662TIP3    H1 1992   3.748   3.110   5.030
  662TIP3    H2 1993   3.621   3.185   4.995
  663TIP3   OH2 1994   5.390   2.332   2.274
  663TIP3    H1 1995   5.441   2.384   2.212
  663TIP3    H2 1996   5.436   2.249   2.279
  664TIP3   OH2 1997   1.433   5.426   2.371
  664TIP3    H1 1998   1.340   5.405   2.373
  664TIP3    H2 1999   1.471   5.377   2.444
  665TIP3   OH2 2000   6.160   0.531   3.173
  665TIP3    H1 2001   6.243   0.578   3.172
  665TIP3    H2 2002   6.177   0.452   3.122
  666TIP3   OH2 2003   2.948   0.042   1.706
  666TIP3    H1 2004   2.962  -0.023   1.775
  666TIP3    H2 2005   2.936   0.125   1.752
  667TIP3   OH2 2006   1.724   2.265   1.541
  667TIP3    H1 2007   1.746   2.193   1.602
  667TIP3    H2 2008   1.705   2.221   1.458
  668TIP3   OH2 2009   2.242   1.107   0.873
  668TIP3    H1 2010   2.198   1.052   0.807
  668TIP3    H2 2011   2.174   1.128   0.936
  669TIP3   OH2 2012   5.300   1.417   4.747
  669TIP3    H1 2013   5.358   1.451   4.815
  669TIP3    H2 2014   5.266   1.495   4.703
  670TIP3   OH2 2015   5.133   2.174   5.138
  670TIP3    H1 2016   5.191   2.220   5.199
  670TIP3    H2 2017   5.141   2.082   5.162
  671TIP3   OH2 2018   2.199   1.293   2.654
  671TIP3    H1 2019   2.121   1.242   2.633
  671TIP3    H2 2020   2.216   1.345   2.576
  672TIP3   OH2 2021   5.019   5.433   3.593
  672TIP3    H1 2022   5.105   5.446   3.552
  672TIP3    H2 2023   4.980   5.520   3.597
  673TIP3   OH2 2024   2.287   3.807   0.496
  673TIP3    H1 2025   2.343   3.830   0.570
  673TIP3    H2 2026   2.202   3.845   0.519
  674TIP3   OH2 2027   0.546   1.259   0.088
  674TIP3    H1 2028   0.534   1.325   0.157
  674TIP3    H2 2029   0.465   1.208   0.089
  675TIP3   OH2 2030   4.622   1.690   4.026
  675TIP3    H1 2031   4.593   1.674   4.116
  675TIP3    H2 2032   4.686   1.621   4.009
  676TIP3   OH2 2033   2.054   3.478   0.217
  676TIP3    H1 2034   2.095   3.564   0.211
  676TIP3    H2 2035   2.006   3.479   0.300
  677TIP3   OH2 2036   1.266   3.209   2.329
  677TIP3    H1 2037   1.298   3.234   2.243
  677TIP3    H2 2038   1.196   3.272   2.348
  678TIP3   OH2 2039   3.180   1.834   1.222
  678TIP3    H1 2040   3.274   1.816   1.230
  678TIP3    H2 2041   3.148   1.838   1.312
  679TIP3   OH2 2042   3.147   5.955   0.317
  679TIP3    H1 2043   3.081   6.018   0.290
  679TIP3    H2 2044   3.167   5.905   0.237
  680TIP3   OH2 2045   3.556   1.899   3.590
  680TIP3    H1 2046   3.611   1.971   3.561
  680TIP3    H2 2047   3.605   1.857   3.660
  681TIP3   OH2 2048   1.006   1.057   3.825
  681TIP3    H1 2049   1.033   1.025   3.739
  681TIP3    H2 2050   1.082   1.105   3.858
  682TIP3   OH2 2051   6.238   4.646   2.873
  682TIP3    H1 2052   6.273   4.714   2.932
  682TIP3    H2 2053   6.315   4.594   2.849
  683TIP3   OH2 2054   6.316   3.368   5.119
  683TIP3    H1 2055   6.369   3.359   5.040
  683TIP3    H2 2056   6.230   3.395   5.087
  684TIP3   OH2 2057   1.119   0.590   4.162
  684TIP3    H1 2058   1.089   0.568   4.250
  684TIP3    H2 2059   1.150   0.507   4.126
  685TIP3   OH2 2060   2.495   0.837   1.219
  685TIP3    H1 2061   2.489   0.900   1.147
  685TIP3    H2 2062   2.407   0.800   1.226
  686TIP3   OH2 2063   1.686   5.518   3.428
  686TIP3    H1 2064   1.777   5.494   3.445
  686TIP3    H2 2065   1.671   5.490   3.338
  687TIP3   OH2 2066   4.936   5.916   3.497
  687TIP3    H1 2067   4.965   5.979   3.562
  687TIP3    H2 2068   4.853   5.951   3.465
  688TIP3   OH2 2069   0.599   0.015   2.617
  688TIP3    H1 2070   0.648   0.097   2.622
  688TIP3    H2 2071   0.508   0.041   2.632
  689TIP3   OH2 2072   1.916   1.957   2.474
  689TIP3    H1 2073   1.970   1.884   2.502
  689TIP3    H2 2074   1.829   1.919   2.460
  690TIP3   OH2 2075   3.901   3.586   0.975
  690TIP3    H1 2076   3.967   3.518   0.976
  690TIP3    H2 2077   3.863   3.582   0.887
  691TIP3   OH2 2078   3.090   1.426   3.634
  691TIP3    H1 2079   3.086   1.511   3.590
  691TIP3    H2 2080   2.999   1.407   3.658
  692TIP3   OH2 2081   1.263   5.234   0.851
  692TIP3    H1 2082   1.220   5.160   0.810
  692TIP3    H2 2083   1.293   5.201   0.936
  693TIP3   OH2 2084   4.101   2.733   1.481
  693TIP3    H1 2085   4.151   2.682   1.417
  693TIP3    H2 2086   4.119   2.824   1.459
  694TIP3   OH2 2087   3.721   3.085   4.443
  694TIP3    H1 2088   3.681   3.166   4.411
  694TIP3    H2 2089   3.814   3.107   4.452
  695TIP3   OH2 2090   4.711   3.180   5.113
  695TIP3    H1 2091   4.652   3.105   5.109
  695TIP3    H2 2092   4.797   3.142   5.134
  696TIP3   OH2 2093   3.672   5.342   0.170
  696TIP3    H1 2094   3.691   5.299   0.254
  696TIP3    H2 2095   3.741   5.408   0.162
  697TIP3   OH2 2096   4.455   5.076   4.996
  697TIP3    H1 2097   4.524   5.028   4.950
  697TIP3    H2 2098   4.424   5.140   4.931
  698TIP3   OH2 2099   4.133   4.371   1.783
  698TIP3    H1 2100   4.063   4.306   1.782
  698TIP3    H2 2101   4.103   4.437   1.845
  699TIP3   OH2 2102   1.451   4.569   1.406
  699TIP3    H1 2103   1.397   4.626   1.350
  699TIP3    H2 2104   1.419   4.481   1.387
  700TIP3   OH2 2105   3.825   5.744   1.243
  700TIP3    H1 2106   3.757   5.738   1.176
  700TIP3    H2 2107   3.907   5.734   1.194
  701TIP3   OH2 2108   3.506   5.444   1.456
  701TIP3    H1 2109   3.508   5.429   1.550
  701TIP3    H2 2110   3.494   5.539   1.447
  702TIP3   OH2 2111   0.268   0.000   4.235
  702TIP3    H1 2112   0.187  -0.041   4.205
  702TIP3    H2 2113   0.281   0.073   4.175
  703TIP3   OH2 2114   4.217   4.957   4.069
  703TIP3    H1 2115   4.272   4.929   3.996
  703TIP3    H2 2116   4.204   5.051   4.054
  704TIP3   OH2 2117   3.092   1.569   3.017
  704TIP3    H1 2118   3.166   1.582   3.076
  704TIP3    H2 2119   3.023   1.532   3.072
  705TIP3   OH2 2120   5.772   0.775   1.532
  705TIP3    H1 2121   5.745   0.778   1.624
  705TIP3    H2 2122   5.865   0.799   1.533
  706TIP3   OH2 2123   0.639   4.725   3.225
  706TIP3    H1 2124   0.655   4.818   3.210
  706TIP3    H2 2125   0.572   4.701   3.160
  707TIP3   OH2 2126   5.901   4.108   1.409
  707TIP3    H1 2127   5.943   4.022   1.405
  707TIP3    H2 2128   5.914   4.137   1.499
  708TIP3   OH2 2129   0.520   3.128   1.844
  708TIP3    H1 2130   0.602   3.175   1.830
  708TIP3    H2 2131   0.481   3.170   1.921
  709TIP3   OH2 2132   5.169   3.733   1.350
  709TIP3    H1 2133   5.173   3.786   1.430
  709TIP3    H2 2134   5.244   3.674   1.358
  710TIP3   OH2 2135   2.368   0.075   0.212
  710TIP3    H1 2136   2.364   0.022   0.132
  710TIP3    H2 2137   2.441   0.039   0.262
  711TIP3   OH2 2138   3.549   5.920   2.557
  711TIP3    H1 2139   3.463   5.957   2.580
  711TIP3    H2 2140   3.561   5.848   2.620
  712TIP3   OH2 2141   0.708   5.580   3.789
  712TIP3    H1 2142   0.677   5.575   3.699
  712TIP3    H2 2143   0.630   5.598   3.841
  713TIP3   OH2 2144   1.508   1.612   2.022
  713TIP3    H1 2145   1.561   1.668   2.079
  713TIP3    H2 2146   1.527   1.644   1.933
  714TIP3   OH2 2147   3.303   3.417   5.004
  714TIP3    H1 2148   3.240   3.352   4.973
  714TIP3    H2 2149   3.250   3.485   5.046
  715TIP3   OH2 2150   0.148   1.575   5.139
  715TIP3    H1 2151   0.172   1.490   5.177
  715TIP3    H2 2152   0.193   1.639   5.194
  716TIP3   OH2 2153   4.392   0.715   4.929
  716TIP3    H1 2154   4.383   0.808   4.908
  716TIP3    H2 2155   4.485   0.704   4.947
  717TIP3   OH2 2156   3.759   3.079   0.767
  717TIP3    H1 2157   3.679   3.129   0.784
  717TIP3    H2 2158   3.751   3.052   0.676
  718TIP3   OH2 2159   2.076   1.734   2.502
  718TIP3    H1 2160   2.082   1.720   2.596
  718TIP3    H2 2161   2.018   1.665   2.471
  719TIP3   OH2 2162   5.406   2.587   4.957
  719TIP3    H1 2163   5.419   2.551   5.044
  719TIP3    H2 2164   5.443   2.675   4.962
  720TIP3   OH2 2165   3.851   3.642   2.089
  720TIP3    H1 2166   3.802   3.712   2.045
  720TIP3    H2 2167   3.800   3.625   2.168
  721TIP3   OH2 2168   1.726   3.644   1.344
  721TIP3    H1 2169   1.783   3.707   1.298
  721TIP3    H2 2170   1.734   3.667   1.436
  722TIP3   OH2 2171   0.644   2.965   1.307
  722TIP3    H1 2172   0.664   2.953   1.400
  722TIP3    H2 2173   0.726   2.996   1.268
  723TIP3   OH2 2174   0.418   4.593   0.954
  723TIP3    H1 2175   0.366   4.666   0.989
  723TIP3    H2 2176   0.455   4.627   0.873
  724TIP3   OH2 2177   1.773   5.191   1.674
  724TIP3    H1 2178   1.795   5.216   1.764
  724TIP3    H2 2179   1.740   5.101   1.681
  725TIP3   OH2 2180   0.146   5.002   4.308
  725TIP3    H1 2181   0.079   5.043   4.254
  725TIP3    H2 2182   0.172   4.924   4.259
  726TIP3   OH2 2183   6.225   0.051   1.323
  726TIP3    H1 2184   6.253   0.142   1.309
  726TIP3    H2 2185   6.257   0.004   1.245
  727TIP3   OH2 2186   3.795   5.501   1.414
  727TIP3    H1 2187   3.789   5.569   1.347
  727TIP3    H2 2188   3.705   5.469   1.424
  728TIP3   OH2 2189   5.023   1.159   2.050
  728TIP3    H1 2190   4.956   1.097   2.022
  728TIP3    H2 2191   4.983   1.245   2.040
  729TIP3   OH2 2192   5.601   0.654   1.234
  729TIP3    H1 2193   5.513   0.621   1.215
  729TIP3    H2 2194   5.610   0.731   1.178
  730TIP3   OH2 2195   3.334   0.832   4.946
  730TIP3    H1 2196   3.245   0.818   4.914
  730TIP3    H2 2197   3.324   0.897   5.016
  731TIP3   OH2 2198   3.953   3.500   1.870
  731TIP3    H1 2199   3.932   3.423   1.816
  731TIP3    H2 2200   3.913   3.481   1.954
  732TIP3   OH2 2201   0.460   1.205   3.977
  732TIP3    H1 2202   0.470   1.247   4.063
  732TIP3    H2 2203   0.549   1.198   3.944
  733TIP3   OH2 2204   3.304   4.705   2.384
  733TIP3    H1 2205   3.249   4.782   2.368
  733TIP3    H2 2206   3.256   4.654   2.450
  734TIP3   OH2 2207   1.625   2.611   4.636
  734TIP3    H1 2208   1.679   2.664   4.694
  734TIP3    H2 2209   1.543   2.599   4.684
  735TIP3   OH2 2210   1.180   3.503   5.190
  735TIP3    H1 2211   1.088   3.510   5.166
  735TIP3    H2 2212   1.227   3.530   5.111
  736TIP3   OH2 2213   0.603   3.183   3.303
  736TIP3    H1 2214   0.561   3.137   3.231
  736TIP3    H2 2215   0.693   3.196   3.275
  737TIP3   OH2 2216   3.406   5.576   4.713
  737TIP3    H1 2217   3.312   5.590   4.706
  737TIP3    H2 2218   3.430   5.620   4.795
  738TIP3   OH2 2219   4.880   0.873   1.086
  738TIP3    H1 2220   4.828   0.948   1.055
  738TIP3    H2 2221   4.935   0.850   1.012
  739TIP3   OH2 2222   4.235   2.293   0.273
  739TIP3    H1 2223   4.304   2.235   0.239
  739TIP3    H2 2224   4.232   2.366   0.211
  740TIP3   OH2 2225   0.930   0.238   2.140
  740TIP3    H1 2226   0.970   0.230   2.227
  740TIP3    H2 2227   1.003   0.230   2.079
  741TIP3   OH2 2228   3.057   0.262   2.322
  741TIP3    H1 2229   3.139   0.287   2.280
  741TIP3    H2 2230   3.082   0.198   2.388
  742TIP3   OH2 2231   5.180   0.482   4.533
  742TIP3    H1 2232   5.165   0.445   4.620
  742TIP3    H2 2233   5.256   0.539   4.544
  743TIP3   OH2 2234   2.064   4.586   3.622
  743TIP3    H1 2235   2.098   4.605   3.710
  743TIP3    H2 2236   2.007   4.660   3.602
  744TIP3   OH2 2237   4.498   4.297   1.540
  744TIP3    H1 2238   4.556   4.242   1.592
  744TIP3    H2 2239   4.448   4.346   1.604
  745TIP3   OH2 2240   2.325   5.293   0.478
  745TIP3    H1 2241   2.393   5.332   0.423
  745TIP3    H2 2242   2.305   5.360   0.544
  746TIP3   OH2 2243   4.275   1.885   2.344
  746TIP3    H1 2244   4.323   1.819   2.293
  746TIP3    H2 2245   4.199   1.839   2.378
  747TIP3   OH2 2246   2.832   1.935   1.482
  747TIP3    H1 2247   2.802   2.025   1.473
  747TIP3    H2 2248   2.928   1.941   1.486
  748TIP3   OH2 2249   0.535   0.293   0.890
  748TIP3    H1 2250   0.498   0.330   0.810
  748TIP3    H2 2251   0.515   0.359   0.957
  749TIP3   OH2 2252   4.208   3.223   2.365
  749TIP3    H1 2253   4.148   3.239   2.438
  749TIP3    H2 2254   4.165   3.155   2.313
  750TIP3   OH2 2255   5.300   1.365   0.762
  750TIP3    H1 2256   5.280   1.275   0.735
  750TIP3    H2 2257   5.271   1.419   0.688
  751TIP3   OH2 2258   1.306   3.230   3.043
  751TIP3    H1 2259   1.384   3.183   3.072
  751TIP3    H2 2260   1.280   3.282   3.119
  752TIP3   OH2 2261   3.536   4.696   1.651
  752TIP3    H1 2262   3.599   4.683   1.723
  752TIP3    H2 2263   3.451   4.677   1.690
  753TIP3   OH2 2264   2.319   2.638   0.423
  753TIP3    H1 2265   2.343   2.591   0.344
  753TIP3    H2 2266   2.228   2.664   0.409
  754TIP3   OH2 2267   0.559   5.947   3.858
  754TIP3    H1 2268   0.512   5.884   3.912
  754TIP3    H2 2269   0.523   6.032   3.883
  755TIP3   OH2 2270   2.823   3.295   3.074
  755TIP3    H1 2271   2.889   3.336   3.130
  755TIP3    H2 2272   2.759   3.364   3.059
  756TIP3   OH2 2273   2.649   1.500   2.536
  756TIP3    H1 2274   2.566   1.454   2.536
  756TIP3    H2 2275   2.700   1.458   2.605
  757TIP3   OH2 2276   1.296   1.166   0.606
  757TIP3    H1 2277   1.270   1.078   0.632
  757TIP3    H2 2278   1.289   1.217   0.687
  758TIP3   OH2 2279   2.935   5.573   3.195
  758TIP3    H1 2280   2.862   5.633   3.211
  758TIP3    H2 2281   2.953   5.533   3.281
  759TIP3   OH2 2282   0.882   4.830   3.537
  759TIP3    H1 2283   0.961   4.781   3.517
  759TIP3    H2 2284   0.850   4.791   3.619
  760TIP3   OH2 2285   2.340   1.303   2.166
  760TIP3    H1 2286   2.406   1.245   2.204
  760TIP3    H2 2287   2.386   1.386   2.154
  761TIP3   OH2 2288   6.030   1.909   1.295
  761TIP3    H1 2289   5.984   1.826   1.312
  761TIP3    H2 2290   5.965   1.964   1.252
  762TIP3   OH2 2291   2.315   2.004   2.256
  762TIP3    H1 2292   2.358   2.054   2.186
  762TIP3    H2 2293   2.381   2.001   2.326
  763TIP3   OH2 2294   0.582   3.880   2.232
  763TIP3    H1 2295   0.494   3.843   2.229
  763TIP3    H2 2296   0.638   3.812   2.194
  764TIP3   OH2 2297   2.711   2.402   2.838
  764TIP3    H1 2298   2.714   2.314   2.875
  764TIP3    H2 2299   2.688   2.388   2.746
  765TIP3   OH2 2300   4.885   4.088   0.164
  765TIP3    H1 2301   4.898   4.006   0.212
  765TIP3    H2 2302   4.813   4.069   0.104
  766TIP3   OH2 2303   1.046   2.745   2.801
  766TIP3    H1 2304   1.126   2.775   2.758
  766TIP3    H2 2305   1.007   2.683   2.739
  767TIP3   OH2 2306   5.369   1.836   2.156
  767TIP3    H1 2307   5.338   1.891   2.228
  767TIP3    H2 2308   5.386   1.751   2.197
  768TIP3   OH2 2309   0.709   2.413   3.903
  768TIP3    H1 2310   0.629   2.382   3.860
  768TIP3    H2 2311   0.686   2.500   3.936
  769TIP3   OH2 2312   4.122   3.918   4.509
  769TIP3    H1 2313   4.047   3.967   4.540
  769TIP3    H2 2314   4.197   3.973   4.529
  770TIP3   OH2 2315   5.383   5.626   1.868
  770TIP3    H1 2316   5.399   5.555   1.806
  770TIP3    H2 2317   5.414   5.591   1.952
  771TIP3   OH2 2318   0.883   4.193   4.833
  771TIP3    H1 2319   0.886   4.275   4.784
  771TIP3    H2 2320   0.961   4.195   4.888
  772TIP3   OH2 2321   5.079   3.856   4.056
  772TIP3    H1 2322   5.106   3.790   3.992
  772TIP3    H2 2323   4.986   3.837   4.072
  773TIP3   OH2 2324   5.316   3.725   4.217
  773TIP3    H1 2325   5.242   3.696   4.165
  773TIP3    H2 2326   5.301   3.818   4.232
  774TIP3   OH2 2327   0.835   3.899   3.520
  774TIP3    H1 2328   0.850   3.897   3.614
  774TIP3    H2 2329   0.762   3.838   3.505
  775TIP3   OH2 2330   6.061   4.702   3.293
  775TIP3    H1 2331   5.980   4.752   3.278
  775TIP3    H2 2332   6.102   4.747   3.366
  776TIP3   OH2 2333   2.138   4.155   2.970
  776TIP3    H1 2334   2.106   4.140   2.880
  776TIP3    H2 2335   2.163   4.069   3.001
  777TIP3   OH2 2336   0.286   4.876   3.577
  777TIP3    H1 2337   0.312   4.831   3.658
  777TIP3    H2 2338   0.198   4.843   3.559
  778TIP3   OH2 2339   1.833   0.749   0.071
  778TIP3    H1 2340   1.854   0.841   0.084
  778TIP3    H2 2341   1.796   0.721   0.155
  779TIP3   OH2 2342   6.188   2.831   5.005
  779TIP3    H1 2343   6.160   2.866   4.920
  779TIP3    H2 2344   6.193   2.737   4.991
  780TIP3   OH2 2345   1.466   0.460   3.427
  780TIP3    H1 2346   1.420   0.375   3.430
  780TIP3    H2 2347   1.407   0.517   3.379
  781TIP3   OH2 2348   1.367   2.635   4.769
  781TIP3    H1 2349   1.316   2.710   4.738
  781TIP3    H2 2350   1.393   2.659   4.858
  782TIP3   OH2 2351   2.629   0.163   3.521
  782TIP3    H1 2352   2.685   0.216   3.465
  782TIP3    H2 2353   2.616   0.217   3.599
  783TIP3   OH2 2354   0.176   5.638   3.108
  783TIP3    H1 2355   0.138   5.591   3.182
  783TIP3    H2 2356   0.185   5.728   3.139
  784TIP3   OH2 2357   5.755   2.411   0.578
  784TIP3    H1 2358   5.666   2.385   0.603
  784TIP3    H2 2359   5.769   2.369   0.494
  785TIP3   OH2 2360   6.058   4.032   0.455
  785TIP3    H1 2361   5.973   4.028   0.500
  785TIP3    H2 2362   6.036   4.025   0.362
  786TIP3   OH2 2363   3.951   0.224   1.288
  786TIP3    H1 2364   3.938   0.219   1.193
  786TIP3    H2 2365   4.045   0.238   1.299
  787TIP3   OH2 2366   0.319   2.932   3.837
  787TIP3    H1 2367   0.265   2.908   3.762
  787TIP3    H2 2368   0.409   2.913   3.809
  788TIP3   OH2 2369   6.265   1.971   3.684
  788TIP3    H1 2370   6.217   1.961   3.602
  788TIP3    H2 2371   6.249   1.890   3.732
  789TIP3   OH2 2372   1.665   2.783   0.726
  789TIP3    H1 2373   1.658   2.688   0.723
  789TIP3    H2 2374   1.754   2.801   0.696
  790TIP3   OH2 2375   3.314   4.739   3.203
  790TIP3    H1 2376   3.379   4.794   3.246
  790TIP3    H2 2377   3.244   4.730   3.268
  791TIP3   OH2 2378   0.321   0.705   2.583
  791TIP3    H1 2379   0.288   0.698   2.493
  791TIP3    H2 2380   0.407   0.746   2.574
  792TIP3   OH2 2381   4.907   3.231   1.744
  792TIP3    H1 2382   4.922   3.301   1.681
  792TIP3    H2 2383   4.969   3.162   1.719
  793TIP3   OH2 2384   5.246   1.231   3.972
  793TIP3    H1 2385   5.242   1.142   4.009
  793TIP3    H2 2386   5.325   1.269   4.010
  794TIP3   OH2 2387   5.793   5.401   2.678
  794TIP3    H1 2388   5.826   5.478   2.632
  794TIP3    H2 2389   5.699   5.418   2.688
  795TIP3   OH2 2390   1.743   1.545   1.578
  795TIP3    H1 2391   1.784   1.537   1.664
  795TIP3    H2 2392   1.748   1.457   1.541
  796TIP3   OH2 2393   5.294   4.561   3.237
  796TIP3    H1 2394   5.266   4.470   3.229
  796TIP3    H2 2395   5.373   4.558   3.290
  797TIP3   OH2 2396   1.921   5.281   5.114
  797TIP3    H1 2397   1.936   5.186   5.112
  797TIP3    H2 2398   1.979   5.316   5.047
  798TIP3   OH2 2399   3.261   3.216   0.283
  798TIP3    H1 2400   3.320   3.166   0.226
  798TIP3    H2 2401   3.189   3.242   0.225
  799TIP3   OH2 2402   4.983   2.076   3.505
  799TIP3    H1 2403   4.981   2.050   3.596
  799TIP3    H2 2404   4.914   2.025   3.463
  800TIP3   OH2 2405   4.717   3.548   0.328
  800TIP3    H1 2406   4.782   3.481   0.306
  800TIP3    H2 2407   4.768   3.630   0.333
  801TIP3   OH2 2408   1.998   3.641   2.641
  801TIP3    H1 2409   2.060   3.569   2.629
  801TIP3    H2 2410   2.010   3.669   2.732
  802TIP3   OH2 2411   1.244   2.271   2.208
  802TIP3    H1 2412   1.331   2.304   2.182
  802TIP3    H2 2413   1.256   2.177   2.217
  803TIP3   OH2 2414   5.419   0.034   2.559
  803TIP3    H1 2415   5.360   0.065   2.627
  803TIP3    H2 2416   5.362  -0.010   2.495
  804TIP3   OH2 2417   3.050   4.622   0.925
  804TIP3    H1 2418   3.047   4.651   1.016
  804TIP3    H2 2419   2.989   4.680   0.879
  805TIP3   OH2 2420   0.337   5.320   2.646
  805TIP3    H1 2421   0.335   5.413   2.625
  805TIP3    H2 2422   0.423   5.305   2.684
  806TIP3   OH2 2423   4.429   2.549   0.813
  806TIP3    H1 2424   4.374   2.623   0.837
  806TIP3    H2 2425   4.367   2.482   0.785
  807TIP3   OH2 2426   5.844   2.357   4.414
  807TIP3    H1 2427   5.782   2.298   4.371
  807TIP3    H2 2428   5.907   2.298   4.456
  808TIP3   OH2 2429   5.383   0.807   0.322
  808TIP3    H1 2430   5.474   0.826   0.303
  808TIP3    H2 2431   5.383   0.718   0.356
  809TIP3   OH2 2432   3.793   0.272   2.841
  809TIP3    H1 2433   3.802   0.191   2.790
  809TIP3    H2 2434   3.700   0.295   2.832
  810TIP3   OH2 2435   5.087   0.133   0.184
  810TIP3    H1 2436   5.007   0.118   0.235
  810TIP3    H2 2437   5.100   0.228   0.187
  811TIP3   OH2 2438   5.853   5.960   2.076
  811TIP3    H1 2439   5.946   5.937   2.081
  811TIP3    H2 2440   5.817   5.935   2.161
  812TIP3   OH2 2441   2.237   5.936   0.219
  812TIP3    H1 2442   2.188   5.969   0.143
  812TIP3    H2 2443   2.303   5.878   0.181
  813TIP3   OH2 2444   3.548   3.151   3.432
  813TIP3    H1 2445   3.616   3.176   3.370
  813TIP3    H2 2446   3.591   3.156   3.518
  814TIP3   OH2 2447   1.411   2.866   2.960
  814TIP3    H1 2448   1.340   2.900   2.906
  814TIP3    H2 2449   1.463   2.813   2.900
  815TIP3   OH2 2450   3.748   4.733   2.201
  815TIP3    H1 2451   3.799   4.744   2.282
  815TIP3    H2 2452   3.715   4.820   2.182
  816TIP3   OH2 2453   2.881   1.055   3.398
  816TIP3    H1 2454   2.953   1.116   3.381
  816TIP3    H2 2455   2.913   1.000   3.470
  817TIP3   OH2 2456   3.869   1.399   1.944
  817TIP3    H1 2457   3.866   1.342   2.021
  817TIP3    H2 2458   3.961   1.398   1.917
  818TIP3   OH2 2459   0.872   5.409   2.245
  818TIP3    H1 2460   0.855   5.502   2.259
  818TIP3    H2 2461   0.814   5.364   2.305
  819TIP3   OH2 2462   2.912   4.245   1.750
  819TIP3    H1 2463   2.836   4.187   1.760
  819TIP3    H2 2464   2.905   4.306   1.824
  820TIP3   OH2 2465   0.687   1.840   4.880
  820TIP3    H1 2466   0.694   1.749   4.910
  820TIP3    H2 2467   0.633   1.834   4.801
  821TIP3   OH2 2468   3.612   2.352   0.373
  821TIP3    H1 2469   3.706   2.335   0.374
  821TIP3    H2 2470   3.581   2.314   0.291
  822TIP3   OH2 2471   5.708   5.350   1.287
  822TIP3    H1 2472   5.762   5.276   1.259
  822TIP3    H2 2473   5.699   5.404   1.209
  823TIP3   OH2 2474   2.814   1.555   1.993
  823TIP3    H1 2475   2.740   1.545   1.933
  823TIP3    H2 2476   2.881   1.495   1.958
  824TIP3   OH2 2477   0.675   1.558   1.297
  824TIP3    H1 2478   0.604   1.570   1.361
  824TIP3    H2 2479   0.655   1.622   1.228
  825TIP3   OH2 2480   4.300   5.578   3.157
  825TIP3    H1 2481   4.297   5.649   3.092
  825TIP3    H2 2482   4.210   5.544   3.159
  826TIP3   OH2 2483   1.203   3.279   3.669
  826TIP3    H1 2484   1.141   3.351   3.656
  826TIP3    H2 2485   1.289   3.318   3.654
  827TIP3   OH2 2486   3.103   3.882   1.167
  827TIP3    H1 2487   3.087   3.963   1.119
  827TIP3    H2 2488   3.195   3.862   1.151
  828TIP3   OH2 2489   2.395   2.698   1.761
  828TIP3    H1 2490   2.419   2.721   1.851
  828TIP3    H2 2491   2.474   2.716   1.710
  829TIP3   OH2 2492   3.658   5.787   4.456
  829TIP3    H1 2493   3.645   5.881   4.470
  829TIP3    H2 2494   3.727   5.763   4.518
  830TIP3   OH2 2495   0.844   2.737   4.382
  830TIP3    H1 2496   0.807   2.652   4.407
  830TIP3    H2 2497   0.920   2.715   4.328
  831TIP3   OH2 2498   1.584   3.156   3.859
  831TIP3    H1 2499   1.527   3.202   3.798
  831TIP3    H2 2500   1.524   3.115   3.922
  832TIP3   OH2 2501   3.893   0.124   4.100
  832TIP3    H1 2502   3.968   0.077   4.066
  832TIP3    H2 2503   3.826   0.057   4.113
  833TIP3   OH2 2504   2.105   2.660   4.085
  833TIP3    H1 2505   2.044   2.719   4.129
  833TIP3    H2 2506   2.049   2.598   4.038
  834TIP3   OH2 2507   0.952   4.337   0.186
  834TIP3    H1 2508   0.979   4.322   0.096
  834TIP3    H2 2509   1.029   4.314   0.239
  835TIP3   OH2 2510   5.129   4.588   3.653
  835TIP3    H1 2511   5.093   4.592   3.564
  835TIP3    H2 2512   5.210   4.638   3.648
  836TIP3   OH2 2513   3.512   0.270   1.858
  836TIP3    H1 2514   3.455   0.346   1.845
  836TIP3    H2 2515   3.529   0.269   1.953
  837TIP3   OH2 2516   4.320   1.592   4.685
  837TIP3    H1 2517   4.307   1.535   4.609
  837TIP3    H2 2518   4.272   1.672   4.662
  838TIP3   OH2 2519   0.650   1.042   3.689
  838TIP3    H1 2520   0.697   1.064   3.769
  838TIP3    H2 2521   0.584   1.110   3.680
  839TIP3   OH2 2522   0.161   4.707   1.699
  839TIP3    H1 2523   0.113   4.685   1.779
  839TIP3    H2 2524   0.101   4.683   1.628
  840TIP3   OH2 2525   4.106   5.679   4.006
  840TIP3    H1 2526   4.080   5.765   3.972
  840TIP3    H2 2527   4.026   5.627   4.003
  841TIP3   OH2 2528   1.378   1.854   1.110
  841TIP3    H1 2529   1.386   1.761   1.128
  841TIP3    H2 2530   1.466   1.880   1.081
  842TIP3   OH2 2531   1.271   2.775   1.036
  842TIP3    H1 2532   1.283   2.870   1.030
  842TIP3    H2 2533   1.335   2.740   0.974
  843TIP3   OH2 2534   4.503   1.298   3.580
  843TIP3    H1 2535   4.539   1.280   3.493
  843TIP3    H2 2536   4.468   1.214   3.609
  844TIP3   OH2 2537   1.765   0.354   0.964
  844TIP3    H1 2538   1.836   0.294   0.986
  844TIP3    H2 2539   1.755   0.409   1.042
  845TIP3   OH2 2540   3.486   4.755   0.872
  845TIP3    H1 2541   3.439   4.722   0.795
  845TIP3    H2 2542   3.532   4.679   0.906
  846TIP3   OH2 2543   5.470   3.443   0.943
  846TIP3    H1 2544   5.494   3.480   0.858
  846TIP3    H2 2545   5.549   3.451   0.996
  847TIP3   OH2 2546   4.124   5.778   3.055
  847TIP3    H1 2547   4.073   5.789   3.135
  847TIP3    H2 2548   4.064   5.734   2.995
  848TIP3   OH2 2549   1.152   3.067   3.886
  848TIP3    H1 2550   1.219   3.020   3.838
  848TIP3    H2 2551   1.125   3.138   3.828
  849TIP3   OH2 2552   1.958   1.135   2.624
  849TIP3    H1 2553   1.920   1.050   2.649
  849TIP3    H2 2554   1.919   1.154   2.539
  850TIP3   OH2 2555   1.901   3.942   1.592
  850TIP3    H1 2556   1.868   3.997   1.521
  850TIP3    H2 2557   1.840   3.869   1.598
  851TIP3   OH2 2558   4.998   0.798   1.728
  851TIP3    H1 2559   5.077   0.851   1.725
  851TIP3    H2 2560   4.943   0.832   1.658
  852TIP3   OH2 2561   4.231   5.295   1.256
  852TIP3    H1 2562   4.226   5.230   1.326
  852TIP3    H2 2563   4.321   5.326   1.259
  853TIP3   OH2 2564   1.335   1.914   0.741
  853TIP3    H1 2565   1.324   1.974   0.668
  853TIP3    H2 2566   1.256   1.926   0.794
  854TIP3   OH2 2567   6.230   0.196   5.051
  854TIP3    H1 2568   6.182   0.114   5.045
  854TIP3    H2 2569   6.274   0.204   4.966
  855TIP3   OH2 2570   3.073   5.444   0.940
  855TIP3    H1 2571   3.099   5.388   0.867
  855TIP3    H2 2572   3.146   5.440   1.001
  856TIP3   OH2 2573   2.549   5.524   1.822
  856TIP3    H1 2574   2.526   5.447   1.770
  856TIP3    H2 2575   2.532   5.498   1.913
  857TIP3   OH2 2576   5.826   3.347   3.128
  857TIP3    H1 2577   5.763   3.393   3.184
  857TIP3    H2 2578   5.840   3.407   3.054
  858TIP3   OH2 2579   0.311   5.738   3.381
  858TIP3    H1 2580   0.320   5.659   3.434
  858TIP3    H2 2581   0.258   5.797   3.434
  859TIP3   OH2 2582   3.870   0.768   0.950
  859TIP3    H1 2583   3.945   0.712   0.971
  859TIP3    H2 2584   3.867   0.831   1.021
  860TIP3   OH2 2585   1.239   2.396   3.348
  860TIP3    H1 2586   1.244   2.449   3.269
  860TIP3    H2 2587   1.247   2.458   3.420
  861TIP3   OH2 2588   5.040   4.796   1.837
  861TIP3    H1 2589   5.105   4.725   1.831
  861TIP3    H2 2590   4.984   4.782   1.761
  862TIP3   OH2 2591   6.299   1.974   1.680
  862TIP3    H1 2592   6.289   1.963   1.774
  862TIP3    H2 2593   6.209   1.975   1.647
  863TIP3   OH2 2594   3.095   4.827   1.732
  863TIP3    H1 2595   3.010   4.820   1.775
  863TIP3    H2 2596   3.074   4.855   1.643
  864TIP3   OH2 2597   4.282   1.464   2.140
  864TIP3    H1 2598   4.215   1.517   2.183
  864TIP3    H2 2599   4.278   1.380   2.186
  865TIP3   OH2 2600   3.918   5.590   2.929
  865TIP3    H1 2601   3.890   5.530   2.861
  865TIP3    H2 2602   3.874   5.673   2.908
  866TIP3   OH2 2603   2.747   0.567   4.781
  866TIP3    H1 2604   2.697   0.597   4.857
  866TIP3    H2 2605   2.768   0.647   4.733
  867TIP3   OH2 2606   5.108   1.435   2.693
  867TIP3    H1 2607   5.039   1.371   2.676
  867TIP3    H2 2608   5.120   1.432   2.788
  868TIP3   OH2 2609   1.637   0.989   3.927
  868TIP3    H1 2610   1.578   0.924   3.964
  868TIP3    H2 2611   1.677   1.032   4.004
  869TIP3   OH2 2612   1.262   1.239   2.303
  869TIP3    H1 2613   1.233   1.320   2.344
  869TIP3    H2 2614   1.305   1.267   2.223
  870TIP3   OH2 2615   0.864   3.633   4.386
  870TIP3    H1 2616   0.833   3.563   4.328
  870TIP3    H2 2617   0.907   3.588   4.458
  871TIP3   OH2 2618   4.091   5.351   4.759
  871TIP3    H1 2619   4.018   5.344   4.697
  871TIP3    H2 2620   4.169   5.328   4.708
  872TIP3   OH2 2621   0.691   5.093   2.564
  872TIP3    H1 2622   0.765   5.058   2.515
  872TIP3    H2 2623   0.694   5.187   2.550
  873TIP3   OH2 2624   0.757   3.011   2.435
  873TIP3    H1 2625   0.732   2.938   2.380
  873TIP3    H2 2626   0.676   3.037   2.479
  874TIP3   OH2 2627   5.626   0.287   3.122
  874TIP3    H1 2628   5.668   0.362   3.081
  874TIP3    H2 2629   5.674   0.274   3.204
  875TIP3   OH2 2630   3.619   2.140   2.565
  875TIP3    H1 2631   3.689   2.113   2.625
  875TIP3    H2 2632   3.543   2.155   2.621
  876TIP3   OH2 2633   5.110   1.964   3.775
  876TIP3    H1 2634   5.045   1.916   3.826
  876TIP3    H2 2635   5.183   1.977   3.836
  877TIP3   OH2 2636   4.751   1.941   1.320
  877TIP3    H1 2637   4.820   1.901   1.268
  877TIP3    H2 2638   4.791   1.958   1.405
  878TIP3   OH2 2639   2.451   0.527   1.059
  878TIP3    H1 2640   2.540   0.558   1.040
  878TIP3    H2 2641   2.457   0.485   1.144
  879TIP3   OH2 2642   0.095   2.320   4.553
  879TIP3    H1 2643   0.125   2.259   4.621
  879TIP3    H2 2644   0.052   2.264   4.488
  880TIP3   OH2 2645   0.167   2.242   5.102
  880TIP3    H1 2646   0.084   2.193   5.102
  880TIP3    H2 2647   0.144   2.328   5.066
  881TIP3   OH2 2648   6.273   2.925   2.569
  881TIP3    H1 2649   6.220   2.912   2.490
  881TIP3    H2 2650   6.337   2.992   2.545
  882TIP3   OH2 2651   0.748   1.084   4.191
  882TIP3    H1 2652   0.804   1.019   4.233
  882TIP3    H2 2653   0.740   1.154   4.255
  883TIP3   OH2 2654   5.459   0.383   2.126
  883TIP3    H1 2655   5.442   0.339   2.209
  883TIP3    H2 2656   5.547   0.355   2.101
  884TIP3   OH2 2657   2.865   1.856   4.919
  884TIP3    H1 2658   2.862   1.783   4.980
  884TIP3    H2 2659   2.834   1.931   4.969
  885TIP3   OH2 2660   4.670   4.315   2.150
  885TIP3    H1 2661   4.627   4.327   2.234
  885TIP3    H2 2662   4.620   4.245   2.107
  886TIP3   OH2 2663   1.539   5.136   0.730
  886TIP3    H1 2664   1.471   5.199   0.753
  886TIP3    H2 2665   1.556   5.089   0.812
  887TIP3   OH2 2666   2.155   0.694   0.059
  887TIP3    H1 2667   2.098   0.647  -0.002
  887TIP3    H2 2668   2.153   0.785   0.028
  888TIP3   OH2 2669   4.910   1.285   4.152
  888TIP3    H1 2670   4.936   1.213   4.209
  888TIP3    H2 2671   4.991   1.333   4.135
  889TIP3   OH2 2672   5.921   4.463   3.368
  889TIP3    H1 2673   5.909   4.419   3.284
  889TIP3    H2 2674   5.953   4.550   3.344
  890TIP3   OH2 2675   5.522   4.823   4.502
  890TIP3    H1 2676   5.430   4.824   4.529
  890TIP3    H2 2677   5.539   4.912   4.471
  891TIP3   OH2 2678   6.328   0.103   0.550
  891TIP3    H1 2679   6.336   0.028   0.492
  891TIP3    H2 2680   6.345   0.179   0.493
  892TIP3   OH2 2681   0.993   2.644   3.072
  892TIP3    H1 2682   1.061   2.656   3.005
  892TIP3    H2 2683   1.031   2.680   3.152
  893TIP3   OH2 2684   5.267   2.750   2.537
  893TIP3    H1 2685   5.189   2.770   2.590
  893TIP3    H2 2686   5.248   2.665   2.497
  894TIP3   OH2 2687   3.887   1.142   0.863
  894TIP3    H1 2688   3.892   1.194   0.944
  894TIP3    H2 2689   3.796   1.150   0.835
  895TIP3   OH2 2690   3.299   4.138   1.663
  895TIP3    H1 2691   3.259   4.173   1.742
  895TIP3    H2 2692   3.308   4.044   1.679
  896TIP3   OH2 2693   4.336   0.003   4.513
  896TIP3    H1 2694   4.400   0.027   4.446
  896TIP3    H2 2695   4.361   0.054   4.590
  897TIP3   OH2 2696   0.562   5.108   1.397
  897TIP3    H1 2697   0.574   5.047   1.469
  897TIP3    H2 2698   0.524   5.186   1.437
  898TIP3   OH2 2699   5.644   1.625   4.014
  898TIP3    H1 2700   5.641   1.598   3.922
  898TIP3    H2 2701   5.621   1.546   4.062
  899TIP3   OH2 2702   5.691   5.281   4.084
  899TIP3    H1 2703   5.752   5.354   4.071
  899TIP3    H2 2704   5.709   5.222   4.010
  900TIP3   OH2 2705   2.964   4.340   0.582
  900TIP3    H1 2706   2.942   4.255   0.619
  900TIP3    H2 2707   3.042   4.368   0.630
  901TIP3   OH2 2708   2.124   0.648   4.605
  901TIP3    H1 2709   2.119   0.744   4.606
  901TIP3    H2 2710   2.162   0.626   4.521
  902TIP3   OH2 2711   1.093   5.930   2.886
  902TIP3    H1 2712   1.093   5.907   2.979
  902TIP3    H2 2713   1.063   6.021   2.884
  903TIP3   OH2 2714   2.409   4.275   3.841
  903TIP3    H1 2715   2.473   4.319   3.896
  903TIP3    H2 2716   2.423   4.312   3.754
  904TIP3   OH2 2717   6.085   1.171   3.854
  904TIP3    H1 2718   6.054   1.112   3.786
  904TIP3    H2 2719   6.032   1.150   3.931
  905TIP3   OH2 2720   3.880   3.049   4.769
  905TIP3    H1 2721   3.928   3.039   4.851
  905TIP3    H2 2722   3.788   3.048   4.795
  906TIP3   OH2 2723   5.270   5.692   2.730
  906TIP3    H1 2724   5.180   5.698   2.761
  906TIP3    H2 2725   5.316   5.761   2.778
  907TIP3   OH2 2726   1.233   4.314   0.535
  907TIP3    H1 2727   1.170   4.386   0.543
  907TIP3    H2 2728   1.209   4.271   0.453
  908TIP3   OH2 2729   0.393   0.722   3.345
  908TIP3    H1 2730   0.311   0.696   3.303
  908TIP3    H2 2731   0.450   0.646   3.335
  909TIP3   OH2 2732   6.059   2.765   2.743
  909TIP3    H1 2733   6.029   2.691   2.690
  909TIP3    H2 2734   6.135   2.798   2.695
  910TIP3   OH2 2735   3.110   3.291   2.820
  910TIP3    H1 2736   3.124   3.353   2.748
  910TIP3    H2 2737   3.054   3.338   2.881
  911TIP3   OH2 2738   5.354   5.034   4.128
  911TIP3    H1 2739   5.381   5.097   4.195
  911TIP3    H2 2740   5.259   5.026   4.140
  912TIP3   OH2 2741   0.075   5.005   1.761
  912TIP3    H1 2742   0.108   5.043   1.680
  912TIP3    H2 2743   0.149   4.953   1.795
  913TIP3   OH2 2744   6.250   2.358   2.263
  913TIP3    H1 2745   6.197   2.399   2.332
  913TIP3    H2 2746   6.329   2.328   2.309
  914TIP3   OH2 2747   3.128   4.102   0.101
  914TIP3    H1 2748   3.134   4.101   0.196
  914TIP3    H2 2749   3.158   4.016   0.073
  915TIP3   OH2 2750   4.335   0.193   0.645
  915TIP3    H1 2751   4.353   0.112   0.693
  915TIP3    H2 2752   4.414   0.246   0.657
  916TIP3   OH2 2753   2.787   4.127   1.116
  916TIP3    H1 2754   2.799   4.210   1.069
  916TIP3    H2 2755   2.702   4.137   1.160
  917TIP3   OH2 2756   4.114   2.617   1.105
  917TIP3    H1 2757   4.032   2.586   1.064
  917TIP3    H2 2758   4.157   2.536   1.134
  918TIP3   OH2 2759   3.673   2.538   1.804
  918TIP3    H1 2760   3.747   2.598   1.814
  918TIP3    H2 2761   3.633   2.565   1.721
  919TIP3   OH2 2762   4.101   0.416   2.592
  919TIP3    H1 2763   4.182   0.466   2.607
  919TIP3    H2 2764   4.099   0.353   2.664
  920TIP3   OH2 2765   1.012   4.719   1.406
  920TIP3    H1 2766   0.920   4.701   1.387
  920TIP3    H2 2767   1.036   4.790   1.346
  921TIP3   OH2 2768   2.416   5.143   2.273
  921TIP3    H1 2769   2.322   5.156   2.286
  921TIP3    H2 2770   2.443   5.086   2.345
  922TIP3   OH2 2771   0.528   4.365   1.577
  922TIP3    H1 2772   0.474   4.286   1.582
  922TIP3    H2 2773   0.584   4.351   1.501
  923TIP3   OH2 2774   4.737   2.386   2.539
  923TIP3    H1 2775   4.709   2.295   2.532
  923TIP3    H2 2776   4.802   2.386   2.609
  924TIP3   OH2 2777   2.508   4.264   4.437
  924TIP3    H1 2778   2.564   4.336   4.409
  924TIP3    H2 2779   2.537   4.243   4.525
  925TIP3   OH2 2780   2.617   5.525   0.754
  925TIP3    H1 2781   2.683   5.479   0.704
  925TIP3    H2 2782   2.615   5.480   0.839
  926TIP3   OH2 2783   0.851   3.212   1.632
  926TIP3    H1 2784   0.898   3.235   1.552
  926TIP3    H2 2785   0.884   3.272   1.698
  927TIP3   OH2 2786   3.330   0.212   4.100
  927TIP3    H1 2787   3.366   0.161   4.173
  927TIP3    H2 2788   3.250   0.166   4.075
  928TIP3   OH2 2789   1.084   2.313   4.341
  928TIP3    H1 2790   1.055   2.238   4.290
  928TIP3    H2 2791   1.127   2.276   4.418
  929TIP3   OH2 2792   6.201   5.737   1.010
  929TIP3    H1 2793   6.196   5.690   0.927
  929TIP3    H2 2794   6.294   5.747   1.027
  930TIP3   OH2 2795   0.428   3.079   4.167
  930TIP3    H1 2796   0.381   3.110   4.245
  930TIP3    H2 2797   0.410   3.144   4.100
  931TIP3   OH2 2798   1.303   4.657   2.029
  931TIP3    H1 2799   1.303   4.570   2.069
  931TIP3    H2 2800   1.384   4.659   1.978
  932TIP3   OH2 2801   3.700   4.971   4.861
  932TIP3    H1 2802   3.758   5.047   4.863
  932TIP3    H2 2803   3.623   5.000   4.812
  933TIP3   OH2 2804   3.711   5.164   0.388
  933TIP3    H1 2805   3.783   5.181   0.449
  933TIP3    H2 2806   3.743   5.092   0.333
  934TIP3   OH2 2807   4.783   3.069   4.381
  934TIP3    H1 2808   4.875   3.055   4.357
  934TIP3    H2 2809   4.763   3.158   4.351
  935TIP3   OH2 2810   4.113   1.460   4.320
  935TIP3    H1 2811   4.170   1.534   4.302
  935TIP3    H2 2812   4.041   1.470   4.258
  936TIP3   OH2 2813   0.522   0.657   4.429
  936TIP3    H1 2814   0.457   0.716   4.390
  936TIP3    H2 2815   0.605   0.684   4.391
  937TIP3   OH2 2816   2.316   2.532   2.018
  937TIP3    H1 2817   2.374   2.455   2.024
  937TIP3    H2 2818   2.258   2.512   1.945
  938TIP3   OH2 2819   4.736   4.993   0.446
  938TIP3    H1 2820   4.817   4.972   0.493
  938TIP3    H2 2821   4.764   5.006   0.355
  939TIP3   OH2 2822   5.907   4.480   1.628
  939TIP3    H1 2823   5.949   4.484   1.714
  939TIP3    H2 2824   5.921   4.566   1.590
  940TIP3   OH2 2825   0.160   2.328   2.399
  940TIP3    H1 2826   0.195   2.403   2.350
  940TIP3    H2 2827   0.231   2.264   2.398
  941TIP3   OH2 2828   3.905   2.236   0.997
  941TIP3    H1 2829   3.943   2.323   0.996
  941TIP3    H2 2830   3.854   2.232   1.078
  942TIP3   OH2 2831   0.288   3.845   0.938
  942TIP3    H1 2832   0.219   3.877   0.996
  942TIP3    H2 2833   0.340   3.786   0.993
  943TIP3   OH2 2834   4.407   2.110   2.244
  943TIP3    H1 2835   4.386   2.188   2.295
  943TIP3    H2 2836   4.363   2.038   2.290
  944TIP3   OH2 2837   6.283   2.416   1.331
  944TIP3    H1 2838   6.288   2.494   1.386
  944TIP3    H2 2839   6.366   2.370   1.348
  945TIP3   OH2 2840   3.245   2.256   1.408
  945TIP3    H1 2841   3.190   2.196   1.358
  945TIP3    H2 2842   3.236   2.340   1.363
  946TIP3   OH2 2843   5.777   1.964   0.094
  946TIP3    H1 2844   5.807   1.924   0.176
  946TIP3    H2 2845   5.787   2.058   0.109
  947TIP3   OH2 2846   2.845   3.330   2.591
  947TIP3    H1 2847   2.892   3.280   2.525
  947TIP3    H2 2848   2.821   3.266   2.658
  948TIP3   OH2 2849   4.702   2.089   3.261
  948TIP3    H1 2850   4.753   2.169   3.249
  948TIP3    H2 2851   4.759   2.031   3.313
  949TIP3   OH2 2852   0.826   4.078   2.161
  949TIP3    H1 2853   0.736   4.046   2.164
  949TIP3    H2 2854   0.879   3.999   2.153
  950TIP3   OH2 2855   1.165   3.392   0.209
  950TIP3    H1 2856   1.240   3.342   0.177
  950TIP3    H2 2857   1.171   3.386   0.305
  951TIP3   OH2 2858   2.604   4.392   1.803
  951TIP3    H1 2859   2.509   4.397   1.803
  951TIP3    H2 2860   2.624   4.302   1.775
  952TIP3   OH2 2861   1.907   1.937   3.972
  952TIP3    H1 2862   1.817   1.906   3.981
  952TIP3    H2 2863   1.899   2.026   3.939
  953TIP3   OH2 2864   5.826   4.477   1.307
  953TIP3    H1 2865   5.787   4.423   1.376
  953TIP3    H2 2866   5.767   4.466   1.232
  954TIP3   OH2 2867   2.302   4.579   1.402
  954TIP3    H1 2868   2.342   4.631   1.472
  954TIP3    H2 2869   2.370   4.574   1.334
  955TIP3   OH2 2870   5.957   0.118   4.883
  955TIP3    H1 2871   5.897   0.101   4.956
  955TIP3    H2 2872   5.998   0.202   4.905
  956TIP3   OH2 2873   2.585   5.723   3.048
  956TIP3    H1 2874   2.646   5.794   3.028
  956TIP3    H2 2875   2.509   5.767   3.086
  957TIP3   OH2 2876   5.300   3.282   2.397
  957TIP3    H1 2877   5.221   3.317   2.357
  957TIP3    H2 2878   5.289   3.187   2.392
  958TIP3   OH2 2879   0.030   1.029   0.340
  958TIP3    H1 2880   0.078   1.033   0.423
  958TIP3    H2 2881   0.069   1.098   0.286
  959TIP3   OH2 2882   2.824   2.004   4.249
  959TIP3    H1 2883   2.843   1.925   4.299
  959TIP3    H2 2884   2.898   2.014   4.190
  960TIP3   OH2 2885   0.222   1.993   3.076
  960TIP3    H1 2886   0.233   2.085   3.099
  960TIP3    H2 2887   0.131   1.986   3.045
  961TIP3   OH2 2888   3.223   4.493   4.995
  961TIP3    H1 2889   3.181   4.456   5.072
  961TIP3    H2 2890   3.270   4.570   5.028
  962TIP3   OH2 2891   5.310   3.158   3.667
  962TIP3    H1 2892   5.378   3.101   3.630
  962TIP3    H2 2893   5.228   3.125   3.629
  963TIP3   OH2 2894   0.224   5.888   4.131
  963TIP3    H1 2895   0.273   5.961   4.167
  963TIP3    H2 2896   0.133   5.918   4.129
  964TIP3   OH2 2897   0.174   5.925   3.156
  964TIP3    H1 2898   0.221   5.962   3.081
  964TIP3    H2 2899   0.225   5.952   3.232
  965TIP3   OH2 2900   2.356   1.044   3.581
  965TIP3    H1 2901   2.324   1.004   3.662
  965TIP3    H2 2902   2.360   1.138   3.600
  966TIP3   OH2 2903   0.297   5.011   0.946
  966TIP3    H1 2904   0.263   4.925   0.968
  966TIP3    H2 2905   0.339   5.042   1.026
  967TIP3   OH2 2906   4.845   2.045   1.961
  967TIP3    H1 2907   4.863   1.959   1.925
  967TIP3    H2 2908   4.792   2.028   2.039
  968TIP3   OH2 2909   0.908   5.463   4.116
  968TIP3    H1 2910   0.951   5.477   4.032
  968TIP3    H2 2911   0.915   5.547   4.161
  969TIP3   OH2 2912   4.492   5.339   1.327
  969TIP3    H1 2913   4.575   5.293   1.340
  969TIP3    H2 2914   4.495   5.368   1.235
  970TIP3   OH2 2915   0.180   3.966   4.495
  970TIP3    H1 2916   0.184   3.873   4.520
  970TIP3    H2 2917   0.240   3.973   4.420
  971TIP3   OH2 2918   5.958   0.188   3.045
  971TIP3    H1 2919   6.053   0.193   3.033
  971TIP3    H2 2920   5.944   0.109   3.098
  972TIP3   OH2 2921   3.107   5.688   0.793
  972TIP3    H1 2922   3.068   5.621   0.850
  972TIP3    H2 2923   3.095   5.654   0.704
  973TIP3   OH2 2924   0.950   2.531   4.996
  973TIP3    H1 2925   0.873   2.476   4.980
  973TIP3    H2 2926   1.024   2.471   4.990
  974TIP3   OH2 2927   1.602   4.641   4.698
  974TIP3    H1 2928   1.612   4.660   4.604
  974TIP3    H2 2929   1.558   4.556   4.701
  975TIP3   OH2 2930   5.162   3.771   0.883
  975TIP3    H1 2931   5.144   3.825   0.960
  975TIP3    H2 2932   5.146   3.681   0.912
  976TIP3   OH2 2933   3.649   0.850   4.295
  976TIP3    H1 2934   3.562   0.877   4.266
  976TIP3    H2 2935   3.679   0.922   4.350
  977TIP3   OH2 2936   2.594   1.508   1.874
  977TIP3    H1 2937   2.585   1.424   1.831
  977TIP3    H2 2938   2.505   1.541   1.883
  978TIP3   OH2 2939   6.342   3.102   3.714
  978TIP3    H1 2940   6.372   3.191   3.731
  978TIP3    H2 2941   6.312   3.070   3.800
  979TIP3   OH2 2942   3.296   1.083   3.592
  979TIP3    H1 2943   3.268   1.131   3.670
  979TIP3    H2 2944   3.215   1.068   3.543
  980TIP3   OH2 2945   2.959   1.666   1.130
  980TIP3    H1 2946   3.024   1.733   1.154
  980TIP3    H2 2947   2.889   1.715   1.088
  981TIP3   OH2 2948   1.194   3.333   1.943
  981TIP3    H1 2949   1.104   3.331   1.977
  981TIP3    H2 2950   1.191   3.277   1.865
  982TIP3   OH2 2951   4.767   2.485   5.102
  982TIP3    H1 2952   4.849   2.450   5.067
  982TIP3    H2 2953   4.705   2.478   5.029
  983TIP3   OH2 2954   0.474   0.054   3.246
  983TIP3    H1 2955   0.436   0.043   3.159
  983TIP3    H2 2956   0.525  -0.025   3.261
  984TIP3   OH2 2957   1.080   5.289   4.925
  984TIP3    H1 2958   1.002   5.269   4.873
  984TIP3    H2 2959   1.091   5.383   4.916
  985TIP3   OH2 2960   3.156   5.239   1.161
  985TIP3    H1 2961   3.212   5.315   1.180
  985TIP3    H2 2962   3.194   5.200   1.083
  986TIP3   OH2 2963   1.594   5.051   3.881
  986TIP3    H1 2964   1.636   5.111   3.820
  986TIP3    H2 2965   1.513   5.025   3.838
  987TIP3   OH2 2966   4.473   1.018   1.221
  987TIP3    H1 2967   4.411   1.084   1.252
  987TIP3    H2 2968   4.418   0.943   1.195
  988TIP3   OH2 2969   4.979   4.419   2.013
  988TIP3    H1 2970   5.065   4.446   1.981
  988TIP3    H2 2971   4.978   4.324   2.002
  989TIP3   OH2 2972   4.697   4.476   5.063
  989TIP3    H1 2973   4.683   4.517   4.978
  989TIP3    H2 2974   4.783   4.434   5.056
  990TIP3   OH2 2975   4.551   3.176   3.313
  990TIP3    H1 2976   4.460   3.169   3.339
  990TIP3    H2 2977   4.600   3.136   3.386
  991TIP3   OH2 2978   1.874   3.682   1.921
  991TIP3    H1 2979   1.796   3.638   1.885
  991TIP3    H2 2980   1.918   3.614   1.971
  992TIP3   OH2 2981   0.569   5.573   2.108
  992TIP3    H1 2982   0.643   5.621   2.144
  992TIP3    H2 2983   0.522   5.539   2.184
  993TIP3   OH2 2984   4.329   5.922   1.571
  993TIP3    H1 2985   4.293   5.851   1.518
  993TIP3    H2 2986   4.255   5.954   1.623
  994TIP3   OH2 2987   3.252   3.942   0.794
  994TIP3    H1 2988   3.198   3.864   0.783
  994TIP3    H2 2989   3.196   4.005   0.840
  995TIP3   OH2 2990   1.393   0.085   2.300
  995TIP3    H1 2991   1.417   0.081   2.393
  995TIP3    H2 2992   1.451   0.152   2.264
  996TIP3   OH2 2993   5.213   1.993   4.277
  996TIP3    H1 2994   5.274   1.964   4.208
  996TIP3    H2 2995   5.268   2.039   4.340
  997TIP3   OH2 2996   4.401   2.120   1.959
  997TIP3    H1 2997   4.389   2.130   2.053
  997TIP3    H2 2998   4.421   2.208   1.928
  998TIP3   OH2 2999   0.126   0.376   0.747
  998TIP3    H1 3000   0.175   0.321   0.686
  998TIP3    H2 3001   0.169   0.362   0.831
  999TIP3   OH2 3002   0.210   3.435   3.389
  999TIP3    H1 3003   0.256   3.431   3.305
  999TIP3    H2 3004   0.150   3.509   3.379
 1000TIP3   OH2 3005   0.110   3.369   4.888
 1000TIP3    H1 3006   0.189   3.422   4.881
 1000TIP3    H2 3007   0.067   3.378   4.803
 1001TIP3   OH2 3008   1.484   5.050   5.019
 1001TIP3    H1 3009   1.494   4.982   5.086
 1001TIP3    H2 3010   1.494   5.005   4.936
 1002TIP3   OH2 3011   3.881   2.529   0.238
 1002TIP3    H1 3012   3.847   2.560   0.154
 1002TIP3    H2 3013   3.865   2.602   0.298
 1003TIP3   OH2 3014   6.051   2.475   3.316
 1003TIP3    H1 3015   6.114   2.406   3.333
 1003TIP3    H2 3016   5.970   2.429   3.293
 1004TIP3   OH2 3017   3.966   4.194   0.477
 1004TIP3    H1 3018   4.041   4.252   0.459
 1004TIP3    H2 3019   4.003   4.123   0.529
 1005TIP3   OH2 3020   1.154   3.872   3.519
 1005TIP3    H1 3021   1.089   3.849   3.586
 1005TIP3    H2 3022   1.133   3.815   3.445
 1006TIP3   OH2 3023   6.203   0.191   3.313
 1006TIP3    H1 3024   6.201   0.154   3.225
 1006TIP3    H2 3025   6.114   0.177   3.346
 1007TIP3   OH2 3026   3.343   1.807   2.533
 1007TIP3    H1 3027   3.407   1.787   2.465
 1007TIP3    H2 3028   3.285   1.731   2.535
 1008TIP3   OH2 3029   2.642   4.529   3.027
 1008TIP3    H1 3030   2.636   4.461   2.960
 1008TIP3    H2 3031   2.552   4.558   3.041
 1009TIP3   OH2 3032   2.957   0.678   2.874
 1009TIP3    H1 3033   3.020   0.615   2.838
 1009TIP3    H2 3034   2.902   0.701   2.799
 1010TIP3   OH2 3035   3.740   2.827   1.821
 1010TIP3    H1 3036   3.674   2.893   1.801
 1010TIP3    H2 3037   3.765   2.791   1.736
 1011TIP3   OH2 3038   4.233   0.552   3.733
 1011TIP3    H1 3039   4.204   0.478   3.680
 1011TIP3    H2 3040   4.294   0.515   3.796
 1012TIP3   OH2 3041   4.946   4.582   2.485
 1012TIP3    H1 3042   4.857   4.618   2.487
 1012TIP3    H2 3043   4.943   4.516   2.415
 1013TIP3   OH2 3044   6.054   4.890   3.506
 1013TIP3    H1 3045   5.976   4.881   3.561
 1013TIP3    H2 3046   6.124   4.912   3.568
 1014TIP3   OH2 3047   4.259   1.318   3.910
 1014TIP3    H1 3048   4.281   1.391   3.853
 1014TIP3    H2 3049   4.323   1.321   3.981
 1015TIP3   OH2 3050   4.868   0.379   3.518
 1015TIP3    H1 3051   4.919   0.336   3.450
 1015TIP3    H2 3052   4.885   0.328   3.597
 1016TIP3   OH2 3053   1.374   3.459   2.910
 1016TIP3    H1 3054   1.355   3.369   2.936
 1016TIP3    H2 3055   1.429   3.450   2.832
 1017TIP3   OH2 3056   0.469   3.931   0.653
 1017TIP3    H1 3057   0.494   3.894   0.568
 1017TIP3    H2 3058   0.382   3.894   0.670
 1018TIP3   OH2 3059   5.545   5.730   3.606
 1018TIP3    H1 3060   5.545   5.748   3.700
 1018TIP3    H2 3061   5.463   5.683   3.591
 1019TIP3   OH2 3062   1.538   1.277   3.066
 1019TIP3    H1 3063   1.628   1.303   3.045
 1019TIP3    H2 3064   1.490   1.359   3.071
 1020TIP3   OH2 3065   2.290   2.649   2.534
 1020TIP3    H1 3066   2.301   2.671   2.441
 1020TIP3    H2 3067   2.349   2.709   2.579
 1021TIP3   OH2 3068   4.842   2.257   1.388
 1021TIP3    H1 3069   4.766   2.207   1.361
 1021TIP3    H2 3070   4.816   2.299   1.470
 1022TIP3   OH2 3071   4.291   3.404   3.976
 1022TIP3    H1 3072   4.307   3.495   3.952
 1022TIP3    H2 3073   4.196   3.395   3.975
 1023TIP3   OH2 3074   1.503   1.063   3.236
 1023TIP3    H1 3075   1.567   1.089   3.302
 1023TIP3    H2 3076   1.493   1.140   3.180
 1024TIP3   OH2 3077   4.613   2.329   4.361
 1024TIP3    H1 3078   4.689   2.362   4.408
 1024TIP3    H2 3079   4.600   2.391   4.289
 1025TIP3   OH2 3080   5.886   4.360   3.124
 1025TIP3    H1 3081   5.926   4.416   3.057
 1025TIP3    H2 3082   5.911   4.271   3.100
 1026TIP3   OH2 3083   2.981   0.557   1.520
 1026TIP3    H1 3084   2.911   0.516   1.572
 1026TIP3    H2 3085   2.938   0.580   1.437
 1027TIP3   OH2 3086   4.329   1.809   4.901
 1027TIP3    H1 3087   4.257   1.786   4.843
 1027TIP3    H2 3088   4.300   1.890   4.944
 1028TIP3   OH2 3089   1.127   0.976   3.118
 1028TIP3    H1 3090   1.052   0.927   3.084
 1028TIP3    H2 3091   1.158   1.027   3.044
 1029TIP3   OH2 3092   5.908   4.427   0.566
 1029TIP3    H1 3093   5.818   4.447   0.591
 1029TIP3    H2 3094   5.906   4.334   0.542
 1030TIP3   OH2 3095   0.497   3.297   1.084
 1030TIP3    H1 3096   0.503   3.215   1.034
 1030TIP3    H2 3097   0.405   3.323   1.076
 1031TIP3   OH2 3098   2.146   4.314   3.712
 1031TIP3    H1 3099   2.125   4.378   3.644
 1031TIP3    H2 3100   2.234   4.336   3.741
 1032TIP3   OH2 3101   1.073   3.797   5.148
 1032TIP3    H1 3102   1.002   3.857   5.170
 1032TIP3    H2 3103   1.152   3.849   5.154
 1033TIP3   OH2 3104   1.035   3.470   3.152
 1033TIP3    H1 3105   1.062   3.453   3.062
 1033TIP3    H2 3106   1.091   3.414   3.206
 1034TIP3   OH2 3107   4.925   4.571   0.631
 1034TIP3    H1 3108   4.870   4.502   0.592
 1034TIP3    H2 3109   4.943   4.540   0.720
 1035TIP3   OH2 3110   2.512   0.695   1.779
 1035TIP3    H1 3111   2.526   0.712   1.873
 1035TIP3    H2 3112   2.420   0.669   1.773
 1036TIP3   OH2 3113   2.203   0.208   4.027
 1036TIP3    H1 3114   2.197   0.136   4.090
 1036TIP3    H2 3115   2.292   0.200   3.991
 1037TIP3   OH2 3116   1.734   4.948   4.282
 1037TIP3    H1 3117   1.647   4.936   4.244
 1037TIP3    H2 3118   1.718   4.992   4.366
 1038TIP3   OH2 3119   5.881   4.264   4.924
 1038TIP3    H1 3120   5.964   4.297   4.887
 1038TIP3    H2 3121   5.895   4.170   4.935
 1039TIP3   OH2 3122   3.599   0.795   3.658
 1039TIP3    H1 3123   3.664   0.849   3.702
 1039TIP3    H2 3124   3.543   0.857   3.611
 1040TIP3   OH2 3125   6.177   4.040   1.587
 1040TIP3    H1 3126   6.085   4.028   1.611
 1040TIP3    H2 3127   6.196   4.130   1.613
 1041TIP3   OH2 3128   5.537   1.777   1.850
 1041TIP3    H1 3129   5.557   1.812   1.937
 1041TIP3    H2 3130   5.535   1.682   1.862
 1042TIP3   OH2 3131   0.149   2.086   3.584
 1042TIP3    H1 3132   0.174   2.027   3.513
 1042TIP3    H2 3133   0.093   2.032   3.640
 1043TIP3   OH2 3134   1.995   5.198   3.140
 1043TIP3    H1 3135   2.058   5.263   3.172
 1043TIP3    H2 3136   1.959   5.236   3.060
 1044TIP3   OH2 3137   4.906   5.828   1.891
 1044TIP3    H1 3138   4.844   5.833   1.818
 1044TIP3    H2 3139   4.991   5.841   1.850
 1045TIP3   OH2 3140   3.330   2.175   0.905
 1045TIP3    H1 3141   3.345   2.243   0.839
 1045TIP3    H2 3142   3.382   2.201   0.980
 1046TIP3   OH2 3143   0.289   2.067   4.665
 1046TIP3    H1 3144   0.218   2.072   4.729
 1046TIP3    H2 3145   0.271   1.986   4.616
 1047TIP3   OH2 3146   3.450   4.854   3.396
 1047TIP3    H1 3147   3.512   4.786   3.422
 1047TIP3    H2 3148   3.427   4.897   3.478
 1048TIP3   OH2 3149   3.731   3.377   0.213
 1048TIP3    H1 3150   3.739   3.301   0.155
 1048TIP3    H2 3151   3.639   3.402   0.207
 1049TIP3   OH2 3152   4.777   3.322   4.331
 1049TIP3    H1 3153   4.746   3.333   4.241
 1049TIP3    H2 3154   4.733   3.391   4.380
 1050TIP3   OH2 3155   1.601   5.234   4.135
 1050TIP3    H1 3156   1.644   5.287   4.202
 1050TIP3    H2 3157   1.545   5.295   4.088
 1051TIP3   OH2 3158   5.197   1.420   2.401
 1051TIP3    H1 3159   5.258   1.347   2.404
 1051TIP3    H2 3160   5.124   1.393   2.457
 1052TIP3   OH2 3161   5.016   3.298   4.200
 1052TIP3    H1 3162   5.054   3.378   4.236
 1052TIP3    H2 3163   4.939   3.281   4.254
 1053TIP3   OH2 3164   4.746   4.911   1.468
 1053TIP3    H1 3165   4.789   4.977   1.414
 1053TIP3    H2 3166   4.817   4.854   1.496
 1054TIP3   OH2 3167   0.756   0.680   4.268
 1054TIP3    H1 3168   0.798   0.629   4.199
 1054TIP3    H2 3169   0.799   0.766   4.264
 1055TIP3   OH2 3170   1.011   3.155   4.548
 1055TIP3    H1 3171   0.919   3.180   4.549
 1055TIP3    H2 3172   1.010   3.059   4.544
 1056TIP3   OH2 3173   3.619   3.707   5.111
 1056TIP3    H1 3174   3.707   3.738   5.131
 1056TIP3    H2 3175   3.568   3.786   5.094
 1057TIP3   OH2 3176   4.829   5.299   4.185
 1057TIP3    H1 3177   4.859   5.345   4.107
 1057TIP3    H2 3178   4.792   5.217   4.151
 1058TIP3   OH2 3179   1.143   5.095   1.915
 1058TIP3    H1 3180   1.079   5.024   1.908
 1058TIP3    H2 3181   1.228   5.050   1.922
 1059TIP3   OH2 3182   1.916   1.066   1.038
 1059TIP3    H1 3183   1.850   0.997   1.045
 1059TIP3    H2 3184   1.994   1.030   1.080
 1060TIP3   OH2 3185   0.273   1.003   1.026
 1060TIP3    H1 3186   0.318   0.962   1.100
 1060TIP3    H2 3187   0.324   0.976   0.950
 1061TIP3   OH2 3188   3.214   1.405   2.334
 1061TIP3    H1 3189   3.208   1.319   2.293
 1061TIP3    H2 3190   3.294   1.443   2.297
 1062TIP3   OH2 3191   0.258   3.620   2.884
 1062TIP3    H1 3192   0.318   3.582   2.820
 1062TIP3    H2 3193   0.310   3.685   2.930
 1063TIP3   OH2 3194   0.319   3.959   3.574
 1063TIP3    H1 3195   0.273   4.036   3.539
 1063TIP3    H2 3196   0.410   3.971   3.546
 1064TIP3   OH2 3197   0.072   0.764   2.719
 1064TIP3    H1 3198   0.149   0.712   2.740
 1064TIP3    H2 3199   0.066   0.761   2.623
 1065TIP3   OH2 3200   1.365   1.792   0.388
 1065TIP3    H1 3201   1.342   1.730   0.457
 1065TIP3    H2 3202   1.459   1.779   0.374
 1066TIP3   OH2 3203   5.219   4.381   2.193
 1066TIP3    H1 3204   5.249   4.427   2.115
 1066TIP3    H2 3205   5.269   4.418   2.265
 1067TIP3   OH2 3206   5.380   1.202   2.414
 1067TIP3    H1 3207   5.340   1.155   2.487
 1067TIP3    H2 3208   5.414   1.134   2.356
 1068TIP3   OH2 3209   0.491   0.044   1.043
 1068TIP3    H1 3210   0.570  -0.010   1.037
 1068TIP3    H2 3211   0.506   0.116   0.981
 1069TIP3   OH2 3212   3.191   5.231   2.746
 1069TIP3    H1 3213   3.233   5.240   2.660
 1069TIP3    H2 3214   3.234   5.297   2.800
 1070TIP3   OH2 3215   2.846   0.522   3.794
 1070TIP3    H1 3216   2.913   0.564   3.849
 1070TIP3    H2 3217   2.896   0.468   3.733
 1071TIP3   OH2 3218   3.684   5.852   1.648
 1071TIP3    H1 3219   3.751   5.859   1.581
 1071TIP3    H2 3220   3.731   5.866   1.731
 1072TIP3   OH2 3221   3.847   0.021   4.666
 1072TIP3    H1 3222   3.810   0.050   4.583
 1072TIP3    H2 3223   3.792  -0.051   4.694
 1073TIP3   OH2 3224   4.141   3.671   4.340
 1073TIP3    H1 3225   4.136   3.733   4.413
 1073TIP3    H2 3226   4.201   3.712   4.278
 1074TIP3   OH2 3227   2.803   5.463   2.130
 1074TIP3    H1 3228   2.850   5.431   2.207
 1074TIP3    H2 3229   2.765   5.385   2.091
 1075TIP3   OH2 3230   5.158   4.794   5.085
 1075TIP3    H1 3231   5.172   4.862   5.150
 1075TIP3    H2 3232   5.083   4.744   5.119
 1076TIP3   OH2 3233   4.332   5.889   3.611
 1076TIP3    H1 3234   4.319   5.889   3.517
 1076TIP3    H2 3235   4.254   5.845   3.646
 1077TIP3   OH2 3236   1.102   5.745   3.674
 1077TIP3    H1 3237   1.151   5.781   3.748
 1077TIP3    H2 3238   1.078   5.821   3.621
 1078TIP3   OH2 3239   1.139   0.644   5.042
 1078TIP3    H1 3240   1.102   0.700   4.974
 1078TIP3    H2 3241   1.185   0.575   4.995
 1079TIP3   OH2 3242   2.129   5.663   5.138
 1079TIP3    H1 3243   2.128   5.694   5.048
 1079TIP3    H2 3244   2.044   5.690   5.173
 1080TIP3   OH2 3245   3.883   2.149   2.925
 1080TIP3    H1 3246   3.810   2.202   2.891
 1080TIP3    H2 3247   3.894   2.080   2.860
 1081TIP3   OH2 3248   6.317   2.873   1.881
 1081TIP3    H1 3249   6.254   2.911   1.820
 1081TIP3    H2 3250   6.391   2.933   1.880
 1082TIP3   OH2 3251   4.492   1.927   0.090
 1082TIP3    H1 3252   4.471   1.846   0.135
 1082TIP3    H2 3253   4.571   1.908   0.040
 1083TIP3   OH2 3254   5.378   4.865   3.662
 1083TIP3    H1 3255   5.396   4.792   3.604
 1083TIP3    H2 3256   5.465   4.892   3.693
 1084TIP3   OH2 3257   5.095   3.149   4.760
 1084TIP3    H1 3258   5.021   3.187   4.807
 1084TIP3    H2 3259   5.134   3.088   4.824
 1085TIP3   OH2 3260   2.576   4.649   2.494
 1085TIP3    H1 3261   2.639   4.631   2.564
 1085TIP3    H2 3262   2.491   4.640   2.536
 1086TIP3   OH2 3263   4.310   2.208   3.472
 1086TIP3    H1 3264   4.215   2.207   3.481
 1086TIP3    H2 3265   4.325   2.213   3.377
 1087TIP3   OH2 3266   2.486   1.408   5.049
 1087TIP3    H1 3267   2.567   1.372   5.012
 1087TIP3    H2 3268   2.425   1.410   4.975
 1088TIP3   OH2 3269   1.780   3.400   4.826
 1088TIP3    H1 3270   1.834   3.348   4.767
 1088TIP3    H2 3271   1.814   3.380   4.913
 1089TIP3   OH2 3272   2.960   4.254   3.504
 1089TIP3    H1 3273   2.919   4.183   3.553
 1089TIP3    H2 3274   2.984   4.318   3.571
 1090TIP3   OH2 3275   1.790   3.789   3.983
 1090TIP3    H1 3276   1.761   3.813   4.072
 1090TIP3    H2 3277   1.709   3.773   3.936
 1091TIP3   OH2 3278   2.955   3.059   3.570
 1091TIP3    H1 3279   2.942   2.975   3.614
 1091TIP3    H2 3280   2.983   3.036   3.481
 1092TIP3   OH2 3281   5.341   1.391   4.346
 1092TIP3    H1 3282   5.305   1.438   4.420
 1092TIP3    H2 3283   5.303   1.434   4.269
 1093TIP3   OH2 3284   5.118   1.706   0.966
 1093TIP3    H1 3285   5.106   1.801   0.966
 1093TIP3    H2 3286   5.180   1.690   1.037
 1094TIP3   OH2 3287   2.035   1.100   3.306
 1094TIP3    H1 3288   2.023   1.121   3.398
 1094TIP3    H2 3289   2.129   1.106   3.291
 1095TIP3   OH2 3290   1.701   4.566   3.307
 1095TIP3    H1 3291   1.698   4.648   3.258
 1095TIP3    H2 3292   1.639   4.578   3.379
 1096TIP3   OH2 3293   3.143   1.289   4.408
 1096TIP3    H1 3294   3.193   1.249   4.479
 1096TIP3    H2 3295   3.130   1.217   4.346
 1097TIP3   OH2 3296   2.605   5.734   1.655
 1097TIP3    H1 3297   2.545   5.697   1.590
 1097TIP3    H2 3298   2.600   5.675   1.730
 1098TIP3   OH2 3299   3.087   0.273   4.957
 1098TIP3    H1 3300   3.072   0.304   5.047
 1098TIP3    H2 3301   3.000   0.271   4.917
 1099TIP3   OH2 3302   0.473   1.971   5.103
 1099TIP3    H1 3303   0.384   1.940   5.119
 1099TIP3    H2 3304   0.464   2.038   5.035
 1100TIP3   OH2 3305   5.505   4.538   0.874
 1100TIP3    H1 3306   5.594   4.567   0.893
 1100TIP3    H2 3307   5.460   4.541   0.958
 1101TIP3   OH2 3308   2.870   4.330   1.485
 1101TIP3    H1 3309   2.862   4.320   1.580
 1101TIP3    H2 3310   2.881   4.424   1.471
 1102TIP3   OH2 3311   3.268   0.846   0.370
 1102TIP3    H1 3312   3.179   0.832   0.402
 1102TIP3    H2 3313   3.257   0.864   0.276
 1103TIP3   OH2 3314   1.951   3.056   0.237
 1103TIP3    H1 3315   1.938   2.963   0.220
 1103TIP3    H2 3316   1.867   3.096   0.214
 1104TIP3   OH2 3317   0.175   0.917   3.444
 1104TIP3    H1 3318   0.219   0.939   3.526
 1104TIP3    H2 3319   0.244   0.877   3.390
 1105TIP3   OH2 3320   5.630   1.159   3.892
 1105TIP3    H1 3321   5.576   1.082   3.909
 1105TIP3    H2 3322   5.623   1.173   3.798
 1106TIP3   OH2 3323   4.545   4.154   0.395
 1106TIP3    H1 3324   4.547   4.104   0.313
 1106TIP3    H2 3325   4.594   4.101   0.457
 1107TIP3   OH2 3326   6.342   1.488   4.092
 1107TIP3    H1 3327   6.379   1.575   4.075
 1107TIP3    H2 3328   6.285   1.500   4.167
 1108TIP3   OH2 3329   6.214   3.225   1.802
 1108TIP3    H1 3330   6.129   3.268   1.799
 1108TIP3    H2 3331   6.204   3.148   1.745
 1109TIP3   OH2 3332   2.944   1.580   3.430
 1109TIP3    H1 3333   2.849   1.569   3.436
 1109TIP3    H2 3334   2.962   1.659   3.482
 1110TIP3   OH2 3335   3.784   2.548   0.757
 1110TIP3    H1 3336   3.876   2.545   0.732
 1110TIP3    H2 3337   3.764   2.641   0.761
 1111TIP3   OH2 3338   5.441   0.998   5.175
 1111TIP3    H1 3339   5.392   1.004   5.093
 1111TIP3    H2 3340   5.385   0.945   5.233
 1112TIP3   OH2 3341   1.632   3.175   1.705
 1112TIP3    H1 3342   1.675   3.180   1.790
 1112TIP3    H2 3343   1.609   3.083   1.695
 1113TIP3   OH2 3344   6.018   1.297   4.456
 1113TIP3    H1 3345   5.949   1.262   4.399
 1113TIP3    H2 3346   6.006   1.251   4.539
 1114TIP3   OH2 3347   1.112   3.009   3.513
 1114TIP3    H1 3348   1.031   3.059   3.520
 1114TIP3    H2 3349   1.181   3.075   3.523
 1115TIP3   OH2 3350   1.465   0.623   1.879
 1115TIP3    H1 3351   1.519   0.650   1.953
 1115TIP3    H2 3352   1.452   0.529   1.892
 1116TIP3   OH2 3353   3.944   0.941   2.092
 1116TIP3    H1 3354   3.870   0.884   2.070
 1116TIP3    H2 3355   4.021   0.893   2.061
 1117TIP3   OH2 3356   0.036   3.360   2.424
 1117TIP3    H1 3357   0.012   3.269   2.406
 1117TIP3    H2 3358  -0.039   3.411   2.393
 1118TIP3   OH2 3359   0.580   3.834   3.802
 1118TIP3    H1 3360   0.548   3.771   3.736
 1118TIP3    H2 3361   0.513   3.902   3.804
 1119TIP3   OH2 3362   2.225   3.221   2.134
 1119TIP3    H1 3363   2.214   3.225   2.229
 1119TIP3    H2 3364   2.186   3.137   2.109
 1120TIP3   OH2 3365   5.057   4.058   4.676
 1120TIP3    H1 3366   5.079   4.112   4.752
 1120TIP3    H2 3367   5.120   4.085   4.609
 1121TIP3   OH2 3368   0.078   1.652   0.008
 1121TIP3    H1 3369   0.106   1.724   0.065
 1121TIP3    H2 3370   0.106   1.573   0.053
 1122TIP3   OH2 3371   1.297   3.785   3.126
 1122TIP3    H1 3372   1.223   3.846   3.130
 1122TIP3    H2 3373   1.264   3.706   3.167
 1123TIP3   OH2 3374   5.847   3.472   4.456
 1123TIP3    H1 3375   5.781   3.465   4.387
 1123TIP3    H2 3376   5.929   3.483   4.408
 1124TIP3   OH2 3377   0.871   1.433   0.740
 1124TIP3    H1 3378   0.932   1.379   0.790
 1124TIP3    H2 3379   0.900   1.523   0.757
 1125TIP3   OH2 3380   4.670   1.118   4.474
 1125TIP3    H1 3381   4.755   1.075   4.485
 1125TIP3    H2 3382   4.690   1.198   4.426
 1126TIP3   OH2 3383   0.553   1.649   3.519
 1126TIP3    H1 3384   0.570   1.561   3.553
 1126TIP3    H2 3385   0.640   1.689   3.512
 1127TIP3   OH2 3386   4.728   3.472   3.288
 1127TIP3    H1 3387   4.681   3.390   3.272
 1127TIP3    H2 3388   4.691   3.534   3.225
 1128TIP3   OH2 3389   3.465   5.253   4.110
 1128TIP3    H1 3390   3.461   5.270   4.016
 1128TIP3    H2 3391   3.379   5.280   4.143
 1129TIP3   OH2 3392   3.325   0.051   0.064
 1129TIP3    H1 3393   3.385   0.013  -0.001
 1129TIP3    H2 3394   3.379   0.112   0.114
 1130TIP3   OH2 3395   0.378   5.457   4.953
 1130TIP3    H1 3396   0.456   5.426   4.908
 1130TIP3    H2 3397   0.305   5.414   4.909
 1131TIP3   OH2 3398   5.451   5.474   4.987
 1131TIP3    H1 3399   5.511   5.548   4.976
 1131TIP3    H2 3400   5.455   5.452   5.080
 1132TIP3   OH2 3401   3.301   1.394   1.935
 1132TIP3    H1 3402   3.366   1.452   1.973
 1132TIP3    H2 3403   3.341   1.307   1.939
 1133TIP3   OH2 3404   5.346   4.994   1.802
 1133TIP3    H1 3405   5.424   5.037   1.766
 1133TIP3    H2 3406   5.279   5.007   1.735
 1134TIP3   OH2 3407   2.688   1.808   2.046
 1134TIP3    H1 3408   2.750   1.735   2.043
 1134TIP3    H2 3409   2.735   1.882   2.007
 1135TIP3   OH2 3410   3.259   1.556   1.405
 1135TIP3    H1 3411   3.170   1.545   1.438
 1135TIP3    H2 3412   3.252   1.543   1.311
 1136TIP3   OH2 3413   1.852   4.968   1.457
 1136TIP3    H1 3414   1.860   4.961   1.552
 1136TIP3    H2 3415   1.768   4.928   1.436
 1137TIP3   OH2 3416   2.303   2.079   0.077
 1137TIP3    H1 3417   2.315   2.057  -0.015
 1137TIP3    H2 3418   2.302   2.175   0.078
 1138TIP3   OH2 3419   1.796   1.350   4.913
 1138TIP3    H1 3420   1.717   1.325   4.866
 1138TIP3    H2 3421   1.776   1.331   5.005
 1139TIP3   OH2 3422   4.038   5.763   2.233
 1139TIP3    H1 3423   4.104   5.695   2.250
 1139TIP3    H2 3424   4.086   5.845   2.242
 1140TIP3   OH2 3425   2.261   1.441   3.896
 1140TIP3    H1 3426   2.263   1.485   3.981
 1140TIP3    H2 3427   2.173   1.404   3.891
 1141TIP3   OH2 3428   5.603   0.158   3.938
 1141TIP3    H1 3429   5.648   0.232   3.979
 1141TIP3    H2 3430   5.663   0.127   3.871
 1142TIP3   OH2 3431   4.479   5.743   1.417
 1142TIP3    H1 3432   4.467   5.661   1.465
 1142TIP3    H2 3433   4.530   5.719   1.341
 1143TIP3   OH2 3434   5.047   5.783   2.846
 1143TIP3    H1 3435   4.979   5.715   2.845
 1143TIP3    H2 3436   5.023   5.841   2.773
 1144TIP3   OH2 3437   3.781   5.407   2.795
 1144TIP3    H1 3438   3.758   5.380   2.884
 1144TIP3    H2 3439   3.810   5.326   2.752
 1145TIP3   OH2 3440   5.373   4.733   0.728
 1145TIP3    H1 3441   5.401   4.824   0.720
 1145TIP3    H2 3442   5.447   4.689   0.770
 1146TIP3   OH2 3443   0.658   4.868   4.807
 1146TIP3    H1 3444   0.566   4.891   4.798
 1146TIP3    H2 3445   0.660   4.801   4.875
 1147TIP3   OH2 3446   4.167   2.337   4.727
 1147TIP3    H1 3447   4.179   2.424   4.763
 1147TIP3    H2 3448   4.236   2.284   4.769
 1148TIP3   OH2 3449   0.588   1.624   4.181
 1148TIP3    H1 3450   0.668   1.572   4.170
 1148TIP3    H2 3451   0.589   1.684   4.106
 1149TIP3   OH2 3452   1.543   0.069   0.319
 1149TIP3    H1 3453   1.596  -0.010   0.313
 1149TIP3    H2 3454   1.579   0.117   0.393
 1150TIP3   OH2 3455   3.048   2.813   4.788
 1150TIP3    H1 3456   2.972   2.870   4.776
 1150TIP3    H2 3457   3.059   2.768   4.705
 1151TIP3   OH2 3458   2.177   2.125   1.825
 1151TIP3    H1 3459   2.269   2.102   1.810
 1151TIP3    H2 3460   2.136   2.043   1.854
 1152TIP3   OH2 3461   2.050   5.529   3.917
 1152TIP3    H1 3462   2.071   5.455   3.973
 1152TIP3    H2 3463   2.120   5.530   3.851
 1153TIP3   OH2 3464   5.787   3.021   3.572
 1153TIP3    H1 3465   5.695   3.015   3.548
 1153TIP3    H2 3466   5.833   2.982   3.497
 1154TIP3   OH2 3467   2.097   3.987   2.729
 1154TIP3    H1 3468   2.169   3.925   2.745
 1154TIP3    H2 3469   2.054   3.954   2.650
 1155TIP3   OH2 3470   4.819   4.073   0.942
 1155TIP3    H1 3471   4.732   4.106   0.917
 1155TIP3    H2 3472   4.819   4.077   1.037
 1156TIP3   OH2 3473   1.634   5.647   4.423
 1156TIP3    H1 3474   1.710   5.702   4.405
 1156TIP3    H2 3475   1.614   5.664   4.515
 1157TIP3   OH2 3476   1.712   0.708   2.320
 1157TIP3    H1 3477   1.741   0.794   2.350
 1157TIP3    H2 3478   1.693   0.660   2.401
 1158TIP3   OH2 3479   3.461   1.129   2.479
 1158TIP3    H1 3480   3.411   1.170   2.549
 1158TIP3    H2 3481   3.538   1.186   2.468
 1159TIP3   OH2 3482   0.048   1.227   2.218
 1159TIP3    H1 3483   0.116   1.222   2.151
 1159TIP3    H2 3484   0.020   1.137   2.231
 1160TIP3   OH2 3485   3.674   3.427   2.918
 1160TIP3    H1 3486   3.593   3.380   2.895
 1160TIP3    H2 3487   3.664   3.513   2.876
 1161TIP3   OH2 3488   5.618   3.337   4.662
 1161TIP3    H1 3489   5.652   3.361   4.575
 1161TIP3    H2 3490   5.556   3.267   4.644
 1162TIP3   OH2 3491   4.338   3.650   1.697
 1162TIP3    H1 3492   4.365   3.711   1.628
 1162TIP3    H2 3493   4.408   3.658   1.763
 1163TIP3   OH2 3494   3.764   2.148   1.224
 1163TIP3    H1 3495   3.705   2.112   1.291
 1163TIP3    H2 3496   3.775   2.076   1.161
 1164TIP3   OH2 3497   0.223   3.819   0.666
 1164TIP3    H1 3498   0.143   3.860   0.634
 1164TIP3    H2 3499   0.217   3.825   0.761
 1165TIP3   OH2 3500   4.878   2.739   1.691
 1165TIP3    H1 3501   4.899   2.823   1.731
 1165TIP3    H2 3502   4.926   2.675   1.743
 1166TIP3   OH2 3503   5.259   4.812   3.908
 1166TIP3    H1 3504   5.305   4.831   3.826
 1166TIP3    H2 3505   5.301   4.867   3.973
 1167TIP3   OH2 3506   2.379   4.910   3.311
 1167TIP3    H1 3507   2.399   4.961   3.389
 1167TIP3    H2 3508   2.464   4.893   3.271
 1168TIP3   OH2 3509   5.771   1.184   0.044
 1168TIP3    H1 3510   5.711   1.124   0.000
 1168TIP3    H2 3511   5.751   1.174   0.137
 1169TIP3   OH2 3512   6.261   0.168   2.748
 1169TIP3    H1 3513   6.330   0.205   2.803
 1169TIP3    H2 3514   6.250   0.232   2.677
 1170TIP3   OH2 3515   2.262   5.808   1.722
 1170TIP3    H1 3516   2.255   5.767   1.636
 1170TIP3    H2 3517   2.274   5.736   1.783
 1171TIP3   OH2 3518   2.204   4.651   3.863
 1171TIP3    H1 3519   2.257   4.709   3.918
 1171TIP3    H2 3520   2.174   4.582   3.922
 1172TIP3   OH2 3521   2.266   3.522   2.442
 1172TIP3    H1 3522   2.284   3.438   2.397
 1172TIP3    H2 3523   2.246   3.497   2.532
 1173TIP3   OH2 3524   1.009   4.026   1.535
 1173TIP3    H1 3525   1.049   4.029   1.448
 1173TIP3    H2 3526   1.079   4.055   1.595
 1174TIP3   OH2 3527   5.852   5.733   1.237
 1174TIP3    H1 3528   5.869   5.707   1.328
 1174TIP3    H2 3529   5.851   5.829   1.239
 1175TIP3   OH2 3530   5.612   2.629   1.407
 1175TIP3    H1 3531   5.548   2.700   1.407
 1175TIP3    H2 3532   5.681   2.659   1.348
 1176TIP3   OH2 3533   0.547   2.403   4.795
 1176TIP3    H1 3534   0.560   2.324   4.743
 1176TIP3    H2 3535   0.514   2.467   4.732
 1177TIP3   OH2 3536   5.712   4.933   2.208
 1177TIP3    H1 3537   5.660   4.853   2.199
 1177TIP3    H2 3538   5.708   4.954   2.301
 1178TIP3   OH2 3539   4.121   4.932   2.857
 1178TIP3    H1 3540   4.064   4.979   2.918
 1178TIP3    H2 3541   4.066   4.861   2.824
 1179TIP3   OH2 3542   0.577   5.508   4.455
 1179TIP3    H1 3543   0.574   5.498   4.360
 1179TIP3    H2 3544   0.486   5.493   4.483
 1180TIP3   OH2 3545   3.587   2.870   3.346
 1180TIP3    H1 3546   3.666   2.918   3.320
 1180TIP3    H2 3547   3.545   2.926   3.410
 1181TIP3   OH2 3548   0.688   3.610   0.493
 1181TIP3    H1 3549   0.706   3.521   0.521
 1181TIP3    H2 3550   0.739   3.665   0.553
 1182TIP3   OH2 3551   0.197   3.026   0.452
 1182TIP3    H1 3552   0.122   3.046   0.395
 1182TIP3    H2 3553   0.199   2.930   0.455
 1183TIP3   OH2 3554   2.918   1.309   0.526
 1183TIP3    H1 3555   2.927   1.288   0.619
 1183TIP3    H2 3556   2.825   1.302   0.508
 1184TIP3   OH2 3557   4.732   2.644   2.445
 1184TIP3    H1 3558   4.726   2.556   2.484
 1184TIP3    H2 3559   4.654   2.650   2.389
 1185TIP3   OH2 3560   2.042   4.249   1.594
 1185TIP3    H1 3561   1.985   4.286   1.661
 1185TIP3    H2 3562   2.012   4.289   1.512
 1186TIP3   OH2 3563   2.106   4.698   2.845
 1186TIP3    H1 3564   2.129   4.780   2.888
 1186TIP3    H2 3565   2.040   4.659   2.903
 1187TIP3   OH2 3566   2.235   4.326   0.062
 1187TIP3    H1 3567   2.219   4.247   0.009
 1187TIP3    H2 3568   2.315   4.307   0.110
 1188TIP3   OH2 3569   4.871   1.353   0.958
 1188TIP3    H1 3570   4.962   1.369   0.981
 1188TIP3    H2 3571   4.853   1.413   0.886
 1189TIP3   OH2 3572   3.973   5.706   4.928
 1189TIP3    H1 3573   3.878   5.714   4.931
 1189TIP3    H2 3574   3.991   5.621   4.969
 1190TIP3   OH2 3575   0.484   0.330   1.636
 1190TIP3    H1 3576   0.419   0.381   1.684
 1190TIP3    H2 3577   0.563   0.384   1.637
 1191TIP3   OH2 3578   3.290   4.619   1.760
 1191TIP3    H1 3579   3.249   4.543   1.721
 1191TIP3    H2 3580   3.232   4.692   1.737
 1192TIP3   OH2 3581   5.498   4.507   5.048
 1192TIP3    H1 3582   5.581   4.465   5.069
 1192TIP3    H2 3583   5.446   4.498   5.128
 1193TIP3   OH2 3584   2.144   3.801   4.367
 1193TIP3    H1 3585   2.102   3.716   4.350
 1193TIP3    H2 3586   2.073   3.856   4.400
 1194TIP3   OH2 3587   1.314   1.403   2.009
 1194TIP3    H1 3588   1.257   1.412   1.933
 1194TIP3    H2 3589   1.378   1.474   1.999
 1195TIP3   OH2 3590   2.481   5.179   0.113
 1195TIP3    H1 3591   2.554   5.149   0.059
 1195TIP3    H2 3592   2.410   5.194   0.051
 1196TIP3   OH2 3593   4.036   3.477   4.006
 1196TIP3    H1 3594   4.035   3.572   4.018
 1196TIP3    H2 3595   3.961   3.459   3.950
 1197TIP3   OH2 3596   3.840   4.301   0.921
 1197TIP3    H1 3597   3.853   4.206   0.923
 1197TIP3    H2 3598   3.898   4.332   0.852
 1198TIP3   OH2 3599   5.511   4.216   4.527
 1198TIP3    H1 3600   5.557   4.225   4.611
 1198TIP3    H2 3601   5.566   4.263   4.465
 1199TIP3   OH2 3602   5.452   0.179   0.422
 1199TIP3    H1 3603   5.390   0.197   0.493
 1199TIP3    H2 3604   5.411   0.108   0.372
 1200TIP3   OH2 3605   3.709   4.189   0.333
 1200TIP3    H1 3606   3.783   4.211   0.390
 1200TIP3    H2 3607   3.734   4.106   0.292
 1201TIP3   OH2 3608   5.200   4.383   0.990
 1201TIP3    H1 3609   5.118   4.400   0.944
 1201TIP3    H2 3610   5.173   4.353   1.077
 1202TIP3   OH2 3611   6.323   1.405   1.083
 1202TIP3    H1 3612   6.239   1.362   1.101
 1202TIP3    H2 3613   6.304   1.498   1.090
 1203TIP3   OH2 3614   4.683   1.267   4.770
 1203TIP3    H1 3615   4.740   1.209   4.720
 1203TIP3    H2 3616   4.682   1.230   4.858
 1204TIP3   OH2 3617   5.920   3.612   2.175
 1204TIP3    H1 3618   5.937   3.665   2.097
 1204TIP3    H2 3619   5.876   3.672   2.235
 1205TIP3   OH2 3620   4.350   5.641   1.090
 1205TIP3    H1 3621   4.379   5.610   1.004
 1205TIP3    H2 3622   4.428   5.637   1.145
 1206TIP3   OH2 3623   5.180   0.491   2.079
 1206TIP3    H1 3624   5.186   0.425   2.010
 1206TIP3    H2 3625   5.255   0.474   2.136
 1207TIP3   OH2 3626   2.743   1.276   3.357
 1207TIP3    H1 3627   2.684   1.255   3.285
 1207TIP3    H2 3628   2.783   1.192   3.380
 1208TIP3   OH2 3629   4.671   3.606   0.750
 1208TIP3    H1 3630   4.619   3.623   0.829
 1208TIP3    H2 3631   4.732   3.680   0.746
 1209TIP3   OH2 3632   1.699   0.215   1.488
 1209TIP3    H1 3633   1.759   0.237   1.560
 1209TIP3    H2 3634   1.630   0.282   1.493
 1210TIP3   OH2 3635   1.242   0.637   2.115
 1210TIP3    H1 3636   1.272   0.639   2.206
 1210TIP3    H2 3637   1.286   0.561   2.077
 1211TIP3   OH2 3638   5.612  -0.021   3.177
 1211TIP3    H1 3639   5.603   0.069   3.146
 1211TIP3    H2 3640   5.562  -0.023   3.258
 1212TIP3   OH2 3641   1.728   0.867   0.874
 1212TIP3    H1 3642   1.757   0.776   0.875
 1212TIP3    H2 3643   1.766   0.903   0.794
 1213TIP3   OH2 3644   4.460   4.551   3.794
 1213TIP3    H1 3645   4.452   4.646   3.787
 1213TIP3    H2 3646   4.470   4.521   3.704
 1214TIP3   OH2 3647   3.296   5.846   4.510
 1214TIP3    H1 3648   3.280   5.799   4.592
 1214TIP3    H2 3649   3.385   5.880   4.519
 1215TIP3   OH2 3650   2.541   5.719   4.291
 1215TIP3    H1 3651   2.587   5.681   4.367
 1215TIP3    H2 3652   2.493   5.645   4.253
 1216TIP3   OH2 3653   1.287   0.609   1.249
 1216TIP3    H1 3654   1.336   0.645   1.323
 1216TIP3    H2 3655   1.210   0.568   1.288
 1217TIP3   OH2 3656   3.068   0.127   4.245
 1217TIP3    H1 3657   3.123   0.086   4.313
 1217TIP3    H2 3658   3.059   0.060   4.178
 1218TIP3   OH2 3659   0.118   0.192   1.284
 1218TIP3    H1 3660   0.173   0.142   1.224
 1218TIP3    H2 3661   0.141   0.159   1.371
 1219TIP3   OH2 3662   0.066   3.877   1.816
 1219TIP3    H1 3663   0.038   3.960   1.854
 1219TIP3    H2 3664   0.081   3.820   1.892
 1220TIP3   OH2 3665   0.135   4.276   0.699
 1220TIP3    H1 3666   0.200   4.209   0.679
 1220TIP3    H2 3667   0.160   4.350   0.644
 1221TIP3   OH2 3668   3.022   0.531   4.570
 1221TIP3    H1 3669   3.017   0.435   4.572
 1221TIP3    H2 3670   2.996   0.558   4.658
 1222TIP3   OH2 3671   4.833   3.419  -0.002
 1222TIP3    H1 3672   4.769   3.380  -0.061
 1222TIP3    H2 3673   4.800   3.399   0.086
 1223TIP3   OH2 3674   2.530   0.568   3.661
 1223TIP3    H1 3675   2.603   0.603   3.610
 1223TIP3    H2 3676   2.526   0.623   3.739
 1224TIP3   OH2 3677   3.148   5.588   2.455
 1224TIP3    H1 3678   3.174   5.617   2.543
 1224TIP3    H2 3679   3.089   5.514   2.471
 1225TIP3   OH2 3680   3.614   5.165   1.022
 1225TIP3    H1 3681   3.644   5.158   1.112
 1225TIP3    H2 3682   3.520   5.183   1.029
 1226TIP3   OH2 3683   3.376   0.822   4.242
 1226TIP3    H1 3684   3.314   0.883   4.281
 1226TIP3    H2 3685   3.334   0.736   4.248
 1227TIP3   OH2 3686   5.214   5.364   1.591
 1227TIP3    H1 3687   5.164   5.446   1.598
 1227TIP3    H2 3688   5.286   5.376   1.652
 1228TIP3   OH2 3689   1.991   4.340   2.686
 1228TIP3    H1 3690   1.999   4.332   2.591
 1228TIP3    H2 3691   1.900   4.318   2.704
 1229TIP3   OH2 3692   1.766   3.041   0.927
 1229TIP3    H1 3693   1.835   2.976   0.912
 1229TIP3    H2 3694   1.796   3.091   1.003
 1230TIP3   OH2 3695   5.759   1.342   2.629
 1230TIP3    H1 3696   5.844   1.373   2.597
 1230TIP3    H2 3697   5.780   1.289   2.706
 1231TIP3   OH2 3698   5.711   3.037   2.841
 1231TIP3    H1 3699   5.690   2.945   2.828
 1231TIP3    H2 3700   5.708   3.075   2.753
 1232TIP3   OH2 3701   3.139   1.918   1.506
 1232TIP3    H1 3702   3.140   2.009   1.533
 1232TIP3    H2 3703   3.167   1.869   1.583
 1233TIP3   OH2 3704   4.070   3.667   3.095
 1233TIP3    H1 3705   3.976   3.657   3.114
 1233TIP3    H2 3706   4.087   3.600   3.029
 1234TIP3   OH2 3707   6.162   5.312   2.830
 1234TIP3    H1 3708   6.183   5.378   2.763
 1234TIP3    H2 3709   6.225   5.329   2.900
 1235TIP3   OH2 3710   0.690   4.369   4.312
 1235TIP3    H1 3711   0.673   4.400   4.223
 1235TIP3    H2 3712   0.690   4.274   4.304
 1236TIP3   OH2 3713   3.348   2.671   3.249
 1236TIP3    H1 3714   3.279   2.718   3.202
 1236TIP3    H2 3715   3.410   2.740   3.276
 1237TIP3   OH2 3716   5.267   0.009   1.493
 1237TIP3    H1 3717   5.270  -0.061   1.558
 1237TIP3    H2 3718   5.199   0.069   1.524
 1238TIP3   OH2 3719   3.843   4.298   0.030
 1238TIP3    H1 3720   3.813   4.378   0.073
 1238TIP3    H2 3721   3.915   4.266   0.085
 1239TIP3   OH2 3722   0.977   1.971   2.000
 1239TIP3    H1 3723   1.000   1.913   1.927
 1239TIP3    H2 3724   0.899   2.017   1.970
 1240TIP3   OH2 3725   1.273   2.526   3.093
 1240TIP3    H1 3726   1.358   2.504   3.055
 1240TIP3    H2 3727   1.288   2.607   3.141
 1241TIP3   OH2 3728   5.982   4.939   2.355
 1241TIP3    H1 3729   5.921   4.961   2.284
 1241TIP3    H2 3730   5.976   4.843   2.361
 1242TIP3   OH2 3731   5.624   2.981   3.324
 1242TIP3    H1 3732   5.691   2.914   3.310
 1242TIP3    H2 3733   5.631   3.039   3.249
 1243TIP3   OH2 3734   5.751   1.423   1.003
 1243TIP3    H1 3735   5.663   1.405   1.035
 1243TIP3    H2 3736   5.757   1.376   0.920
 1244TIP3   OH2 3737   6.350   2.030   4.010
 1244TIP3    H1 3738   6.307   2.002   4.091
 1244TIP3    H2 3739   6.362   2.124   4.021
 1245TIP3   OH2 3740   4.529   3.288   2.105
 1245TIP3    H1 3741   4.463   3.355   2.120
 1245TIP3    H2 3742   4.487   3.206   2.131
 1246TIP3   OH2 3743   0.339   0.095   3.967
 1246TIP3    H1 3744   0.294   0.017   3.934
 1246TIP3    H2 3745   0.309   0.166   3.910
 1247TIP3   OH2 3746   3.155   3.800   0.298
 1247TIP3    H1 3747   3.240   3.792   0.340
 1247TIP3    H2 3748   3.174   3.794   0.204
 1248TIP3   OH2 3749   5.913   2.897   3.381
 1248TIP3    H1 3750   5.935   2.807   3.408
 1248TIP3    H2 3751   5.973   2.914   3.308
 1249TIP3   OH2 3752   3.668   0.876   0.533
 1249TIP3    H1 3753   3.739   0.858   0.594
 1249TIP3    H2 3754   3.600   0.916   0.587
 1250TIP3   OH2 3755   4.748   4.286   1.155
 1250TIP3    H1 3756   4.676   4.231   1.186
 1250TIP3    H2 3757   4.711   4.335   1.081
 1251TIP3   OH2 3758   3.475   3.463   0.207
 1251TIP3    H1 3759   3.404   3.508   0.163
 1251TIP3    H2 3760   3.453   3.370   0.200
 1252TIP3   OH2 3761   5.748   2.588   4.336
 1252TIP3    H1 3762   5.782   2.499   4.345
 1252TIP3    H2 3763   5.827   2.643   4.334
 1253TIP3   OH2 3764   2.598   5.857   2.522
 1253TIP3    H1 3765   2.506   5.862   2.495
 1253TIP3    H2 3766   2.640   5.803   2.455
 1254TIP3   OH2 3767   5.687   4.116   0.376
 1254TIP3    H1 3768   5.739   4.119   0.456
 1254TIP3    H2 3769   5.652   4.027   0.373
 1255TIP3   OH2 3770   2.660   4.332   4.683
 1255TIP3    H1 3771   2.685   4.421   4.659
 1255TIP3    H2 3772   2.722   4.308   4.751
 1256TIP3   OH2 3773   3.277   1.882   3.728
 1256TIP3    H1 3774   3.237   1.942   3.791
 1256TIP3    H2 3775   3.371   1.896   3.737
 1257TIP3   OH2 3776   1.215   0.076   4.602
 1257TIP3    H1 3777   1.159  -0.001   4.612
 1257TIP3    H2 3778   1.157   0.143   4.564
 1258TIP3   OH2 3779   1.372   1.622   4.283
 1258TIP3    H1 3780   1.329   1.542   4.253
 1258TIP3    H2 3781   1.458   1.620   4.240
 1259TIP3   OH2 3782   5.888   5.143   2.664
 1259TIP3    H1 3783   5.863   5.235   2.673
 1259TIP3    H2 3784   5.979   5.145   2.634
 1260TIP3   OH2 3785   0.779   2.678   3.702
 1260TIP3    H1 3786   0.736   2.674   3.787
 1260TIP3    H2 3787   0.872   2.686   3.723
 1261TIP3   OH2 3788   3.655   1.849   2.818
 1261TIP3    H1 3789   3.675   1.805   2.736
 1261TIP3    H2 3790   3.559   1.843   2.826
 1262TIP3   OH2 3791   3.442   1.599   2.781
 1262TIP3    H1 3792   3.489   1.547   2.716
 1262TIP3    H2 3793   3.359   1.553   2.793
 1263TIP3   OH2 3794   2.320   0.698   0.567
 1263TIP3    H1 3795   2.290   0.777   0.522
 1263TIP3    H2 3796   2.273   0.698   0.650
 1264TIP3   OH2 3797   2.208   0.378   0.431
 1264TIP3    H1 3798   2.296   0.373   0.393
 1264TIP3    H2 3799   2.190   0.472   0.434
 1265TIP3   OH2 3800   3.631   5.596   1.876
 1265TIP3    H1 3801   3.644   5.680   1.830
 1265TIP3    H2 3802   3.543   5.601   1.912
 1266TIP3   OH2 3803   3.614   5.534   0.852
 1266TIP3    H1 3804   3.566   5.498   0.927
 1266TIP3    H2 3805   3.691   5.575   0.890
 1267TIP3   OH2 3806   5.732   2.948   4.106
 1267TIP3    H1 3807   5.795   2.973   4.039
 1267TIP3    H2 3808   5.768   2.985   4.187
 1268TIP3   OH2 3809   0.203   2.499   3.551
 1268TIP3    H1 3810   0.273   2.562   3.536
 1268TIP3    H2 3811   0.247   2.415   3.562
 1269TIP3   OH2 3812   3.969   5.466   1.598
 1269TIP3    H1 3813   3.906   5.481   1.528
 1269TIP3    H2 3814   4.021   5.546   1.602
 1270TIP3   OH2 3815   3.111   0.455   3.067
 1270TIP3    H1 3816   3.035   0.418   3.023
 1270TIP3    H2 3817   3.075   0.522   3.125
 1271TIP3   OH2 3818   1.511   2.103   5.143
 1271TIP3    H1 3819   1.499   2.011   5.117
 1271TIP3    H2 3820   1.568   2.099   5.220
 1272TIP3   OH2 3821   5.848   5.223   3.462
 1272TIP3    H1 3822   5.898   5.274   3.526
 1272TIP3    H2 3823   5.766   5.201   3.507
 1273TIP3   OH2 3824   0.460   5.890   2.738
 1273TIP3    H1 3825   0.444   5.805   2.697
 1273TIP3    H2 3826   0.424   5.954   2.676
 1274TIP3   OH2 3827   1.593   2.627   1.414
 1274TIP3    H1 3828   1.609   2.541   1.374
 1274TIP3    H2 3829   1.678   2.655   1.446
 1275TIP3   OH2 3830   1.648   2.789   1.027
 1275TIP3    H1 3831   1.688   2.874   1.009
 1275TIP3    H2 3832   1.607   2.763   0.944
 1276TIP3   OH2 3833   5.392   3.808   4.760
 1276TIP3    H1 3834   5.376   3.883   4.702
 1276TIP3    H2 3835   5.467   3.764   4.721
 1277TIP3   OH2 3836   4.210   1.225   3.270
 1277TIP3    H1 3837   4.123   1.226   3.311
 1277TIP3    H2 3838   4.192   1.224   3.176
 1278TIP3   OH2 3839   1.540   3.953   1.110
 1278TIP3    H1 3840   1.623   3.915   1.139
 1278TIP3    H2 3841   1.475   3.885   1.129
 1279TIP3   OH2 3842   4.430   5.475   1.559
 1279TIP3    H1 3843   4.337   5.452   1.564
 1279TIP3    H2 3844   4.465   5.417   1.491
 1280TIP3   OH2 3845   1.942   3.158   4.233
 1280TIP3    H1 3846   1.914   3.078   4.188
 1280TIP3    H2 3847   2.022   3.132   4.280
 1281TIP3   OH2 3848   4.836   0.243   2.131
 1281TIP3    H1 3849   4.895   0.222   2.204
 1281TIP3    H2 3850   4.889   0.229   2.052
 1282TIP3   OH2 3851   2.717   1.330   4.921
 1282TIP3    H1 3852   2.754   1.415   4.900
 1282TIP3    H2 3853   2.703   1.288   4.836
 1283TIP3   OH2 3854   2.421   3.993   2.316
 1283TIP3    H1 3855   2.466   3.975   2.233
 1283TIP3    H2 3856   2.350   4.052   2.293
 1284TIP3   OH2 3857   3.290   5.085   2.488
 1284TIP3    H1 3858   3.360   5.071   2.551
 1284TIP3    H2 3859   3.287   5.180   2.476
 1285TIP3   OH2 3860   0.224   4.165   0.389
 1285TIP3    H1 3861   0.256   4.236   0.444
 1285TIP3    H2 3862   0.131   4.186   0.374
 1286TIP3   OH2 3863   4.169   0.817   1.940
 1286TIP3    H1 3864   4.254   0.827   1.897
 1286TIP3    H2 3865   4.165   0.724   1.962
 1287TIP3   OH2 3866   2.688   1.172   4.675
 1287TIP3    H1 3867   2.608   1.154   4.627
 1287TIP3    H2 3868   2.697   1.100   4.737
 1288TIP3   OH2 3869   2.511   0.035   4.789
 1288TIP3    H1 3870   2.511   0.095   4.863
 1288TIP3    H2 3871   2.476  -0.047   4.825
 1289TIP3   OH2 3872   1.044   5.373   3.593
 1289TIP3    H1 3873   0.989   5.424   3.652
 1289TIP3    H2 3874   1.032   5.282   3.622
 1290TIP3   OH2 3875   1.746   1.862   1.321
 1290TIP3    H1 3876   1.724   1.857   1.414
 1290TIP3    H2 3877   1.839   1.883   1.318
 1291TIP3   OH2 3878   6.002   2.377   2.996
 1291TIP3    H1 3879   6.001   2.470   2.976
 1291TIP3    H2 3880   5.953   2.369   3.078
 1292TIP3   OH2 3881   5.780   0.140   1.973
 1292TIP3    H1 3882   5.716   0.165   1.907
 1292TIP3    H2 3883   5.766   0.202   2.045
 1293TIP3   OH2 3884   6.200   4.864   1.736
 1293TIP3    H1 3885   6.141   4.931   1.701
 1293TIP3    H2 3886   6.288   4.896   1.715
 1294TIP3   OH2 3887   4.135   0.367   4.295
 1294TIP3    H1 3888   4.124   0.425   4.221
 1294TIP3    H2 3889   4.053   0.372   4.343
 1295TIP3   OH2 3890   5.939   3.934   0.833
 1295TIP3    H1 3891   5.997   3.972   0.768
 1295TIP3    H2 3892   5.968   3.844   0.842
 1296TIP3   OH2 3893   2.172   5.729   4.561
 1296TIP3    H1 3894   2.216   5.713   4.477
 1296TIP3    H2 3895   2.163   5.824   4.565
 1297TIP3   OH2 3896   4.309   0.577   3.050
 1297TIP3    H1 3897   4.243   0.558   3.117
 1297TIP3    H2 3898   4.265   0.637   2.990
 1298TIP3   OH2 3899   5.346   3.796   1.896
 1298TIP3    H1 3900   5.407   3.741   1.846
 1298TIP3    H2 3901   5.402   3.859   1.941
 1299TIP3   OH2 3902   1.158   1.520   1.776
 1299TIP3    H1 3903   1.119   1.437   1.747
 1299TIP3    H2 3904   1.199   1.556   1.697
 1300TIP3   OH2 3905   3.259   0.095   2.077
 1300TIP3    H1 3906   3.277   0.117   1.986
 1300TIP3    H2 3907   3.168   0.066   2.078
 1301TIP3   OH2 3908   4.434   1.978   2.550
 1301TIP3    H1 3909   4.374   1.919   2.505
 1301TIP3    H2 3910   4.383   2.059   2.561
 1302TIP3   OH2 3911   3.697   3.839   3.637
 1302TIP3    H1 3912   3.631   3.843   3.706
 1302TIP3    H2 3913   3.780   3.852   3.682
 1303TIP3   OH2 3914   3.526   4.933   1.231
 1303TIP3    H1 3915   3.497   5.021   1.258
 1303TIP3    H2 3916   3.618   4.929   1.257
 1304TIP3   OH2 3917   0.888   3.891   4.651
 1304TIP3    H1 3918   0.851   3.806   4.677
 1304TIP3    H2 3919   0.829   3.956   4.690
 1305TIP3   OH2 3920   0.233   4.252   3.123
 1305TIP3    H1 3921   0.296   4.320   3.097
 1305TIP3    H2 3922   0.277   4.206   3.195
 1306TIP3   OH2 3923   0.652   0.609   1.371
 1306TIP3    H1 3924   0.638   0.552   1.446
 1306TIP3    H2 3925   0.619   0.560   1.296
 1307TIP3   OH2 3926   1.270   4.379   4.845
 1307TIP3    H1 3927   1.231   4.345   4.764
 1307TIP3    H2 3928   1.364   4.383   4.826
 1308TIP3   OH2 3929   3.915   3.315   1.560
 1308TIP3    H1 3930   3.992   3.367   1.583
 1308TIP3    H2 3931   3.847   3.379   1.539
 1309TIP3   OH2 3932   1.594   4.769   3.633
 1309TIP3    H1 3933   1.614   4.862   3.637
 1309TIP3    H2 3934   1.514   4.763   3.581
 1310TIP3   OH2 3935   4.369   2.129   4.786
 1310TIP3    H1 3936   4.438   2.070   4.755
 1310TIP3    H2 3937   4.360   2.107   4.879
 1311TIP3   OH2 3938   5.887   5.241   3.808
 1311TIP3    H1 3939   5.972   5.228   3.849
 1311TIP3    H2 3940   5.853   5.152   3.794
 1312TIP3   OH2 3941   6.255   5.857   0.109
 1312TIP3    H1 3942   6.342   5.890   0.087
 1312TIP3    H2 3943   6.269   5.765   0.133
 1313TIP3   OH2 3944   2.931   4.273   4.848
 1313TIP3    H1 3945   3.020   4.242   4.831
 1313TIP3    H2 3946   2.909   4.235   4.933
 1314TIP3   OH2 3947   3.561   1.400   1.529
 1314TIP3    H1 3948   3.599   1.440   1.450
 1314TIP3    H2 3949   3.622   1.424   1.599
 1315TIP3   OH2 3950   3.712   5.253   4.255
 1315TIP3    H1 3951   3.621   5.265   4.228
 1315TIP3    H2 3952   3.741   5.340   4.283
 1316TIP3   OH2 3953   3.332   5.000   1.772
 1316TIP3    H1 3954   3.271   4.932   1.801
 1316TIP3    H2 3955   3.419   4.967   1.795
 1317TIP3   OH2 3956   0.523   3.153   2.607
 1317TIP3    H1 3957   0.516   3.094   2.682
 1317TIP3    H2 3958   0.511   3.240   2.644
 1318TIP3   OH2 3959   2.480   0.357   2.644
 1318TIP3    H1 3960   2.420   0.364   2.718
 1318TIP3    H2 3961   2.555   0.412   2.667
 1319TIP3   OH2 3962   2.698   2.885   2.625
 1319TIP3    H1 3963   2.762   2.829   2.670
 1319TIP3    H2 3964   2.739   2.906   2.541
 1320TIP3   OH2 3965   0.876   3.988   2.855
 1320TIP3    H1 3966   0.863   3.896   2.879
 1320TIP3    H2 3967   0.970   4.000   2.855
 1321TIP3   OH2 3968   0.332   4.829   2.446
 1321TIP3    H1 3969   0.341   4.924   2.449
 1321TIP3    H2 3970   0.238   4.814   2.431
 1322TIP3   OH2 3971   5.226   4.708   4.475
 1322TIP3    H1 3972   5.136   4.686   4.502
 1322TIP3    H2 3973   5.221   4.720   4.381
 1323TIP3   OH2 3974   1.422   4.980   4.452
 1323TIP3    H1 3975   1.387   5.042   4.389
 1323TIP3    H2 3976   1.506   5.017   4.479
 1324TIP3   OH2 3977   6.083   2.629   3.856
 1324TIP3    H1 3978   6.019   2.561   3.835
 1324TIP3    H2 3979   6.048   2.708   3.816
 1325TIP3   OH2 3980   4.208   3.934   0.226
 1325TIP3    H1 3981   4.236   3.938   0.134
 1325TIP3    H2 3982   4.198   3.841   0.244
 1326TIP3   OH2 3983   2.247   4.138   4.452
 1326TIP3    H1 3984   2.305   4.209   4.425
 1326TIP3    H2 3985   2.306   4.063   4.465
 1327TIP3   OH2 3986   6.312   2.306   2.801
 1327TIP3    H1 3987   6.324   2.376   2.864
 1327TIP3    H2 3988   6.239   2.335   2.746
 1328TIP3   OH2 3989   2.919   4.892   2.846
 1328TIP3    H1 3990   2.851   4.826   2.858
 1328TIP3    H2 3991   2.912   4.948   2.924
 1329TIP3   OH2 3992   5.674   0.610   4.504
 1329TIP3    H1 3993   5.640   0.580   4.588
 1329TIP3    H2 3994   5.751   0.556   4.488
 1330TIP3   OH2 3995   4.691   2.273   4.699
 1330TIP3    H1 3996   4.723   2.183   4.702
 1330TIP3    H2 3997   4.768   2.326   4.678
 1331TIP3   OH2 3998   1.073   3.546   2.876
 1331TIP3    H1 3999   1.072   3.497   2.794
 1331TIP3    H2 4000   1.166   3.559   2.895
 1332TIP3   OH2 4001   5.507   1.353   4.037
 1332TIP3    H1 4002   5.553   1.316   3.962
 1332TIP3    H2 4003   5.530   1.297   4.110
 1333TIP3   OH2 4004   3.116   1.635   3.932
 1333TIP3    H1 4005   3.041   1.578   3.946
 1333TIP3    H2 4006   3.192   1.577   3.938
 1334TIP3   OH2 4007   0.113   3.826   2.162
 1334TIP3    H1 4008   0.145   3.759   2.101
 1334TIP3    H2 4009   0.162   3.905   2.137
 1335TIP3   OH2 4010   2.769   2.657   0.629
 1335TIP3    H1 4011   2.772   2.588   0.695
 1335TIP3    H2 4012   2.676   2.679   0.620
 1336TIP3   OH2 4013   3.564   2.263   5.015
 1336TIP3    H1 4014   3.505   2.339   5.016
 1336TIP3    H2 4015   3.652   2.300   5.017
 1337TIP3   OH2 4016   5.039   3.421   3.307
 1337TIP3    H1 4017   4.947   3.415   3.281
 1337TIP3    H2 4018   5.045   3.370   3.387
 1338TIP3   OH2 4019   3.307   0.923   3.985
 1338TIP3    H1 4020   3.348   0.874   4.056
 1338TIP3    H2 4021   3.251   0.987   4.028
 1339TIP3   OH2 4022   6.008   4.448   4.309
 1339TIP3    H1 4023   6.030   4.483   4.396
 1339TIP3    H2 4024   5.966   4.521   4.264
 1340TIP3   OH2 4025   6.037   5.695   4.264
 1340TIP3    H1 4026   6.128   5.673   4.284
 1340TIP3    H2 4027   6.032   5.689   4.168
 1341TIP3   OH2 4028   4.514   3.160   1.392
 1341TIP3    H1 4029   4.490   3.083   1.341
 1341TIP3    H2 4030   4.431   3.205   1.410
 1342TIP3   OH2 4031   6.089   2.974   0.782
 1342TIP3    H1 4032   6.010   2.997   0.733
 1342TIP3    H2 4033   6.102   2.881   0.762
 1343TIP3   OH2 4034   5.268   2.111   1.048
 1343TIP3    H1 4035   5.196   2.067   1.094
 1343TIP3    H2 4036   5.329   2.041   1.027
 1344TIP3   OH2 4037   2.662   2.339   2.584
 1344TIP3    H1 4038   2.689   2.250   2.562
 1344TIP3    H2 4039   2.668   2.387   2.502
 1345TIP3   OH2 4040   3.101   3.635   2.356
 1345TIP3    H1 4041   3.067   3.591   2.278
 1345TIP3    H2 4042   3.157   3.570   2.398
 1346TIP3   OH2 4043   1.261   3.032   5.063
 1346TIP3    H1 4044   1.323   2.972   5.022
 1346TIP3    H2 4045   1.233   3.091   4.992
 1347TIP3   OH2 4046   2.179   5.866   0.679
 1347TIP3    H1 4047   2.273   5.874   0.697
 1347TIP3    H2 4048   2.137   5.881   0.764
 1348TIP3   OH2 4049   1.638   5.073   3.114
 1348TIP3    H1 4050   1.681   5.095   3.031
 1348TIP3    H2 4051   1.588   4.994   3.094
 1349TIP3   OH2 4052   5.554   2.235   1.241
 1349TIP3    H1 4053   5.522   2.284   1.317
 1349TIP3    H2 4054   5.578   2.303   1.178
 1350TIP3   OH2 4055   2.006   1.877   1.803
 1350TIP3    H1 4056   1.962   1.920   1.730
 1350TIP3    H2 4057   2.073   1.822   1.762
 1351TIP3   OH2 4058   1.842   3.631   5.196
 1351TIP3    H1 4059   1.936   3.614   5.188
 1351TIP3    H2 4060   1.815   3.662   5.110
 1352TIP3   OH2 4061   4.416   3.894   2.958
 1352TIP3    H1 4062   4.466   3.899   3.040
 1352TIP3    H2 4063   4.337   3.944   2.975
 1353TIP3   OH2 4064   0.346   2.066   1.645
 1353TIP3    H1 4065   0.301   2.002   1.700
 1353TIP3    H2 4066   0.280   2.094   1.581
 1354TIP3   OH2 4067   5.117   3.328   0.016
 1354TIP3    H1 4068   5.157   3.388   0.079
 1354TIP3    H2 4069   5.035   3.370  -0.008
 1355TIP3   OH2 4070   3.351   3.272   3.614
 1355TIP3    H1 4071   3.417   3.336   3.640
 1355TIP3    H2 4072   3.390   3.224   3.542
 1356TIP3   OH2 4073   0.254   3.242   2.789
 1356TIP3    H1 4074   0.310   3.318   2.774
 1356TIP3    H2 4075   0.315   3.174   2.820
 1357TIP3   OH2 4076   0.423   1.990   0.146
 1357TIP3    H1 4077   0.369   2.048   0.200
 1357TIP3    H2 4078   0.475   2.050   0.092
 1358TIP3   OH2 4079   6.174   4.392   3.919
 1358TIP3    H1 4080   6.129   4.318   3.961
 1358TIP3    H2 4081   6.193   4.361   3.831
 1359TIP3   OH2 4082   0.413   2.361   1.653
 1359TIP3    H1 4083   0.405   2.266   1.663
 1359TIP3    H2 4084   0.439   2.374   1.562
 1360TIP3   OH2 4085   4.738   1.284   0.297
 1360TIP3    H1 4086   4.756   1.377   0.304
 1360TIP3    H2 4087   4.655   1.279   0.249
 1361TIP3   OH2 4088   0.572   3.929   3.392
 1361TIP3    H1 4089   0.664   3.954   3.402
 1361TIP3    H2 4090   0.573   3.861   3.324
 1362TIP3   OH2 4091   3.823   1.232   1.656
 1362TIP3    H1 4092   3.808   1.292   1.729
 1362TIP3    H2 4093   3.820   1.145   1.695
 1363TIP3   OH2 4094   5.296   2.835   3.162
 1363TIP3    H1 4095   5.204   2.817   3.142
 1363TIP3    H2 4096   5.310   2.797   3.249
 1364TIP3   OH2 4097   2.384   0.089   4.572
 1364TIP3    H1 4098   2.371   0.183   4.583
 1364TIP3    H2 4099   2.430   0.061   4.651
 1365TIP3   OH2 4100   4.431   4.472   3.191
 1365TIP3    H1 4101   4.448   4.565   3.203
 1365TIP3    H2 4102   4.475   4.449   3.109
 1366TIP3   OH2 4103   0.254   4.442   2.083
 1366TIP3    H1 4104   0.192   4.464   2.152
 1366TIP3    H2 4105   0.336   4.483   2.110
 1367TIP3   OH2 4106   5.876   1.781   1.666
 1367TIP3    H1 4107   5.922   1.808   1.586
 1367TIP3    H2 4108   5.785   1.804   1.651
 1368TIP3   OH2 4109   3.602   1.067   0.322
 1368TIP3    H1 4110   3.606   1.022   0.406
 1368TIP3    H2 4111   3.552   1.147   0.340
 1369TIP3   OH2 4112   1.722   2.409   2.208
 1369TIP3    H1 4113   1.721   2.453   2.292
 1369TIP3    H2 4114   1.749   2.319   2.228
 1370TIP3   OH2 4115   3.331   1.473   3.998
 1370TIP3    H1 4116   3.381   1.419   3.938
 1370TIP3    H2 4117   3.368   1.453   4.084
 1371TIP3   OH2 4118   0.809   2.243   3.719
 1371TIP3    H1 4119   0.740   2.220   3.657
 1371TIP3    H2 4120   0.770   2.311   3.774
 1372TIP3   OH2 4121   2.483   5.845   2.785
 1372TIP3    H1 4122   2.526   5.911   2.840
 1372TIP3    H2 4123   2.539   5.839   2.707
 1373TIP3   OH2 4124   5.831   2.312   3.219
 1373TIP3    H1 4125   5.757   2.372   3.224
 1373TIP3    H2 4126   5.793   2.227   3.201
 1374TIP3   OH2 4127   2.846   0.842   3.186
 1374TIP3    H1 4128   2.940   0.826   3.195
 1374TIP3    H2 4129   2.830   0.921   3.238
 1375TIP3   OH2 4130   4.083   2.510   0.661
 1375TIP3    H1 4131   4.147   2.444   0.689
 1375TIP3    H2 4132   4.102   2.587   0.715
 1376TIP3   OH2 4133   4.966   2.151   3.102
 1376TIP3    H1 4134   4.930   2.215   3.164
 1376TIP3    H2 4135   5.040   2.111   3.148
 1377TIP3   OH2 4136   5.971   1.638   3.527
 1377TIP3    H1 4137   5.885   1.653   3.488
 1377TIP3    H2 4138   5.979   1.543   3.532
 1378TIP3   OH2 4139   5.910   1.699   2.093
 1378TIP3    H1 4140   5.829   1.748   2.078
 1378TIP3    H2 4141   5.965   1.719   2.018
 1379TIP3   OH2 4142   1.005   1.675   3.725
 1379TIP3    H1 4143   1.075   1.721   3.772
 1379TIP3    H2 4144   0.924   1.705   3.767
 1380TIP3   OH2 4145   4.016   4.929   1.609
 1380TIP3    H1 4146   3.960   4.882   1.547
 1380TIP3    H2 4147   4.045   4.862   1.671
 1381TIP3   OH2 4148   3.800   0.528   1.089
 1381TIP3    H1 4149   3.775   0.607   1.040
 1381TIP3    H2 4150   3.859   0.481   1.030
 1382TIP3   OH2 4151   3.198   2.401   4.196
 1382TIP3    H1 4152   3.196   2.357   4.280
 1382TIP3    H2 4153   3.128   2.359   4.145
 1383TIP3   OH2 4154   6.310   0.779   5.183
 1383TIP3    H1 4155   6.252   0.783   5.108
 1383TIP3    H2 4156   6.397   0.763   5.145
 1384TIP3   OH2 4157   2.692   4.740   2.852
 1384TIP3    H1 4158   2.668   4.668   2.911
 1384TIP3    H2 4159   2.633   4.812   2.876
 1385TIP3   OH2 4160   5.915   3.644   3.285
 1385TIP3    H1 4161   5.841   3.592   3.316
 1385TIP3    H2 4162   5.903   3.650   3.191
 1386TIP3   OH2 4163   5.124   2.609   4.576
 1386TIP3    H1 4164   5.216   2.616   4.602
 1386TIP3    H2 4165   5.086   2.550   4.641
 1387TIP3   OH2 4166   0.407   1.625   0.815
 1387TIP3    H1 4167   0.479   1.606   0.875
 1387TIP3    H2 4168   0.330   1.585   0.856
 1388TIP3   OH2 4169   0.472   3.758   4.791
 1388TIP3    H1 4170   0.462   3.777   4.698
 1388TIP3    H2 4171   0.566   3.770   4.808
 1389TIP3   OH2 4172   4.261   4.058   0.460
 1389TIP3    H1 4173   4.354   4.080   0.463
 1389TIP3    H2 4174   4.246   4.029   0.370
 1390TIP3   OH2 4175   2.327   3.339   4.387
 1390TIP3    H1 4176   2.261   3.269   4.390
 1390TIP3    H2 4177   2.317   3.384   4.471
 1391TIP3   OH2 4178   3.873   0.746   2.518
 1391TIP3    H1 4179   3.788   0.754   2.562
 1391TIP3    H2 4180   3.936   0.738   2.590
 1392TIP3   OH2 4181   2.681   4.922   1.646
 1392TIP3    H1 4182   2.732   5.003   1.656
 1392TIP3    H2 4183   2.691   4.898   1.554
 1393TIP3   OH2 4184   4.214   2.125   4.540
 1393TIP3    H1 4185   4.308   2.120   4.554
 1393TIP3    H2 4186   4.190   2.214   4.565
 1394TIP3   OH2 4187   0.382   5.479   2.294
 1394TIP3    H1 4188   0.338   5.508   2.214
 1394TIP3    H2 4189   0.314   5.432   2.343
 1395TIP3   OH2 4190   5.074   0.850   3.146
 1395TIP3    H1 4191   5.058   0.935   3.105
 1395TIP3    H2 4192   5.144   0.811   3.094
 1396TIP3   OH2 4193   0.944   4.047   0.813
 1396TIP3    H1 4194   0.889   4.114   0.771
 1396TIP3    H2 4195   1.033   4.081   0.804
 1397TIP3   OH2 4196   0.277   4.932   2.782
 1397TIP3    H1 4197   0.307   4.971   2.864
 1397TIP3    H2 4198   0.357   4.899   2.741
 1398TIP3   OH2 4199   1.738   1.375   2.098
 1398TIP3    H1 4200   1.735   1.412   2.187
 1398TIP3    H2 4201   1.663   1.316   2.094
 1399TIP3   OH2 4202   4.816   2.885   0.686
 1399TIP3    H1 4203   4.740   2.833   0.714
 1399TIP3    H2 4204   4.842   2.847   0.603
 1400TIP3   OH2 4205   4.326   1.912   3.281
 1400TIP3    H1 4206   4.380   1.915   3.202
 1400TIP3    H2 4207   4.243   1.952   3.255
 1401TIP3   OH2 4208   5.781   4.369   1.937
 1401TIP3    H1 4209   5.865   4.363   1.983
 1401TIP3    H2 4210   5.783   4.456   1.896
 1402TIP3   OH2 4211   5.982   2.561   1.647
 1402TIP3    H1 4212   5.963   2.642   1.599
 1402TIP3    H2 4213   6.075   2.545   1.631
 1403TIP3   OH2 4214   3.287   0.195   3.100
 1403TIP3    H1 4215   3.245   0.274   3.135
 1403TIP3    H2 4216   3.315   0.146   3.178
 1404TIP3   OH2 4217   6.124   2.681   2.061
 1404TIP3    H1 4218   6.176   2.606   2.032
 1404TIP3    H2 4219   6.138   2.747   1.993
 1405TIP3   OH2 4220   5.223   5.595   4.873
 1405TIP3    H1 4221   5.171   5.536   4.819
 1405TIP3    H2 4222   5.281   5.537   4.923
 1406TIP3   OH2 4223   5.385   2.548   0.972
 1406TIP3    H1 4224   5.415   2.562   0.882
 1406TIP3    H2 4225   5.415   2.459   0.993
 1407TIP3   OH2 4226   1.515   5.606   1.313
 1407TIP3    H1 4227   1.503   5.700   1.325
 1407TIP3    H2 4228   1.502   5.593   1.219
 1408TIP3   OH2 4229   0.760   2.318   2.189
 1408TIP3    H1 4230   0.837   2.286   2.235
 1408TIP3    H2 4231   0.791   2.396   2.143
 1409TIP3   OH2 4232   2.694   5.515   3.890
 1409TIP3    H1 4233   2.706   5.517   3.985
 1409TIP3    H2 4234   2.611   5.562   3.875
 1410TIP3   OH2 4235   5.635   4.369   3.027
 1410TIP3    H1 4236   5.715   4.391   3.073
 1410TIP3    H2 4237   5.651   4.282   2.991
 1411TIP3   OH2 4238   4.530   1.438   0.088
 1411TIP3    H1 4239   4.515   1.440  -0.006
 1411TIP3    H2 4240   4.541   1.345   0.109
 1412TIP3   OH2 4241   2.006   0.257   2.691
 1412TIP3    H1 4242   1.970   0.288   2.773
 1412TIP3    H2 4243   1.930   0.231   2.639
 1413TIP3   OH2 4244   5.397   5.206   1.241
 1413TIP3    H1 4245   5.461   5.277   1.229
 1413TIP3    H2 4246   5.315   5.251   1.260
 1414TIP3   OH2 4247   3.446   3.975   2.007
 1414TIP3    H1 4248   3.404   3.921   1.940
 1414TIP3    H2 4249   3.471   4.055   1.961
 1415TIP3   OH2 4250   4.587   5.865   2.490
 1415TIP3    H1 4251   4.642   5.928   2.444
 1415TIP3    H2 4252   4.600   5.783   2.444
 1416TIP3   OH2 4253   5.305   4.026   0.628
 1416TIP3    H1 4254   5.283   4.099   0.687
 1416TIP3    H2 4255   5.334   4.068   0.547
 1417TIP3   OH2 4256   1.140   4.319   4.623
 1417TIP3    H1 4257   1.130   4.252   4.556
 1417TIP3    H2 4258   1.058   4.368   4.621
 1418TIP3   OH2 4259   3.413   1.993   0.162
 1418TIP3    H1 4260   3.357   2.046   0.219
 1418TIP3    H2 4261   3.408   1.905   0.200
 1419TIP3   OH2 4262   4.628   0.801   2.135
 1419TIP3    H1 4263   4.585   0.730   2.088
 1419TIP3    H2 4264   4.713   0.765   2.162
 1420TIP3   OH2 4265   4.396   0.338   0.156
 1420TIP3    H1 4266   4.339   0.364   0.084
 1420TIP3    H2 4267   4.448   0.416   0.175
 1421TIP3   OH2 4268   0.113   4.276   2.732
 1421TIP3    H1 4269   0.177   4.271   2.660
 1421TIP3    H2 4270   0.123   4.193   2.779
 1422TIP3   OH2 4271   0.885   4.953   5.175
 1422TIP3    H1 4272   0.840   5.037   5.168
 1422TIP3    H2 4273   0.904   4.928   5.085
 1423TIP3   OH2 4274   4.180   4.287   4.362
 1423TIP3    H1 4275   4.228   4.220   4.411
 1423TIP3    H2 4276   4.245   4.355   4.344
 1424TIP3   OH2 4277   3.234   1.492   0.085
 1424TIP3    H1 4278   3.188   1.411   0.064
 1424TIP3    H2 4279   3.179   1.534   0.151
 1425TIP3   OH2 4280   5.499   2.499   0.176
 1425TIP3    H1 4281   5.411   2.520   0.209
 1425TIP3    H2 4282   5.532   2.433   0.237
 1426TIP3   OH2 4283   1.718   1.816   3.071
 1426TIP3    H1 4284   1.692   1.726   3.088
 1426TIP3    H2 4285   1.737   1.819   2.977
 1427TIP3   OH2 4286   4.762   0.984   3.706
 1427TIP3    H1 4287   4.716   1.000   3.788
 1427TIP3    H2 4288   4.701   1.013   3.638
 1428TIP3   OH2 4289   2.933   5.965   3.397
 1428TIP3    H1 4290   2.918   5.928   3.484
 1428TIP3    H2 4291   2.930   5.890   3.338
 1429TIP3   OH2 4292   1.023   3.207   4.123
 1429TIP3    H1 4293   1.016   3.298   4.094
 1429TIP3    H2 4294   1.064   3.161   4.050
 1430TIP3   OH2 4295   0.137   0.717   1.726
 1430TIP3    H1 4296   0.217   0.718   1.779
 1430TIP3    H2 4297   0.099   0.804   1.739
 1431TIP3   OH2 4298   1.032   3.076   0.195
 1431TIP3    H1 4299   1.024   3.025   0.276
 1431TIP3    H2 4300   1.125   3.068   0.172
 1432TIP3   OH2 4301   0.440   5.681   1.671
 1432TIP3    H1 4302   0.462   5.637   1.753
 1432TIP3    H2 4303   0.507   5.749   1.662
 1433TIP3   OH2 4304   1.704   3.562   0.134
 1433TIP3    H1 4305   1.762   3.498   0.092
 1433TIP3    H2 4306   1.616   3.525   0.125
 1434TIP3   OH2 4307   4.287   3.021   2.544
 1434TIP3    H1 4308   4.345   3.039   2.618
 1434TIP3    H2 4309   4.230   3.097   2.539
 1435TIP3   OH2 4310   0.926   2.331   0.526
 1435TIP3    H1 4311   0.834   2.352   0.512
 1435TIP3    H2 4312   0.940   2.345   0.619
 1436TIP3   OH2 4313   0.175   1.792   0.260
 1436TIP3    H1 4314   0.190   1.698   0.255
 1436TIP3    H2 4315   0.262   1.829   0.278
 1437TIP3   OH2 4316   2.209   5.182   1.110
 1437TIP3    H1 4317   2.287   5.220   1.070
 1437TIP3    H2 4318   2.155   5.156   1.035
 1438TIP3   OH2 4319   0.180   5.770   1.728
 1438TIP3    H1 4320   0.220   5.837   1.783
 1438TIP3    H2 4321   0.255   5.725   1.688
 1439TIP3   OH2 4322   4.680   5.360   2.311
 1439TIP3    H1 4323   4.680   5.334   2.219
 1439TIP3    H2 4324   4.635   5.289   2.356
 1440TIP3   OH2 4325   2.476   1.477   3.050
 1440TIP3    H1 4326   2.387   1.452   3.026
 1440TIP3    H2 4327   2.509   1.404   3.102
 1441TIP3   OH2 4328   3.455   3.798   2.244
 1441TIP3    H1 4329   3.449   3.871   2.184
 1441TIP3    H2 4330   3.381   3.809   2.304
 1442TIP3   OH2 4331   1.289   5.623   1.684
 1442TIP3    H1 4332   1.251   5.583   1.762
 1442TIP3    H2 4333   1.239   5.586   1.611
 1443TIP3   OH2 4334   4.487   0.351   1.250
 1443TIP3    H1 4335   4.502   0.440   1.217
 1443TIP3    H2 4336   4.567   0.303   1.229
 1444TIP3   OH2 4337   3.244   5.862   0.643
 1444TIP3    H1 4338   3.269   5.794   0.580
 1444TIP3    H2 4339   3.174   5.823   0.694
 1445TIP3   OH2 4340   0.192   2.575   1.392
 1445TIP3    H1 4341   0.141   2.653   1.410
 1445TIP3    H2 4342   0.173   2.555   1.300
 1446TIP3   OH2 4343   4.314   1.605   1.702
 1446TIP3    H1 4344   4.408   1.590   1.695
 1446TIP3    H2 4345   4.307   1.695   1.734
 1447TIP3   OH2 4346   1.748   2.179   0.691
 1447TIP3    H1 4347   1.717   2.268   0.707
 1447TIP3    H2 4348   1.685   2.124   0.737
 1448TIP3   OH2 4349   4.235   5.148   1.487
 1448TIP3    H1 4350   4.250   5.206   1.561
 1448TIP3    H2 4351   4.172   5.083   1.519
 1449TIP3   OH2 4352   4.753   0.592   2.650
 1449TIP3    H1 4353   4.826   0.583   2.589
 1449TIP3    H2 4354   4.683   0.632   2.599
 1450TIP3   OH2 4355   5.909   1.617   1.095
 1450TIP3    H1 4356   5.857   1.698   1.098
 1450TIP3    H2 4357   5.848   1.552   1.060
 1451TIP3   OH2 4358   4.557   5.130   2.377
 1451TIP3    H1 4359   4.628   5.068   2.390
 1451TIP3    H2 4360   4.515   5.137   2.463
 1452TIP3   OH2 4361   2.379   0.309   3.320
 1452TIP3    H1 4362   2.387   0.214   3.326
 1452TIP3    H2 4363   2.431   0.333   3.244
 1453TIP3   OH2 4364   0.814   4.834   2.871
 1453TIP3    H1 4365   0.864   4.857   2.793
 1453TIP3    H2 4366   0.751   4.906   2.881
 1454TIP3   OH2 4367   2.690   3.173   2.141
 1454TIP3    H1 4368   2.771   3.174   2.192
 1454TIP3    H2 4369   2.661   3.264   2.140
 1455TIP3   OH2 4370   0.855   3.112   0.757
 1455TIP3    H1 4371   0.847   3.206   0.773
 1455TIP3    H2 4372   0.925   3.104   0.692
 1456TIP3   OH2 4373   5.889   5.815   0.234
 1456TIP3    H1 4374   5.907   5.770   0.151
 1456TIP3    H2 4375   5.843   5.750   0.287
 1457TIP3   OH2 4376   3.834   2.318   1.993
 1457TIP3    H1 4377   3.809   2.366   2.072
 1457TIP3    H2 4378   3.767   2.343   1.928
 1458TIP3   OH2 4379   2.838   4.886   4.746
 1458TIP3    H1 4380   2.870   4.923   4.664
 1458TIP3    H2 4381   2.917   4.867   4.797
 1459TIP3   OH2 4382   3.904   1.529   1.517
 1459TIP3    H1 4383   3.884   1.596   1.451
 1459TIP3    H2 4384   3.995   1.504   1.499
 1460TIP3   OH2 4385   2.550   2.079   3.361
 1460TIP3    H1 4386   2.602   2.043   3.289
 1460TIP3    H2 4387   2.614   2.095   3.430
 1461TIP3   OH2 4388   0.827   3.371   4.231
 1461TIP3    H1 4389   0.803   3.389   4.141
 1461TIP3    H2 4390   0.877   3.290   4.226
 1462TIP3   OH2 4391   2.106   4.940   1.660
 1462TIP3    H1 4392   2.120   4.856   1.618
 1462TIP3    H2 4393   2.098   4.920   1.753
 1463TIP3   OH2 4394   5.581   2.919   0.513
 1463TIP3    H1 4395   5.565   2.883   0.425
 1463TIP3    H2 4396   5.501   2.901   0.561
 1464TIP3   OH2 4397   5.662   1.312   3.196
 1464TIP3    H1 4398   5.649   1.366   3.274
 1464TIP3    H2 4399   5.728   1.359   3.145
 1465TIP3   OH2 4400   5.556   3.846   4.304
 1465TIP3    H1 4401   5.479   3.789   4.294
 1465TIP3    H2 4402   5.576   3.842   4.398
 1466TIP3   OH2 4403   5.008   1.627   4.851
 1466TIP3    H1 4404   5.056   1.617   4.769
 1466TIP3    H2 4405   5.003   1.721   4.864
 1467TIP3   OH2 4406   4.470   1.410   4.030
 1467TIP3    H1 4407   4.465   1.495   3.985
 1467TIP3    H2 4408   4.563   1.386   4.025
 1468TIP3   OH2 4409   4.370   2.236   3.203
 1468TIP3    H1 4410   4.289   2.208   3.161
 1468TIP3    H2 4411   4.439   2.194   3.151
 1469TIP3   OH2 4412   4.550   4.854   0.596
 1469TIP3    H1 4413   4.618   4.901   0.548
 1469TIP3    H2 4414   4.577   4.859   0.688
 1470TIP3   OH2 4415   4.693   2.759   4.906
 1470TIP3    H1 4416   4.711   2.733   4.815
 1470TIP3    H2 4417   4.627   2.697   4.936
 1471TIP3   OH2 4418   5.381   5.287   4.799
 1471TIP3    H1 4419   5.286   5.275   4.800
 1471TIP3    H2 4420   5.396   5.365   4.853
 1472TIP3   OH2 4421   5.361   3.084   3.050
 1472TIP3    H1 4422   5.318   3.139   3.116
 1472TIP3    H2 4423   5.352   2.995   3.083
 1473TIP3   OH2 4424   5.097   2.839   0.694
 1473TIP3    H1 4425   5.032   2.814   0.759
 1473TIP3    H2 4426   5.076   2.786   0.617
 1474TIP3   OH2 4427   0.323   0.834   2.316
 1474TIP3    H1 4428   0.345   0.757   2.265
 1474TIP3    H2 4429   0.392   0.841   2.382
 1475TIP3   OH2 4430   3.472   5.810   3.575
 1475TIP3    H1 4431   3.433   5.856   3.650
 1475TIP3    H2 4432   3.557   5.781   3.607
 1476TIP3   OH2 4433   2.855   2.086   0.714
 1476TIP3    H1 4434   2.886   2.001   0.745
 1476TIP3    H2 4435   2.833   2.134   0.794
 1477TIP3   OH2 4436   1.819   3.103   0.666
 1477TIP3    H1 4437   1.781   3.093   0.754
 1477TIP3    H2 4438   1.876   3.180   0.673
 1478TIP3   OH2 4439   2.126   1.775   4.274
 1478TIP3    H1 4440   2.185   1.827   4.220
 1478TIP3    H2 4441   2.038   1.794   4.241
 1479TIP3   OH2 4442   3.709   5.699   3.871
 1479TIP3    H1 4443   3.757   5.649   3.937
 1479TIP3    H2 4444   3.623   5.656   3.867
 1480TIP3   OH2 4445   4.336   2.791   4.931
 1480TIP3    H1 4446   4.327   2.876   4.974
 1480TIP3    H2 4447   4.368   2.812   4.843
 1481TIP3   OH2 4448   4.343   0.551   2.659
 1481TIP3    H1 4449   4.371   0.606   2.732
 1481TIP3    H2 4450   4.409   0.481   2.656
 1482TIP3   OH2 4451   0.631   3.764   0.855
 1482TIP3    H1 4452   0.699   3.763   0.788
 1482TIP3    H2 4453   0.558   3.812   0.816
 1483TIP3   OH2 4454   0.851   1.260   0.397
 1483TIP3    H1 4455   0.863   1.196   0.467
 1483TIP3    H2 4456   0.936   1.303   0.390
 1484TIP3   OH2 4457   6.292   1.774   4.886
 1484TIP3    H1 4458   6.228   1.844   4.895
 1484TIP3    H2 4459   6.252   1.698   4.929
 1485TIP3   OH2 4460   5.933   3.418   1.612
 1485TIP3    H1 4461   5.900   3.478   1.678
 1485TIP3    H2 4462   5.899   3.332   1.639
 1486TIP3   OH2 4463   3.462   4.279   5.141
 1486TIP3    H1 4464   3.486   4.350   5.200
 1486TIP3    H2 4465   3.408   4.220   5.194
 1487TIP3   OH2 4466   1.637   3.856   3.362
 1487TIP3    H1 4467   1.568   3.919   3.384
 1487TIP3    H2 4468   1.644   3.860   3.267
 1488TIP3   OH2 4469   1.917   0.189   3.965
 1488TIP3    H1 4470   1.924   0.250   3.891
 1488TIP3    H2 4471   2.007   0.174   3.993
 1489TIP3   OH2 4472   2.858   2.638   3.284
 1489TIP3    H1 4473   2.779   2.677   3.322
 1489TIP3    H2 4474   2.917   2.627   3.359
 1490TIP3   OH2 4475   4.585   4.626   0.437
 1490TIP3    H1 4476   4.571   4.692   0.504
 1490TIP3    H2 4477   4.599   4.675   0.357
 1491TIP3   OH2 4478   3.059   2.233   0.639
 1491TIP3    H1 4479   2.984   2.175   0.649
 1491TIP3    H2 4480   3.133   2.173   0.625
 1492TIP3   OH2 4481   6.004   2.656   3.523
 1492TIP3    H1 4482   6.013   2.586   3.459
 1492TIP3    H2 4483   6.083   2.709   3.512
 1493TIP3   OH2 4484   2.008   1.528   1.222
 1493TIP3    H1 4485   1.984   1.572   1.304
 1493TIP3    H2 4486   2.102   1.540   1.215
 1494TIP3   OH2 4487   0.509   1.517   1.698
 1494TIP3    H1 4488   0.450   1.453   1.739
 1494TIP3    H2 4489   0.527   1.580   1.768
 1495TIP3   OH2 4490   5.231   1.512   2.148
 1495TIP3    H1 4491   5.325   1.531   2.147
 1495TIP3    H2 4492   5.215   1.478   2.236
 1496TIP3   OH2 4493   1.809   4.901   1.734
 1496TIP3    H1 4494   1.861   4.899   1.814
 1496TIP3    H2 4495   1.810   4.810   1.702
 1497TIP3   OH2 4496   4.202   0.216   0.324
 1497TIP3    H1 4497   4.255   0.185   0.251
 1497TIP3    H2 4498   4.141   0.279   0.284
 1498TIP3   OH2 4499   1.280   2.055   4.902
 1498TIP3    H1 4500   1.193   2.085   4.929
 1498TIP3    H2 4501   1.300   1.983   4.963
 1499TIP3   OH2 4502   0.202   5.818   0.386
 1499TIP3    H1 4503   0.291   5.841   0.360
 1499TIP3    H2 4504   0.148   5.839   0.310
 1500TIP3   OH2 4505   6.093   4.043   1.062
 1500TIP3    H1 4506   6.155   4.103   1.022
 1500TIP3    H2 4507   6.136   4.011   1.141
 1501TIP3   OH2 4508   1.071   3.681   1.953
 1501TIP3    H1 4509   1.103   3.655   1.867
 1501TIP3    H2 4510   0.986   3.639   1.962
 1502TIP3   OH2 4511   4.673   4.136   3.698
 1502TIP3    H1 4512   4.746   4.191   3.726
 1502TIP3    H2 4513   4.695   4.048   3.730
 1503TIP3   OH2 4514   5.449   4.271   3.200
 1503TIP3    H1 4515   5.364   4.254   3.160
 1503TIP3    H2 4516   5.504   4.301   3.127
 1504TIP3   OH2 4517   1.839   5.350   4.600
 1504TIP3    H1 4518   1.902   5.373   4.532
 1504TIP3    H2 4519   1.835   5.427   4.656
 1505TIP3   OH2 4520   5.528   2.806   0.260
 1505TIP3    H1 4521   5.537   2.718   0.223
 1505TIP3    H2 4522   5.437   2.831   0.241
 1506TIP3   OH2 4523   6.188   3.710   4.663
 1506TIP3    H1 4524   6.235   3.793   4.676
 1506TIP3    H2 4525   6.113   3.733   4.609
 1507TIP3   OH2 4526   5.049   1.912   5.196
 1507TIP3    H1 4527   5.139   1.879   5.190
 1507TIP3    H2 4528   4.999   1.857   5.135
 1508TIP3   OH2 4529   0.782   3.720   2.163
 1508TIP3    H1 4530   0.834   3.693   2.238
 1508TIP3    H2 4531   0.802   3.655   2.095
 1509TIP3   OH2 4532   4.747   5.451   3.461
 1509TIP3    H1 4533   4.817   5.395   3.427
 1509TIP3    H2 4534   4.774   5.540   3.438
 1510TIP3   OH2 4535   5.665   4.402   1.504
 1510TIP3    H1 4536   5.619   4.347   1.567
 1510TIP3    H2 4537   5.738   4.440   1.553
 1511TIP3   OH2 4538   1.076   2.368   0.117
 1511TIP3    H1 4539   0.994   2.328   0.086
 1511TIP3    H2 4540   1.049   2.454   0.149
 1512TIP3   OH2 4541   3.742   4.783   4.665
 1512TIP3    H1 4542   3.663   4.729   4.670
 1512TIP3    H2 4543   3.722   4.859   4.720
 1513TIP3   OH2 4544   6.346   1.255   3.950
 1513TIP3    H1 4545   6.340   1.338   3.997
 1513TIP3    H2 4546   6.261   1.244   3.908
 1514TIP3   OH2 4547   6.202   0.953   1.107
 1514TIP3    H1 4548   6.186   1.026   1.048
 1514TIP3    H2 4549   6.194   0.991   1.195
 1515TIP3   OH2 4550   1.269   5.602   4.716
 1515TIP3    H1 4551   1.213   5.654   4.658
 1515TIP3    H2 4552   1.311   5.538   4.658
 1516TIP3   OH2 4553   3.292   2.340   0.109
 1516TIP3    H1 4554   3.259   2.322   0.197
 1516TIP3    H2 4555   3.289   2.435   0.101
 1517TIP3   OH2 4556   4.824   3.843   0.790
 1517TIP3    H1 4557   4.830   3.930   0.829
 1517TIP3    H2 4558   4.838   3.784   0.864
 1518TIP3   OH2 4559   2.014   3.159   2.591
 1518TIP3    H1 4560   2.044   3.117   2.671
 1518TIP3    H2 4561   2.038   3.099   2.520
 1519TIP3   OH2 4562   1.261   5.792   3.885
 1519TIP3    H1 4563   1.266   5.772   3.979
 1519TIP3    H2 4564   1.321   5.866   3.874
 1520TIP3   OH2 4565   1.817   1.792   2.816
 1520TIP3    H1 4566   1.912   1.807   2.818
 1520TIP3    H2 4567   1.807   1.706   2.776
 1521TIP3   OH2 4568   2.638   0.313   3.797
 1521TIP3    H1 4569   2.616   0.400   3.764
 1521TIP3    H2 4570   2.726   0.321   3.832
 1522TIP3   OH2 4571   5.095   5.040   2.031
 1522TIP3    H1 4572   5.171   5.013   2.083
 1522TIP3    H2 4573   5.086   4.972   1.964
 1523TIP3   OH2 4574   0.039   3.572   4.037
 1523TIP3    H1 4575  -0.032   3.607   3.984
 1523TIP3    H2 4576   0.017   3.598   4.127
 1524TIP3   OH2 4577   4.425   2.371   1.839
 1524TIP3    H1 4578   4.370   2.333   1.770
 1524TIP3    H2 4579   4.459   2.452   1.801
 1525TIP3   OH2 4580   4.796   2.469   3.979
 1525TIP3    H1 4581   4.803   2.382   3.940
 1525TIP3    H2 4582   4.886   2.500   3.985
 1526TIP3   OH2 4583   6.080   3.850   4.212
 1526TIP3    H1 4584   6.102   3.937   4.179
 1526TIP3    H2 4585   6.164   3.812   4.239
 1527TIP3   OH2 4586   3.816   2.142   0.554
 1527TIP3    H1 4587   3.885   2.206   0.538
 1527TIP3    H2 4588   3.816   2.087   0.476
 1528TIP3   OH2 4589   0.999   3.412   0.942
 1528TIP3    H1 4590   0.925   3.357   0.964
 1528TIP3    H2 4591   1.058   3.404   1.017
 1529TIP3   OH2 4592   1.940   1.621   2.275
 1529TIP3    H1 4593   1.854   1.647   2.308
 1529TIP3    H2 4594   1.945   1.659   2.188
 1530TIP3   OH2 4595   2.792   0.232   2.698
 1530TIP3    H1 4596   2.829   0.146   2.718
 1530TIP3    H2 4597   2.784   0.234   2.603
 1531TIP3   OH2 4598   3.099   5.284   4.513
 1531TIP3    H1 4599   3.190   5.279   4.544
 1531TIP3    H2 4600   3.073   5.192   4.503
 1532TIP3   OH2 4601   1.949   3.321   0.760
 1532TIP3    H1 4602   1.869   3.329   0.811
 1532TIP3    H2 4603   2.017   3.357   0.818
 1533TIP3   OH2 4604   1.280   5.488   3.515
 1533TIP3    H1 4605   1.186   5.473   3.501
 1533TIP3    H2 4606   1.323   5.431   3.451
 1534TIP3   OH2 4607   3.639   4.091   3.474
 1534TIP3    H1 4608   3.731   4.073   3.458
 1534TIP3    H2 4609   3.594   4.057   3.396
 1535TIP3   OH2 4610   0.901   4.921   1.914
 1535TIP3    H1 4611   0.962   4.851   1.893
 1535TIP3    H2 4612   0.816   4.887   1.887
 1536TIP3   OH2 4613   5.598   1.017   4.489
 1536TIP3    H1 4614   5.565   0.953   4.425
 1536TIP3    H2 4615   5.643   0.964   4.555
 1537TIP3   OH2 4616   4.217   5.884   4.177
 1537TIP3    H1 4617   4.127   5.916   4.166
 1537TIP3    H2 4618   4.207   5.790   4.193
 1538TIP3   OH2 4619   6.201   2.585   0.283
 1538TIP3    H1 4620   6.157   2.501   0.284
 1538TIP3    H2 4621   6.171   2.628   0.202
 1539TIP3   OH2 4622   6.359   4.595   0.615
 1539TIP3    H1 4623   6.284   4.540   0.636
 1539TIP3    H2 4624   6.381   4.638   0.697
 1540TIP3   OH2 4625   1.224   2.698   4.468
 1540TIP3    H1 4626   1.167   2.659   4.402
 1540TIP3    H2 4627   1.172   2.698   4.548
 1541TIP3   OH2 4628   2.672   5.185   5.199
 1541TIP3    H1 4629   2.727   5.120   5.155
 1541TIP3    H2 4630   2.621   5.225   5.129
 1542TIP3   OH2 4631   1.610   1.823   0.239
 1542TIP3    H1 4632   1.693   1.854   0.275
 1542TIP3    H2 4633   1.634   1.748   0.184
 1543TIP3   OH2 4634   0.928   3.485   1.264
 1543TIP3    H1 4635   0.956   3.574   1.241
 1543TIP3    H2 4636   0.833   3.492   1.275
 1544TIP3   OH2 4637   4.503   2.149   4.531
 1544TIP3    H1 4638   4.527   2.219   4.592
 1544TIP3    H2 4639   4.521   2.186   4.444
 1545TIP3   OH2 4640   0.609   5.952   2.957
 1545TIP3    H1 4641   0.572   5.924   3.041
 1545TIP3    H2 4642   0.555   5.908   2.891
 1546TIP3   OH2 4643   4.236   0.577   4.740
 1546TIP3    H1 4644   4.249   0.482   4.743
 1546TIP3    H2 4645   4.291   0.612   4.810
 1547TIP3   OH2 4646   0.722   1.697   2.023
 1547TIP3    H1 4647   0.772   1.633   2.074
 1547TIP3    H2 4648   0.788   1.760   1.994
 1548TIP3   OH2 4649   2.159   4.994   3.899
 1548TIP3    H1 4650   2.067   4.971   3.911
 1548TIP3    H2 4651   2.207   4.915   3.926
 1549TIP3   OH2 4652   0.587   1.796   1.130
 1549TIP3    H1 4653   0.671   1.786   1.085
 1549TIP3    H2 4654   0.524   1.815   1.061
 1550TIP3   OH2 4655   5.265   1.988   1.477
 1550TIP3    H1 4656   5.307   2.046   1.542
 1550TIP3    H2 4657   5.232   1.915   1.528
 1551TIP3   OH2 4658   4.615   3.913   5.138
 1551TIP3    H1 4659   4.649   3.907   5.049
 1551TIP3    H2 4660   4.626   4.006   5.162
 1552TIP3   OH2 4661   5.328   3.040   4.400
 1552TIP3    H1 4662   5.358   3.091   4.475
 1552TIP3    H2 4663   5.397   3.051   4.334
 1553TIP3   OH2 4664   2.212   1.470   2.884
 1553TIP3    H1 4665   2.191   1.426   2.967
 1553TIP3    H2 4666   2.202   1.402   2.818
 1554TIP3   OH2 4667   1.002   4.931   0.530
 1554TIP3    H1 4668   0.947   4.941   0.452
 1554TIP3    H2 4669   1.041   5.017   0.544
 1555TIP3   OH2 4670   4.796   4.812   0.771
 1555TIP3    H1 4671   4.882   4.799   0.730
 1555TIP3    H2 4672   4.786   4.737   0.829
 1556TIP3   OH2 4673   5.778   0.209   0.650
 1556TIP3    H1 4674   5.738   0.124   0.667
 1556TIP3    H2 4675   5.706   0.264   0.620
 1557TIP3   OH2 4676   5.146   2.227   2.870
 1557TIP3    H1 4677   5.071   2.173   2.893
 1557TIP3    H2 4678   5.175   2.193   2.785
 1558TIP3   OH2 4679   2.990   2.699   2.475
 1558TIP3    H1 4680   2.996   2.727   2.566
 1558TIP3    H2 4681   2.954   2.774   2.429
 1559TIP3   OH2 4682   0.847   4.174   1.732
 1559TIP3    H1 4683   0.915   4.161   1.666
 1559TIP3    H2 4684   0.770   4.131   1.695
 1560TIP3   OH2 4685   4.061   1.796   1.971
 1560TIP3    H1 4686   4.087   1.881   1.935
 1560TIP3    H2 4687   4.056   1.738   1.894
 1561TIP3   OH2 4688   0.297   4.818   1.454
 1561TIP3    H1 4689   0.303   4.736   1.503
 1561TIP3    H2 4690   0.359   4.807   1.382
 1562TIP3   OH2 4691   3.027   3.399   1.052
 1562TIP3    H1 4692   3.115   3.416   1.085
 1562TIP3    H2 4693   2.973   3.470   1.087
 1563TIP3   OH2 4694   4.551   1.165   2.483
 1563TIP3    H1 4695   4.591   1.128   2.405
 1563TIP3    H2 4696   4.521   1.090   2.534
 1564TIP3   OH2 4697   3.073   4.880   4.900
 1564TIP3    H1 4698   3.067   4.863   4.994
 1564TIP3    H2 4699   3.163   4.909   4.886
 1565TIP3   OH2 4700   4.290   4.781   5.122
 1565TIP3    H1 4701   4.353   4.711   5.142
 1565TIP3    H2 4702   4.282   4.829   5.205
 1566TIP3   OH2 4703   5.400   4.866   0.070
 1566TIP3    H1 4704   5.375   4.784   0.114
 1566TIP3    H2 4705   5.429   4.923   0.140
 1567TIP3   OH2 4706   4.711   4.717   2.433
 1567TIP3    H1 4707   4.658   4.639   2.451
 1567TIP3    H2 4708   4.677   4.750   2.350
 1568TIP3   OH2 4709   2.413   0.577   2.240
 1568TIP3    H1 4710   2.345   0.528   2.193
 1568TIP3    H2 4711   2.462   0.510   2.288
 1569TIP3   OH2 4712   2.446   2.554   0.668
 1569TIP3    H1 4713   2.365   2.515   0.700
 1569TIP3    H2 4714   2.419   2.607   0.593
 1570TIP3   OH2 4715   6.133   4.896   0.653
 1570TIP3    H1 4716   6.195   4.936   0.592
 1570TIP3    H2 4717   6.103   4.969   0.708
 1571TIP3   OH2 4718   5.974   0.979   4.463
 1571TIP3    H1 4719   5.929   0.924   4.528
 1571TIP3    H2 4720   6.064   0.986   4.496
 1572TIP3   OH2 4721   3.273   5.944   2.955
 1572TIP3    H1 4722   3.256   5.893   3.034
 1572TIP3    H2 4723   3.344   5.897   2.910
 1573TIP3   OH2 4724   4.477   5.494   3.460
 1573TIP3    H1 4725   4.568   5.464   3.464
 1573TIP3    H2 4726   4.480   5.573   3.405
 1574TIP3   OH2 4727   0.602   1.735   3.230
 1574TIP3    H1 4728   0.528   1.689   3.271
 1574TIP3    H2 4729   0.563   1.779   3.154
 1575TIP3   OH2 4730   3.851   1.773   1.418
 1575TIP3    H1 4731   3.893   1.805   1.338
 1575TIP3    H2 4732   3.824   1.852   1.464
 1576TIP3   OH2 4733   5.682   2.682   4.079
 1576TIP3    H1 4734   5.702   2.640   4.163
 1576TIP3    H2 4735   5.700   2.775   4.094
 1577TIP3   OH2 4736   2.014   4.701   2.501
 1577TIP3    H1 4737   2.016   4.765   2.430
 1577TIP3    H2 4738   2.050   4.621   2.461
 1578TIP3   OH2 4739   5.175   2.216   2.582
 1578TIP3    H1 4740   5.206   2.297   2.543
 1578TIP3    H2 4741   5.224   2.147   2.538
 1579TIP3   OH2 4742   0.992   2.540   2.578
 1579TIP3    H1 4743   0.956   2.569   2.493
 1579TIP3    H2 4744   0.991   2.445   2.574
 1580TIP3   OH2 4745   3.166   1.403   0.569
 1580TIP3    H1 4746   3.082   1.366   0.543
 1580TIP3    H2 4747   3.214   1.330   0.606
 1581TIP3   OH2 4748   0.526   2.255   2.898
 1581TIP3    H1 4749   0.472   2.331   2.918
 1581TIP3    H2 4750   0.554   2.222   2.983
 1582TIP3   OH2 4751   2.611   5.874   3.435
 1582TIP3    H1 4752   2.609   5.872   3.530
 1582TIP3    H2 4753   2.557   5.950   3.411
 1583TIP3   OH2 4754   1.753   1.090   4.169
 1583TIP3    H1 4755   1.805   1.170   4.170
 1583TIP3    H2 4756   1.818   1.020   4.166
 1584TIP3   OH2 4757   0.415   1.406   4.457
 1584TIP3    H1 4758   0.361   1.349   4.403
 1584TIP3    H2 4759   0.456   1.347   4.520
 1585TIP3   OH2 4760   3.797   1.393   3.518
 1585TIP3    H1 4761   3.707   1.391   3.487
 1585TIP3    H2 4762   3.807   1.313   3.570
 1586TIP3   OH2 4763   5.293   1.680   3.205
 1586TIP3    H1 4764   5.278   1.737   3.129
 1586TIP3    H2 4765   5.251   1.597   3.181
 1587TIP3   OH2 4766   3.255   1.098   4.572
 1587TIP3    H1 4767   3.298   1.029   4.621
 1587TIP3    H2 4768   3.287   1.179   4.611
 1588TIP3   OH2 4769   1.903   2.417   0.517
 1588TIP3    H1 4770   1.819   2.447   0.551
 1588TIP3    H2 4771   1.953   2.394   0.596
 1589TIP3   OH2 4772   5.050   2.566   3.949
 1589TIP3    H1 4773   5.066   2.592   4.040
 1589TIP3    H2 4774   5.093   2.481   3.940
 1590TIP3   OH2 4775   5.517   2.344   0.652
 1590TIP3    H1 4776   5.491   2.340   0.744
 1590TIP3    H2 4777   5.438   2.322   0.604
 1591TIP3   OH2 4778   3.926   1.535   0.858
 1591TIP3    H1 4779   4.007   1.495   0.891
 1591TIP3    H2 4780   3.894   1.472   0.793
 1592TIP3   OH2 4781   2.833   3.783   1.580
 1592TIP3    H1 4782   2.763   3.838   1.617
 1592TIP3    H2 4783   2.846   3.818   1.492
 1593TIP3   OH2 4784   6.058   2.284   0.678
 1593TIP3    H1 4785   6.041   2.354   0.614
 1593TIP3    H2 4786   6.145   2.251   0.654
 1594TIP3   OH2 4787   1.765   3.933   2.007
 1594TIP3    H1 4788   1.792   3.849   1.969
 1594TIP3    H2 4789   1.681   3.915   2.049
 1595TIP3   OH2 4790   1.491   2.559   2.754
 1595TIP3    H1 4791   1.566   2.528   2.701
 1595TIP3    H2 4792   1.455   2.479   2.793
 1596TIP3   OH2 4793   6.223   1.140   1.822
 1596TIP3    H1 4794   6.264   1.226   1.828
 1596TIP3    H2 4795   6.139   1.151   1.867
 1597TIP3   OH2 4796   3.998   4.866   4.758
 1597TIP3    H1 4797   3.918   4.817   4.740
 1597TIP3    H2 4798   3.998   4.878   4.853
 1598TIP3   OH2 4799   0.917   3.925   0.464
 1598TIP3    H1 4800   0.998   3.873   0.469
 1598TIP3    H2 4801   0.917   3.959   0.374
 1599TIP3   OH2 4802   1.892   4.477   4.661
 1599TIP3    H1 4803   1.980   4.452   4.689
 1599TIP3    H2 4804   1.879   4.431   4.578
 1600TIP3   OH2 4805   4.417   5.221   3.162
 1600TIP3    H1 4806   4.359   5.240   3.235
 1600TIP3    H2 4807   4.495   5.181   3.202
 1601TIP3   OH2 4808   3.731   1.106   3.215
 1601TIP3    H1 4809   3.690   1.020   3.226
 1601TIP3    H2 4810   3.661   1.168   3.235
 1602TIP3   OH2 4811   5.315   4.009   5.038
 1602TIP3    H1 4812   5.302   3.966   4.954
 1602TIP3    H2 4813   5.337   4.100   5.016
 1603TIP3   OH2 4814   1.530   3.752   3.921
 1603TIP3    H1 4815   1.509   3.714   3.835
 1603TIP3    H2 4816   1.476   3.703   3.983
 1604TIP3   OH2 4817   4.223   0.197   1.283
 1604TIP3    H1 4818   4.276   0.270   1.250
 1604TIP3    H2 4819   4.262   0.119   1.244
 1605TIP3   OH2 4820   3.478   5.328   0.671
 1605TIP3    H1 4821   3.558   5.281   0.695
 1605TIP3    H2 4822   3.508   5.415   0.643
 1606TIP3   OH2 4823   3.678   5.631   2.660
 1606TIP3    H1 4824   3.731   5.552   2.659
 1606TIP3    H2 4825   3.629   5.626   2.742
 1607TIP3   OH2 4826   2.710   1.731   4.087
 1607TIP3    H1 4827   2.647   1.758   4.154
 1607TIP3    H2 4828   2.679   1.772   4.006
 1608TIP3   OH2 4829   4.046   3.135   3.217
 1608TIP3    H1 4830   4.123   3.097   3.174
 1608TIP3    H2 4831   3.989   3.162   3.144
 1609TIP3   OH2 4832   4.245   0.303   4.807
 1609TIP3    H1 4833   4.162   0.267   4.776
 1609TIP3    H2 4834   4.312   0.247   4.766
 1610TIP3   OH2 4835   0.000   4.304   0.979
 1610TIP3    H1 4836   0.083   4.289   1.025
 1610TIP3    H2 4837   0.020   4.284   0.888
 1611TIP3   OH2 4838   0.388   5.797   0.746
 1611TIP3    H1 4839   0.411   5.789   0.654
 1611TIP3    H2 4840   0.308   5.744   0.755
 1612TIP3   OH2 4841   2.566   4.726   3.557
 1612TIP3    H1 4842   2.562   4.674   3.478
 1612TIP3    H2 4843   2.477   4.761   3.567
 1613TIP3   OH2 4844   2.651   3.791   3.973
 1613TIP3    H1 4845   2.629   3.879   3.941
 1613TIP3    H2 4846   2.570   3.758   4.011
 1614TIP3   OH2 4847   2.481   0.094   2.560
 1614TIP3    H1 4848   2.516   0.172   2.604
 1614TIP3    H2 4849   2.406   0.126   2.511
 1615TIP3   OH2 4850   3.005   3.972   4.264
 1615TIP3    H1 4851   3.046   3.906   4.208
 1615TIP3    H2 4852   2.915   3.978   4.234
 1616TIP3   OH2 4853   4.051   0.401   1.050
 1616TIP3    H1 4854   3.994   0.325   1.038
 1616TIP3    H2 4855   4.137   0.372   1.017
 1617TIP3   OH2 4856   1.033   2.567   4.269
 1617TIP3    H1 4857   1.091   2.590   4.197
 1617TIP3    H2 4858   1.043   2.472   4.279
 1618TIP3   OH2 4859   4.032   2.820   4.092
 1618TIP3    H1 4860   4.112   2.809   4.144
 1618TIP3    H2 4861   4.034   2.912   4.066
 1619TIP3   OH2 4862   4.176   4.268   2.996
 1619TIP3    H1 4863   4.129   4.257   3.079
 1619TIP3    H2 4864   4.243   4.333   3.014
 1620TIP3   OH2 4865   1.707   5.053   4.536
 1620TIP3    H1 4866   1.676   5.029   4.623
 1620TIP3    H2 4867   1.742   5.141   4.546
 1621TIP3   OH2 4868   6.320   5.445   1.374
 1621TIP3    H1 4869   6.304   5.520   1.431
 1621TIP3    H2 4870   6.238   5.433   1.326
 1622TIP3   OH2 4871   5.542   1.959   4.305
 1622TIP3    H1 4872   5.630   1.923   4.320
 1622TIP3    H2 4873   5.494   1.889   4.260
 1623TIP3   OH2 4874   2.831   2.827   3.694
 1623TIP3    H1 4875   2.736   2.833   3.700
 1623TIP3    H2 4876   2.848   2.738   3.664
 1624TIP3   OH2 4877   2.109   2.035   0.488
 1624TIP3    H1 4878   2.159   2.014   0.567
 1624TIP3    H2 4879   2.127   2.128   0.472
 1625TIP3   OH2 4880   6.322   1.164   2.636
 1625TIP3    H1 4881   6.349   1.211   2.557
 1625TIP3    H2 4882   6.242   1.117   2.610
 1626TIP3   OH2 4883   5.569   5.448   1.020
 1626TIP3    H1 4884   5.489   5.496   1.041
 1626TIP3    H2 4885   5.617   5.506   0.960
 1627TIP3   OH2 4886   5.624   4.026   3.207
 1627TIP3    H1 4887   5.556   4.093   3.208
 1627TIP3    H2 4888   5.593   3.961   3.143
 1628TIP3   OH2 4889   5.601   2.349   2.988
 1628TIP3    H1 4890   5.565   2.401   2.916
 1628TIP3    H2 4891   5.619   2.263   2.949
 1629TIP3   OH2 4892   1.198   0.942   1.660
 1629TIP3    H1 4893   1.169   0.892   1.736
 1629TIP3    H2 4894   1.146   0.908   1.587
 1630TIP3   OH2 4895   4.175   1.086   0.152
 1630TIP3    H1 4896   4.107   1.119   0.093
 1630TIP3    H2 4897   4.170   1.143   0.228
 1631TIP3   OH2 4898   5.976   0.895   2.808
 1631TIP3    H1 4899   6.036   0.845   2.864
 1631TIP3    H2 4900   5.889   0.860   2.829
 1632TIP3   OH2 4901   1.532   5.781   4.687
 1632TIP3    H1 4902   1.463   5.736   4.736
 1632TIP3    H2 4903   1.493   5.865   4.663
 1633TIP3   OH2 4904   3.527   0.154   0.222
 1633TIP3    H1 4905   3.562   0.111   0.300
 1633TIP3    H2 4906   3.537   0.248   0.239
 1634TIP3   OH2 4907   3.034   5.658   2.218
 1634TIP3    H1 4908   2.991   5.577   2.191
 1634TIP3    H2 4909   3.089   5.633   2.291
 1635TIP3   OH2 4910   0.633   5.845   1.567
 1635TIP3    H1 4911   0.698   5.798   1.516
 1635TIP3    H2 4912   0.669   5.934   1.575
 1636TIP3   OH2 4913   2.730   4.357   2.841
 1636TIP3    H1 4914   2.799   4.302   2.880
 1636TIP3    H2 4915   2.771   4.394   2.763
 1637TIP3   OH2 4916   1.915   0.966   5.127
 1637TIP3    H1 4917   1.996   0.915   5.124
 1637TIP3    H2 4918   1.914   1.005   5.215
 1638TIP3   OH2 4919   4.007   2.689   5.024
 1638TIP3    H1 4920   4.035   2.775   5.055
 1638TIP3    H2 4921   3.952   2.708   4.948
 1639TIP3   OH2 4922   3.149   5.233   3.129
 1639TIP3    H1 4923   3.220   5.179   3.162
 1639TIP3    H2 4924   3.075   5.172   3.121
 1640TIP3   OH2 4925   0.788   0.707   2.133
 1640TIP3    H1 4926   0.782   0.624   2.181
 1640TIP3    H2 4927   0.742   0.770   2.189
 1641TIP3   OH2 4928   2.606   2.873   1.500
 1641TIP3    H1 4929   2.607   2.849   1.407
 1641TIP3    H2 4930   2.514   2.891   1.519
 1642TIP3   OH2 4931   0.434   0.951   0.803
 1642TIP3    H1 4932   0.515   0.931   0.849
 1642TIP3    H2 4933   0.461   0.981   0.717
 1643TIP3   OH2 4934   1.755   5.762   0.715
 1643TIP3    H1 4935   1.822   5.787   0.779
 1643TIP3    H2 4936   1.738   5.670   0.732
 1644TIP3   OH2 4937   4.935   4.336   0.156
 1644TIP3    H1 4938   4.991   4.344   0.233
 1644TIP3    H2 4939   4.904   4.245   0.159
 1645TIP3   OH2 4940   0.384   4.489   3.107
 1645TIP3    H1 4941   0.371   4.583   3.110
 1645TIP3    H2 4942   0.404   4.470   3.016
 1646TIP3   OH2 4943   1.924   4.096   4.775
 1646TIP3    H1 4944   2.013   4.078   4.747
 1646TIP3    H2 4945   1.927   4.187   4.807
 1647TIP3   OH2 4946   3.155   3.090   2.535
 1647TIP3    H1 4947   3.085   3.138   2.490
 1647TIP3    H2 4948   3.114   3.056   2.614
 1648TIP3   OH2 4949   5.369   4.465   3.777
 1648TIP3    H1 4950   5.294   4.418   3.742
 1648TIP3    H2 4951   5.386   4.423   3.861
 1649TIP3   OH2 4952   2.621   1.185   0.835
 1649TIP3    H1 4953   2.645   1.273   0.864
 1649TIP3    H2 4954   2.572   1.199   0.753
 1650TIP3   OH2 4955   5.312   5.848   4.721
 1650TIP3    H1 4956   5.388   5.799   4.689
 1650TIP3    H2 4957   5.288   5.804   4.802
 1651TIP3   OH2 4958   1.189   1.964   2.187
 1651TIP3    H1 4959   1.265   1.950   2.131
 1651TIP3    H2 4960   1.114   1.953   2.129
 1652TIP3   OH2 4961   5.980   1.431   1.564
 1652TIP3    H1 4962   6.014   1.343   1.577
 1652TIP3    H2 4963   5.890   1.427   1.597
 1653TIP3   OH2 4964   6.273   1.105   1.349
 1653TIP3    H1 4965   6.347   1.138   1.299
 1653TIP3    H2 4966   6.250   1.176   1.409
 1654TIP3   OH2 4967   4.903   4.154   2.961
 1654TIP3    H1 4968   4.903   4.201   2.878
 1654TIP3    H2 4969   4.910   4.062   2.937
 1655TIP3   OH2 4970   3.939   2.316   4.034
 1655TIP3    H1 4971   3.846   2.341   4.032
 1655TIP3    H2 4972   3.940   2.233   4.081
 1656TIP3   OH2 4973   5.943   3.715   3.875
 1656TIP3    H1 4974   5.861   3.692   3.831
 1656TIP3    H2 4975   5.920   3.789   3.931
 1657TIP3   OH2 4976   4.981   1.667   0.719
 1657TIP3    H1 4977   5.013   1.665   0.809
 1657TIP3    H2 4978   4.920   1.740   0.717
 1658TIP3   OH2 4979   4.591   3.917   3.185
 1658TIP3    H1 4980   4.675   3.962   3.184
 1658TIP3    H2 4981   4.555   3.933   3.272
 1659TIP3   OH2 4982   4.941   5.549   2.414
 1659TIP3    H1 4983   4.847   5.549   2.396
 1659TIP3    H2 4984   4.964   5.641   2.429
 1660TIP3   OH2 4985   4.530   0.584   0.083
 1660TIP3    H1 4986   4.482   0.601   0.002
 1660TIP3    H2 4987   4.537   0.670   0.125
 1661TIP3   OH2 4988   0.283   0.143   1.570
 1661TIP3    H1 4989   0.337   0.220   1.585
 1661TIP3    H2 4990   0.231   0.134   1.650
 1662TIP3   OH2 4991   3.274   4.677   0.044
 1662TIP3    H1 4992   3.369   4.680   0.035
 1662TIP3    H2 4993   3.259   4.657   0.136
 1663TIP3   OH2 4994   1.022   5.663   0.610
 1663TIP3    H1 4995   1.049   5.600   0.677
 1663TIP3    H2 4996   1.094   5.666   0.548
 1664TIP3   OH2 4997   1.478   4.411   2.796
 1664TIP3    H1 4998   1.472   4.489   2.852
 1664TIP3    H2 4999   1.387   4.388   2.779
 1665TIP3   OH2 5000   2.510   4.588   0.845
 1665TIP3    H1 5001   2.543   4.669   0.883
 1665TIP3    H2 5002   2.487   4.611   0.755
 1666TIP3   OH2 5003   5.770   3.309   2.818
 1666TIP3    H1 5004   5.683   3.330   2.852
 1666TIP3    H2 5005   5.763   3.219   2.787
 1667TIP3   OH2 5006   4.703   3.583   3.959
 1667TIP3    H1 5007   4.746   3.617   3.880
 1667TIP3    H2 5008   4.716   3.489   3.955
 1668TIP3   OH2 5009   2.789   2.113   2.527
 1668TIP3    H1 5010   2.848   2.073   2.590
 1668TIP3    H2 5011   2.800   2.061   2.447
 1669TIP3   OH2 5012   2.579   5.792   4.789
 1669TIP3    H1 5013   2.581   5.862   4.724
 1669TIP3    H2 5014   2.569   5.712   4.738
 1670TIP3   OH2 5015   2.954   0.755   4.419
 1670TIP3    H1 5016   3.032   0.808   4.435
 1670TIP3    H2 5017   2.965   0.678   4.475
 1671TIP3   OH2 5018   2.844   1.666   5.117
 1671TIP3    H1 5019   2.767   1.635   5.164
 1671TIP3    H2 5020   2.912   1.603   5.139
 1672TIP3   OH2 5021   3.240   5.882   0.051
 1672TIP3    H1 5022   3.282   5.938  -0.014
 1672TIP3    H2 5023   3.270   5.794   0.030
 1673TIP3   OH2 5024   5.619   1.009   0.252
 1673TIP3    H1 5025   5.596   1.056   0.332
 1673TIP3    H2 5026   5.537   1.005   0.202
 1674TIP3   OH2 5027   3.827   1.162   3.685
 1674TIP3    H1 5028   3.922   1.176   3.693
 1674TIP3    H2 5029   3.807   1.098   3.753
 1675TIP3   OH2 5030   3.369   3.424   0.450
 1675TIP3    H1 5031   3.414   3.471   0.379
 1675TIP3    H2 5032   3.311   3.363   0.405
 1676TIP3   OH2 5033   2.496   2.485   0.141
 1676TIP3    H1 5034   2.565   2.530   0.190
 1676TIP3    H2 5035   2.507   2.515   0.051
 1677TIP3   OH2 5036   0.305   0.148   2.154
 1677TIP3    H1 5037   0.374   0.107   2.206
 1677TIP3    H2 5038   0.244   0.185   2.218
 1678TIP3   OH2 5039   2.513   3.618   2.218
 1678TIP3    H1 5040   2.442   3.614   2.153
 1678TIP3    H2 5041   2.470   3.598   2.301
 1679TIP3   OH2 5042   5.972   2.573   2.535
 1679TIP3    H1 5043   6.048   2.586   2.479
 1679TIP3    H2 5044   5.909   2.640   2.507
 1680TIP3   OH2 5045   3.100   2.686   0.518
 1680TIP3    H1 5046   3.067   2.752   0.579
 1680TIP3    H2 5047   3.051   2.607   0.539
 1681TIP3   OH2 5048   3.851   3.635   2.658
 1681TIP3    H1 5049   3.912   3.677   2.598
 1681TIP3    H2 5050   3.799   3.707   2.693
 1682TIP3   OH2 5051   5.121   3.028   0.904
 1682TIP3    H1 5052   5.086   2.981   0.828
 1682TIP3    H2 5053   5.161   3.106   0.867
 1683TIP3   OH2 5054   3.145   1.929   0.867
 1683TIP3    H1 5055   3.217   1.989   0.848
 1683TIP3    H2 5056   3.187   1.843   0.876
 1684TIP3   OH2 5057   2.095   1.766   5.046
 1684TIP3    H1 5058   2.170   1.709   5.028
 1684TIP3    H2 5059   2.041   1.760   4.967
 1685TIP3   OH2 5060   4.893   5.507   1.803
 1685TIP3    H1 5061   4.963   5.549   1.753
 1685TIP3    H2 5062   4.936   5.436   1.850
 1686TIP3   OH2 5063   6.285   0.296   1.561
 1686TIP3    H1 5064   6.281   0.303   1.466
 1686TIP3    H2 5065   6.317   0.381   1.591
 1687TIP3   OH2 5066   3.205   1.603   0.746
 1687TIP3    H1 5067   3.241   1.667   0.684
 1687TIP3    H2 5068   3.175   1.531   0.690
 1688TIP3   OH2 5069   0.852   4.972   2.369
 1688TIP3    H1 5070   0.797   5.038   2.327
 1688TIP3    H2 5071   0.865   4.904   2.303
 1689TIP3   OH2 5072   0.219   0.540   2.802
 1689TIP3    H1 5073   0.251   0.450   2.809
 1689TIP3    H2 5074   0.261   0.575   2.724
 1690TIP3   OH2 5075   0.978   4.809   4.952
 1690TIP3    H1 5076   1.056   4.858   4.979
 1690TIP3    H2 5077   1.007   4.718   4.946
 1691TIP3   OH2 5078   1.926   2.929   4.926
 1691TIP3    H1 5079   1.997   2.915   4.863
 1691TIP3    H2 5080   1.859   2.975   4.876
 1692TIP3   OH2 5081   4.890   0.482   0.687
 1692TIP3    H1 5082   4.850   0.430   0.618
 1692TIP3    H2 5083   4.939   0.550   0.641
 1693TIP3   OH2 5084   2.582   3.880   1.673
 1693TIP3    H1 5085   2.512   3.859   1.734
 1693TIP3    H2 5086   2.539   3.882   1.587
 1694TIP3   OH2 5087   4.945   3.598   2.917
 1694TIP3    H1 5088   4.864   3.567   2.960
 1694TIP3    H2 5089   4.983   3.519   2.879
 1695TIP3   OH2 5090   4.876   1.155   3.075
 1695TIP3    H1 5091   4.842   1.085   3.130
 1695TIP3    H2 5092   4.969   1.136   3.065
 1696TIP3   OH2 5093   4.082   3.197   2.590
 1696TIP3    H1 5094   3.992   3.171   2.572
 1696TIP3    H2 5095   4.074   3.275   2.645
 1697TIP3   OH2 5096   0.530   5.400   3.103
 1697TIP3    H1 5097   0.447   5.418   3.058
 1697TIP3    H2 5098   0.568   5.486   3.119
 1698TIP3   OH2 5099   3.971   0.622   4.128
 1698TIP3    H1 5100   3.982   0.605   4.222
 1698TIP3    H2 5101   3.990   0.715   4.118
 1699TIP3   OH2 5102   2.624   0.250   3.070
 1699TIP3    H1 5103   2.658   0.201   3.146
 1699TIP3    H2 5104   2.692   0.314   3.050
 1700TIP3   OH2 5105   5.335   1.853   0.113
 1700TIP3    H1 5106   5.276   1.911   0.066
 1700TIP3    H2 5107   5.375   1.799   0.044
 1701TIP3   OH2 5108   2.168   4.185   2.232
 1701TIP3    H1 5109   2.128   4.113   2.183
 1701TIP3    H2 5110   2.130   4.179   2.320
 1702TIP3   OH2 5111   4.268   5.324   2.922
 1702TIP3    H1 5112   4.282   5.290   3.011
 1702TIP3    H2 5113   4.173   5.324   2.911
 1703TIP3   OH2 5114   4.278   1.707   4.292
 1703TIP3    H1 5115   4.267   1.762   4.369
 1703TIP3    H2 5116   4.373   1.697   4.283
 1704TIP3   OH2 5117   1.104   5.657   4.465
 1704TIP3    H1 5118   1.038   5.617   4.408
 1704TIP3    H2 5119   1.171   5.589   4.474
 1705TIP3   OH2 5120   0.878   4.055   0.227
 1705TIP3    H1 5121   0.860   3.978   0.172
 1705TIP3    H2 5122   0.826   4.125   0.187
 1706TIP3   OH2 5123   4.859   4.524   2.885
 1706TIP3    H1 5124   4.899   4.611   2.890
 1706TIP3    H2 5125   4.765   4.540   2.896
 1707TIP3   OH2 5126   0.711   4.512   1.372
 1707TIP3    H1 5127   0.709   4.607   1.358
 1707TIP3    H2 5128   0.682   4.475   1.289
 1708TIP3   OH2 5129   0.259   1.848   2.024
 1708TIP3    H1 5130   0.180   1.801   2.049
 1708TIP3    H2 5131   0.236   1.940   2.032
 1709TIP3   OH2 5132   1.138   5.491   0.788
 1709TIP3    H1 5133   1.192   5.426   0.833
 1709TIP3    H2 5134   1.148   5.570   0.841
 1710TIP3   OH2 5135   0.888   1.514   2.209
 1710TIP3    H1 5136   0.860   1.526   2.300
 1710TIP3    H2 5137   0.873   1.422   2.191
 1711TIP3   OH2 5138   4.105   4.410   2.309
 1711TIP3    H1 5139   4.079   4.487   2.360
 1711TIP3    H2 5140   4.027   4.355   2.306
 1712TIP3   OH2 5141   1.178   3.232   4.894
 1712TIP3    H1 5142   1.165   3.218   4.800
 1712TIP3    H2 5143   1.095   3.266   4.925
 1713TIP3   OH2 5144   3.109   5.473   3.925
 1713TIP3    H1 5145   3.108   5.384   3.892
 1713TIP3    H2 5146   3.061   5.469   4.007
 1714TIP3   OH2 5147   5.804   0.867   2.449
 1714TIP3    H1 5148   5.880   0.924   2.438
 1714TIP3    H2 5149   5.731   0.927   2.467
 1715TIP3   OH2 5150   0.851   3.700   3.808
 1715TIP3    H1 5151   0.768   3.746   3.821
 1715TIP3    H2 5152   0.908   3.735   3.877
 1716TIP3   OH2 5153   3.040   3.798   4.894
 1716TIP3    H1 5154   3.065   3.863   4.829
 1716TIP3    H2 5155   3.063   3.837   4.978
 1717TIP3   OH2 5156   2.030   0.444   0.759
 1717TIP3    H1 5157   2.004   0.379   0.693
 1717TIP3    H2 5158   2.125   0.454   0.747
 1718TIP3   OH2 5159   3.294   0.448   1.748
 1718TIP3    H1 5160   3.336   0.527   1.714
 1718TIP3    H2 5161   3.256   0.405   1.671
 1719TIP3   OH2 5162   4.914   1.811   2.254
 1719TIP3    H1 5163   5.005   1.822   2.225
 1719TIP3    H2 5164   4.899   1.883   2.315
 1720TIP3   OH2 5165   6.265   0.218   2.179
 1720TIP3    H1 5166   6.263   0.162   2.101
 1720TIP3    H2 5167   6.175   0.248   2.189
 1721TIP3   OH2 5168   1.611   0.503   1.326
 1721TIP3    H1 5169   1.697   0.468   1.306
 1721TIP3    H2 5170   1.582   0.455   1.404
 1722TIP3   OH2 5171   0.674   3.816   4.301
 1722TIP3    H1 5172   0.747   3.771   4.342
 1722TIP3    H2 5173   0.666   3.774   4.215
 1723TIP3   OH2 5174   5.589   4.661   3.850
 1723TIP3    H1 5175   5.494   4.650   3.858
 1723TIP3    H2 5176   5.625   4.577   3.878
 1724TIP3   OH2 5177   4.985   3.807   4.384
 1724TIP3    H1 5178   5.069   3.840   4.416
 1724TIP3    H2 5179   4.933   3.885   4.366
 1725TIP3   OH2 5180   2.032   1.406   3.748
 1725TIP3    H1 5181   1.967   1.473   3.766
 1725TIP3    H2 5182   2.097   1.449   3.692
 1726TIP3   OH2 5183   3.728   0.415   1.329
 1726TIP3    H1 5184   3.767   0.480   1.270
 1726TIP3    H2 5185   3.800   0.356   1.351
 1727TIP3   OH2 5186   3.234   1.527   1.126
 1727TIP3    H1 5187   3.153   1.567   1.095
 1727TIP3    H2 5188   3.304   1.579   1.087
 1728TIP3   OH2 5189   3.047   0.640   0.175
 1728TIP3    H1 5190   3.049   0.620   0.082
 1728TIP3    H2 5191   2.976   0.586   0.210
 1729TIP3   OH2 5192   5.378   1.341   2.690
 1729TIP3    H1 5193   5.400   1.251   2.714
 1729TIP3    H2 5194   5.289   1.336   2.656
 1730TIP3   OH2 5195   1.305   1.409   4.598
 1730TIP3    H1 5196   1.301   1.326   4.646
 1730TIP3    H2 5197   1.312   1.383   4.506
 1731TIP3   OH2 5198   0.867   0.402   4.011
 1731TIP3    H1 5199   0.928   0.331   4.033
 1731TIP3    H2 5200   0.791   0.358   3.973
 1732TIP3   OH2 5201   0.823   3.804   0.088
 1732TIP3    H1 5202   0.909   3.808   0.130
 1732TIP3    H2 5203   0.785   3.723   0.120
 1733TIP3   OH2 5204   0.873   4.779   2.142
 1733TIP3    H1 5205   0.844   4.701   2.095
 1733TIP3    H2 5206   0.879   4.847   2.074
 1734TIP3   OH2 5207   1.056   1.921   1.075
 1734TIP3    H1 5208   1.114   1.997   1.087
 1734TIP3    H2 5209   1.002   1.920   1.154
 1735TIP3   OH2 5210   0.740   4.109   4.268
 1735TIP3    H1 5211   0.800   4.103   4.193
 1735TIP3    H2 5212   0.738   4.020   4.304
 1736TIP3   OH2 5213   6.091   2.151   1.906
 1736TIP3    H1 5214   6.051   2.064   1.914
 1736TIP3    H2 5215   6.053   2.188   1.827
 1737TIP3   OH2 5216   3.279   0.325   2.640
 1737TIP3    H1 5217   3.278   0.419   2.658
 1737TIP3    H2 5218   3.235   0.286   2.716
 1738TIP3   OH2 5219   1.214   4.981   2.654
 1738TIP3    H1 5220   1.121   4.982   2.675
 1738TIP3    H2 5221   1.227   4.899   2.605
 1739TIP3   OH2 5222   0.750   2.351   4.979
 1739TIP3    H1 5223   0.744   2.257   4.993
 1739TIP3    H2 5224   0.665   2.375   4.942
 1740TIP3   OH2 5225   4.527   2.908   1.476
 1740TIP3    H1 5226   4.602   2.964   1.496
 1740TIP3    H2 5227   4.542   2.879   1.386
 1741TIP3   OH2 5228   4.841   0.035   4.567
 1741TIP3    H1 5229   4.888   0.067   4.644
 1741TIP3    H2 5230   4.904   0.041   4.495
 1742TIP3   OH2 5231   3.347   3.576   0.686
 1742TIP3    H1 5232   3.358   3.506   0.621
 1742TIP3    H2 5233   3.270   3.625   0.657
 1743TIP3   OH2 5234   0.924   4.706   4.323
 1743TIP3    H1 5235   0.979   4.677   4.395
 1743TIP3    H2 5236   0.940   4.801   4.317
 1744TIP3   OH2 5237   3.930   5.544   2.473
 1744TIP3    H1 5238   3.982   5.528   2.552
 1744TIP3    H2 5239   3.958   5.630   2.443
 1745TIP3   OH2 5240   1.216   0.067   4.331
 1745TIP3    H1 5241   1.276   0.013   4.280
 1745TIP3    H2 5242   1.246   0.059   4.421
 1746TIP3   OH2 5243   1.245   0.758   3.903
 1746TIP3    H1 5244   1.160   0.722   3.879
 1746TIP3    H2 5245   1.297   0.752   3.822
 1747TIP3   OH2 5246   6.358   5.055   3.543
 1747TIP3    H1 5247   6.364   4.969   3.501
 1747TIP3    H2 5248   6.310   5.038   3.624
 1748TIP3   OH2 5249   2.184   0.463   3.921
 1748TIP3    H1 5250   2.092   0.488   3.928
 1748TIP3    H2 5251   2.194   0.388   3.979
 1749TIP3   OH2 5252   2.345   5.180   3.844
 1749TIP3    H1 5253   2.265   5.131   3.858
 1749TIP3    H2 5254   2.415   5.116   3.855
 1750TIP3   OH2 5255   0.215   2.010   1.029
 1750TIP3    H1 5256   0.144   2.038   0.972
 1750TIP3    H2 5257   0.180   2.020   1.118
 1751TIP3   OH2 5258   4.717   1.351   1.827
 1751TIP3    H1 5259   4.718   1.258   1.803
 1751TIP3    H2 5260   4.666   1.354   1.908
 1752TIP3   OH2 5261   5.019   5.447   3.048
 1752TIP3    H1 5262   5.108   5.464   3.018
 1752TIP3    H2 5263   4.964   5.501   2.990
 1753TIP3   OH2 5264   3.247   4.257   2.852
 1753TIP3    H1 5265   3.273   4.292   2.937
 1753TIP3    H2 5266   3.207   4.172   2.873
 1754TIP3   OH2 5267   5.992   5.917   3.604
 1754TIP3    H1 5268   5.913   5.904   3.551
 1754TIP3    H2 5269   5.978   6.000   3.649
 1755TIP3   OH2 5270   0.241   4.202   4.668
 1755TIP3    H1 5271   0.210   4.140   4.602
 1755TIP3    H2 5272   0.325   4.167   4.697
 1756TIP3   OH2 5273   4.441   0.206   3.515
 1756TIP3    H1 5274   4.406   0.291   3.489
 1756TIP3    H2 5275   4.366   0.160   3.554
 1757TIP3   OH2 5276   3.999   1.643   1.761
 1757TIP3    H1 5277   3.976   1.601   1.678
 1757TIP3    H2 5278   4.049   1.577   1.808
 1758TIP3   OH2 5279   5.973   4.671   2.474
 1758TIP3    H1 5280   5.895   4.622   2.447
 1758TIP3    H2 5281   5.943   4.728   2.544
 1759TIP3   OH2 5282   4.646   4.316   4.405
 1759TIP3    H1 5283   4.639   4.303   4.311
 1759TIP3    H2 5284   4.663   4.228   4.440
 1760TIP3   OH2 5285   1.445   5.829   4.348
 1760TIP3    H1 5286   1.464   5.911   4.394
 1760TIP3    H2 5287   1.506   5.766   4.385
 1761TIP3   OH2 5288   4.492   0.575   1.979
 1761TIP3    H1 5289   4.445   0.593   1.897
 1761TIP3    H2 5290   4.538   0.492   1.963
 1762TIP3   OH2 5291   2.332   4.726   2.655
 1762TIP3    H1 5292   2.304   4.790   2.589
 1762TIP3    H2 5293   2.252   4.705   2.703
 1763TIP3   OH2 5294   6.010   2.026   0.342
 1763TIP3    H1 5295   6.035   1.987   0.258
 1763TIP3    H2 5296   5.996   1.951   0.400
 1764TIP3   OH2 5297   6.125   3.012   1.666
 1764TIP3    H1 5298   6.054   2.971   1.715
 1764TIP3    H2 5299   6.141   2.953   1.592
 1765TIP3   OH2 5300   5.058   3.550   1.840
 1765TIP3    H1 5301   5.024   3.604   1.912
 1765TIP3    H2 5302   5.087   3.470   1.883
 1766TIP3   OH2 5303   1.106   0.178   4.912
 1766TIP3    H1 5304   1.164   0.161   4.838
 1766TIP3    H2 5305   1.027   0.128   4.893
 1767TIP3   OH2 5306   1.532   2.353   3.417
 1767TIP3    H1 5307   1.441   2.357   3.446
 1767TIP3    H2 5308   1.583   2.378   3.494
 1768TIP3   OH2 5309   4.329   4.173   4.875
 1768TIP3    H1 5310   4.240   4.184   4.906
 1768TIP3    H2 5311   4.367   4.261   4.881
 1769TIP3   OH2 5312   1.690   2.848   2.629
 1769TIP3    H1 5313   1.661   2.769   2.583
 1769TIP3    H2 5314   1.785   2.852   2.613
 1770TIP3   OH2 5315   1.640   1.778   3.448
 1770TIP3    H1 5316   1.601   1.837   3.383
 1770TIP3    H2 5317   1.721   1.822   3.474
 1771TIP3   OH2 5318   6.112   2.735   1.086
 1771TIP3    H1 5319   6.178   2.802   1.103
 1771TIP3    H2 5320   6.124   2.711   0.995
 1772TIP3   OH2 5321   5.700   1.863   3.864
 1772TIP3    H1 5322   5.794   1.845   3.874
 1772TIP3    H2 5323   5.657   1.802   3.924
 1773TIP3   OH2 5324   2.372   4.580   3.366
 1773TIP3    H1 5325   2.290   4.629   3.360
 1773TIP3    H2 5326   2.371   4.524   3.288
 1774TIP3   OH2 5327   4.648   2.135   2.505
 1774TIP3    H1 5328   4.708   2.105   2.574
 1774TIP3    H2 5329   4.572   2.078   2.514
 1775TIP3   OH2 5330   3.440   0.403   3.694
 1775TIP3    H1 5331   3.449   0.469   3.764
 1775TIP3    H2 5332   3.506   0.337   3.715
 1776TIP3   OH2 5333   2.338   0.754   4.811
 1776TIP3    H1 5334   2.310   0.846   4.809
 1776TIP3    H2 5335   2.346   0.729   4.719
 1777TIP3   OH2 5336   4.516   3.133   4.836
 1777TIP3    H1 5337   4.548   3.144   4.747
 1777TIP3    H2 5338   4.506   3.222   4.869
 1778TIP3   OH2 5339   3.173   5.820   1.721
 1778TIP3    H1 5340   3.172   5.903   1.768
 1778TIP3    H2 5341   3.156   5.754   1.789
 1779TIP3   OH2 5342   2.654   2.386   0.595
 1779TIP3    H1 5343   2.595   2.311   0.609
 1779TIP3    H2 5344   2.603   2.462   0.623
 1780TIP3   OH2 5345   3.407   0.542   1.018
 1780TIP3    H1 5346   3.414   0.589   1.101
 1780TIP3    H2 5347   3.320   0.503   1.020
 1781TIP3   OH2 5348   2.959   3.047   1.327
 1781TIP3    H1 5349   2.975   2.968   1.377
 1781TIP3    H2 5350   3.013   3.114   1.369
 1782TIP3   OH2 5351   3.800   3.635   3.164
 1782TIP3    H1 5352   3.775   3.672   3.248
 1782TIP3    H2 5353   3.736   3.565   3.149
 1783TIP3   OH2 5354   2.492   0.366   0.384
 1783TIP3    H1 5355   2.521   0.276   0.403
 1783TIP3    H2 5356   2.563   0.404   0.332
 1784TIP3   OH2 5357   0.588   4.048   1.798
 1784TIP3    H1 5358   0.555   4.102   1.870
 1784TIP3    H2 5359   0.515   4.044   1.736
 1785TIP3   OH2 5360   4.974   0.182   1.195
 1785TIP3    H1 5361   4.950   0.200   1.286
 1785TIP3    H2 5362   5.060   0.224   1.185
 1786TIP3   OH2 5363   3.773   3.516   1.209
 1786TIP3    H1 5364   3.813   3.547   1.290
 1786TIP3    H2 5365   3.837   3.537   1.141
 1787TIP3   OH2 5366   3.710   5.318   2.030
 1787TIP3    H1 5367   3.765   5.243   2.010
 1787TIP3    H2 5368   3.621   5.283   2.033
 1788TIP3   OH2 5369   5.592   4.267   2.612
 1788TIP3    H1 5370   5.614   4.307   2.527
 1788TIP3    H2 5371   5.654   4.306   2.673
 1789TIP3   OH2 5372   5.728   0.758   3.724
 1789TIP3    H1 5373   5.638   0.756   3.690
 1789TIP3    H2 5374   5.717   0.777   3.817
 1790TIP3   OH2 5375   1.326   3.809   1.529
 1790TIP3    H1 5376   1.349   3.740   1.466
 1790TIP3    H2 5377   1.291   3.880   1.476
 1791TIP3   OH2 5378   4.462   0.079   1.660
 1791TIP3    H1 5379   4.385   0.135   1.652
 1791TIP3    H2 5380   4.427  -0.010   1.663
 1792TIP3   OH2 5381   3.244   0.467   4.104
 1792TIP3    H1 5382   3.299   0.390   4.119
 1792TIP3    H2 5383   3.251   0.517   4.185
 1793TIP3   OH2 5384   4.673   0.548   3.615
 1793TIP3    H1 5385   4.746   0.611   3.613
 1793TIP3    H2 5386   4.714   0.466   3.643
 1794TIP3   OH2 5387   3.566   4.207   1.601
 1794TIP3    H1 5388   3.593   4.121   1.571
 1794TIP3    H2 5389   3.486   4.191   1.651
 1795TIP3   OH2 5390   2.052   0.429   1.504
 1795TIP3    H1 5391   2.034   0.500   1.565
 1795TIP3    H2 5392   2.145   0.438   1.484
 1796TIP3   OH2 5393   3.067   4.395   3.288
 1796TIP3    H1 5394   3.040   4.379   3.379
 1796TIP3    H2 5395   2.993   4.443   3.250
 1797TIP3   OH2 5396   0.747   2.353   1.668
 1797TIP3    H1 5397   0.682   2.324   1.732
 1797TIP3    H2 5398   0.729   2.447   1.657
 1798TIP3   OH2 5399   4.616   3.150   0.673
 1798TIP3    H1 5400   4.663   3.155   0.756
 1798TIP3    H2 5401   4.591   3.240   0.654
 1799TIP3   OH2 5402   5.467   2.287   0.939
 1799TIP3    H1 5403   5.412   2.220   0.979
 1799TIP3    H2 5404   5.555   2.267   0.970
 1800TIP3   OH2 5405   3.710   2.002   0.094
 1800TIP3    H1 5406   3.711   2.062   0.019
 1800TIP3    H2 5407   3.618   2.000   0.121
 1801TIP3   OH2 5408   1.666   4.113   3.569
 1801TIP3    H1 5409   1.606   4.182   3.598
 1801TIP3    H2 5410   1.745   4.159   3.543
 1802TIP3   OH2 5411   2.033   0.466   2.243
 1802TIP3    H1 5412   2.003   0.520   2.170
 1802TIP3    H2 5413   2.089   0.524   2.294
 1803TIP3   OH2 5414   2.254   3.240   3.673
 1803TIP3    H1 5415   2.324   3.186   3.636
 1803TIP3    H2 5416   2.299   3.302   3.730
 1804TIP3   OH2 5417   3.346   1.488   4.328
 1804TIP3    H1 5418   3.310   1.576   4.331
 1804TIP3    H2 5419   3.277   1.432   4.364
 1805TIP3   OH2 5420   5.449   3.628   3.595
 1805TIP3    H1 5421   5.368   3.618   3.545
 1805TIP3    H2 5422   5.500   3.550   3.573
 1806TIP3   OH2 5423   5.176   2.322   3.973
 1806TIP3    H1 5424   5.264   2.316   3.935
 1806TIP3    H2 5425   5.188   2.295   4.064
 1807TIP3   OH2 5426   0.738   5.641   1.292
 1807TIP3    H1 5427   0.812   5.701   1.279
 1807TIP3    H2 5428   0.742   5.617   1.384
 1808TIP3   OH2 5429   3.064   0.252   0.581
 1808TIP3    H1 5430   3.058   0.331   0.634
 1808TIP3    H2 5431   3.151   0.217   0.601
 1809TIP3   OH2 5432   1.887   2.529   3.948
 1809TIP3    H1 5433   1.810   2.569   3.905
 1809TIP3    H2 5434   1.851   2.484   4.024
 1810TIP3   OH2 5435   2.743   3.972   4.167
 1810TIP3    H1 5436   2.665   4.024   4.146
 1810TIP3    H2 5437   2.726   3.887   4.125
 1811TIP3   OH2 5438   5.430   0.202   2.318
 1811TIP3    H1 5439   5.373   0.265   2.363
 1811TIP3    H2 5440   5.468   0.149   2.388
 1812TIP3   OH2 5441   4.881   3.752   2.529
 1812TIP3    H1 5442   4.961   3.799   2.551
 1812TIP3    H2 5443   4.855   3.787   2.444
 1813TIP3   OH2 5444   1.397   3.691   2.404
 1813TIP3    H1 5445   1.379   3.662   2.314
 1813TIP3    H2 5446   1.356   3.777   2.410
 1814TIP3   OH2 5447   2.823   3.414   0.397
 1814TIP3    H1 5448   2.747   3.464   0.368
 1814TIP3    H2 5449   2.897   3.473   0.380
 1815TIP3   OH2 5450   6.072   1.157   0.936
 1815TIP3    H1 5451   5.993   1.103   0.932
 1815TIP3    H2 5452   6.049   1.230   0.993
 1816TIP3   OH2 5453   6.218   1.594   2.242
 1816TIP3    H1 5454   6.168   1.607   2.322
 1816TIP3    H2 5455   6.225   1.499   2.233
 1817TIP3   OH2 5456   5.015   5.821   0.136
 1817TIP3    H1 5457   5.092   5.875   0.117
 1817TIP3    H2 5458   5.024   5.799   0.229
 1818TIP3   OH2 5459   5.796   0.360   3.972
 1818TIP3    H1 5460   5.777   0.411   4.050
 1818TIP3    H2 5461   5.773   0.417   3.899
 1819TIP3   OH2 5462   0.832   1.989   2.332
 1819TIP3    H1 5463   0.899   1.921   2.326
 1819TIP3    H2 5464   0.881   2.069   2.351
 1820TIP3   OH2 5465   4.201   2.327   1.672
 1820TIP3    H1 5466   4.175   2.416   1.649
 1820TIP3    H2 5467   4.120   2.286   1.704
 1821TIP3   OH2 5468   0.537   4.444   4.852
 1821TIP3    H1 5469   0.528   4.362   4.901
 1821TIP3    H2 5470   0.566   4.416   4.765
 1822TIP3   OH2 5471   0.192   4.023   2.893
 1822TIP3    H1 5472   0.186   4.085   2.966
 1822TIP3    H2 5473   0.275   3.977   2.908
 1823TIP3   OH2 5474   4.021   2.191   3.797
 1823TIP3    H1 5475   4.108   2.156   3.818
 1823TIP3    H2 5476   4.000   2.249   3.870
 1824TIP3   OH2 5477   0.672   2.434   0.198
 1824TIP3    H1 5478   0.596   2.489   0.178
 1824TIP3    H2 5479   0.653   2.350   0.155
 1825TIP3   OH2 5480   5.377   1.435   1.257
 1825TIP3    H1 5481   5.384   1.403   1.167
 1825TIP3    H2 5482   5.376   1.531   1.248
 1826TIP3   OH2 5483   1.095   1.137   4.210
 1826TIP3    H1 5484   1.050   1.062   4.252
 1826TIP3    H2 5485   1.166   1.097   4.161
 1827TIP3   OH2 5486   5.902   2.516   0.805
 1827TIP3    H1 5487   5.862   2.519   0.719
 1827TIP3    H2 5488   5.906   2.422   0.826
 1828TIP3   OH2 5489   4.890   1.890   3.919
 1828TIP3    H1 5490   4.860   1.953   3.986
 1828TIP3    H2 5491   4.870   1.805   3.957
 1829TIP3   OH2 5492   4.325   0.431   3.439
 1829TIP3    H1 5493   4.235   0.453   3.465
 1829TIP3    H2 5494   4.376   0.510   3.461
 1830TIP3   OH2 5495   3.267   5.963   4.101
 1830TIP3    H1 5496   3.348   5.922   4.133
 1830TIP3    H2 5497   3.285   6.057   4.103
 1831TIP3   OH2 5498   3.518   5.518   4.146
 1831TIP3    H1 5499   3.513   5.424   4.132
 1831TIP3    H2 5500   3.509   5.529   4.241
 1832TIP3   OH2 5501   1.906   2.162   4.454
 1832TIP3    H1 5502   1.943   2.211   4.380
 1832TIP3    H2 5503   1.831   2.116   4.417
 1833TIP3   OH2 5504   1.955  -0.002   1.905
 1833TIP3    H1 5505   2.033  -0.019   1.957
 1833TIP3    H2 5506   1.908   0.066   1.954
 1834TIP3   OH2 5507   6.155   5.360   4.169
 1834TIP3    H1 5508   6.211   5.418   4.219
 1834TIP3    H2 5509   6.076   5.351   4.221
 1835TIP3   OH2 5510   0.031   3.003   5.147
 1835TIP3    H1 5511  -0.035   2.944   5.110
 1835TIP3    H2 5512   0.090   3.022   5.075
 1836TIP3   OH2 5513   6.215   3.414   3.741
 1836TIP3    H1 5514   6.223   3.506   3.715
 1836TIP3    H2 5515   6.177   3.370   3.665
 1837TIP3   OH2 5516   3.725   2.658   3.291
 1837TIP3    H1 5517   3.807   2.693   3.256
 1837TIP3    H2 5518   3.676   2.735   3.317
 1838TIP3   OH2 5519   3.508   3.513   1.950
 1838TIP3    H1 5520   3.454   3.588   1.972
 1838TIP3    H2 5521   3.532   3.526   1.858
 1839TIP3   OH2 5522   2.505   0.116   0.770
 1839TIP3    H1 5523   2.468   0.037   0.731
 1839TIP3    H2 5524   2.460   0.188   0.725
 1840TIP3   OH2 5525   4.250   0.714   0.814
 1840TIP3    H1 5526   4.335   0.690   0.853
 1840TIP3    H2 5527   4.202   0.756   0.885
 1841TIP3   OH2 5528   6.253   1.984   2.911
 1841TIP3    H1 5529   6.300   1.965   2.830
 1841TIP3    H2 5530   6.174   1.931   2.906
 1842TIP3   OH2 5531   2.184   5.563   0.173
 1842TIP3    H1 5532   2.093   5.575   0.144
 1842TIP3    H2 5533   2.176   5.524   0.260
 1843TIP3   OH2 5534   0.127   4.381   2.347
 1843TIP3    H1 5535   0.058   4.382   2.413
 1843TIP3    H2 5536   0.155   4.289   2.341
 1844TIP3   OH2 5537   1.413   2.316   1.568
 1844TIP3    H1 5538   1.506   2.340   1.560
 1844TIP3    H2 5539   1.368   2.382   1.516
 1845TIP3   OH2 5540   5.978   4.246   2.110
 1845TIP3    H1 5541   6.057   4.198   2.132
 1845TIP3    H2 5542   5.958   4.298   2.188
 1846TIP3   OH2 5543   0.866   3.290   0.075
 1846TIP3    H1 5544   0.789   3.257   0.121
 1846TIP3    H2 5545   0.939   3.237   0.108
 1847TIP3   OH2 5546   0.285   4.792   0.742
 1847TIP3    H1 5547   0.191   4.777   0.737
 1847TIP3    H2 5548   0.293   4.880   0.779
 1848TIP3   OH2 5549   5.432   5.110   2.605
 1848TIP3    H1 5550   5.354   5.056   2.613
 1848TIP3    H2 5551   5.411   5.191   2.652
 1849TIP3   OH2 5552   2.418   0.456   4.710
 1849TIP3    H1 5553   2.359   0.529   4.730
 1849TIP3    H2 5554   2.441   0.420   4.796
 1850TIP3   OH2 5555   0.591   3.580   1.940
 1850TIP3    H1 5556   0.600   3.576   1.844
 1850TIP3    H2 5557   0.566   3.670   1.958
 1851TIP3   OH2 5558   3.283   5.474   1.162
 1851TIP3    H1 5559   3.374   5.496   1.145
 1851TIP3    H2 5560   3.242   5.559   1.182
 1852TIP3   OH2 5561   2.016   5.228   4.792
 1852TIP3    H1 5562   1.939   5.250   4.740
 1852TIP3    H2 5563   2.004   5.135   4.814
 1853TIP3   OH2 5564   0.487   0.737   2.107
 1853TIP3    H1 5565   0.499   0.812   2.165
 1853TIP3    H2 5566   0.576   0.703   2.093
 1854TIP3   OH2 5567   3.487   0.767   0.139
 1854TIP3    H1 5568   3.436   0.750   0.218
 1854TIP3    H2 5569   3.578   0.762   0.168
 1855TIP3   OH2 5570   2.472   0.162   3.976
 1855TIP3    H1 5571   2.526   0.181   4.052
 1855TIP3    H2 5572   2.493   0.230   3.913
 1856TIP3   OH2 5573   5.254   0.119   0.646
 1856TIP3    H1 5574   5.210   0.127   0.731
 1856TIP3    H2 5575   5.281   0.028   0.642
 1857TIP3   OH2 5576   2.170   4.836   0.605
 1857TIP3    H1 5577   2.115   4.807   0.533
 1857TIP3    H2 5578   2.232   4.898   0.565
 1858TIP3   OH2 5579   4.130   4.782   2.331
 1858TIP3    H1 5580   4.222   4.808   2.324
 1858TIP3    H2 5581   4.131   4.712   2.397
 1859TIP3   OH2 5582   5.261   4.659   2.984
 1859TIP3    H1 5583   5.263   4.625   3.073
 1859TIP3    H2 5584   5.303   4.592   2.931
 1860TIP3   OH2 5585   5.580   1.343   4.430
 1860TIP3    H1 5586   5.490   1.350   4.400
 1860TIP3    H2 5587   5.617   1.431   4.417
 1861TIP3   OH2 5588   2.883   2.767   2.131
 1861TIP3    H1 5589   2.978   2.760   2.140
 1861TIP3    H2 5590   2.857   2.684   2.091
 1862TIP3   OH2 5591   2.406   0.749   3.270
 1862TIP3    H1 5592   2.344   0.684   3.237
 1862TIP3    H2 5593   2.472   0.698   3.316
 1863TIP3   OH2 5594   1.276   0.594   0.464
 1863TIP3    H1 5595   1.187   0.613   0.493
 1863TIP3    H2 5596   1.298   0.665   0.404
 1864TIP3   OH2 5597   0.806   3.287   2.353
 1864TIP3    H1 5598   0.804   3.194   2.374
 1864TIP3    H2 5599   0.811   3.331   2.438
 1865TIP3   OH2 5600   4.407   1.032   4.442
 1865TIP3    H1 5601   4.498   1.044   4.468
 1865TIP3    H2 5602   4.388   1.106   4.384
 1866TIP3   OH2 5603   2.002   5.212   0.637
 1866TIP3    H1 5604   2.054   5.291   0.622
 1866TIP3    H2 5605   2.058   5.157   0.692
 1867TIP3   OH2 5606   2.321   3.139   2.718
 1867TIP3    H1 5607   2.412   3.119   2.736
 1867TIP3    H2 5608   2.291   3.185   2.797
 1868TIP3   OH2 5609   6.212   2.739   0.492
 1868TIP3    H1 5610   6.226   2.685   0.414
 1868TIP3    H2 5611   6.251   2.689   0.563
 1869TIP3   OH2 5612   1.407   0.485   0.968
 1869TIP3    H1 5613   1.317   0.495   0.998
 1869TIP3    H2 5614   1.404   0.507   0.875
 1870TIP3   OH2 5615   5.432   1.846   4.746
 1870TIP3    H1 5616   5.368   1.916   4.756
 1870TIP3    H2 5617   5.411   1.785   4.817
 1871TIP3   OH2 5618   1.257   0.559   1.552
 1871TIP3    H1 5619   1.310   0.628   1.591
 1871TIP3    H2 5620   1.167   0.589   1.564
 1872TIP3   OH2 5621   1.972   2.022   5.173
 1872TIP3    H1 5622   2.051   1.989   5.214
 1872TIP3    H2 5623   1.983   2.004   5.079
 1873TIP3   OH2 5624   2.024   5.564   0.661
 1873TIP3    H1 5625   2.044   5.562   0.755
 1873TIP3    H2 5626   2.058   5.648   0.631
 1874TIP3   OH2 5627   2.628   2.501   1.137
 1874TIP3    H1 5628   2.722   2.510   1.151
 1874TIP3    H2 5629   2.616   2.514   1.043
 1875TIP3   OH2 5630   2.301   0.427   3.636
 1875TIP3    H1 5631   2.380   0.478   3.650
 1875TIP3    H2 5632   2.256   0.429   3.721
 1876TIP3   OH2 5633   5.331   0.656   1.235
 1876TIP3    H1 5634   5.295   0.683   1.319
 1876TIP3    H2 5635   5.259   0.612   1.190
 1877TIP3   OH2 5636   6.049   0.710   3.976
 1877TIP3    H1 5637   6.114   0.731   3.908
 1877TIP3    H2 5638   6.090   0.641   4.027
 1878TIP3   OH2 5639   4.187   5.752   5.157
 1878TIP3    H1 5640   4.122   5.698   5.201
 1878TIP3    H2 5641   4.137   5.821   5.115
 1879TIP3   OH2 5642   5.349   0.229   3.877
 1879TIP3    H1 5643   5.312   0.171   3.810
 1879TIP3    H2 5644   5.443   0.211   3.875
 1880TIP3   OH2 5645   5.494   3.332   2.956
 1880TIP3    H1 5646   5.473   3.256   3.010
 1880TIP3    H2 5647   5.439   3.323   2.878
 1881TIP3   OH2 5648   6.223   5.282   3.399
 1881TIP3    H1 5649   6.271   5.207   3.432
 1881TIP3    H2 5650   6.131   5.261   3.416
 1882TIP3   OH2 5651   6.356   0.983   2.858
 1882TIP3    H1 5652   6.340   1.057   2.799
 1882TIP3    H2 5653   6.351   0.906   2.802
 1883TIP3   OH2 5654   3.620   0.314   4.165
 1883TIP3    H1 5655   3.594   0.387   4.222
 1883TIP3    H2 5656   3.694   0.347   4.115
 1884TIP3   OH2 5657   1.480   2.178   1.814
 1884TIP3    H1 5658   1.397   2.154   1.854
 1884TIP3    H2 5659   1.456   2.216   1.729
 1885TIP3   OH2 5660   3.306   3.036   1.144
 1885TIP3    H1 5661   3.365   3.101   1.183
 1885TIP3    H2 5662   3.262   3.084   1.074
 1886TIP3   OH2 5663   6.206   4.798   4.535
 1886TIP3    H1 5664   6.297   4.802   4.564
 1886TIP3    H2 5665   6.212   4.790   4.439
 1887TIP3   OH2 5666   6.171   1.561   3.245
 1887TIP3    H1 5667   6.143   1.470   3.241
 1887TIP3    H2 5668   6.092   1.612   3.223
 1888TIP3   OH2 5669   0.976   5.551   3.848
 1888TIP3    H1 5670   1.019   5.605   3.782
 1888TIP3    H2 5671   0.884   5.550   3.822
 1889TIP3   OH2 5672   2.484   1.059   1.414
 1889TIP3    H1 5673   2.449   1.018   1.335
 1889TIP3    H2 5674   2.521   0.987   1.464
 1890TIP3   OH2 5675   4.003   0.242   4.719
 1890TIP3    H1 5676   3.954   0.161   4.702
 1890TIP3    H2 5677   3.985   0.298   4.644
 1891TIP3   OH2 5678   4.864   5.115   0.213
 1891TIP3    H1 5679   4.844   5.045   0.151
 1891TIP3    H2 5680   4.952   5.144   0.188
 1892TIP3   OH2 5681   1.584   1.533   4.863
 1892TIP3    H1 5682   1.607   1.475   4.790
 1892TIP3    H2 5683   1.493   1.559   4.845
 1893TIP3   OH2 5684   6.120   2.697   0.782
 1893TIP3    H1 5685   6.067   2.618   0.775
 1893TIP3    H2 5686   6.210   2.666   0.771
 1894TIP3   OH2 5687   5.598   0.384   3.500
 1894TIP3    H1 5688   5.535   0.319   3.530
 1894TIP3    H2 5689   5.661   0.334   3.448
 1895TIP3   OH2 5690   5.775   0.074   2.839
 1895TIP3    H1 5691   5.822   0.117   2.911
 1895TIP3    H2 5692   5.774   0.139   2.769
 1896TIP3   OH2 5693   5.030   4.738   2.833
 1896TIP3    H1 5694   5.046   4.817   2.781
 1896TIP3    H2 5695   5.112   4.725   2.881
 1897TIP3   OH2 5696   2.078   2.080   4.177
 1897TIP3    H1 5697   2.000   2.042   4.137
 1897TIP3    H2 5698   2.046   2.157   4.225
 1898TIP3   OH2 5699   4.703   5.299   2.046
 1898TIP3    H1 5700   4.618   5.280   2.007
 1898TIP3    H2 5701   4.765   5.282   1.975
 1899TIP3   OH2 5702   6.334   2.100   0.926
 1899TIP3    H1 5703   6.270   2.066   0.864
 1899TIP3    H2 5704   6.289   2.100   1.010
 1900TIP3   OH2 5705   2.990   1.287   4.005
 1900TIP3    H1 5706   2.963   1.367   4.050
 1900TIP3    H2 5707   2.908   1.248   3.974
 1901TIP3   OH2 5708   4.772   1.872   3.424
 1901TIP3    H1 5709   4.752   1.891   3.515
 1901TIP3    H2 5710   4.698   1.819   3.393
 1902TIP3   OH2 5711   2.203  -0.008   2.070
 1902TIP3    H1 5712   2.244  -0.033   2.153
 1902TIP3    H2 5713   2.266   0.052   2.029
 1903TIP3   OH2 5714   0.164   3.208   0.190
 1903TIP3    H1 5715   0.074   3.191   0.219
 1903TIP3    H2 5716   0.181   3.141   0.124
 1904TIP3   OH2 5717   6.063   4.512   4.585
 1904TIP3    H1 5718   6.154   4.496   4.610
 1904TIP3    H2 5719   6.015   4.438   4.619
 1905TIP3   OH2 5720   3.715   2.876   2.929
 1905TIP3    H1 5721   3.748   2.963   2.907
 1905TIP3    H2 5722   3.621   2.880   2.910
 1906TIP3   OH2 5723   2.369   3.059   4.595
 1906TIP3    H1 5724   2.449   3.036   4.549
 1906TIP3    H2 5725   2.398   3.100   4.676
 1907TIP3   OH2 5726   1.758   1.054   2.929
 1907TIP3    H1 5727   1.780   1.099   3.010
 1907TIP3    H2 5728   1.683   0.999   2.952
 1908TIP3   OH2 5729   3.781   4.384   4.525
 1908TIP3    H1 5730   3.820   4.325   4.590
 1908TIP3    H2 5731   3.695   4.346   4.507
 1909TIP3   OH2 5732   5.715   4.598   4.114
 1909TIP3    H1 5733   5.741   4.598   4.206
 1909TIP3    H2 5734   5.666   4.679   4.103
 1910TIP3   OH2 5735   1.019   3.487   3.688
 1910TIP3    H1 5736   0.946   3.458   3.634
 1910TIP3    H2 5737   0.985   3.561   3.738
 1911TIP3   OH2 5738   2.334   3.916   0.125
 1911TIP3    H1 5739   2.395   3.959   0.066
 1911TIP3    H2 5740   2.254   3.905   0.073
 1912TIP3   OH2 5741   0.565   2.000   2.262
 1912TIP3    H1 5742   0.538   1.908   2.268
 1912TIP3    H2 5743   0.660   1.996   2.249
 1913TIP3   OH2 5744   5.228   3.948   2.925
 1913TIP3    H1 5745   5.134   3.941   2.936
 1913TIP3    H2 5746   5.240   4.001   2.846
 1914TIP3   OH2 5747   2.037   4.890   3.560
 1914TIP3    H1 5748   1.990   4.913   3.640
 1914TIP3    H2 5749   1.987   4.933   3.490
 1915TIP3   OH2 5750   0.545   3.360   0.319
 1915TIP3    H1 5751   0.596   3.355   0.400
 1915TIP3    H2 5752   0.454   3.358   0.349
 1916TIP3   OH2 5753   2.495   1.421   1.111
 1916TIP3    H1 5754   2.557   1.456   1.047
 1916TIP3    H2 5755   2.534   1.338   1.139
 1917TIP3   OH2 5756   4.859   0.416   4.309
 1917TIP3    H1 5757   4.816   0.502   4.305
 1917TIP3    H2 5758   4.838   0.383   4.396
 1918TIP3   OH2 5759   3.447   5.298   4.605
 1918TIP3    H1 5760   3.393   5.248   4.666
 1918TIP3    H2 5761   3.442   5.388   4.637
 1919TIP3   OH2 5762   3.604   1.102   1.546
 1919TIP3    H1 5763   3.637   1.190   1.566
 1919TIP3    H2 5764   3.522   1.118   1.499
 1920TIP3   OH2 5765   4.543   1.935   3.923
 1920TIP3    H1 5766   4.600   1.862   3.947
 1920TIP3    H2 5767   4.499   1.959   4.005
 1921TIP3   OH2 5768   6.124   2.298   1.533
 1921TIP3    H1 5769   6.178   2.318   1.456
 1921TIP3    H2 5770   6.163   2.351   1.603
 1922TIP3   OH2 5771   2.183   3.892   1.040
 1922TIP3    H1 5772   2.176   3.876   1.134
 1922TIP3    H2 5773   2.266   3.939   1.030
 1923TIP3   OH2 5774   1.007   2.719   1.017
 1923TIP3    H1 5775   1.097   2.715   0.984
 1923TIP3    H2 5776   0.967   2.792   0.970
 1924TIP3   OH2 5777   4.628   2.590   1.757
 1924TIP3    H1 5778   4.555   2.637   1.719
 1924TIP3    H2 5779   4.704   2.646   1.740
 1925TIP3   OH2 5780   3.892   2.375   1.331
 1925TIP3    H1 5781   3.875   2.285   1.301
 1925TIP3    H2 5782   3.833   2.429   1.279
 1926TIP3   OH2 5783   4.191   2.963   1.880
 1926TIP3    H1 5784   4.260   2.900   1.896
 1926TIP3    H2 5785   4.126   2.946   1.948
 1927TIP3   OH2 5786   1.790   1.978   4.874
 1927TIP3    H1 5787   1.743   2.040   4.930
 1927TIP3    H2 5788   1.880   2.010   4.873
 1928TIP3   OH2 5789   6.178   5.007   3.746
 1928TIP3    H1 5790   6.166   4.947   3.819
 1928TIP3    H2 5791   6.177   5.094   3.785
 1929TIP3   OH2 5792   2.785   2.902   2.372
 1929TIP3    H1 5793   2.829   2.983   2.344
 1929TIP3    H2 5794   2.772   2.853   2.291
 1930TIP3   OH2 5795   6.341   5.303   0.605
 1930TIP3    H1 5796   6.341   5.254   0.687
 1930TIP3    H2 5797   6.354   5.236   0.537
 1931TIP3   OH2 5798   1.401   4.472   4.568
 1931TIP3    H1 5799   1.326   4.414   4.562
 1931TIP3    H2 5800   1.370   4.555   4.532
 1932TIP3   OH2 5801   5.437   0.296   0.864
 1932TIP3    H1 5802   5.461   0.205   0.882
 1932TIP3    H2 5803   5.492   0.348   0.923
 1933TIP3   OH2 5804   5.076   5.240   3.778
 1933TIP3    H1 5805   5.042   5.306   3.717
 1933TIP3    H2 5806   5.092   5.163   3.723
 1934TIP3   OH2 5807   0.800   5.833   3.863
 1934TIP3    H1 5808   0.775   5.741   3.859
 1934TIP3    H2 5809   0.717   5.881   3.860
 1935TIP3   OH2 5810   0.294   2.651   4.818
 1935TIP3    H1 5811   0.335   2.599   4.750
 1935TIP3    H2 5812   0.365   2.702   4.856
 1936TIP3   OH2 5813   5.216   2.461   1.996
 1936TIP3    H1 5814   5.286   2.490   1.938
 1936TIP3    H2 5815   5.252   2.385   2.042
 1937TIP3   OH2 5816   2.140   3.166   4.802
 1937TIP3    H1 5817   2.155   3.078   4.768
 1937TIP3    H2 5818   2.085   3.208   4.736
 1938TIP3   OH2 5819   1.762   4.310   3.369
 1938TIP3    H1 5820   1.848   4.301   3.327
 1938TIP3    H2 5821   1.720   4.383   3.324
 1939TIP3   OH2 5822   2.641   1.911   2.765
 1939TIP3    H1 5823   2.563   1.870   2.803
 1939TIP3    H2 5824   2.655   1.864   2.683
 1940TIP3   OH2 5825   0.608   2.202   3.541
 1940TIP3    H1 5826   0.679   2.171   3.486
 1940TIP3    H2 5827   0.593   2.292   3.513
 1941TIP3   OH2 5828   4.033   3.955   0.591
 1941TIP3    H1 5829   4.125   3.953   0.565
 1941TIP3    H2 5830   3.998   3.871   0.559
 1942TIP3   OH2 5831   6.061   3.554   4.314
 1942TIP3    H1 5832   6.037   3.514   4.230
 1942TIP3    H2 5833   6.057   3.648   4.299
 1943TIP3   OH2 5834   0.578   2.245   1.993
 1943TIP3    H1 5835   0.527   2.323   1.969
 1943TIP3    H2 5836   0.611   2.264   2.081
 1944TIP3   OH2 5837   4.204   1.811   4.536
 1944TIP3    H1 5838   4.199   1.898   4.575
 1944TIP3    H2 5839   4.113   1.789   4.515
 1945TIP3   OH2 5840   2.782   4.552   1.680
 1945TIP3    H1 5841   2.746   4.617   1.620
 1945TIP3    H2 5842   2.708   4.496   1.702
 1946TIP3   OH2 5843   5.678   3.240   0.287
 1946TIP3    H1 5844   5.711   3.268   0.201
 1946TIP3    H2 5845   5.689   3.317   0.343
 1947TIP3   OH2 5846   6.050   1.375   1.118
 1947TIP3    H1 5847   5.976   1.363   1.177
 1947TIP3    H2 5848   6.026   1.449   1.063
 1948TIP3   OH2 5849   0.152   2.015   1.325
 1948TIP3    H1 5850   0.073   1.961   1.326
 1948TIP3    H2 5851   0.222   1.956   1.351
 1949TIP3   OH2 5852   4.342   4.649   2.976
 1949TIP3    H1 5853   4.429   4.609   2.980
 1949TIP3    H2 5854   4.357   4.733   2.932
 1950TIP3   OH2 5855   5.395   2.030   2.621
 1950TIP3    H1 5856   5.489   2.020   2.605
 1950TIP3    H2 5857   5.388   2.045   2.715
 1951TIP3   OH2 5858   4.905   5.336   5.147
 1951TIP3    H1 5859   4.863   5.300   5.225
 1951TIP3    H2 5860   4.900   5.265   5.083
 1952TIP3   OH2 5861   4.703   2.988   1.104
 1952TIP3    H1 5862   4.785   2.990   1.153
 1952TIP3    H2 5863   4.658   2.909   1.137
 1953TIP3   OH2 5864   3.259   2.473   1.731
 1953TIP3    H1 5865   3.283   2.508   1.817
 1953TIP3    H2 5866   3.164   2.459   1.737
 1954TIP3   OH2 5867   5.113   4.290   1.721
 1954TIP3    H1 5868   5.185   4.352   1.726
 1954TIP3    H2 5869   5.119   4.254   1.632
 1955TIP3   OH2 5870   2.145   3.727   4.978
 1955TIP3    H1 5871   2.050   3.740   4.972
 1955TIP3    H2 5872   2.155   3.634   4.998
 1956TIP3   OH2 5873   1.658   1.862   1.052
 1956TIP3    H1 5874   1.682   1.877   1.144
 1956TIP3    H2 5875   1.692   1.775   1.032
 1957TIP3   OH2 5876   5.497   3.191   0.512
 1957TIP3    H1 5877   5.456   3.109   0.540
 1957TIP3    H2 5878   5.556   3.166   0.441
 1958TIP3   OH2 5879   5.869   0.180   1.206
 1958TIP3    H1 5880   5.933   0.251   1.212
 1958TIP3    H2 5881   5.909   0.117   1.146
 1959TIP3   OH2 5882   1.183   1.388   3.665
 1959TIP3    H1 5883   1.146   1.395   3.752
 1959TIP3    H2 5884   1.110   1.363   3.609
 1960TIP3   OH2 5885   1.688   2.930   5.162
 1960TIP3    H1 5886   1.671   2.969   5.077
 1960TIP3    H2 5887   1.614   2.958   5.216
 1961TIP3   OH2 5888   3.031   5.045   2.383
 1961TIP3    H1 5889   2.970   4.978   2.414
 1961TIP3    H2 5890   3.106   5.038   2.442
 1962TIP3   OH2 5891   0.177   3.049   4.915
 1962TIP3    H1 5892   0.140   3.015   4.834
 1962TIP3    H2 5893   0.171   3.144   4.906
 1963TIP3   OH2 5894   2.453   3.865   0.675
 1963TIP3    H1 5895   2.537   3.852   0.719
 1963TIP3    H2 5896   2.420   3.947   0.712
 1964TIP3   OH2 5897   5.601   2.256   0.234
 1964TIP3    H1 5898   5.574   2.167   0.259
 1964TIP3    H2 5899   5.593   2.257   0.139
 1965TIP3   OH2 5900   5.732   4.707   0.799
 1965TIP3    H1 5901   5.721   4.768   0.873
 1965TIP3    H2 5902   5.827   4.698   0.790
 1966TIP3   OH2 5903   0.341   3.420   3.157
 1966TIP3    H1 5904   0.286   3.351   3.121
 1966TIP3    H2 5905   0.398   3.446   3.084
 1967TIP3   OH2 5906   4.596   0.911   2.948
 1967TIP3    H1 5907   4.683   0.904   2.910
 1967TIP3    H2 5908   4.575   0.822   2.978
 1968TIP3   OH2 5909   4.128   1.916   0.412
 1968TIP3    H1 5910   4.151   1.961   0.331
 1968TIP3    H2 5911   4.033   1.908   0.408
 1969TIP3   OH2 5912   6.084   3.297   2.518
 1969TIP3    H1 5913   6.122   3.379   2.487
 1969TIP3    H2 5914   6.117   3.230   2.457
 1970TIP3   OH2 5915   1.590   3.470   5.170
 1970TIP3    H1 5916   1.685   3.481   5.182
 1970TIP3    H2 5917   1.580   3.380   5.140
 1971TIP3   OH2 5918   6.149   2.726   3.268
 1971TIP3    H1 5919   6.230   2.738   3.219
 1971TIP3    H2 5920   6.136   2.632   3.272
 1972TIP3   OH2 5921   2.204   2.331   2.374
 1972TIP3    H1 5922   2.180   2.263   2.438
 1972TIP3    H2 5923   2.295   2.313   2.352
 1973TIP3   OH2 5924   4.052   4.518   1.243
 1973TIP3    H1 5925   4.073   4.480   1.158
 1973TIP3    H2 5926   3.963   4.553   1.232
 1974TIP3   OH2 5927   5.122   2.242   4.518
 1974TIP3    H1 5928   5.132   2.147   4.527
 1974TIP3    H2 5929   5.193   2.279   4.570
 1975TIP3   OH2 5930   5.995   3.821   1.447
 1975TIP3    H1 5931   5.941   3.828   1.526
 1975TIP3    H2 5932   6.085   3.830   1.478
 1976TIP3   OH2 5933   2.125   1.964   3.669
 1976TIP3    H1 5934   2.212   2.003   3.666
 1976TIP3    H2 5935   2.126   1.912   3.750
 1977TIP3   OH2 5936   5.915   1.967   4.099
 1977TIP3    H1 5937   5.980   1.925   4.043
 1977TIP3    H2 5938   5.911   2.057   4.067
 1978TIP3   OH2 5939   3.932   5.189   4.121
 1978TIP3    H1 5940   3.866   5.216   4.185
 1978TIP3    H2 5941   3.887   5.191   4.037
 1979TIP3   OH2 5942   2.989   0.311   0.331
 1979TIP3    H1 5943   3.042   0.277   0.258
 1979TIP3    H2 5944   3.033   0.279   0.409
 1980TIP3   OH2 5945   2.648   5.098   4.527
 1980TIP3    H1 5946   2.731   5.128   4.490
 1980TIP3    H2 5947   2.622   5.025   4.472
 1981TIP3   OH2 5948   4.633   4.001   2.296
 1981TIP3    H1 5949   4.680   4.075   2.336
 1981TIP3    H2 5950   4.575   4.042   2.232
 1982TIP3   OH2 5951   2.865   5.648   1.538
 1982TIP3    H1 5952   2.939   5.687   1.585
 1982TIP3    H2 5953   2.789   5.668   1.591
 1983TIP3   OH2 5954   5.480   5.548   4.324
 1983TIP3    H1 5955   5.523   5.631   4.306
 1983TIP3    H2 5956   5.428   5.531   4.246
 1984TIP3   OH2 5957   1.256   5.158   1.518
 1984TIP3    H1 5958   1.318   5.197   1.456
 1984TIP3    H2 5959   1.307   5.147   1.598
 1985TIP3   OH2 5960   4.660   1.870   0.501
 1985TIP3    H1 5961   4.678   1.776   0.493
 1985TIP3    H2 5962   4.570   1.880   0.471
 1986TIP3   OH2 5963   2.335   4.529   1.017
 1986TIP3    H1 5964   2.391   4.539   0.941
 1986TIP3    H2 5965   2.384   4.568   1.089
 1987TIP3   OH2 5966   0.169   1.316   3.259
 1987TIP3    H1 5967   0.122   1.240   3.293
 1987TIP3    H2 5968   0.112   1.351   3.190
 1988TIP3   OH2 5969   6.219   0.068   3.068
 1988TIP3    H1 5970   6.300   0.107   3.036
 1988TIP3    H2 5971   6.234  -0.026   3.064
 1989TIP3   OH2 5972   4.351   0.873   0.230
 1989TIP3    H1 5973   4.433   0.890   0.183
 1989TIP3    H2 5974   4.289   0.936   0.194
 1990TIP3   OH2 5975   3.899   1.765   0.685
 1990TIP3    H1 5976   3.877   1.725   0.601
 1990TIP3    H2 5977   3.920   1.691   0.742
 1991TIP3   OH2 5978   2.480   1.313   4.039
 1991TIP3    H1 5979   2.425   1.392   4.037
 1991TIP3    H2 5980   2.420   1.241   4.023
 1992TIP3   OH2 5981   5.386   3.690   2.393
 1992TIP3    H1 5982   5.389   3.766   2.335
 1992TIP3    H2 5983   5.477   3.675   2.419
 1993TIP3   OH2 5984   0.240   0.435   1.750
 1993TIP3    H1 5985   0.204   0.366   1.806
 1993TIP3    H2 5986   0.166   0.492   1.731
 1994TIP3   OH2 5987   0.307   2.602   0.901
 1994TIP3    H1 5988   0.267   2.523   0.864
 1994TIP3    H2 5989   0.401   2.592   0.881
 1995TIP3   OH2 5990   1.945   2.856   2.516
 1995TIP3    H1 5991   1.926   2.807   2.436
 1995TIP3    H2 5992   2.030   2.897   2.499
 1996TIP3   OH2 5993   3.235   2.865   5.044
 1996TIP3    H1 5994   3.164   2.815   5.003
 1996TIP3    H2 5995   3.274   2.914   4.972
 1997TIP3   OH2 5996   5.756   1.834   1.079
 1997TIP3    H1 5997   5.760   1.915   1.129
 1997TIP3    H2 5998   5.808   1.853   1.000
 1998TIP3   OH2 5999   0.851   1.436   3.823
 1998TIP3    H1 6000   0.874   1.527   3.843
 1998TIP3    H2 6001   0.899   1.384   3.888
 1999TIP3   OH2 6002   0.533   2.761   1.997
 1999TIP3    H1 6003   0.557   2.771   1.905
 1999TIP3    H2 6004   0.439   2.778   1.999
 2000TIP3   OH2 6005   4.522   3.749   3.594
 2000TIP3    H1 6006   4.616   3.749   3.573
 2000TIP3    H2 6007   4.506   3.835   3.633
 2001TIP3   OH2 6008   2.744   1.792   0.223
 2001TIP3    H1 6009   2.707   1.733   0.290
 2001TIP3    H2 6010   2.672   1.852   0.203
 2002TIP3   OH2 6011   2.177   5.412   4.946
 2002TIP3    H1 6012   2.128   5.351   4.890
 2002TIP3    H2 6013   2.150   5.499   4.915
 2003TIP3   OH2 6014   4.255   1.990   4.014
 2003TIP3    H1 6015   4.286   2.046   3.943
 2003TIP3    H2 6016   4.272   2.041   4.093
 2004TIP3   OH2 6017   4.819   5.168   2.930
 2004TIP3    H1 6018   4.912   5.144   2.933
 2004TIP3    H2 6019   4.811   5.238   2.995
 2005TIP3   OH2 6020   4.624   1.513   4.651
 2005TIP3    H1 6021   4.617   1.597   4.696
 2005TIP3    H2 6022   4.597   1.448   4.716
 2006TIP3   OH2 6023   1.406   4.588   1.690
 2006TIP3    H1 6024   1.468   4.576   1.618
 2006TIP3    H2 6025   1.343   4.652   1.657
 2007TIP3   OH2 6026   5.510   1.504   2.177
 2007TIP3    H1 6027   5.563   1.568   2.225
 2007TIP3    H2 6028   5.553   1.420   2.194
 2008TIP3   OH2 6029   3.165   3.590   5.137
 2008TIP3    H1 6030   3.185   3.549   5.221
 2008TIP3    H2 6031   3.078   3.556   5.114
 2009TIP3   OH2 6032   2.605   3.403   0.591
 2009TIP3    H1 6033   2.517   3.397   0.555
 2009TIP3    H2 6034   2.663   3.386   0.516
 2010TIP3   OH2 6035   0.563   2.164   4.614
 2010TIP3    H1 6036   0.560   2.173   4.519
 2010TIP3    H2 6037   0.475   2.133   4.637
 2011TIP3   OH2 6038   2.981   4.579   4.843
 2011TIP3    H1 6039   3.057   4.614   4.889
 2011TIP3    H2 6040   2.992   4.484   4.849
 2012TIP3   OH2 6041   3.129   2.563   2.229
 2012TIP3    H1 6042   3.177   2.646   2.224
 2012TIP3    H2 6043   3.090   2.563   2.317
 2013TIP3   OH2 6044   1.493   4.858   2.978
 2013TIP3    H1 6045   1.412   4.837   3.025
 2013TIP3    H2 6046   1.546   4.779   2.984
 2014TIP3   OH2 6047   4.979   0.279   3.037
 2014TIP3    H1 6048   4.984   0.228   2.956
 2014TIP3    H2 6049   4.930   0.358   3.013
 2015TIP3   OH2 6050   2.875   4.122   2.940
 2015TIP3    H1 6051   2.892   4.052   2.877
 2015TIP3    H2 6052   2.958   4.132   2.988
 2016TIP3   OH2 6053   4.911   3.150   2.872
 2016TIP3    H1 6054   4.921   3.226   2.814
 2016TIP3    H2 6055   4.994   3.104   2.864
 2017TIP3   OH2 6056   4.597   3.993   4.242
 2017TIP3    H1 6057   4.577   3.915   4.295
 2017TIP3    H2 6058   4.675   4.031   4.283
 2018TIP3   OH2 6059   3.328   2.577   4.660
 2018TIP3    H1 6060   3.397   2.620   4.610
 2018TIP3    H2 6061   3.372   2.545   4.739
 2019TIP3   OH2 6062   6.051   3.145   4.889
 2019TIP3    H1 6063   6.041   3.238   4.869
 2019TIP3    H2 6064   6.080   3.143   4.981
 2020TIP3   OH2 6065   4.408   4.702   1.436
 2020TIP3    H1 6066   4.324   4.746   1.422
 2020TIP3    H2 6067   4.384   4.615   1.468
 2021TIP3   OH2 6068   1.967   4.392   2.381
 2021TIP3    H1 6069   1.882   4.437   2.373
 2021TIP3    H2 6070   1.956   4.312   2.329
 2022TIP3   OH2 6071   3.895   1.907   5.055
 2022TIP3    H1 6072   3.895   2.001   5.073
 2022TIP3    H2 6073   3.835   1.897   4.981
 2023TIP3   OH2 6074   5.175   0.299   4.782
 2023TIP3    H1 6075   5.198   0.207   4.789
 2023TIP3    H2 6076   5.164   0.329   4.872
 2024TIP3   OH2 6077   2.119   5.663   4.830
 2024TIP3    H1 6078   2.149   5.656   4.739
 2024TIP3    H2 6079   2.028   5.692   4.822
 2025TIP3   OH2 6080   0.390   1.546   2.613
 2025TIP3    H1 6081   0.457   1.516   2.552
 2025TIP3    H2 6082   0.332   1.471   2.624
 2026TIP3   OH2 6083   2.998   5.545   0.574
 2026TIP3    H1 6084   2.918   5.502   0.544
 2026TIP3    H2 6085   2.995   5.632   0.534
 2027TIP3   OH2 6086   3.328   4.764   4.632
 2027TIP3    H1 6087   3.357   4.690   4.685
 2027TIP3    H2 6088   3.405   4.787   4.579
 2028TIP3   OH2 6089   1.503   0.853   0.374
 2028TIP3    H1 6090   1.554   0.777   0.346
 2028TIP3    H2 6091   1.545   0.882   0.455
 2029TIP3   OH2 6092   5.517   4.372   0.662
 2029TIP3    H1 6093   5.450   4.303   0.665
 2029TIP3    H2 6094   5.495   4.430   0.735
 2030TIP3   OH2 6095   2.004   4.495   5.063
 2030TIP3    H1 6096   2.037   4.406   5.060
 2030TIP3    H2 6097   2.076   4.547   5.100
 2031TIP3   OH2 6098   0.529   3.060   0.935
 2031TIP3    H1 6099   0.522   3.120   0.861
 2031TIP3    H2 6100   0.479   2.982   0.909
 2032TIP3   OH2 6101   3.636   1.420   1.162
 2032TIP3    H1 6102   3.624   1.485   1.231
 2032TIP3    H2 6103   3.551   1.375   1.156
 2033TIP3   OH2 6104   2.656   2.167   3.681
 2033TIP3    H1 6105   2.723   2.179   3.749
 2033TIP3    H2 6106   2.694   2.104   3.620
 2034TIP3   OH2 6107   0.005   3.313   2.706
 2034TIP3    H1 6108   0.086   3.267   2.730
 2034TIP3    H2 6109   0.017   3.338   2.615
 2035TIP3   OH2 6110   0.993   1.361   0.074
 2035TIP3    H1 6111   0.946   1.281   0.053
 2035TIP3    H2 6112   1.062   1.334   0.134
 2036TIP3   OH2 6113   1.484   3.635   0.486
 2036TIP3    H1 6114   1.569   3.597   0.464
 2036TIP3    H2 6115   1.427   3.560   0.498
 2037TIP3   OH2 6116   1.715   2.144   1.030
 2037TIP3    H1 6117   1.699   2.063   0.981
 2037TIP3    H2 6118   1.801   2.172   1.001
 2038TIP3   OH2 6119   5.426   2.555   1.836
 2038TIP3    H1 6120   5.503   2.531   1.784
 2038TIP3    H2 6121   5.361   2.581   1.771
 2039TIP3   OH2 6122   6.214   5.322   1.707
 2039TIP3    H1 6123   6.297   5.327   1.659
 2039TIP3    H2 6124   6.153   5.375   1.655
 2040TIP3   OH2 6125   1.704   3.259   0.459
 2040TIP3    H1 6126   1.749   3.193   0.512
 2040TIP3    H2 6127   1.636   3.294   0.517
 2041TIP3   OH2 6128   5.680   3.510   3.312
 2041TIP3    H1 6129   5.670   3.503   3.407
 2041TIP3    H2 6130   5.602   3.469   3.276
 2042TIP3   OH2 6131   4.320   3.117   4.426
 2042TIP3    H1 6132   4.268   3.116   4.346
 2042TIP3    H2 6133   4.279   3.051   4.482
 2043TIP3   OH2 6134   5.347   4.606   0.132
 2043TIP3    H1 6135   5.363   4.518   0.098
 2043TIP3    H2 6136   5.401   4.611   0.211
 2044TIP3   OH2 6137   2.897   1.264   1.386
 2044TIP3    H1 6138   2.978   1.311   1.404
 2044TIP3    H2 6139   2.829   1.315   1.430
 2045TIP3   OH2 6140   4.732   4.546   2.052
 2045TIP3    H1 6141   4.823   4.569   2.035
 2045TIP3    H2 6142   4.734   4.454   2.078
 2046TIP3   OH2 6143   6.286   2.054   5.065
 2046TIP3    H1 6144   6.300   2.000   5.143
 2046TIP3    H2 6145   6.197   2.088   5.077
 2047TIP3   OH2 6146   4.379   3.209   1.825
 2047TIP3    H1 6147   4.414   3.120   1.827
 2047TIP3    H2 6148   4.310   3.209   1.891
 2048TIP3   OH2 6149   4.003   5.451   5.029
 2048TIP3    H1 6150   4.016   5.414   4.941
 2048TIP3    H2 6151   3.910   5.436   5.047
 2049TIP3   OH2 6152   2.821   0.989   1.437
 2049TIP3    H1 6153   2.846   1.079   1.414
 2049TIP3    H2 6154   2.728   0.996   1.460
 2050TIP3   OH2 6155   4.544   1.245   1.064
 2050TIP3    H1 6156   4.580   1.306   1.128
 2050TIP3    H2 6157   4.574   1.159   1.093
 2051TIP3   OH2 6158   5.762   4.282   4.168
 2051TIP3    H1 6159   5.744   4.325   4.251
 2051TIP3    H2 6160   5.704   4.326   4.105
 2052TIP3   OH2 6161   0.668   4.278   3.209
 2052TIP3    H1 6162   0.632   4.335   3.276
 2052TIP3    H2 6163   0.674   4.333   3.131
 2053TIP3   OH2 6164   4.579   4.906   2.606
 2053TIP3    H1 6165   4.617   4.844   2.544
 2053TIP3    H2 6166   4.652   4.929   2.664
 2054TIP3   OH2 6167   0.037   2.004   2.632
 2054TIP3    H1 6168   0.029   2.028   2.539
 2054TIP3    H2 6169   0.080   2.078   2.673
 2055TIP3   OH2 6170   0.834   5.627   1.572
 2055TIP3    H1 6171   0.861   5.538   1.592
 2055TIP3    H2 6172   0.831   5.671   1.657
 2056TIP3   OH2 6173   3.583   2.424   2.415
 2056TIP3    H1 6174   3.640   2.429   2.491
 2056TIP3    H2 6175   3.503   2.382   2.448
 2057TIP3   OH2 6176   4.109   2.846   2.663
 2057TIP3    H1 6177   4.036   2.848   2.601
 2057TIP3    H2 6178   4.181   2.887   2.616
 2058TIP3   OH2 6179   5.275   5.466   2.968
 2058TIP3    H1 6180   5.291   5.420   2.885
 2058TIP3    H2 6181   5.357   5.513   2.985
 2059TIP3   OH2 6182   0.843   3.775   0.697
 2059TIP3    H1 6183   0.882   3.860   0.677
 2059TIP3    H2 6184   0.917   3.721   0.726
 2060TIP3   OH2 6185   4.446   0.565   0.634
 2060TIP3    H1 6186   4.372   0.625   0.623
 2060TIP3    H2 6187   4.523   0.620   0.618
 2061TIP3   OH2 6188   1.842   4.933   0.304
 2061TIP3    H1 6189   1.783   4.975   0.366
 2061TIP3    H2 6190   1.819   4.840   0.308
 2062TIP3   OH2 6191   4.261   5.766   2.481
 2062TIP3    H1 6192   4.294   5.846   2.441
 2062TIP3    H2 6193   4.256   5.704   2.408
 2063TIP3   OH2 6194   4.442   4.094   2.086
 2063TIP3    H1 6195   4.364   4.136   2.123
 2063TIP3    H2 6196   4.407   4.032   2.022
 2064TIP3   OH2 6197   5.030   1.676   0.035
 2064TIP3    H1 6198   5.082   1.756   0.041
 2064TIP3    H2 6199   4.964   1.695  -0.032
 2065TIP3   OH2 6200   0.911   4.425   4.664
 2065TIP3    H1 6201   0.937   4.514   4.640
 2065TIP3    H2 6202   0.819   4.419   4.638
 2066TIP3   OH2 6203   3.319   1.152   0.233
 2066TIP3    H1 6204   3.238   1.177   0.279
 2066TIP3    H2 6205   3.382   1.219   0.258
 2067TIP3   OH2 6206   1.994   1.648   4.497
 2067TIP3    H1 6207   2.027   1.725   4.451
 2067TIP3    H2 6208   1.899   1.651   4.485
 2068TIP3   OH2 6209   6.023   2.992   2.883
 2068TIP3    H1 6210   6.040   2.923   2.819
 2068TIP3    H2 6211   5.937   3.027   2.858
 2069TIP3   OH2 6212   1.720   3.972   0.701
 2069TIP3    H1 6213   1.674   3.908   0.754
 2069TIP3    H2 6214   1.702   3.947   0.610
 2070TIP3   OH2 6215   4.719   4.523   0.068
 2070TIP3    H1 6216   4.664   4.486  -0.002
 2070TIP3    H2 6217   4.768   4.448   0.101
 2071TIP3   OH2 6218   0.938   3.179   3.264
 2071TIP3    H1 6219   0.912   3.246   3.201
 2071TIP3    H2 6220   0.956   3.102   3.211
 2072TIP3   OH2 6221   2.692   5.675   4.507
 2072TIP3    H1 6222   2.758   5.737   4.538
 2072TIP3    H2 6223   2.675   5.618   4.582
 2073TIP3   OH2 6224   1.504   5.394   1.651
 2073TIP3    H1 6225   1.481   5.305   1.678
 2073TIP3    H2 6226   1.423   5.444   1.665
 2074TIP3   OH2 6227   2.014   4.090   3.619
 2074TIP3    H1 6228   2.057   4.173   3.641
 2074TIP3    H2 6229   1.997   4.049   3.704
 2075TIP3   OH2 6230   1.798   0.381   3.086
 2075TIP3    H1 6231   1.730   0.434   3.129
 2075TIP3    H2 6232   1.870   0.378   3.149
 2076TIP3   OH2 6233   0.583   0.700   0.320
 2076TIP3    H1 6234   0.595   0.655   0.236
 2076TIP3    H2 6235   0.498   0.670   0.352
 2077TIP3   OH2 6236   2.843   1.437   1.095
 2077TIP3    H1 6237   2.830   1.418   1.188
 2077TIP3    H2 6238   2.897   1.516   1.094
 2078TIP3   OH2 6239   4.557   2.890   2.136
 2078TIP3    H1 6240   4.594   2.804   2.117
 2078TIP3    H2 6241   4.560   2.898   2.231
 2079TIP3   OH2 6242   0.315   5.049   1.623
 2079TIP3    H1 6243   0.309   4.978   1.559
 2079TIP3    H2 6244   0.381   5.019   1.686
 2080TIP3   OH2 6245   1.818   0.566   0.489
 2080TIP3    H1 6246   1.898   0.550   0.439
 2080TIP3    H2 6247   1.821   0.502   0.560
 2081TIP3   OH2 6248   2.137   3.067   4.430
 2081TIP3    H1 6249   2.189   3.064   4.510
 2081TIP3    H2 6250   2.188   3.016   4.367
 2082TIP3   OH2 6251   2.033   2.091   1.586
 2082TIP3    H1 6252   2.048   2.175   1.543
 2082TIP3    H2 6253   2.082   2.096   1.668
 2083TIP3   OH2 6254   3.361   0.970   2.131
 2083TIP3    H1 6255   3.316   1.054   2.129
 2083TIP3    H2 6256   3.447   0.990   2.170
 2084TIP3   OH2 6257   0.294   0.682   1.508
 2084TIP3    H1 6258   0.231   0.708   1.575
 2084TIP3    H2 6259   0.374   0.664   1.557
 2085TIP3   OH2 6260   5.245   2.273   1.397
 2085TIP3    H1 6261   5.227   2.179   1.398
 2085TIP3    H2 6262   5.158   2.313   1.404
 2086TIP3   OH2 6263   5.779   5.351   4.599
 2086TIP3    H1 6264   5.770   5.263   4.636
 2086TIP3    H2 6265   5.726   5.349   4.519
 2087TIP3   OH2 6266   4.775   3.431   2.197
 2087TIP3    H1 6267   4.686   3.465   2.202
 2087TIP3    H2 6268   4.825   3.501   2.156
 2088TIP3   OH2 6269   1.489   5.342   1.370
 2088TIP3    H1 6270   1.539   5.347   1.452
 2088TIP3    H2 6271   1.498   5.428   1.331
 2089TIP3   OH2 6272   4.796   2.816   0.285
 2089TIP3    H1 6273   4.775   2.767   0.365
 2089TIP3    H2 6274   4.803   2.907   0.313
 2090TIP3   OH2 6275   1.452   2.228   1.107
 2090TIP3    H1 6276   1.446   2.299   1.043
 2090TIP3    H2 6277   1.544   2.202   1.105
 2091TIP3   OH2 6278   6.220   3.674   3.834
 2091TIP3    H1 6279   6.127   3.693   3.845
 2091TIP3    H2 6280   6.252   3.744   3.777
 2092TIP3   OH2 6281   1.118   0.799   1.927
 2092TIP3    H1 6282   1.145   0.728   1.984
 2092TIP3    H2 6283   1.061   0.758   1.862
 2093TIP3   OH2 6284   0.215   5.924   2.286
 2093TIP3    H1 6285   0.274   5.864   2.332
 2093TIP3    H2 6286   0.159   5.961   2.354
 2094TIP3   OH2 6287   2.534   3.707   1.970
 2094TIP3    H1 6288   2.529   3.784   2.026
 2094TIP3    H2 6289   2.446   3.698   1.933
 2095TIP3   OH2 6290   1.655   1.356   4.662
 2095TIP3    H1 6291   1.723   1.291   4.681
 2095TIP3    H2 6292   1.652   1.359   4.566
 2096TIP3   OH2 6293   3.884   2.042   4.159
 2096TIP3    H1 6294   3.962   1.986   4.157
 2096TIP3    H2 6295   3.870   2.060   4.252
 2097TIP3   OH2 6296   4.156   0.362   4.002
 2097TIP3    H1 6297   4.195   0.444   4.034
 2097TIP3    H2 6298   4.193   0.294   4.059
 2098TIP3   OH2 6299   3.256   4.255   4.511
 2098TIP3    H1 6300   3.332   4.270   4.566
 2098TIP3    H2 6301   3.203   4.191   4.559
 2099TIP3   OH2 6302   3.192   3.169   4.924
 2099TIP3    H1 6303   3.098   3.149   4.920
 2099TIP3    H2 6304   3.234   3.093   4.885
 2100TIP3   OH2 6305   4.954   5.818   2.441
 2100TIP3    H1 6306   4.895   5.856   2.376
 2100TIP3    H2 6307   4.934   5.865   2.522
 2101TIP3   OH2 6308   1.331   4.932   4.737
 2101TIP3    H1 6309   1.363   4.999   4.677
 2101TIP3    H2 6310   1.256   4.971   4.780
 2102TIP3   OH2 6311   1.363   0.189   0.910
 2102TIP3    H1 6312   1.368   0.282   0.931
 2102TIP3    H2 6313   1.335   0.147   0.992
 2103TIP3   OH2 6314   2.215   2.233   3.154
 2103TIP3    H1 6315   2.255   2.263   3.235
 2103TIP3    H2 6316   2.125   2.213   3.177
 2104TIP3   OH2 6317   2.249   5.163   1.795
 2104TIP3    H1 6318   2.280   5.235   1.741
 2104TIP3    H2 6319   2.182   5.120   1.742
 2105TIP3   OH2 6320   6.198   5.045   2.501
 2105TIP3    H1 6321   6.241   4.988   2.564
 2105TIP3    H2 6322   6.115   5.002   2.481
 2106TIP3   OH2 6323   4.139   2.062   1.897
 2106TIP3    H1 6324   4.234   2.055   1.896
 2106TIP3    H2 6325   4.114   2.061   1.805
 2107TIP3   OH2 6326   5.539   5.470   1.460
 2107TIP3    H1 6327   5.605   5.430   1.403
 2107TIP3    H2 6328   5.589   5.506   1.534
 2108TIP3   OH2 6329   5.448   2.713   2.205
 2108TIP3    H1 6330   5.443   2.735   2.112
 2108TIP3    H2 6331   5.358   2.688   2.228
 2109TIP3   OH2 6332   1.669   1.540   3.000
 2109TIP3    H1 6333   1.733   1.518   2.932
 2109TIP3    H2 6334   1.585   1.545   2.953
 2110TIP3   OH2 6335   0.342   1.675   0.533
 2110TIP3    H1 6336   0.373   1.654   0.622
 2110TIP3    H2 6337   0.422   1.679   0.481
 2111TIP3   OH2 6338   4.651   5.982   1.340
 2111TIP3    H1 6339   4.641   5.983   1.245
 2111TIP3    H2 6340   4.745   5.970   1.355
 2112TIP3   OH2 6341   0.763   2.910   3.420
 2112TIP3    H1 6342   0.837   2.864   3.381
 2112TIP3    H2 6343   0.796   2.942   3.504
 2113TIP3   OH2 6344   2.528   4.198   4.162
 2113TIP3    H1 6345   2.483   4.204   4.247
 2113TIP3    H2 6346   2.535   4.288   4.132
 2114TIP3   OH2 6347   0.302   5.518   4.575
 2114TIP3    H1 6348   0.285   5.608   4.604
 2114TIP3    H2 6349   0.275   5.516   4.484
 2115TIP3   OH2 6350   4.048   3.101   1.418
 2115TIP3    H1 6351   4.136   3.103   1.456
 2115TIP3    H2 6352   3.994   3.152   1.478
 2116TIP3   OH2 6353   4.206   0.868   3.072
 2116TIP3    H1 6354   4.257   0.949   3.072
 2116TIP3    H2 6355   4.202   0.842   3.164
 2117TIP3   OH2 6356   4.938   5.474   0.298
 2117TIP3    H1 6357   4.855   5.427   0.285
 2117TIP3    H2 6358   4.935   5.502   0.390
 2118TIP3   OH2 6359   6.258   4.709   1.091
 2118TIP3    H1 6360   6.304   4.632   1.123
 2118TIP3    H2 6361   6.168   4.698   1.121
 2119TIP3   OH2 6362   2.631   3.839   4.959
 2119TIP3    H1 6363   2.647   3.868   5.049
 2119TIP3    H2 6364   2.680   3.757   4.951
 2120TIP3   OH2 6365   4.971   4.452   4.956
 2120TIP3    H1 6366   4.990   4.508   5.031
 2120TIP3    H2 6367   4.997   4.504   4.880
 2121TIP3   OH2 6368   6.029   0.224   0.146
 2121TIP3    H1 6369   6.009   0.132   0.135
 2121TIP3    H2 6370   6.125   0.229   0.137
 2122TIP3   OH2 6371   0.401   1.279   3.710
 2122TIP3    H1 6372   0.371   1.270   3.800
 2122TIP3    H2 6373   0.333   1.330   3.666
 2123TIP3   OH2 6374   3.001   3.721   2.037
 2123TIP3    H1 6375   3.029   3.630   2.039
 2123TIP3    H2 6376   2.916   3.722   2.081
 2124TIP3   OH2 6377   4.774   3.586   4.456
 2124TIP3    H1 6378   4.850   3.630   4.493
 2124TIP3    H2 6379   4.701   3.644   4.475
 2125TIP3   OH2 6380   4.028   3.133   4.032
 2125TIP3    H1 6381   3.998   3.207   4.085
 2125TIP3    H2 6382   4.002   3.155   3.943
 2126TIP3   OH2 6383   5.192   0.835   5.013
 2126TIP3    H1 6384   5.135   0.798   5.080
 2126TIP3    H2 6385   5.177   0.930   5.018
 2127TIP3   OH2 6386   2.477   1.813   4.236
 2127TIP3    H1 6387   2.403   1.833   4.179
 2127TIP3    H2 6388   2.503   1.898   4.272
 2128TIP3   OH2 6389   3.177   5.284   3.742
 2128TIP3    H1 6390   3.166   5.196   3.778
 2128TIP3    H2 6391   3.151   5.275   3.650
 2129TIP3   OH2 6392   6.303   0.556   1.608
 2129TIP3    H1 6393   6.281   0.605   1.529
 2129TIP3    H2 6394   6.365   0.612   1.655
 2130TIP3   OH2 6395   6.064   1.506   3.868
 2130TIP3    H1 6396   6.034   1.418   3.848
 2130TIP3    H2 6397   6.021   1.529   3.950
 2131TIP3   OH2 6398   4.311   3.971   5.141
 2131TIP3    H1 6399   4.395   3.974   5.094
 2131TIP3    H2 6400   4.256   4.034   5.094
 2132TIP3   OH2 6401   1.320   2.897   4.145
 2132TIP3    H1 6402   1.245   2.936   4.191
 2132TIP3    H2 6403   1.281   2.831   4.087
 2133TIP3   OH2 6404   0.093   0.927   3.103
 2133TIP3    H1 6405   0.077   0.955   3.013
 2133TIP3    H2 6406   0.085   1.007   3.154
 2134TIP3   OH2 6407   5.372   5.362   3.804
 2134TIP3    H1 6408   5.281   5.363   3.772
 2134TIP3    H2 6409   5.423   5.398   3.732
 2135TIP3   OH2 6410   1.841   1.658   0.677
 2135TIP3    H1 6411   1.745   1.662   0.685
 2135TIP3    H2 6412   1.867   1.747   0.655
 2136TIP3   OH2 6413   2.890   5.540   3.722
 2136TIP3    H1 6414   2.822   5.538   3.789
 2136TIP3    H2 6415   2.972   5.544   3.770
 2137TIP3   OH2 6416   1.390   5.923   2.678
 2137TIP3    H1 6417   1.395   5.978   2.757
 2137TIP3    H2 6418   1.314   5.956   2.631
 2138TIP3   OH2 6419   0.820   0.097   3.263
 2138TIP3    H1 6420   0.836   0.028   3.197
 2138TIP3    H2 6421   0.789   0.049   3.340
 2139TIP3   OH2 6422   1.480   5.408   4.654
 2139TIP3    H1 6423   1.563   5.384   4.613
 2139TIP3    H2 6424   1.502   5.425   4.746
 2140TIP3   OH2 6425   0.977   4.965   4.278
 2140TIP3    H1 6426   0.895   5.006   4.252
 2140TIP3    H2 6427   1.012   5.023   4.346
 2141TIP3   OH2 6428   2.127   5.810   4.219
 2141TIP3    H1 6429   2.222   5.824   4.219
 2141TIP3    H2 6430   2.090   5.898   4.229
 2142TIP3   OH2 6431   3.739   0.054   2.176
 2142TIP3    H1 6432   3.672   0.059   2.108
 2142TIP3    H2 6433   3.787   0.137   2.168
 2143TIP3   OH2 6434   3.266   5.284   0.486
 2143TIP3    H1 6435   3.299   5.230   0.414
 2143TIP3    H2 6436   3.338   5.288   0.548
 2144TIP3   OH2 6437   3.898   0.979   2.366
 2144TIP3    H1 6438   3.884   0.960   2.273
 2144TIP3    H2 6439   3.916   0.893   2.405
 2145TIP3   OH2 6440   2.150   0.037   3.736
 2145TIP3    H1 6441   2.187   0.100   3.675
 2145TIP3    H2 6442   2.092   0.089   3.792
 2146TIP3   OH2 6443   1.763   2.435   4.441
 2146TIP3    H1 6444   1.741   2.486   4.519
 2146TIP3    H2 6445   1.817   2.363   4.474
 2147TIP3   OH2 6446   2.624   1.830   1.338
 2147TIP3    H1 6447   2.707   1.863   1.372
 2147TIP3    H2 6448   2.637   1.735   1.331
 2148TIP3   OH2 6449   0.853   1.803   4.613
 2148TIP3    H1 6450   0.946   1.792   4.631
 2148TIP3    H2 6451   0.813   1.718   4.634
 2149TIP3   OH2 6452   2.400   1.074   3.935
 2149TIP3    H1 6453   2.353   1.000   3.896
 2149TIP3    H2 6454   2.461   1.033   3.997
 2150TIP3   OH2 6455   1.996   3.162   3.066
 2150TIP3    H1 6456   2.020   3.156   3.158
 2150TIP3    H2 6457   1.901   3.149   3.065
 2151TIP3   OH2 6458   4.194   0.801   4.255
 2151TIP3    H1 6459   4.187   0.783   4.349
 2151TIP3    H2 6460   4.157   0.889   4.245
 2152TIP3   OH2 6461   0.204   0.426   4.672
 2152TIP3    H1 6462   0.146   0.498   4.645
 2152TIP3    H2 6463   0.270   0.422   4.603
 2153TIP3   OH2 6464   4.655   1.282   2.729
 2153TIP3    H1 6465   4.699   1.202   2.757
 2153TIP3    H2 6466   4.595   1.253   2.660
 2154TIP3   OH2 6467   4.167   1.667   2.575
 2154TIP3    H1 6468   4.262   1.667   2.585
 2154TIP3    H2 6469   4.136   1.731   2.639
 2155TIP3   OH2 6470   3.356   3.355   3.180
 2155TIP3    H1 6471   3.302   3.371   3.258
 2155TIP3    H2 6472   3.446   3.368   3.211
 2156TIP3   OH2 6473   5.271   0.751   0.972
 2156TIP3    H1 6474   5.351   0.766   0.922
 2156TIP3    H2 6475   5.290   0.785   1.059
 2157TIP3   OH2 6476   5.959   4.210   1.701
 2157TIP3    H1 6477   5.957   4.299   1.666
 2157TIP3    H2 6478   5.908   4.216   1.782
 2158TIP3   OH2 6479   3.802   4.784   1.496
 2158TIP3    H1 6480   3.727   4.767   1.553
 2158TIP3    H2 6481   3.819   4.701   1.453
 2159TIP3   OH2 6482   1.761   4.647   1.609
 2159TIP3    H1 6483   1.706   4.669   1.534
 2159TIP3    H2 6484   1.768   4.551   1.607
 2160TIP3   OH2 6485   5.196   2.502   2.429
 2160TIP3    H1 6486   5.250   2.437   2.385
 2160TIP3    H2 6487   5.106   2.477   2.407
 2161TIP3   OH2 6488   5.091   3.898   2.624
 2161TIP3    H1 6489   5.093   3.989   2.656
 2161TIP3    H2 6490   5.183   3.876   2.611
 2162TIP3   OH2 6491   3.784   4.756   1.004
 2162TIP3    H1 6492   3.856   4.814   0.977
 2162TIP3    H2 6493   3.710   4.816   1.018
 2163TIP3   OH2 6494   2.394   2.859   2.643
 2163TIP3    H1 6495   2.489   2.873   2.646
 2163TIP3    H2 6496   2.357   2.946   2.656
 2164TIP3   OH2 6497   4.180   2.735   0.824
 2164TIP3    H1 6498   4.187   2.741   0.919
 2164TIP3    H2 6499   4.178   2.826   0.794
 2165TIP3   OH2 6500   2.403   2.816   2.338
 2165TIP3    H1 6501   2.459   2.817   2.416
 2165TIP3    H2 6502   2.443   2.879   2.279
 2166TIP3   OH2 6503   0.474   5.350   3.732
 2166TIP3    H1 6504   0.502   5.395   3.652
 2166TIP3    H2 6505   0.403   5.292   3.704
 2167TIP3   OH2 6506   6.172   4.819   3.942
 2167TIP3    H1 6507   6.240   4.751   3.941
 2167TIP3    H2 6508   6.090   4.772   3.927
 2168TIP3   OH2 6509   4.494   1.187   0.176
 2168TIP3    H1 6510   4.399   1.178   0.169
 2168TIP3    H2 6511   4.516   1.138   0.255
 2169TIP3   OH2 6512   4.816   5.998   0.012
 2169TIP3    H1 6513   4.728   5.986   0.046
 2169TIP3    H2 6514   4.874   5.958   0.077
 2170TIP3   OH2 6515   4.586   3.615   1.045
 2170TIP3    H1 6516   4.626   3.614   1.132
 2170TIP3    H2 6517   4.492   3.607   1.062
 2171TIP3   OH2 6518   6.172   5.568   2.358
 2171TIP3    H1 6519   6.216   5.525   2.285
 2171TIP3    H2 6520   6.238   5.571   2.427
 2172TIP3   OH2 6521   2.196   4.019   4.924
 2172TIP3    H1 6522   2.205   3.949   4.988
 2172TIP3    H2 6523   2.195   3.975   4.839
 2173TIP3   OH2 6524   4.326   4.894   0.081
 2173TIP3    H1 6525   4.351   4.823   0.141
 2173TIP3    H2 6526   4.311   4.851  -0.003
 2174TIP3   OH2 6527   2.496   4.130   3.493
 2174TIP3    H1 6528   2.472   4.220   3.514
 2174TIP3    H2 6529   2.482   4.081   3.574
 2175TIP3   OH2 6530   3.295   5.632   0.509
 2175TIP3    H1 6531   3.265   5.556   0.458
 2175TIP3    H2 6532   3.378   5.603   0.547
 2176TIP3   OH2 6533   2.314   0.763   0.986
 2176TIP3    H1 6534   2.392   0.789   0.938
 2176TIP3    H2 6535   2.328   0.671   1.008
 2177TIP3   OH2 6536   4.769   2.072   4.364
 2177TIP3    H1 6537   4.696   2.011   4.356
 2177TIP3    H2 6538   4.839   2.032   4.314
 2178TIP3   OH2 6539   5.984   3.478   4.078
 2178TIP3    H1 6540   5.998   3.554   4.021
 2178TIP3    H2 6541   5.889   3.466   4.077
 2179TIP3   OH2 6542   5.012   3.611   4.793
 2179TIP3    H1 6543   5.103   3.617   4.822
 2179TIP3    H2 6544   5.011   3.540   4.730
 2180TIP3   OH2 6545   5.277   2.814   1.902
 2180TIP3    H1 6546   5.242   2.904   1.897
 2180TIP3    H2 6547   5.224   2.772   1.970
 2181TIP3   OH2 6548   2.872   3.745   0.175
 2181TIP3    H1 6549   2.933   3.696   0.229
 2181TIP3    H2 6550   2.813   3.788   0.237
 2182TIP3   OH2 6551   4.706   1.548   0.790
 2182TIP3    H1 6552   4.636   1.597   0.832
 2182TIP3    H2 6553   4.673   1.458   0.785
 2183TIP3   OH2 6554   5.243   0.713   2.497
 2183TIP3    H1 6555   5.282   0.780   2.441
 2183TIP3    H2 6556   5.311   0.693   2.561
 2184TIP3   OH2 6557   1.571   1.060   2.675
 2184TIP3    H1 6558   1.641   1.082   2.737
 2184TIP3    H2 6559   1.542   0.973   2.701
 2185TIP3   OH2 6560   5.158   1.088   5.075
 2185TIP3    H1 6561   5.172   1.183   5.071
 2185TIP3    H2 6562   5.064   1.080   5.093
 2186TIP3   OH2 6563   4.677   3.991   1.724
 2186TIP3    H1 6564   4.735   3.947   1.786
 2186TIP3    H2 6565   4.679   4.083   1.751
 2187TIP3   OH2 6566   5.535   5.849   2.567
 2187TIP3    H1 6567   5.483   5.924   2.595
 2187TIP3    H2 6568   5.477   5.800   2.508
 2188TIP3   OH2 6569   1.012   0.241   5.198
 2188TIP3    H1 6570   0.980   0.152   5.207
 2188TIP3    H2 6571   1.067   0.239   5.120
 2189TIP3   OH2 6572   3.429   4.000   4.394
 2189TIP3    H1 6573   3.422   3.989   4.299
 2189TIP3    H2 6574   3.385   3.923   4.430
 2190TIP3   OH2 6575   3.589   1.356   4.316
 2190TIP3    H1 6576   3.634   1.354   4.231
 2190TIP3    H2 6577   3.513   1.411   4.302
 2191TIP3   OH2 6578   6.121   4.274   4.820
 2191TIP3    H1 6579   6.120   4.180   4.799
 2191TIP3    H2 6580   6.206   4.288   4.863
 2192TIP3   OH2 6581   0.633   4.036   3.008
 2192TIP3    H1 6582   0.727   4.040   2.993
 2192TIP3    H2 6583   0.619   4.093   3.084
 2193TIP3   OH2 6584   0.192   5.459   3.639
 2193TIP3    H1 6585   0.159   5.370   3.655
 2193TIP3    H2 6586   0.253   5.449   3.566
 2194TIP3   OH2 6587   5.896  -0.013   4.030
 2194TIP3    H1 6588   5.814  -0.055   4.003
 2194TIP3    H2 6589   5.891   0.075   3.993
 2195TIP3   OH2 6590   0.859   2.980   3.708
 2195TIP3    H1 6591   0.870   3.071   3.680
 2195TIP3    H2 6592   0.809   2.987   3.790
 2196TIP3   OH2 6593   0.788   2.563   0.694
 2196TIP3    H1 6594   0.866   2.525   0.736
 2196TIP3    H2 6595   0.786   2.522   0.607
 2197TIP3   OH2 6596   1.767   3.897   4.702
 2197TIP3    H1 6597   1.810   3.970   4.746
 2197TIP3    H2 6598   1.676   3.899   4.734
 2198TIP3   OH2 6599   5.444   1.091   2.775
 2198TIP3    H1 6600   5.460   1.044   2.694
 2198TIP3    H2 6601   5.506   1.054   2.838
 2199TIP3   OH2 6602   1.558   5.249  -0.014
 2199TIP3    H1 6603   1.477   5.215   0.025
 2199TIP3    H2 6604   1.616   5.264   0.061
 2200TIP3   OH2 6605  -0.018   4.505   1.901
 2200TIP3    H1 6606   0.066   4.462   1.886
 2200TIP3    H2 6607  -0.009   4.545   1.988
 2201TIP3   OH2 6608   1.287   5.204   5.138
 2201TIP3    H1 6609   1.227   5.244   5.075
 2201TIP3    H2 6610   1.354   5.162   5.083
 2202TIP3   OH2 6611   2.184   2.356   1.179
 2202TIP3    H1 6612   2.228   2.297   1.119
 2202TIP3    H2 6613   2.254   2.408   1.219
 2203TIP3   OH2 6614   0.096   2.422   0.046
 2203TIP3    H1 6615   0.096   2.394  -0.046
 2203TIP3    H2 6616   0.072   2.514   0.042
 2204TIP3   OH2 6617   3.659   5.698   2.390
 2204TIP3    H1 6618   3.657   5.693   2.486
 2204TIP3    H2 6619   3.681   5.789   2.371
 2205TIP3   OH2 6620   3.174   5.754   1.213
 2205TIP3    H1 6621   3.166   5.738   1.307
 2205TIP3    H2 6622   3.221   5.837   1.206
 2206TIP3   OH2 6623   5.730   5.066   4.691
 2206TIP3    H1 6624   5.656   5.012   4.718
 2206TIP3    H2 6625   5.807   5.016   4.717
 2207TIP3   OH2 6626   1.194   4.938   5.010
 2207TIP3    H1 6627   1.263   4.872   5.019
 2207TIP3    H2 6628   1.241   5.021   5.015
 2208TIP3   OH2 6629   4.729   1.057   0.667
 2208TIP3    H1 6630   4.767   1.012   0.592
 2208TIP3    H2 6631   4.635   1.041   0.659
 2209TIP3   OH2 6632   2.805   1.432   3.764
 2209TIP3    H1 6633   2.736   1.409   3.702
 2209TIP3    H2 6634   2.805   1.361   3.828
 2210TIP3   OH2 6635   5.337   5.586   1.046
 2210TIP3    H1 6636   5.319   5.572   1.139
 2210TIP3    H2 6637   5.394   5.663   1.044
 2211TIP3   OH2 6638   2.286   1.950   0.682
 2211TIP3    H1 6639   2.355   1.887   0.666
 2211TIP3    H2 6640   2.254   1.928   0.770
 2212TIP3   OH2 6641   4.896   3.192   0.652
 2212TIP3    H1 6642   4.849   3.109   0.661
 2212TIP3    H2 6643   4.958   3.177   0.581
 2213TIP3   OH2 6644   2.163   3.412   2.668
 2213TIP3    H1 6645   2.112   3.340   2.630
 2213TIP3    H2 6646   2.163   3.395   2.762
 2214TIP3   OH2 6647   2.944   2.794   2.715
 2214TIP3    H1 6648   2.983   2.881   2.722
 2214TIP3    H2 6649   2.946   2.760   2.804
 2215TIP3   OH2 6650   3.838   1.478   0.369
 2215TIP3    H1 6651   3.905   1.424   0.329
 2215TIP3    H2 6652   3.834   1.449   0.460
 2216TIP3   OH2 6653   1.745   2.055   1.767
 2216TIP3    H1 6654   1.800   2.073   1.844
 2216TIP3    H2 6655   1.660   2.091   1.790
 2217TIP3   OH2 6656   0.170   1.412   3.587
 2217TIP3    H1 6657   0.163   1.393   3.493
 2217TIP3    H2 6658   0.105   1.480   3.602
 2218TIP3   OH2 6659   5.197   5.347   4.110
 2218TIP3    H1 6660   5.290   5.367   4.124
 2218TIP3    H2 6661   5.163   5.328   4.197
 2219TIP3   OH2 6662   6.220   3.385   0.205
 2219TIP3    H1 6663   6.208   3.479   0.218
 2219TIP3    H2 6664   6.154   3.345   0.261
 2220TIP3   OH2 6665   3.616   4.957   0.755
 2220TIP3    H1 6666   3.632   5.024   0.822
 2220TIP3    H2 6667   3.581   4.883   0.804
 2221TIP3   OH2 6668   3.137   0.237   2.857
 2221TIP3    H1 6669   3.156   0.211   2.947
 2221TIP3    H2 6670   3.080   0.313   2.865
 2222TIP3   OH2 6671   0.342   2.768   1.642
 2222TIP3    H1 6672   0.367   2.753   1.551
 2222TIP3    H2 6673   0.377   2.855   1.662
 2223TIP3   OH2 6674   3.270   4.955   2.260
 2223TIP3    H1 6675   3.287   4.994   2.346
 2223TIP3    H2 6676   3.231   5.025   2.209
 2224TIP3   OH2 6677   4.279   2.137   4.246
 2224TIP3    H1 6678   4.260   2.230   4.260
 2224TIP3    H2 6679   4.257   2.095   4.330
 2225TIP3   OH2 6680   5.631   1.731   2.348
 2225TIP3    H1 6681   5.612   1.671   2.420
 2225TIP3    H2 6682   5.684   1.800   2.387
 2226TIP3   OH2 6683   5.711   1.457   1.619
 2226TIP3    H1 6684   5.646   1.458   1.688
 2226TIP3    H2 6685   5.727   1.550   1.600
 2227TIP3   OH2 6686   1.433   2.889   0.584
 2227TIP3    H1 6687   1.396   2.978   0.586
 2227TIP3    H2 6688   1.518   2.897   0.627
 2228TIP3   OH2 6689   3.753   1.855   1.772
 2228TIP3    H1 6690   3.802   1.777   1.799
 2228TIP3    H2 6691   3.770   1.919   1.841
 2229TIP3   OH2 6692   1.213   4.161   2.129
 2229TIP3    H1 6693   1.246   4.203   2.209
 2229TIP3    H2 6694   1.201   4.234   2.068
 2230TIP3   OH2 6695   3.535   3.256   0.935
 2230TIP3    H1 6696   3.447   3.287   0.959
 2230TIP3    H2 6697   3.548   3.287   0.846
 2231TIP3   OH2 6698   1.421   4.518   3.123
 2231TIP3    H1 6699   1.510   4.531   3.157
 2231TIP3    H2 6700   1.379   4.604   3.131
 2232TIP3   OH2 6701   1.731   2.305   1.940
 2232TIP3    H1 6702   1.690   2.349   1.865
 2232TIP3    H2 6703   1.747   2.374   2.003
 2233TIP3   OH2 6704   1.017   2.959   4.241
 2233TIP3    H1 6705   1.024   3.053   4.229
 2233TIP3    H2 6706   0.935   2.935   4.198
 2234TIP3   OH2 6707   1.019   2.417   1.191
 2234TIP3    H1 6708   1.109   2.391   1.173
 2234TIP3    H2 6709   1.004   2.390   1.282
 2235TIP3   OH2 6710   3.952   0.475   1.725
 2235TIP3    H1 6711   3.968   0.555   1.674
 2235TIP3    H2 6712   4.038   0.434   1.732
 2236TIP3   OH2 6713   4.171   1.456   0.924
 2236TIP3    H1 6714   4.240   1.476   0.861
 2236TIP3    H2 6715   4.192   1.369   0.957
 2237TIP3   OH2 6716   3.427   4.987   3.667
 2237TIP3    H1 6717   3.416   4.915   3.729
 2237TIP3    H2 6718   3.511   5.026   3.690
 2238TIP3   OH2 6719   5.243   1.509   0.085
 2238TIP3    H1 6720   5.327   1.548   0.061
 2238TIP3    H2 6721   5.178   1.574   0.060
 2239TIP3   OH2 6722   0.200   0.051   0.775
 2239TIP3    H1 6723   0.269   0.093   0.724
 2239TIP3    H2 6724   0.123   0.053   0.717
 2240TIP3   OH2 6725   2.950   2.443   3.758
 2240TIP3    H1 6726   2.998   2.498   3.821
 2240TIP3    H2 6727   2.863   2.433   3.797
 2241TIP3   OH2 6728   3.110   2.026   0.050
 2241TIP3    H1 6729   3.180   2.026   0.115
 2241TIP3    H2 6730   3.031   2.047   0.099
 2242TIP3   OH2 6731   4.886   2.367   1.065
 2242TIP3    H1 6732   4.965   2.416   1.042
 2242TIP3    H2 6733   4.844   2.348   0.981
 2243TIP3   OH2 6734   6.066   0.857   1.839
 2243TIP3    H1 6735   6.053   0.825   1.750
 2243TIP3    H2 6736   5.982   0.897   1.863
 2244TIP3   OH2 6737   3.344   1.928   4.901
 2244TIP3    H1 6738   3.265   1.937   4.955
 2244TIP3    H2 6739   3.334   1.842   4.859
 2245TIP3   OH2 6740   3.532   2.428   0.793
 2245TIP3    H1 6741   3.540   2.369   0.718
 2245TIP3    H2 6742   3.617   2.470   0.800
 2246TIP3   OH2 6743   0.800   2.596   2.074
 2246TIP3    H1 6744   0.714   2.624   2.044
 2246TIP3    H2 6745   0.861   2.636   2.011
 2247TIP3   OH2 6746   2.187   0.105   2.470
 2247TIP3    H1 6747   2.146   0.134   2.551
 2247TIP3    H2 6748   2.131   0.141   2.401
 2248TIP3   OH2 6749   3.648   4.490   0.885
 2248TIP3    H1 6750   3.708   4.562   0.906
 2248TIP3    H2 6751   3.705   4.415   0.867
 2249TIP3   OH2 6752   6.143   1.583   5.024
 2249TIP3    H1 6753   6.122   1.513   5.087
 2249TIP3    H2 6754   6.117   1.548   4.939
 2250TIP3   OH2 6755   3.906   0.278   2.121
 2250TIP3    H1 6756   3.982   0.253   2.069
 2250TIP3    H2 6757   3.938   0.347   2.179
 2251TIP3   OH2 6758   5.336   2.808   4.166
 2251TIP3    H1 6759   5.293   2.812   4.081
 2251TIP3    H2 6760   5.361   2.899   4.185
 2252TIP3   OH2 6761   2.184   0.957   1.301
 2252TIP3    H1 6762   2.135   0.914   1.231
 2252TIP3    H2 6763   2.182   0.895   1.374
 2253TIP3   OH2 6764   4.449   5.010   1.317
 2253TIP3    H1 6765   4.461   4.933   1.372
 2253TIP3    H2 6766   4.407   5.074   1.374
 2254TIP3   OH2 6767   1.220   4.150   1.640
 2254TIP3    H1 6768   1.250   4.187   1.723
 2254TIP3    H2 6769   1.285   4.083   1.618
 2255TIP3   OH2 6770   1.634   5.796   2.703
 2255TIP3    H1 6771   1.630   5.742   2.624
 2255TIP3    H2 6772   1.548   5.839   2.707
 2256TIP3   OH2 6773   0.816   1.442   4.175
 2256TIP3    H1 6774   0.862   1.442   4.259
 2256TIP3    H2 6775   0.878   1.403   4.114
 2257TIP3   OH2 6776   0.586   1.495   1.008
 2257TIP3    H1 6777   0.513   1.488   1.068
 2257TIP3    H2 6778   0.593   1.408   0.968
 2258TIP3   OH2 6779   4.493   4.694   4.142
 2258TIP3    H1 6780   4.511   4.763   4.078
 2258TIP3    H2 6781   4.525   4.613   4.100
 2259TIP3   OH2 6782   1.166   3.864   4.631
 2259TIP3    H1 6783   1.160   3.948   4.586
 2259TIP3    H2 6784   1.084   3.858   4.681
 2260TIP3   OH2 6785   5.595   3.675   2.540
 2260TIP3    H1 6786   5.653   3.692   2.466
 2260TIP3    H2 6787   5.652   3.637   2.607
 2261TIP3   OH2 6788   3.944   1.979   3.571
 2261TIP3    H1 6789   4.008   1.908   3.564
 2261TIP3    H2 6790   3.996   2.059   3.560
 2262TIP3   OH2 6791   5.017   2.373   4.989
 2262TIP3    H1 6792   5.091   2.431   4.971
 2262TIP3    H2 6793   5.057   2.294   5.027
 2263TIP3   OH2 6794   2.841   3.719   0.524
 2263TIP3    H1 6795   2.804   3.640   0.561
 2263TIP3    H2 6796   2.766   3.767   0.489
 2264TIP3   OH2 6797   2.634   3.788   4.497
 2264TIP3    H1 6798   2.692   3.847   4.449
 2264TIP3    H2 6799   2.687   3.710   4.513
 2265TIP3   OH2 6800   3.722   2.254   1.684
 2265TIP3    H1 6801   3.647   2.306   1.657
 2265TIP3    H2 6802   3.697   2.220   1.771
 2266TIP3   OH2 6803   3.605   0.345   1.045
 2266TIP3    H1 6804   3.683   0.397   1.067
 2266TIP3    H2 6805   3.540   0.411   1.020
 2267TIP3   OH2 6806   4.261   2.305   0.785
 2267TIP3    H1 6807   4.293   2.249   0.856
 2267TIP3    H2 6808   4.265   2.249   0.707
 2268TIP3   OH2 6809   3.648   1.462   3.788
 2268TIP3    H1 6810   3.598   1.381   3.780
 2268TIP3    H2 6811   3.707   1.461   3.713
 2269TIP3   OH2 6812   5.000   2.471   1.307
 2269TIP3    H1 6813   4.977   2.428   1.225
 2269TIP3    H2 6814   4.940   2.434   1.371
 2270TIP3   OH2 6815   0.611   0.031   3.754
 2270TIP3    H1 6816   0.568   0.055   3.672
 2270TIP3    H2 6817   0.589  -0.062   3.766
 2271TIP3   OH2 6818   4.815   0.681   4.377
 2271TIP3    H1 6819   4.730   0.715   4.350
 2271TIP3    H2 6820   4.879   0.734   4.331
 2272TIP3   OH2 6821   2.143   4.308   4.664
 2272TIP3    H1 6822   2.200   4.378   4.697
 2272TIP3    H2 6823   2.193   4.266   4.595
 2273TIP3   OH2 6824   4.640   3.440   1.881
 2273TIP3    H1 6825   4.645   3.400   1.967
 2273TIP3    H2 6826   4.608   3.371   1.824
 2274TIP3   OH2 6827   2.978   3.888   3.101
 2274TIP3    H1 6828   2.949   3.839   3.178
 2274TIP3    H2 6829   2.997   3.976   3.134
 2275TIP3   OH2 6830   0.092   2.332   0.863
 2275TIP3    H1 6831   0.049   2.250   0.886
 2275TIP3    H2 6832   0.085   2.386   0.942
 2276TIP3   OH2 6833   0.676   5.454   1.076
 2276TIP3    H1 6834   0.668   5.490   1.164
 2276TIP3    H2 6835   0.750   5.502   1.037
 2277TIP3   OH2 6836   3.632   0.582   0.860
 2277TIP3    H1 6837   3.608   0.632   0.781
 2277TIP3    H2 6838   3.548   0.556   0.898
 2278TIP3   OH2 6839   1.749   5.922   1.101
 2278TIP3    H1 6840   1.824   5.898   1.047
 2278TIP3    H2 6841   1.673   5.892   1.050
 2279TIP3   OH2 6842   0.701   1.933   0.857
 2279TIP3    H1 6843   0.616   1.965   0.887
 2279TIP3    H2 6844   0.683   1.891   0.772
 2280TIP3   OH2 6845   0.654   2.418   0.471
 2280TIP3    H1 6846   0.662   2.407   0.377
 2280TIP3    H2 6847   0.560   2.422   0.488
 2281TIP3   OH2 6848   3.727   0.825   0.230
 2281TIP3    H1 6849   3.693   0.902   0.276
 2281TIP3    H2 6850   3.737   0.759   0.299
 2282TIP3   OH2 6851   1.454   0.545   0.699
 2282TIP3    H1 6852   1.393   0.536   0.626
 2282TIP3    H2 6853   1.438   0.634   0.731
 2283TIP3   OH2 6854   1.309   3.594   3.379
 2283TIP3    H1 6855   1.386   3.650   3.367
 2283TIP3    H2 6856   1.314   3.564   3.470
 2284TIP3   OH2 6857   1.245   1.477   2.452
 2284TIP3    H1 6858   1.223   1.516   2.536
 2284TIP3    H2 6859   1.243   1.550   2.390
 2285TIP3   OH2 6860   2.927   2.846   4.404
 2285TIP3    H1 6861   2.984   2.810   4.473
 2285TIP3    H2 6862   2.934   2.783   4.332
 2286TIP3   OH2 6863   1.471   4.023   3.872
 2286TIP3    H1 6864   1.379   4.027   3.900
 2286TIP3    H2 6865   1.493   3.930   3.876
 2287TIP3   OH2 6866   1.603   4.272   1.693
 2287TIP3    H1 6867   1.693   4.259   1.725
 2287TIP3    H2 6868   1.549   4.220   1.752
 2288TIP3   OH2 6869   0.343   0.861   4.425
 2288TIP3    H1 6870   0.248   0.867   4.415
 2288TIP3    H2 6871   0.377   0.943   4.388
 2289TIP3   OH2 6872   3.473   2.916   4.394
 2289TIP3    H1 6873   3.494   2.856   4.466
 2289TIP3    H2 6874   3.557   2.956   4.371
 2290TIP3   OH2 6875   5.027   4.185   4.920
 2290TIP3    H1 6876   4.985   4.270   4.930
 2290TIP3    H2 6877   5.115   4.198   4.956
 2291TIP3   OH2 6878   1.637   2.616   3.277
 2291TIP3    H1 6879   1.587   2.537   3.297
 2291TIP3    H2 6880   1.717   2.583   3.236
 2292TIP3   OH2 6881   3.807   4.170   1.992
 2292TIP3    H1 6882   3.751   4.111   1.941
 2292TIP3    H2 6883   3.750   4.208   2.058
 2293TIP3   OH2 6884   0.998   2.457   3.947
 2293TIP3    H1 6885   1.034   2.546   3.947
 2293TIP3    H2 6886   0.919   2.463   3.893
 2294TIP3   OH2 6887   1.459   3.959   2.963
 2294TIP3    H1 6888   1.489   4.014   3.036
 2294TIP3    H2 6889   1.421   3.882   3.006
 2295TIP3   OH2 6890   0.138   3.497   0.136
 2295TIP3    H1 6891   0.043   3.492   0.137
 2295TIP3    H2 6892   0.167   3.409   0.115
 2296TIP3   OH2 6893   4.364   3.445   2.331
 2296TIP3    H1 6894   4.331   3.524   2.289
 2296TIP3    H2 6895   4.295   3.380   2.317
 2297TIP3   OH2 6896   3.466   4.406   1.457
 2297TIP3    H1 6897   3.384   4.359   1.440
 2297TIP3    H2 6898   3.523   4.340   1.497
 2298TIP3   OH2 6899   6.235   3.374   3.036
 2298TIP3    H1 6900   6.182   3.375   2.956
 2298TIP3    H2 6901   6.194   3.440   3.092
 2299TIP3   OH2 6902   3.787   4.516   2.031
 2299TIP3    H1 6903   3.786   4.589   2.094
 2299TIP3    H2 6904   3.697   4.483   2.032
 2300TIP3   OH2 6905   0.448   3.235   0.735
 2300TIP3    H1 6906   0.455   3.315   0.683
 2300TIP3    H2 6907   0.358   3.235   0.768
 2301TIP3   OH2 6908   5.939   5.516   3.818
 2301TIP3    H1 6909   5.992   5.554   3.748
 2301TIP3    H2 6910   5.925   5.426   3.791
 2302TIP3   OH2 6911   0.740   5.930   0.278
 2302TIP3    H1 6912   0.833   5.916   0.259
 2302TIP3    H2 6913   0.739   5.988   0.354
 2303TIP3   OH2 6914   1.766   4.149   2.264
 2303TIP3    H1 6915   1.775   4.185   2.176
 2303TIP3    H2 6916   1.777   4.054   2.252
 2304TIP3   OH2 6917   2.094   0.995   3.015
 2304TIP3    H1 6918   2.035   0.927   3.047
 2304TIP3    H2 6919   2.081   1.068   3.076
 2305TIP3   OH2 6920   2.874   1.804   0.546
 2305TIP3    H1 6921   2.799   1.864   0.542
 2305TIP3    H2 6922   2.932   1.832   0.476
 2306TIP3   OH2 6923   5.037   4.958   4.269
 2306TIP3    H1 6924   5.036   4.865   4.245
 2306TIP3    H2 6925   5.032   5.005   4.186
 2307TIP3   OH2 6926   3.054   3.029   2.848
 2307TIP3    H1 6927   3.006   3.041   2.931
 2307TIP3    H2 6928   3.093   3.115   2.831
 2308TIP3   OH2 6929   5.920   5.550   2.463
 2308TIP3    H1 6930   5.885   5.509   2.384
 2308TIP3    H2 6931   6.013   5.563   2.444
 2309TIP3   OH2 6932   2.494   4.891   1.840
 2309TIP3    H1 6933   2.488   4.981   1.874
 2309TIP3    H2 6934   2.558   4.896   1.769
 2310TIP3   OH2 6935   2.598   1.991   4.597
 2310TIP3    H1 6936   2.569   2.025   4.513
 2310TIP3    H2 6937   2.562   2.052   4.661
 2311TIP3   OH2 6938   5.846   0.776   2.084
 2311TIP3    H1 6939   5.902   0.841   2.127
 2311TIP3    H2 6940   5.906   0.703   2.065
 2312TIP3   OH2 6941   5.375   3.206   4.614
 2312TIP3    H1 6942   5.329   3.178   4.693
 2312TIP3    H2 6943   5.357   3.300   4.608
 2313TIP3   OH2 6944   5.514   3.469   0.655
 2313TIP3    H1 6945   5.541   3.516   0.576
 2313TIP3    H2 6946   5.438   3.417   0.627
 2314TIP3   OH2 6947   4.070   1.816   4.812
 2314TIP3    H1 6948   4.019   1.743   4.847
 2314TIP3    H2 6949   4.010   1.863   4.754
 2315TIP3   OH2 6950   0.235   3.187   4.343
 2315TIP3    H1 6951   0.216   3.123   4.413
 2315TIP3    H2 6952   0.153   3.194   4.295
 2316TIP3   OH2 6953   4.860   5.785   5.043
 2316TIP3    H1 6954   4.852   5.692   5.020
 2316TIP3    H2 6955   4.779   5.824   5.012
 2317TIP3   OH2 6956   5.818   5.805   3.828
 2317TIP3    H1 6957   5.865   5.787   3.746
 2317TIP3    H2 6958   5.739   5.752   3.823
 2318TIP3   OH2 6959   6.325   1.431   1.769
 2318TIP3    H1 6960   6.365   1.423   1.856
 2318TIP3    H2 6961   6.297   1.522   1.763
 2319TIP3   OH2 6962   4.124   0.452   3.220
 2319TIP3    H1 6963   4.087   0.440   3.308
 2319TIP3    H2 6964   4.069   0.398   3.163
 2320TIP3   OH2 6965   3.632   2.528   1.489
 2320TIP3    H1 6966   3.634   2.510   1.395
 2320TIP3    H2 6967   3.539   2.539   1.509
 2321TIP3   OH2 6968   5.308   0.715   3.046
 2321TIP3    H1 6969   5.287   0.622   3.056
 2321TIP3    H2 6970   5.366   0.734   3.120
 2322TIP3   OH2 6971   5.815   3.547   2.661
 2322TIP3    H1 6972   5.766   3.488   2.604
 2322TIP3    H2 6973   5.828   3.498   2.742
 2323TIP3   OH2 6974   4.381   0.621   1.723
 2323TIP3    H1 6975   4.353   0.676   1.650
 2323TIP3    H2 6976   4.320   0.547   1.721
 2324TIP3   OH2 6977   6.228   4.137   0.688
 2324TIP3    H1 6978   6.233   4.041   0.688
 2324TIP3    H2 6979   6.318   4.165   0.704
 2325TIP3   OH2 6980   4.509   2.150   1.539
 2325TIP3    H1 6981   4.563   2.174   1.615
 2325TIP3    H2 6982   4.508   2.055   1.539
 2326TIP3   OH2 6983   6.375   3.664   3.373
 2326TIP3    H1 6984   6.330   3.749   3.376
 2326TIP3    H2 6985   6.305   3.599   3.374
 2327TIP3   OH2 6986   5.099   0.565   3.484
 2327TIP3    H1 6987   5.048   0.633   3.530
 2327TIP3    H2 6988   5.144   0.518   3.554
 2328TIP3   OH2 6989   0.242   3.718   4.626
 2328TIP3    H1 6990   0.277   3.752   4.708
 2328TIP3    H2 6991   0.280   3.631   4.617
 2329TIP3   OH2 6992   3.535   1.218   3.593
 2329TIP3    H1 6993   3.476   1.149   3.562
 2329TIP3    H2 6994   3.615   1.171   3.618
 2330TIP3   OH2 6995   4.725   0.205   2.709
 2330TIP3    H1 6996   4.749   0.259   2.785
 2330TIP3    H2 6997   4.634   0.181   2.725
 2331TIP3   OH2 6998   6.316   5.926   1.622
 2331TIP3    H1 6999   6.365   5.853   1.660
 2331TIP3    H2 7000   6.226   5.913   1.652
 2332TIP3   OH2 7001   5.474   3.295   1.435
 2332TIP3    H1 7002   5.428   3.261   1.512
 2332TIP3    H2 7003   5.431   3.253   1.361
 2333TIP3   OH2 7004   5.904   1.641   3.151
 2333TIP3    H1 7005   5.872   1.716   3.202
 2333TIP3    H2 7006   5.826   1.610   3.104
 2334TIP3   OH2 7007   4.017   3.270   5.211
 2334TIP3    H1 7008   4.002   3.278   5.117
 2334TIP3    H2 7009   4.103   3.229   5.219
 2335TIP3   OH2 7010   3.180   3.497   0.079
 2335TIP3    H1 7011   3.170   3.544  -0.003
 2335TIP3    H2 7012   3.139   3.411   0.063
 2336TIP3   OH2 7013   2.386   5.660   0.869
 2336TIP3    H1 7014   2.404   5.712   0.947
 2336TIP3    H2 7015   2.471   5.654   0.825
 2337TIP3   OH2 7016   2.120   0.707   1.587
 2337TIP3    H1 7017   2.148   0.683   1.499
 2337TIP3    H2 7018   2.157   0.794   1.600
 2338TIP3   OH2 7019   6.354   0.581   3.492
 2338TIP3    H1 7020   6.297   0.528   3.437
 2338TIP3    H2 7021   6.299   0.654   3.521
 2339TIP3   OH2 7022   3.688   3.774   1.055
 2339TIP3    H1 7023   3.771   3.725   1.050
 2339TIP3    H2 7024   3.641   3.747   0.976
 2340TIP3   OH2 7025   5.676   5.729   4.253
 2340TIP3    H1 7026   5.675   5.800   4.189
 2340TIP3    H2 7027   5.744   5.754   4.315
 2341TIP3   OH2 7028   1.948   4.969   4.092
 2341TIP3    H1 7029   1.894   4.975   4.170
 2341TIP3    H2 7030   1.933   4.881   4.058
 2342TIP3   OH2 7031   2.600   3.549   0.347
 2342TIP3    H1 7032   2.572   3.561   0.257
 2342TIP3    H2 7033   2.529   3.502   0.389
 2343TIP3   OH2 7034   4.146   3.584   2.842
 2343TIP3    H1 7035   4.160   3.664   2.791
 2343TIP3    H2 7036   4.088   3.531   2.788
 2344TIP3   OH2 7037   2.859   5.342   1.561
 2344TIP3    H1 7038   2.946   5.310   1.538
 2344TIP3    H2 7039   2.869   5.437   1.565
 2345TIP3   OH2 7040   2.439   4.081   2.623
 2345TIP3    H1 7041   2.484   4.155   2.583
 2345TIP3    H2 7042   2.458   4.090   2.717
 2346TIP3   OH2 7043   2.735   1.242   3.939
 2346TIP3    H1 7044   2.651   1.266   3.978
 2346TIP3    H2 7045   2.743   1.148   3.955
 2347TIP3   OH2 7046   4.159   1.055   2.751
 2347TIP3    H1 7047   4.155   1.064   2.656
 2347TIP3    H2 7048   4.074   1.021   2.777
 2348TIP3   OH2 7049   6.147   5.869   2.239
 2348TIP3    H1 7050   6.163   5.847   2.331
 2348TIP3    H2 7051   6.233   5.891   2.204
 2349TIP3   OH2 7052   3.657   0.058   3.385
 2349TIP3    H1 7053   3.702  -0.020   3.355
 2349TIP3    H2 7054   3.667   0.121   3.314
 2350TIP3   OH2 7055   2.693   1.721   0.890
 2350TIP3    H1 7056   2.688   1.628   0.913
 2350TIP3    H2 7057   2.768   1.727   0.831
 2351TIP3   OH2 7058   1.967   1.191   1.868
 2351TIP3    H1 7059   1.914   1.256   1.913
 2351TIP3    H2 7060   1.905   1.125   1.839
 2352TIP3   OH2 7061   0.809   2.959   5.132
 2352TIP3    H1 7062   0.723   2.975   5.170
 2352TIP3    H2 7063   0.869   3.012   5.185
 2353TIP3   OH2 7064   2.673   0.844   4.375
 2353TIP3    H1 7065   2.766   0.845   4.397
 2353TIP3    H2 7066   2.661   0.924   4.323
 2354TIP3   OH2 7067   1.255   0.675   2.669
 2354TIP3    H1 7068   1.260   0.745   2.734
 2354TIP3    H2 7069   1.180   0.623   2.696
 2355TIP3   OH2 7070   3.990   3.075   4.485
 2355TIP3    H1 7071   4.037   3.001   4.446
 2355TIP3    H2 7072   3.963   3.044   4.571
 2356TIP3   OH2 7073   3.176   4.385   0.295
 2356TIP3    H1 7074   3.159   4.308   0.350
 2356TIP3    H2 7075   3.254   4.361   0.244
 2357TIP3   OH2 7076   3.896   2.156   5.137
 2357TIP3    H1 7077   3.855   2.240   5.115
 2357TIP3    H2 7078   3.973   2.180   5.189
 2358TIP3   OH2 7079   1.158   3.117   2.840
 2358TIP3    H1 7080   1.198   3.149   2.921
 2358TIP3    H2 7081   1.134   3.196   2.793
 2359TIP3   OH2 7082   6.149   5.927   5.114
 2359TIP3    H1 7083   6.087   5.900   5.181
 2359TIP3    H2 7084   6.219   5.972   5.162
 2360TIP3   OH2 7085   3.699   1.388   4.049
 2360TIP3    H1 7086   3.653   1.394   3.965
 2360TIP3    H2 7087   3.782   1.345   4.027
 2361TIP3   OH2 7088   1.173   3.707   0.936
 2361TIP3    H1 7089   1.119   3.635   0.904
 2361TIP3    H2 7090   1.230   3.729   0.863
 2362TIP3   OH2 7091   1.650   1.903   3.838
 2362TIP3    H1 7092   1.631   1.824   3.788
 2362TIP3    H2 7093   1.656   1.972   3.771
 2363TIP3   OH2 7094   6.165   2.237   3.419
 2363TIP3    H1 7095   6.163   2.201   3.508
 2363TIP3    H2 7096   6.237   2.300   3.421
 2364TIP3   OH2 7097   2.094   0.332   1.923
 2364TIP3    H1 7098   2.131   0.269   1.861
 2364TIP3    H2 7099   2.057   0.401   1.868
 2365TIP3   OH2 7100   5.808   5.178   0.688
 2365TIP3    H1 7101   5.777   5.199   0.776
 2365TIP3    H2 7102   5.888   5.229   0.677
 2366TIP3   OH2 7103   3.296   2.427   3.474
 2366TIP3    H1 7104   3.311   2.432   3.380
 2366TIP3    H2 7105   3.248   2.507   3.495
 2367TIP3   OH2 7106   5.088   2.551   4.241
 2367TIP3    H1 7107   5.174   2.509   4.252
 2367TIP3    H2 7108   5.104   2.644   4.255
 2368TIP3   OH2 7109   2.632   4.783   0.995
 2368TIP3    H1 7110   2.633   4.863   1.047
 2368TIP3    H2 7111   2.716   4.783   0.948
 2369TIP3   OH2 7112   0.781   3.521   1.540
 2369TIP3    H1 7113   0.833   3.544   1.463
 2369TIP3    H2 7114   0.713   3.588   1.544
 2370TIP3   OH2 7115   0.616   4.665   5.015
 2370TIP3    H1 7116   0.560   4.649   5.091
 2370TIP3    H2 7117   0.605   4.588   4.960
 2371TIP3   OH2 7118   4.302   1.493   3.402
 2371TIP3    H1 7119   4.269   1.406   3.377
 2371TIP3    H2 7120   4.235   1.554   3.374
 2372TIP3   OH2 7121   0.596   2.806   4.474
 2372TIP3    H1 7122   0.677   2.825   4.427
 2372TIP3    H2 7123   0.582   2.884   4.529
 2373TIP3   OH2 7124   2.199   1.099   2.008
 2373TIP3    H1 7125   2.250   1.154   2.068
 2373TIP3    H2 7126   2.126   1.154   1.982
 2374TIP3   OH2 7127   4.075   5.427   3.568
 2374TIP3    H1 7128   4.098   5.348   3.616
 2374TIP3    H2 7129   4.111   5.413   3.480
 2375TIP3   OH2 7130   4.277   0.835   1.135
 2375TIP3    H1 7131   4.254   0.911   1.080
 2375TIP3    H2 7132   4.196   0.785   1.142
 2376TIP3   OH2 7133   1.813   2.138   0.111
 2376TIP3    H1 7134   1.777   2.167   0.195
 2376TIP3    H2 7135   1.736   2.120   0.057
 2377TIP3   OH2 7136   5.085   5.170   2.963
 2377TIP3    H1 7137   5.124   5.111   3.027
 2377TIP3    H2 7138   5.084   5.255   3.007
 2378TIP3   OH2 7139   3.970   1.803   2.453
 2378TIP3    H1 7140   4.035   1.739   2.482
 2378TIP3    H2 7141   3.959   1.785   2.359
 2379TIP3   OH2 7142   3.003   5.188   0.399
 2379TIP3    H1 7143   2.912   5.217   0.390
 2379TIP3    H2 7144   3.048   5.262   0.440
 2380TIP3   OH2 7145   3.855   0.716   3.535
 2380TIP3    H1 7146   3.782   0.731   3.595
 2380TIP3    H2 7147   3.933   0.726   3.588
 2381TIP3   OH2 7148   5.494   2.367   1.500
 2381TIP3    H1 7149   5.407   2.333   1.480
 2381TIP3    H2 7150   5.497   2.452   1.457
 2382TIP3   OH2 7151   0.467   4.803   1.232
 2382TIP3    H1 7152   0.511   4.762   1.158
 2382TIP3    H2 7153   0.451   4.893   1.204
 2383TIP3   OH2 7154   6.061   4.697   0.454
 2383TIP3    H1 7155   6.110   4.761   0.506
 2383TIP3    H2 7156   6.007   4.651   0.518
 2384TIP3   OH2 7157   0.382   5.593   2.712
 2384TIP3    H1 7158   0.298   5.580   2.757
 2384TIP3    H2 7159   0.446   5.599   2.783
 2385TIP3   OH2 7160   3.107   0.868   1.203
 2385TIP3    H1 7161   3.073   0.920   1.275
 2385TIP3    H2 7162   3.129   0.783   1.242
 2386TIP3   OH2 7163   0.903   0.315   2.916
 2386TIP3    H1 7164   0.985   0.335   2.870
 2386TIP3    H2 7165   0.856   0.398   2.918
 2387TIP3   OH2 7166   2.465   3.971   1.010
 2387TIP3    H1 7167   2.500   4.028   0.941
 2387TIP3    H2 7168   2.470   4.024   1.090
 2388TIP3   OH2 7169   3.558   4.701   0.109
 2388TIP3    H1 7170   3.595   4.617   0.137
 2388TIP3    H2 7171   3.613   4.728   0.036
 2389TIP3   OH2 7172   4.856   4.331   1.640
 2389TIP3    H1 7173   4.943   4.320   1.676
 2389TIP3    H2 7174   4.814   4.396   1.697
 2390TIP3   OH2 7175   0.136   5.841   3.548
 2390TIP3    H1 7176   0.103   5.913   3.601
 2390TIP3    H2 7177   0.060   5.785   3.533
 2391TIP3   OH2 7178   5.463   0.532   4.862
 2391TIP3    H1 7179   5.451   0.479   4.784
 2391TIP3    H2 7180   5.411   0.611   4.845
 2392TIP3   OH2 7181   4.672   0.451   2.204
 2392TIP3    H1 7182   4.677   0.487   2.115
 2392TIP3    H2 7183   4.706   0.362   2.195
 2393TIP3   OH2 7184   4.199   0.985   4.664
 2393TIP3    H1 7185   4.132   1.053   4.659
 2393TIP3    H2 7186   4.282   1.032   4.659
 2394TIP3   OH2 7187   2.114   5.624   0.947
 2394TIP3    H1 7188   2.209   5.635   0.949
 2394TIP3    H2 7189   2.100   5.534   0.977
 2395TIP3   OH2 7190   1.997   1.444   0.017
 2395TIP3    H1 7191   1.968   1.458   0.107
 2395TIP3    H2 7192   1.972   1.524  -0.029
 2396TIP3   OH2 7193   1.648   2.835   3.515
 2396TIP3    H1 7194   1.643   2.788   3.432
 2396TIP3    H2 7195   1.672   2.925   3.490
 2397TIP3   OH2 7196   1.503   0.560   2.516
 2397TIP3    H1 7197   1.466   0.623   2.454
 2397TIP3    H2 7198   1.450   0.569   2.594
 2398TIP3   OH2 7199   6.211   2.224   3.769
 2398TIP3    H1 7200   6.238   2.134   3.752
 2398TIP3    H2 7201   6.115   2.222   3.758
 2399TIP3   OH2 7202   2.539   2.500   3.217
 2399TIP3    H1 7203   2.547   2.595   3.208
 2399TIP3    H2 7204   2.491   2.488   3.300
 2400TIP3   OH2 7205   3.838   1.885   3.818
 2400TIP3    H1 7206   3.870   1.926   3.737
 2400TIP3    H2 7207   3.917   1.863   3.867
 2401TIP3   OH2 7208   3.075   5.057   0.164
 2401TIP3    H1 7209   3.058   5.101   0.248
 2401TIP3    H2 7210   3.164   5.081   0.141
 2402TIP3   OH2 7211   1.452   3.449   1.064
 2402TIP3    H1 7212   1.433   3.489   0.979
 2402TIP3    H2 7213   1.371   3.404   1.088
 2403TIP3   OH2 7214   5.228   1.600   0.605
 2403TIP3    H1 7215   5.237   1.650   0.523
 2403TIP3    H2 7216   5.135   1.606   0.626
 2404TIP3   OH2 7217   1.466   4.309   4.003
 2404TIP3    H1 7218   1.457   4.239   4.068
 2404TIP3    H2 7219   1.560   4.314   3.986
 2405TIP3   OH2 7220   5.312   0.967   3.468
 2405TIP3    H1 7221   5.333   1.028   3.539
 2405TIP3    H2 7222   5.240   1.009   3.421
 2406TIP3   OH2 7223   1.771   5.493   1.457
 2406TIP3    H1 7224   1.751   5.582   1.427
 2406TIP3    H2 7225   1.752   5.494   1.551
 2407TIP3   OH2 7226   3.536   0.373   2.833
 2407TIP3    H1 7227   3.472   0.318   2.787
 2407TIP3    H2 7228   3.486   0.415   2.903
 2408TIP3   OH2 7229   6.269   3.973   2.894
 2408TIP3    H1 7230   6.305   4.011   2.814
 2408TIP3    H2 7231   6.340   3.983   2.959
 2409TIP3   OH2 7232   5.506   0.044   0.926
 2409TIP3    H1 7233   5.419   0.020   0.895
 2409TIP3    H2 7234   5.500   0.043   1.021
 2410TIP3   OH2 7235   0.747   5.156   4.239
 2410TIP3    H1 7236   0.744   5.112   4.154
 2410TIP3    H2 7237   0.708   5.241   4.223
 2411TIP3   OH2 7238   5.667   0.506   3.781
 2411TIP3    H1 7239   5.581   0.502   3.740
 2411TIP3    H2 7240   5.708   0.584   3.744
 2412TIP3   OH2 7241   1.270   0.634   3.357
 2412TIP3    H1 7242   1.183   0.654   3.392
 2412TIP3    H2 7243   1.262   0.646   3.263
 2413TIP3   OH2 7244   0.154   4.767   3.148
 2413TIP3    H1 7245   0.108   4.815   3.079
 2413TIP3    H2 7246   0.238   4.744   3.109
 2414TIP3   OH2 7247   2.937   4.052   0.731
 2414TIP3    H1 7248   2.974   4.005   0.656
 2414TIP3    H2 7249   2.876   3.989   0.770
 2415TIP3   OH2 7250   3.711   4.994   4.345
 2415TIP3    H1 7251   3.708   5.082   4.305
 2415TIP3    H2 7252   3.758   5.008   4.427
 2416TIP3   OH2 7253   0.202   2.090   2.111
 2416TIP3    H1 7254   0.213   2.161   2.047
 2416TIP3    H2 7255   0.268   2.107   2.178
 2417TIP3   OH2 7256   0.123   2.492   4.991
 2417TIP3    H1 7257   0.186   2.535   4.932
 2417TIP3    H2 7258   0.112   2.555   5.062
 2418TIP3   OH2 7259   5.574   5.217   5.061
 2418TIP3    H1 7260   5.507   5.274   5.022
 2418TIP3    H2 7261   5.537   5.130   5.059
 2419TIP3   OH2 7262   2.298   4.795   3.621
 2419TIP3    H1 7263   2.266   4.727   3.681
 2419TIP3    H2 7264   2.229   4.860   3.619
 2420TIP3   OH2 7265   1.091   2.011   0.086
 2420TIP3    H1 7266   1.177   2.040   0.055
 2420TIP3    H2 7267   1.102   2.000   0.181
 2421TIP3   OH2 7268   0.925   5.696   3.449
 2421TIP3    H1 7269   0.983   5.630   3.410
 2421TIP3    H2 7270   0.950   5.698   3.541
 2422TIP3   OH2 7271   4.879   1.043   5.091
 2422TIP3    H1 7272   4.851   0.989   5.016
 2422TIP3    H2 7273   4.844   1.130   5.072
 2423TIP3   OH2 7274   5.960   2.114   2.929
 2423TIP3    H1 7275   6.024   2.058   2.974
 2423TIP3    H2 7276   5.977   2.202   2.963
 2424TIP3   OH2 7277   0.259   3.435   1.055
 2424TIP3    H1 7278   0.186   3.385   1.020
 2424TIP3    H2 7279   0.287   3.490   0.982
 2425TIP3   OH2 7280   5.003   2.131   1.205
 2425TIP3    H1 7281   4.945   2.190   1.253
 2425TIP3    H2 7282   4.997   2.159   1.114
 2426TIP3   OH2 7283   1.397   0.843   1.130
 2426TIP3    H1 7284   1.334   0.772   1.144
 2426TIP3    H2 7285   1.457   0.836   1.205
 2427TIP3   OH2 7286   0.953   0.617   1.197
 2427TIP3    H1 7287   0.937   0.697   1.246
 2427TIP3    H2 7288   0.911   0.631   1.113
 2428TIP3   OH2 7289   2.913   1.608   0.731
 2428TIP3    H1 7290   3.006   1.610   0.753
 2428TIP3    H2 7291   2.907   1.655   0.648
 2429TIP3   OH2 7292   5.777   5.578   3.508
 2429TIP3    H1 7293   5.704   5.546   3.562
 2429TIP3    H2 7294   5.846   5.513   3.522
 2430TIP3   OH2 7295   0.786   2.507   2.991
 2430TIP3    H1 7296   0.745   2.575   2.938
 2430TIP3    H2 7297   0.858   2.551   3.035
 2431TIP3   OH2 7298   0.660   2.249   4.344
 2431TIP3    H1 7299   0.627   2.166   4.309
 2431TIP3    H2 7300   0.733   2.272   4.286
 2432TIP3   OH2 7301   0.373   0.359   3.044
 2432TIP3    H1 7302   0.355   0.328   2.955
 2432TIP3    H2 7303   0.466   0.341   3.058
 2433TIP3   OH2 7304   5.656   3.703   0.088
 2433TIP3    H1 7305   5.734   3.690   0.142
 2433TIP3    H2 7306   5.689   3.694  -0.002
 2434TIP3   OH2 7307   0.076   1.740   1.614
 2434TIP3    H1 7308   0.025   1.819   1.627
 2434TIP3    H2 7309   0.158   1.756   1.661
 2435TIP3   OH2 7310   0.575   5.307   2.780
 2435TIP3    H1 7311   0.649   5.248   2.773
 2435TIP3    H2 7312   0.604   5.388   2.739
 2436TIP3   OH2 7313   5.005   2.796   4.875
 2436TIP3    H1 7314   4.923   2.799   4.925
 2436TIP3    H2 7315   4.981   2.828   4.788
 2437TIP3   OH2 7316   2.603   5.804   5.055
 2437TIP3    H1 7317   2.584   5.713   5.077
 2437TIP3    H2 7318   2.591   5.809   4.960
 2438TIP3   OH2 7319   5.019   0.760   2.627
 2438TIP3    H1 7320   5.091   0.710   2.590
 2438TIP3    H2 7321   5.045   0.776   2.718
 2439TIP3   OH2 7322   1.687   1.831   2.101
 2439TIP3    H1 7323   1.691   1.839   2.196
 2439TIP3    H2 7324   1.736   1.907   2.068
 2440TIP3   OH2 7325   6.034   4.177   2.620
 2440TIP3    H1 7326   5.980   4.197   2.696
 2440TIP3    H2 7327   6.070   4.091   2.639
 2441TIP3   OH2 7328   0.995   2.884   2.464
 2441TIP3    H1 7329   0.938   2.960   2.464
 2441TIP3    H2 7330   0.936   2.810   2.479
 2442TIP3   OH2 7331   2.210   2.691   1.426
 2442TIP3    H1 7332   2.185   2.754   1.359
 2442TIP3    H2 7333   2.269   2.631   1.382
 2443TIP3   OH2 7334   2.601   2.818   1.233
 2443TIP3    H1 7335   2.691   2.797   1.206
 2443TIP3    H2 7336   2.550   2.814   1.152
 2444TIP3   OH2 7337   0.353   2.042   2.676
 2444TIP3    H1 7338   0.421   2.069   2.737
 2444TIP3    H2 7339   0.315   2.123   2.643
 2445TIP3   OH2 7340   0.923   2.335   1.450
 2445TIP3    H1 7341   0.889   2.402   1.510
 2445TIP3    H2 7342   0.956   2.266   1.507
 2446TIP3   OH2 7343   6.044   1.169   1.605
 2446TIP3    H1 7344   6.117   1.152   1.665
 2446TIP3    H2 7345   5.982   1.099   1.625
 2447TIP3   OH2 7346   2.512   2.046   2.438
 2447TIP3    H1 7347   2.465   2.049   2.521
 2447TIP3    H2 7348   2.604   2.043   2.462
 2448TIP3   OH2 7349   5.486   4.262   1.004
 2448TIP3    H1 7350   5.418   4.328   0.994
 2448TIP3    H2 7351   5.438   4.181   1.024
 2449TIP3   OH2 7352   5.731   5.885   3.214
 2449TIP3    H1 7353   5.822   5.862   3.195
 2449TIP3    H2 7354   5.700   5.926   3.134
 2450TIP3   OH2 7355   3.823   1.146   0.526
 2450TIP3    H1 7356   3.870   1.068   0.555
 2450TIP3    H2 7357   3.842   1.152   0.432
 2451TIP3   OH2 7358   2.267   0.611   5.060
 2451TIP3    H1 7359   2.307   0.620   4.974
 2451TIP3    H2 7360   2.320   0.666   5.117
 2452TIP3   OH2 7361   3.231   2.981   4.287
 2452TIP3    H1 7362   3.156   2.997   4.345
 2452TIP3    H2 7363   3.302   2.956   4.345
 2453TIP3   OH2 7364   5.494   4.975   1.318
 2453TIP3    H1 7365   5.463   5.064   1.297
 2453TIP3    H2 7366   5.585   4.988   1.345
 2454TIP3   OH2 7367   0.992   5.628   0.220
 2454TIP3    H1 7368   0.921   5.598   0.278
 2454TIP3    H2 7369   0.982   5.723   0.218
 2455TIP3   OH2 7370   3.815   2.708   4.792
 2455TIP3    H1 7371   3.830   2.723   4.699
 2455TIP3    H2 7372   3.770   2.787   4.822
 2456TIP3   OH2 7373   5.628   4.171   4.768
 2456TIP3    H1 7374   5.626   4.076   4.777
 2456TIP3    H2 7375   5.655   4.203   4.854
 2457TIP3   OH2 7376   3.629   4.879   0.306
 2457TIP3    H1 7377   3.559   4.886   0.371
 2457TIP3    H2 7378   3.596   4.815   0.243
 2458TIP3   OH2 7379   6.049   5.500   1.290
 2458TIP3    H1 7380   6.008   5.484   1.205
 2458TIP3    H2 7381   6.099   5.580   1.279
 2459TIP3   OH2 7382   5.455   4.338   1.307
 2459TIP3    H1 7383   5.465   4.243   1.317
 2459TIP3    H2 7384   5.518   4.375   1.369
 2460TIP3   OH2 7385   1.680   0.694   4.641
 2460TIP3    H1 7386   1.732   0.615   4.651
 2460TIP3    H2 7387   1.743   0.766   4.648
 2461TIP3   OH2 7388   5.724   3.379   4.000
 2461TIP3    H1 7389   5.695   3.338   3.919
 2461TIP3    H2 7390   5.643   3.394   4.050
 2462TIP3   OH2 7391   5.674   1.246   4.655
 2462TIP3    H1 7392   5.645   1.156   4.637
 2462TIP3    H2 7393   5.629   1.299   4.590
 2463TIP3   OH2 7394   1.978   0.303   3.731
 2463TIP3    H1 7395   2.021   0.269   3.653
 2463TIP3    H2 7396   1.977   0.398   3.718
 2464TIP3   OH2 7397   4.840   5.094   1.840
 2464TIP3    H1 7398   4.872   5.126   1.756
 2464TIP3    H2 7399   4.897   5.020   1.861
 2465TIP3   OH2 7400   4.167   2.750   0.496
 2465TIP3    H1 7401   4.085   2.791   0.525
 2465TIP3    H2 7402   4.148   2.656   0.494
 2466TIP3   OH2 7403   4.667   1.676   0.106
 2466TIP3    H1 7404   4.723   1.681   0.184
 2466TIP3    H2 7405   4.624   1.591   0.113
 2467TIP3   OH2 7406   3.193   4.631   2.642
 2467TIP3    H1 7407   3.115   4.581   2.667
 2467TIP3    H2 7408   3.262   4.596   2.698
 2468TIP3   OH2 7409   6.287   1.321   1.529
 2468TIP3    H1 7410   6.266   1.332   1.622
 2468TIP3    H2 7411   6.348   1.392   1.509
 2469TIP3   OH2 7412   4.136   1.812   1.477
 2469TIP3    H1 7413   4.125   1.815   1.382
 2469TIP3    H2 7414   4.050   1.788   1.511
 2470TIP3   OH2 7415   2.024   0.504   2.926
 2470TIP3    H1 7416   1.959   0.573   2.931
 2470TIP3    H2 7417   1.991   0.435   2.984
 2471TIP3   OH2 7418   0.081   0.053   2.540
 2471TIP3    H1 7419   0.012   0.094   2.593
 2471TIP3    H2 7420   0.082   0.105   2.459
 2472TIP3   OH2 7421   0.973   0.614   0.816
 2472TIP3    H1 7422   0.891   0.639   0.858
 2472TIP3    H2 7423   1.038   0.620   0.885
 2473TIP3   OH2 7424   2.778   1.324   4.278
 2473TIP3    H1 7425   2.815   1.387   4.216
 2473TIP3    H2 7426   2.777   1.371   4.362
 2474TIP3   OH2 7427   2.784   5.276   3.580
 2474TIP3    H1 7428   2.834   5.354   3.605
 2474TIP3    H2 7429   2.705   5.279   3.635
 2475TIP3   OH2 7430   3.881   0.627   0.390
 2475TIP3    H1 7431   3.952   0.564   0.399
 2475TIP3    H2 7432   3.805   0.585   0.431
 2476TIP3   OH2 7433   6.068   4.161   2.943
 2476TIP3    H1 7434   6.097   4.070   2.943
 2476TIP3    H2 7435   6.134   4.208   2.993
 2477TIP3   OH2 7436   4.808   1.142  -0.020
 2477TIP3    H1 7437   4.851   1.227  -0.011
 2477TIP3    H2 7438   4.826   1.097   0.063
 2478TIP3   OH2 7439   1.427   1.334   4.032
 2478TIP3    H1 7440   1.495   1.374   4.086
 2478TIP3    H2 7441   1.431   1.241   4.053
 2479TIP3   OH2 7442   5.830   2.224   0.378
 2479TIP3    H1 7443   5.869   2.141   0.353
 2479TIP3    H2 7444   5.752   2.231   0.323
 2480TIP3   OH2 7445   1.573   1.109   1.620
 2480TIP3    H1 7446   1.512   1.121   1.692
 2480TIP3    H2 7447   1.518   1.106   1.542
 2481TIP3   OH2 7448   4.950   3.065   0.172
 2481TIP3    H1 7449   5.024   3.031   0.121
 2481TIP3    H2 7450   4.959   3.160   0.164
 2482TIP3   OH2 7451   3.499   1.998   3.025
 2482TIP3    H1 7452   3.579   1.946   3.017
 2482TIP3    H2 7453   3.434   1.953   2.971
 2483TIP3   OH2 7454   2.575   2.844   0.750
 2483TIP3    H1 7455   2.541   2.885   0.671
 2483TIP3    H2 7456   2.649   2.899   0.775
 2484TIP3   OH2 7457   3.621   4.424   3.106
 2484TIP3    H1 7458   3.714   4.412   3.127
 2484TIP3    H2 7459   3.575   4.370   3.171
 2485TIP3   OH2 7460   1.548   0.776   3.416
 2485TIP3    H1 7461   1.552   0.734   3.330
 2485TIP3    H2 7462   1.481   0.845   3.405
 2486TIP3   OH2 7463   3.659   4.418   0.181
 2486TIP3    H1 7464   3.689   4.352   0.244
 2486TIP3    H2 7465   3.566   4.400   0.169
 2487TIP3   OH2 7466   0.303   4.015   3.274
 2487TIP3    H1 7467   0.264   3.928   3.271
 2487TIP3    H2 7468   0.384   4.003   3.325
 2488TIP3   OH2 7469   5.121   5.637   3.850
 2488TIP3    H1 7470   5.050   5.580   3.880
 2488TIP3    H2 7471   5.097   5.660   3.760
 2489TIP3   OH2 7472   1.086   1.052   4.599
 2489TIP3    H1 7473   1.058   1.031   4.688
 2489TIP3    H2 7474   1.173   1.090   4.610
 2490TIP3   OH2 7475   2.642   2.781   3.387
 2490TIP3    H1 7476   2.612   2.767   3.476
 2490TIP3    H2 7477   2.562   2.785   3.335
 2491TIP3   OH2 7478   5.327   1.011   1.426
 2491TIP3    H1 7479   5.309   1.104   1.442
 2491TIP3    H2 7480   5.243   0.976   1.396
 2492TIP3   OH2 7481   6.144   0.780   3.424
 2492TIP3    H1 7482   6.091   0.769   3.503
 2492TIP3    H2 7483   6.084   0.820   3.360
 2493TIP3   OH2 7484   0.859   4.287   1.989
 2493TIP3    H1 7485   0.873   4.245   1.904
 2493TIP3    H2 7486   0.859   4.214   2.051
 2494TIP3   OH2 7487   1.504   0.755   1.379
 2494TIP3    H1 7488   1.475   0.761   1.470
 2494TIP3    H2 7489   1.552   0.672   1.374
 2495TIP3   OH2 7490   4.539   1.886   2.015
 2495TIP3    H1 7491   4.489   1.959   1.979
 2495TIP3    H2 7492   4.584   1.922   2.091
 2496TIP3   OH2 7493   1.051   3.479   4.065
 2496TIP3    H1 7494   1.117   3.461   4.131
 2496TIP3    H2 7495   1.100   3.511   3.989
 2497TIP3   OH2 7496   6.040   3.199   0.348
 2497TIP3    H1 7497   6.022   3.239   0.433
 2497TIP3    H2 7498   6.052   3.106   0.368
 2498TIP3   OH2 7499   3.152   4.431   1.212
 2498TIP3    H1 7500   3.094   4.367   1.170
 2498TIP3    H2 7501   3.205   4.379   1.273
 2499TIP3   OH2 7502   4.296   2.233   3.884
 2499TIP3    H1 7503   4.384   2.269   3.875
 2499TIP3    H2 7504   4.261   2.272   3.964
 2500TIP3   OH2 7505   2.664   4.131   1.706
 2500TIP3    H1 7506   2.643   4.037   1.710
 2500TIP3    H2 7507   2.622   4.162   1.626
 2501TIP3   OH2 7508   3.515   0.118   4.328
 2501TIP3    H1 7509   3.536   0.192   4.271
 2501TIP3    H2 7510   3.600   0.087   4.361
 2502TIP3   OH2 7511   5.067   2.717   3.092
 2502TIP3    H1 7512   5.030   2.768   3.019
 2502TIP3    H2 7513   5.004   2.729   3.163
 2503TIP3   OH2 7514   0.211   1.333   2.700
 2503TIP3    H1 7515   0.166   1.259   2.659
 2503TIP3    H2 7516   0.304   1.309   2.697
 2504TIP3   OH2 7517   0.622   1.346   0.535
 2504TIP3    H1 7518   0.644   1.378   0.623
 2504TIP3    H2 7519   0.706   1.346   0.489
 2505TIP3   OH2 7520   6.115   3.124   5.148
 2505TIP3    H1 7521   6.210   3.136   5.158
 2505TIP3    H2 7522   6.078   3.156   5.230
 2506TIP3   OH2 7523   1.946   5.317   3.546
 2506TIP3    H1 7524   1.962   5.289   3.636
 2506TIP3    H2 7525   1.950   5.412   3.549
 2507TIP3   OH2 7526   0.754   3.475   3.149
 2507TIP3    H1 7527   0.769   3.404   3.086
 2507TIP3    H2 7528   0.839   3.489   3.189
 2508TIP3   OH2 7529   1.081   1.876   0.347
 2508TIP3    H1 7530   1.050   1.957   0.388
 2508TIP3    H2 7531   1.160   1.853   0.396
 2509TIP3   OH2 7532   2.630   0.327   1.228
 2509TIP3    H1 7533   2.644   0.298   1.138
 2509TIP3    H2 7534   2.603   0.248   1.275
 2510TIP3   OH2 7535   6.147   4.962   1.297
 2510TIP3    H1 7536   6.105   4.893   1.246
 2510TIP3    H2 7537   6.232   4.925   1.321
 2511TIP3   OH2 7538   3.266   1.769   0.551
 2511TIP3    H1 7539   3.212   1.767   0.473
 2511TIP3    H2 7540   3.342   1.715   0.530
 2512TIP3   OH2 7541   2.087   5.129   0.342
 2512TIP3    H1 7542   2.092   5.209   0.395
 2512TIP3    H2 7543   2.007   5.085   0.371
 2513TIP3   OH2 7544   1.893   3.403   0.029
 2513TIP3    H1 7545   1.933   3.323  -0.006
 2513TIP3    H2 7546   1.954   3.432   0.097
 2514TIP3   OH2 7547   6.169   3.525   2.315
 2514TIP3    H1 7548   6.201   3.528   2.225
 2514TIP3    H2 7549   6.074   3.519   2.307
 2515TIP3   OH2 7550   0.568   1.768   1.805
 2515TIP3    H1 7551   0.602   1.843   1.758
 2515TIP3    H2 7552   0.623   1.762   1.883
 2516TIP3   OH2 7553   0.848   0.492   0.391
 2516TIP3    H1 7554   0.899   0.541   0.455
 2516TIP3    H2 7555   0.760   0.529   0.395
 2517TIP3   OH2 7556   3.533   4.224   4.525
 2517TIP3    H1 7557   3.511   4.284   4.454
 2517TIP3    H2 7558   3.482   4.145   4.506
 2518TIP3   OH2 7559   5.854   3.627   0.615
 2518TIP3    H1 7560   5.941   3.643   0.578
 2518TIP3    H2 7561   5.815   3.560   0.558
 2519TIP3   OH2 7562   1.103   1.613   4.616
 2519TIP3    H1 7563   1.022   1.586   4.658
 2519TIP3    H2 7564   1.137   1.533   4.576
 2520TIP3   OH2 7565   2.639   0.409   4.565
 2520TIP3    H1 7566   2.551   0.399   4.601
 2520TIP3    H2 7567   2.687   0.458   4.632
 2521TIP3   OH2 7568   0.283   3.357   0.402
 2521TIP3    H1 7569   0.230   3.377   0.325
 2521TIP3    H2 7570   0.247   3.274   0.434
 2522TIP3   OH2 7571   1.115   0.177   1.955
 2522TIP3    H1 7572   1.108   0.205   1.864
 2522TIP3    H2 7573   1.121   0.082   1.950
 2523TIP3   OH2 7574   6.176   1.008   4.962
 2523TIP3    H1 7575   6.239   1.068   4.921
 2523TIP3    H2 7576   6.183   1.026   5.056
 2524TIP3   OH2 7577   1.601   1.752   5.100
 2524TIP3    H1 7578   1.674   1.784   5.153
 2524TIP3    H2 7579   1.642   1.691   5.038
 2525TIP3   OH2 7580   0.419   0.632   0.906
 2525TIP3    H1 7581   0.398   0.560   0.966
 2525TIP3    H2 7582   0.400   0.711   0.956
 2526TIP3   OH2 7583   0.020   0.105   3.863
 2526TIP3    H1 7584   0.059   0.137   3.944
 2526TIP3    H2 7585  -0.008   0.184   3.817
 2527TIP3   OH2 7586   5.138   5.212   1.331
 2527TIP3    H1 7587   5.184   5.179   1.408
 2527TIP3    H2 7588   5.057   5.249   1.365
 2528TIP3   OH2 7589   1.013   2.886   4.530
 2528TIP3    H1 7590   0.943   2.831   4.496
 2528TIP3    H2 7591   1.063   2.912   4.452
 2529TIP3   OH2 7592   0.007   2.443   3.367
 2529TIP3    H1 7593   0.045   2.501   3.300
 2529TIP3    H2 7594   0.060   2.458   3.445
 2530TIP3   OH2 7595   5.517   1.017   0.691
 2530TIP3    H1 7596   5.595   0.978   0.653
 2530TIP3    H2 7597   5.495   0.962   0.766
 2531TIP3   OH2 7598   4.879   2.480   4.446
 2531TIP3    H1 7599   4.926   2.525   4.376
 2531TIP3    H2 7600   4.947   2.445   4.502
 2532TIP3   OH2 7601   4.773   2.241   2.928
 2532TIP3    H1 7602   4.783   2.335   2.937
 2532TIP3    H2 7603   4.812   2.204   3.007
 2533TIP3   OH2 7604   4.265   5.375   3.367
 2533TIP3    H1 7605   4.340   5.409   3.416
 2533TIP3    H2 7606   4.264   5.426   3.286
 2534TIP3   OH2 7607   5.509   4.305   3.972
 2534TIP3    H1 7608   5.522   4.210   3.976
 2534TIP3    H2 7609   5.571   4.335   3.905
 2535TIP3   OH2 7610   1.407   2.868   4.459
 2535TIP3    H1 7611   1.414   2.850   4.365
 2535TIP3    H2 7612   1.331   2.816   4.487
 2536TIP3   OH2 7613   4.593   3.726   2.285
 2536TIP3    H1 7614   4.540   3.688   2.216
 2536TIP3    H2 7615   4.576   3.820   2.279
 2537TIP3   OH2 7616   6.269   0.141   0.070
 2537TIP3    H1 7617   6.257   0.049   0.090
 2537TIP3    H2 7618   6.322   0.142  -0.010
 2538TIP3   OH2 7619   3.863   0.948   1.152
 2538TIP3    H1 7620   3.853   0.923   1.243
 2538TIP3    H2 7621   3.873   1.043   1.153
 2539TIP3   OH2 7622   4.178   2.631   3.284
 2539TIP3    H1 7623   4.111   2.572   3.251
 2539TIP3    H2 7624   4.256   2.611   3.232
 2540TIP3   OH2 7625   0.481   4.437   3.991
 2540TIP3    H1 7626   0.521   4.350   3.994
 2540TIP3    H2 7627   0.554   4.497   4.008
 2541TIP3   OH2 7628   2.255   3.680   0.243
 2541TIP3    H1 7629   2.279   3.697   0.334
 2541TIP3    H2 7630   2.293   3.753   0.194
 2542TIP3   OH2 7631   3.922   5.874   1.460
 2542TIP3    H1 7632   3.981   5.929   1.408
 2542TIP3    H2 7633   3.851   5.853   1.400
 2543TIP3   OH2 7634   6.184   2.107   1.179
 2543TIP3    H1 7635   6.158   2.022   1.215
 2543TIP3    H2 7636   6.157   2.170   1.246
 2544TIP3   OH2 7637   4.521   0.433   1.526
 2544TIP3    H1 7638   4.508   0.387   1.443
 2544TIP3    H2 7639   4.446   0.407   1.580
 2545TIP3   OH2 7640   5.811   1.824   4.306
 2545TIP3    H1 7641   5.874   1.759   4.335
 2545TIP3    H2 7642   5.842   1.850   4.219
 2546TIP3   OH2 7643   3.344   4.963   4.897
 2546TIP3    H1 7644   3.322   5.051   4.928
 2546TIP3    H2 7645   3.393   4.978   4.816
 2547TIP3   OH2 7646   4.662   5.733   4.167
 2547TIP3    H1 7647   4.612   5.805   4.130
 2547TIP3    H2 7648   4.597   5.677   4.210
 2548TIP3   OH2 7649   3.400   4.555   2.825
 2548TIP3    H1 7650   3.364   4.511   2.903
 2548TIP3    H2 7651   3.488   4.519   2.817
 2549TIP3   OH2 7652   1.755   2.034   3.233
 2549TIP3    H1 7653   1.672   2.010   3.273
 2549TIP3    H2 7654   1.771   1.967   3.167
 2550TIP3   OH2 7655   3.870   5.170   2.724
 2550TIP3    H1 7656   3.822   5.097   2.685
 2550TIP3    H2 7657   3.899   5.137   2.809
 2551TIP3   OH2 7658   5.599   4.282   2.178
 2551TIP3    H1 7659   5.609   4.342   2.252
 2551TIP3    H2 7660   5.642   4.326   2.105
 2552TIP3   OH2 7661   6.290   2.201   3.085
 2552TIP3    H1 7662   6.244   2.281   3.059
 2552TIP3    H2 7663   6.295   2.149   3.005
 2553TIP3   OH2 7664   3.763   1.669   3.115
 2553TIP3    H1 7665   3.668   1.655   3.107
 2553TIP3    H2 7666   3.777   1.679   3.210
 2554TIP3   OH2 7667   1.482   5.836   2.340
 2554TIP3    H1 7668   1.543   5.902   2.308
 2554TIP3    H2 7669   1.402   5.885   2.359
 2555TIP3   OH2 7670   5.799   2.953   0.308
 2555TIP3    H1 7671   5.780   3.046   0.322
 2555TIP3    H2 7672   5.713   2.911   0.302
 2556TIP3   OH2 7673   0.239   0.049   1.081
 2556TIP3    H1 7674   0.194   0.055   0.997
 2556TIP3    H2 7675   0.331   0.038   1.057
 2557TIP3   OH2 7676   3.038   1.537   4.371
 2557TIP3    H1 7677   2.953   1.516   4.412
 2557TIP3    H2 7678   3.090   1.457   4.383
 2558TIP3   OH2 7679   5.253   1.920   1.935
 2558TIP3    H1 7680   5.234   1.834   1.898
 2558TIP3    H2 7681   5.301   1.901   2.015
 2559TIP3   OH2 7682   4.609   5.430   4.623
 2559TIP3    H1 7683   4.640   5.521   4.625
 2559TIP3    H2 7684   4.631   5.400   4.535
 2560TIP3   OH2 7685   5.272   1.236   0.482
 2560TIP3    H1 7686   5.180   1.245   0.457
 2560TIP3    H2 7687   5.318   1.304   0.431
 2561TIP3   OH2 7688   0.078   5.064   2.346
 2561TIP3    H1 7689   0.071   4.968   2.343
 2561TIP3    H2 7690   0.010   5.091   2.408
 2562TIP3   OH2 7691   2.071   2.906   3.669
 2562TIP3    H1 7692   2.065   2.876   3.579
 2562TIP3    H2 7693   1.982   2.902   3.703
 2563TIP3   OH2 7694   5.080   2.197   0.219
 2563TIP3    H1 7695   5.116   2.238   0.141
 2563TIP3    H2 7696   5.090   2.103   0.204
 2564TIP3   OH2 7697   0.818   1.543   1.622
 2564TIP3    H1 7698   0.825   1.586   1.537
 2564TIP3    H2 7699   0.798   1.614   1.683
 2565TIP3   OH2 7700   0.488   2.286   0.853
 2565TIP3    H1 7701   0.451   2.354   0.797
 2565TIP3    H2 7702   0.575   2.318   0.876
 2566TIP3   OH2 7703   1.480   4.547   5.182
 2566TIP3    H1 7704   1.481   4.519   5.090
 2566TIP3    H2 7705   1.572   4.560   5.204
 2567TIP3   OH2 7706   3.996   1.536   3.094
 2567TIP3    H1 7707   3.905   1.556   3.075
 2567TIP3    H2 7708   3.993   1.454   3.143
 2568TIP3   OH2 7709   3.406   1.293   2.693
 2568TIP3    H1 7710   3.458   1.364   2.655
 2568TIP3    H2 7711   3.324   1.334   2.720
 2569TIP3   OH2 7712   5.132   5.303   2.225
 2569TIP3    H1 7713   5.164   5.340   2.308
 2569TIP3    H2 7714   5.089   5.221   2.251
 2570TIP3   OH2 7715   4.379   4.746   4.834
 2570TIP3    H1 7716   4.325   4.810   4.787
 2570TIP3    H2 7717   4.373   4.772   4.926
 2571TIP3   OH2 7718   5.094   3.764   3.119
 2571TIP3    H1 7719   5.182   3.734   3.141
 2571TIP3    H2 7720   5.051   3.687   3.082
 2572TIP3   OH2 7721   0.092   1.545   0.470
 2572TIP3    H1 7722   0.178   1.565   0.506
 2572TIP3    H2 7723   0.107   1.528   0.377
 2573TIP3   OH2 7724   0.418   2.413   4.400
 2573TIP3    H1 7725   0.463   2.347   4.348
 2573TIP3    H2 7726   0.367   2.463   4.336
 2574TIP3   OH2 7727   1.284   3.902   2.078
 2574TIP3    H1 7728   1.242   3.981   2.110
 2574TIP3    H2 7729   1.218   3.860   2.023
 2575TIP3   OH2 7730   5.221   0.738   1.510
 2575TIP3    H1 7731   5.165   0.683   1.565
 2575TIP3    H2 7732   5.303   0.745   1.559
 2576TIP3   OH2 7733   0.382   5.474   3.438
 2576TIP3    H1 7734   0.466   5.519   3.428
 2576TIP3    H2 7735   0.397   5.386   3.405
 2577TIP3   OH2 7736   2.864   3.346   1.733
 2577TIP3    H1 7737   2.795   3.408   1.756
 2577TIP3    H2 7738   2.930   3.400   1.689
 2578TIP3   OH2 7739   5.387   4.320   0.045
 2578TIP3    H1 7740   5.334   4.242   0.055
 2578TIP3    H2 7741   5.471   4.297   0.085
 2579TIP3   OH2 7742   2.991   0.556   2.465
 2579TIP3    H1 7743   2.936   0.490   2.423
 2579TIP3    H2 7744   3.007   0.621   2.397
 2580TIP3   OH2 7745   6.119   3.449   4.932
 2580TIP3    H1 7746   6.175   3.460   4.856
 2580TIP3    H2 7747   6.030   3.442   4.896
 2581TIP3   OH2 7748   3.066   0.419   2.032
 2581TIP3    H1 7749   3.020   0.497   2.062
 2581TIP3    H2 7750   3.157   0.447   2.023
 2582TIP3   OH2 7751   5.612   5.559   0.182
 2582TIP3    H1 7752   5.604   5.466   0.161
 2582TIP3    H2 7753   5.525   5.595   0.165
 2583TIP3   OH2 7754   0.999   4.215   4.340
 2583TIP3    H1 7755   0.931   4.154   4.311
 2583TIP3    H2 7756   0.975   4.298   4.300
 2584TIP3   OH2 7757   4.713   1.599   0.511
 2584TIP3    H1 7758   4.683   1.527   0.456
 2584TIP3    H2 7759   4.716   1.562   0.599
 2585TIP3   OH2 7760   1.898   2.665   4.307
 2585TIP3    H1 7761   1.866   2.580   4.337
 2585TIP3    H2 7762   1.821   2.722   4.307
 2586TIP3   OH2 7763   0.360   3.403   1.570
 2586TIP3    H1 7764   0.391   3.364   1.652
 2586TIP3    H2 7765   0.327   3.488   1.596
 2587TIP3   OH2 7766   4.935   0.591   2.079
 2587TIP3    H1 7767   4.926   0.680   2.114
 2587TIP3    H2 7768   5.025   0.565   2.100
 2588TIP3   OH2 7769   2.582   2.710   4.233
 2588TIP3    H1 7770   2.486   2.716   4.232
 2588TIP3    H2 7771   2.601   2.637   4.292
 2589TIP3   OH2 7772   6.180   1.116   3.573
 2589TIP3    H1 7773   6.104   1.060   3.577
 2589TIP3    H2 7774   6.243   1.076   3.633
 2590TIP3   OH2 7775   5.190   1.130   3.269
 2590TIP3    H1 7776   5.275   1.169   3.290
 2590TIP3    H2 7777   5.189   1.126   3.173
 2591TIP3   OH2 7778   2.310   1.561   1.877
 2591TIP3    H1 7779   2.255   1.495   1.834
 2591TIP3    H2 7780   2.264   1.583   1.958
 2592TIP3   OH2 7781   0.428   0.014   2.948
 2592TIP3    H1 7782   0.522   0.032   2.936
 2592TIP3    H2 7783   0.385   0.080   2.893
 2593TIP3   OH2 7784   5.547   2.555   3.686
 2593TIP3    H1 7785   5.624   2.602   3.718
 2593TIP3    H2 7786   5.579   2.504   3.613
 2594TIP3   OH2 7787   1.325   4.151   5.053
 2594TIP3    H1 7788   1.383   4.199   4.994
 2594TIP3    H2 7789   1.343   4.059   5.035
 2595TIP3   OH2 7790   0.606   0.592   0.078
 2595TIP3    H1 7791   0.637   0.617  -0.009
 2595TIP3    H2 7792   0.590   0.498   0.072
 2596TIP3   OH2 7793   0.140   2.902   3.611
 2596TIP3    H1 7794   0.085   2.974   3.643
 2596TIP3    H2 7795   0.103   2.824   3.652
 2597TIP3   OH2 7796   0.620   3.160   0.163
 2597TIP3    H1 7797   0.604   3.243   0.208
 2597TIP3    H2 7798   0.541   3.108   0.179
 2598TIP3   OH2 7799   1.504   0.033   1.552
 2598TIP3    H1 7800   1.589   0.077   1.547
 2598TIP3    H2 7801   1.506  -0.012   1.637
 2599TIP3   OH2 7802   3.240   4.652   0.325
 2599TIP3    H1 7803   3.206   4.563   0.310
 2599TIP3    H2 7804   3.333   4.638   0.345
 2600TIP3   OH2 7805   1.697   1.299   3.660
 2600TIP3    H1 7806   1.733   1.221   3.702
 2600TIP3    H2 7807   1.606   1.302   3.690
 2601TIP3   OH2 7808   4.734   5.989   2.292
 2601TIP3    H1 7809   4.740   5.900   2.256
 2601TIP3    H2 7810   4.802   6.038   2.246
 2602TIP3   OH2 7811   1.157   2.917   4.770
 2602TIP3    H1 7812   1.100   2.912   4.693
 2602TIP3    H2 7813   1.104   2.881   4.841
 2603TIP3   OH2 7814   1.213   2.158   0.846
 2603TIP3    H1 7815   1.230   2.149   0.752
 2603TIP3    H2 7816   1.300   2.174   0.885
 2604TIP3   OH2 7817   2.361   2.272   3.415
 2604TIP3    H1 7818   2.425   2.205   3.389
 2604TIP3    H2 7819   2.323   2.239   3.496
 2605TIP3   OH2 7820   0.868   5.154   2.767
 2605TIP3    H1 7821   0.780   5.117   2.764
 2605TIP3    H2 7822   0.913   5.103   2.834
 2606TIP3   OH2 7823   1.862   4.504   2.858
 2606TIP3    H1 7824   1.832   4.536   2.773
 2606TIP3    H2 7825   1.931   4.441   2.837
 2607TIP3   OH2 7826   3.094   3.654   3.007
 2607TIP3    H1 7827   3.066   3.742   3.031
 2607TIP3    H2 7828   3.029   3.624   2.943
 2608TIP3   OH2 7829   4.635   4.835   3.615
 2608TIP3    H1 7830   4.594   4.863   3.697
 2608TIP3    H2 7831   4.721   4.877   3.615
 2609TIP3   OH2 7832   4.812   3.834   1.868
 2609TIP3    H1 7833   4.868   3.828   1.790
 2609TIP3    H2 7834   4.864   3.793   1.938
 2610TIP3   OH2 7835   2.264   0.645   1.881
 2610TIP3    H1 7836   2.273   0.583   1.953
 2610TIP3    H2 7837   2.189   0.612   1.830
 2611TIP3   OH2 7838   0.894   2.018   3.882
 2611TIP3    H1 7839   0.841   1.949   3.843
 2611TIP3    H2 7840   0.875   2.096   3.830
 2612TIP3   OH2 7841   2.689   0.852   2.524
 2612TIP3    H1 7842   2.600   0.817   2.523
 2612TIP3    H2 7843   2.680   0.938   2.565
 2613TIP3   OH2 7844   2.296   2.916   4.289
 2613TIP3    H1 7845   2.292   2.828   4.250
 2613TIP3    H2 7846   2.376   2.915   4.341
 2614TIP3   OH2 7847   4.411   2.438   1.502
 2614TIP3    H1 7848   4.367   2.362   1.540
 2614TIP3    H2 7849   4.470   2.401   1.436
 2615TIP3   OH2 7850   3.139   1.944   3.187
 2615TIP3    H1 7851   3.066   1.930   3.247
 2615TIP3    H2 7852   3.181   2.024   3.219
 2616TIP3   OH2 7853   1.777   1.293   1.067
 2616TIP3    H1 7854   1.734   1.225   1.118
 2616TIP3    H2 7855   1.867   1.262   1.058
 2617TIP3   OH2 7856   4.332   1.959   0.989
 2617TIP3    H1 7857   4.371   1.900   0.925
 2617TIP3    H2 7858   4.239   1.958   0.969
 2618TIP3   OH2 7859   4.459   4.616   3.520
 2618TIP3    H1 7860   4.387   4.663   3.477
 2618TIP3    H2 7861   4.518   4.685   3.551
 2619TIP3   OH2 7862   1.088   5.803   1.910
 2619TIP3    H1 7863   1.082   5.709   1.892
 2619TIP3    H2 7864   1.154   5.811   1.979
 2620TIP3   OH2 7865   4.070   3.574   5.105
 2620TIP3    H1 7866   4.026   3.649   5.145
 2620TIP3    H2 7867   4.016   3.499   5.129
 2621TIP3   OH2 7868   2.405   0.749   4.542
 2621TIP3    H1 7869   2.472   0.817   4.540
 2621TIP3    H2 7870   2.408   0.710   4.455
 2622TIP3   OH2 7871   0.788   2.303   2.810
 2622TIP3    H1 7872   0.703   2.260   2.821
 2622TIP3    H2 7873   0.792   2.366   2.883
 2623TIP3   OH2 7874   4.771   1.370   3.518
 2623TIP3    H1 7875   4.697   1.412   3.562
 2623TIP3    H2 7876   4.741   1.356   3.429
 2624TIP3   OH2 7877   5.850   3.811   4.804
 2624TIP3    H1 7878   5.778   3.865   4.839
 2624TIP3    H2 7879   5.823   3.721   4.821
 2625TIP3   OH2 7880   0.050   3.974   3.364
 2625TIP3    H1 7881   0.100   4.055   3.365
 2625TIP3    H2 7882  -0.031   3.996   3.319
 2626TIP3   OH2 7883   1.115   0.174   2.359
 2626TIP3    H1 7884   1.205   0.142   2.358
 2626TIP3    H2 7885   1.062   0.095   2.362
 2627TIP3   OH2 7886   0.631  -0.007   1.651
 2627TIP3    H1 7887   0.633   0.060   1.582
 2627TIP3    H2 7888   0.723  -0.027   1.668
 2628TIP3   OH2 7889   2.340   1.925   3.159
 2628TIP3    H1 7890   2.380   2.007   3.186
 2628TIP3    H2 7891   2.269   1.910   3.221
 2629TIP3   OH2 7892   4.033   2.850   2.071
 2629TIP3    H1 7893   3.957   2.829   2.017
 2629TIP3    H2 7894   4.059   2.766   2.109
 2630TIP3   OH2 7895   0.179   1.200   1.650
 2630TIP3    H1 7896   0.121   1.276   1.645
 2630TIP3    H2 7897   0.227   1.200   1.567
 2631TIP3   OH2 7898   4.506   3.088   3.818
 2631TIP3    H1 7899   4.503   3.002   3.776
 2631TIP3    H2 7900   4.428   3.090   3.874
 2632TIP3   OH2 7901   0.896   0.742   4.653
 2632TIP3    H1 7902   0.866   0.663   4.698
 2632TIP3    H2 7903   0.948   0.789   4.718
 2633TIP3   OH2 7904   1.436   5.586   1.040
 2633TIP3    H1 7905   1.445   5.540   0.956
 2633TIP3    H2 7906   1.384   5.526   1.094
 2634TIP3   OH2 7907   5.244   1.961   2.375
 2634TIP3    H1 7908   5.321   1.964   2.432
 2634TIP3    H2 7909   5.207   1.874   2.388
 2635TIP3   OH2 7910   5.259   5.818   3.974
 2635TIP3    H1 7911   5.217   5.745   3.928
 2635TIP3    H2 7912   5.250   5.892   3.915
 2636TIP3   OH2 7913   0.115   4.550   1.188
 2636TIP3    H1 7914   0.142   4.511   1.271
 2636TIP3    H2 7915   0.149   4.491   1.121
 2637TIP3   OH2 7916   4.978   5.412   3.954
 2637TIP3    H1 7917   4.987   5.355   3.877
 2637TIP3    H2 7918   5.047   5.383   4.013
 2638TIP3   OH2 7919   5.571   0.937   1.281
 2638TIP3    H1 7920   5.516   0.948   1.359
 2638TIP3    H2 7921   5.617   0.854   1.295
 2639TIP3   OH2 7922   3.866   5.299   3.823
 2639TIP3    H1 7923   3.931   5.255   3.768
 2639TIP3    H2 7924   3.792   5.238   3.825
 2640TIP3   OH2 7925   1.088   0.489   0.190
 2640TIP3    H1 7926   1.140   0.413   0.214
 2640TIP3    H2 7927   1.008   0.481   0.242
 2641TIP3   OH2 7928   1.425   3.680   4.174
 2641TIP3    H1 7929   1.394   3.601   4.219
 2641TIP3    H2 7930   1.347   3.717   4.134
 2642TIP3   OH2 7931   4.531   5.021   0.240
 2642TIP3    H1 7932   4.464   4.990   0.180
 2642TIP3    H2 7933   4.588   4.945   0.254
 2643TIP3   OH2 7934   4.996   0.586   3.224
 2643TIP3    H1 7935   5.031   0.544   3.302
 2643TIP3    H2 7936   5.043   0.670   3.219
 2644TIP3   OH2 7937   3.907   0.965   3.015
 2644TIP3    H1 7938   3.983   0.915   3.046
 2644TIP3    H2 7939   3.895   1.034   3.079
 2645TIP3   OH2 7940   6.305   1.750   3.088
 2645TIP3    H1 7941   6.261   1.673   3.124
 2645TIP3    H2 7942   6.234   1.804   3.052
 2646TIP3   OH2 7943   1.486   3.309   3.632
 2646TIP3    H1 7944   1.533   3.307   3.548
 2646TIP3    H2 7945   1.522   3.385   3.678
 2647TIP3   OH2 7946   4.570   4.464   1.034
 2647TIP3    H1 7947   4.497   4.404   1.046
 2647TIP3    H2 7948   4.565   4.523   1.110
 2648TIP3   OH2 7949   5.863   2.624   2.009
 2648TIP3    H1 7950   5.954   2.616   2.037
 2648TIP3    H2 7951   5.814   2.639   2.090
 2649TIP3   OH2 7952   4.833   3.718   4.144
 2649TIP3    H1 7953   4.803   3.659   4.213
 2649TIP3    H2 7954   4.790   3.685   4.064
 2650TIP3   OH2 7955   2.717   0.512   1.444
 2650TIP3    H1 7956   2.714   0.602   1.409
 2650TIP3    H2 7957   2.706   0.456   1.367
 2651TIP3   OH2 7958   5.274   5.721   3.348
 2651TIP3    H1 7959   5.318   5.799   3.382
 2651TIP3    H2 7960   5.311   5.649   3.399
 2652TIP3   OH2 7961   2.762   0.464   0.297
 2652TIP3    H1 7962   2.735   0.450   0.206
 2652TIP3    H2 7963   2.837   0.406   0.309
 2653TIP3   OH2 7964   6.030   1.880   1.882
 2653TIP3    H1 7965   6.123   1.857   1.891
 2653TIP3    H2 7966   5.998   1.823   1.812
 2654TIP3   OH2 7967   4.846   4.077   3.218
 2654TIP3    H1 7968   4.804   4.162   3.236
 2654TIP3    H2 7969   4.887   4.089   3.133
 2655TIP3   OH2 7970   4.888   3.919   0.403
 2655TIP3    H1 7971   4.910   3.833   0.368
 2655TIP3    H2 7972   4.952   3.934   0.472
 2656TIP3   OH2 7973   5.442   5.526   4.033
 2656TIP3    H1 7974   5.528   5.550   3.997
 2656TIP3    H2 7975   5.412   5.454   3.978
 2657TIP3   OH2 7976   0.175   0.725   4.964
 2657TIP3    H1 7977   0.216   0.811   4.959
 2657TIP3    H2 7978   0.247   0.665   4.981
 2658TIP3   OH2 7979   4.438   4.440   4.581
 2658TIP3    H1 7980   4.520   4.394   4.599
 2658TIP3    H2 7981   4.441   4.459   4.487
 2659TIP3   OH2 7982   5.873   4.640   3.800
 2659TIP3    H1 7983   5.860   4.725   3.843
 2659TIP3    H2 7984   5.785   4.614   3.773
 2660TIP3   OH2 7985   2.252   3.986   3.794
 2660TIP3    H1 7986   2.256   4.080   3.812
 2660TIP3    H2 7987   2.182   3.977   3.729
 2661TIP3   OH2 7988   0.923   5.179   0.900
 2661TIP3    H1 7989   0.997   5.131   0.863
 2661TIP3    H2 7990   0.892   5.234   0.828
 2662TIP3   OH2 7991   3.110   3.541   4.048
 2662TIP3    H1 7992   3.016   3.557   4.045
 2662TIP3    H2 7993   3.118   3.447   4.064
 2663TIP3   OH2 7994   6.040   3.744   4.993
 2663TIP3    H1 7995   5.973   3.765   4.928
 2663TIP3    H2 7996   6.046   3.648   4.991
 2664TIP3   OH2 7997   2.617   4.090   4.864
 2664TIP3    H1 7998   2.692   4.125   4.911
 2664TIP3    H2 7999   2.607   4.000   4.896
 2665TIP3   OH2 8000   2.841   2.831   0.363
 2665TIP3    H1 8001   2.911   2.804   0.303
 2665TIP3    H2 8002   2.802   2.750   0.394
 2666TIP3   OH2 8003   0.538   0.087   0.545
 2666TIP3    H1 8004   0.630   0.061   0.550
 2666TIP3    H2 8005   0.493   0.011   0.508
 2667TIP3   OH2 8006   4.489   5.776   3.373
 2667TIP3    H1 8007   4.411   5.826   3.349
 2667TIP3    H2 8008   4.518   5.815   3.456
 2668TIP3   OH2 8009   3.744   4.166   5.039
 2668TIP3    H1 8010   3.674   4.199   5.095
 2668TIP3    H2 8011   3.716   4.186   4.950
 2669TIP3   OH2 8012   1.067   5.984   4.465
 2669TIP3    H1 8013   1.153   6.025   4.473
 2669TIP3    H2 8014   1.085   5.893   4.442
 2670TIP3   OH2 8015   2.779   3.271   3.631
 2670TIP3    H1 8016   2.761   3.314   3.547
 2670TIP3    H2 8017   2.850   3.209   3.611
 2671TIP3   OH2 8018   2.116   1.298   3.073
 2671TIP3    H1 8019   2.061   1.273   3.000
 2671TIP3    H2 8020   2.063   1.358   3.124
 2672TIP3   OH2 8021   0.661   0.864   4.603
 2672TIP3    H1 8022   0.742   0.815   4.588
 2672TIP3    H2 8023   0.593   0.810   4.563
 2673TIP3   OH2 8024   5.021   4.932   1.293
 2673TIP3    H1 8025   5.048   4.875   1.220
 2673TIP3    H2 8026   5.012   5.018   1.254
 2674TIP3   OH2 8027   2.337   2.716   4.872
 2674TIP3    H1 8028   2.310   2.727   4.963
 2674TIP3    H2 8029   2.426   2.681   4.878
 2675TIP3   OH2 8030   5.191   1.762   1.607
 2675TIP3    H1 8031   5.219   1.677   1.573
 2675TIP3    H2 8032   5.184   1.749   1.702
 2676TIP3   OH2 8033   2.466   3.158   4.207
 2676TIP3    H1 8034   2.447   3.202   4.289
 2676TIP3    H2 8035   2.381   3.146   4.165
 2677TIP3   OH2 8036   1.345   2.898   1.689
 2677TIP3    H1 8037   1.436   2.868   1.683
 2677TIP3    H2 8038   1.323   2.925   1.600
 2678TIP3   OH2 8039   3.961   0.649   2.759
 2678TIP3    H1 8040   3.970   0.554   2.758
 2678TIP3    H2 8041   3.887   0.665   2.817
 2679TIP3   OH2 8042   1.872   3.685   4.885
 2679TIP3    H1 8043   1.871   3.746   4.810
 2679TIP3    H2 8044   1.919   3.608   4.852
 2680TIP3   OH2 8045   1.235   3.040   1.019
 2680TIP3    H1 8046   1.194   3.074   1.098
 2680TIP3    H2 8047   1.218   3.106   0.952
 2681TIP3   OH2 8048   2.162   3.916   4.672
 2681TIP3    H1 8049   2.228   3.940   4.607
 2681TIP3    H2 8050   2.152   3.822   4.663
 2682TIP3   OH2 8051   3.145   5.635   4.675
 2682TIP3    H1 8052   3.129   5.624   4.581
 2682TIP3    H2 8053   3.063   5.672   4.709
 2683TIP3   OH2 8054   5.267   3.464   4.663
 2683TIP3    H1 8055   5.322   3.509   4.600
 2683TIP3    H2 8056   5.179   3.466   4.624
 2684TIP3   OH2 8057   2.790   1.684   3.689
 2684TIP3    H1 8058   2.699   1.690   3.662
 2684TIP3    H2 8059   2.798   1.598   3.730
 2685TIP3   OH2 8060   2.304   4.264   1.119
 2685TIP3    H1 8061   2.227   4.237   1.069
 2685TIP3    H2 8062   2.304   4.359   1.113
 2686TIP3   OH2 8063   4.260   2.385   1.173
 2686TIP3    H1 8064   4.216   2.317   1.224
 2686TIP3    H2 8065   4.328   2.339   1.125
 2687TIP3   OH2 8066   2.874   0.538   1.123
 2687TIP3    H1 8067   2.845   0.608   1.181
 2687TIP3    H2 8068   2.838   0.561   1.037
 2688TIP3   OH2 8069   2.891   2.023   0.214
 2688TIP3    H1 8070   2.837   2.097   0.242
 2688TIP3    H2 8071   2.834   1.947   0.224
 2689TIP3   OH2 8072   4.196   0.279   3.709
 2689TIP3    H1 8073   4.164   0.189   3.711
 2689TIP3    H2 8074   4.181   0.312   3.797
 2690TIP3   OH2 8075   5.138   5.627   1.699
 2690TIP3    H1 8076   5.150   5.720   1.682
 2690TIP3    H2 8077   5.178   5.613   1.785
 2691TIP3   OH2 8078   1.329   4.735   4.525
 2691TIP3    H1 8079   1.323   4.803   4.457
 2691TIP3    H2 8080   1.348   4.783   4.605
 2692TIP3   OH2 8081   0.822   1.557   4.740
 2692TIP3    H1 8082   0.839   1.465   4.759
 2692TIP3    H2 8083   0.844   1.603   4.821
 2693TIP3   OH2 8084   1.702   0.126   0.786
 2693TIP3    H1 8085   1.785   0.083   0.768
 2693TIP3    H2 8086   1.718   0.180   0.863
 2694TIP3   OH2 8087   3.508   1.437   0.672
 2694TIP3    H1 8088   3.453   1.476   0.741
 2694TIP3    H2 8089   3.518   1.506   0.607
 2695TIP3   OH2 8090   4.281   3.041   3.975
 2695TIP3    H1 8091   4.192   3.062   4.002
 2695TIP3    H2 8092   4.321   3.001   4.052
 2696TIP3   OH2 8093   4.215   0.746   2.823
 2696TIP3    H1 8094   4.125   0.720   2.804
 2696TIP3    H2 8095   4.207   0.818   2.885
 2697TIP3   OH2 8096   0.114   4.253   3.500
 2697TIP3    H1 8097   0.119   4.331   3.555
 2697TIP3    H2 8098   0.026   4.255   3.463
 2698TIP3   OH2 8099   3.868   0.078   1.524
 2698TIP3    H1 8100   3.803   0.121   1.579
 2698TIP3    H2 8101   3.865   0.127   1.441
 2699TIP3   OH2 8102   1.071   4.648   4.581
 2699TIP3    H1 8103   1.021   4.730   4.584
 2699TIP3    H2 8104   1.155   4.672   4.541
 2700TIP3   OH2 8105   2.428   3.929   4.094
 2700TIP3    H1 8106   2.335   3.916   4.114
 2700TIP3    H2 8107   2.446   4.019   4.123
 2701TIP3   OH2 8108   6.006   2.674   4.336
 2701TIP3    H1 8109   6.056   2.754   4.322
 2701TIP3    H2 8110   6.063   2.604   4.305
 2702TIP3   OH2 8111   5.219   4.052   3.203
 2702TIP3    H1 8112   5.180   3.991   3.265
 2702TIP3    H2 8113   5.237   4.000   3.125
 2703TIP3   OH2 8114   0.353   1.003   3.647
 2703TIP3    H1 8115   0.361   1.098   3.660
 2703TIP3    H2 8116   0.320   0.970   3.730
 2704TIP3   OH2 8117   3.627   2.861   4.883
 2704TIP3    H1 8118   3.657   2.950   4.898
 2704TIP3    H2 8119   3.598   2.830   4.969
 2705TIP3   OH2 8120   1.537   3.051   2.408
 2705TIP3    H1 8121   1.563   3.079   2.496
 2705TIP3    H2 8122   1.596   2.978   2.387
 2706TIP3   OH2 8123   5.073   3.554   4.286
 2706TIP3    H1 8124   5.139   3.579   4.351
 2706TIP3    H2 8125   5.007   3.623   4.290
 2707TIP3   OH2 8126   5.432   0.468   4.360
 2707TIP3    H1 8127   5.469   0.476   4.272
 2707TIP3    H2 8128   5.448   0.553   4.401
 2708TIP3   OH2 8129   5.602   3.385   4.314
 2708TIP3    H1 8130   5.585   3.430   4.231
 2708TIP3    H2 8131   5.621   3.295   4.290
 2709TIP3   OH2 8132   3.216   5.572   0.207
 2709TIP3    H1 8133   3.131   5.615   0.201
 2709TIP3    H2 8134   3.265   5.604   0.131
 2710TIP3   OH2 8135   5.564   4.500   3.334
 2710TIP3    H1 8136   5.656   4.481   3.354
 2710TIP3    H2 8137   5.530   4.418   3.299
 2711TIP3   OH2 8138   3.579   5.144   2.525
 2711TIP3    H1 8139   3.593   5.230   2.487
 2711TIP3    H2 8140   3.636   5.086   2.475
 2712TIP3   OH2 8141   3.338   2.152   4.093
 2712TIP3    H1 8142   3.371   2.222   4.036
 2712TIP3    H2 8143   3.397   2.154   4.169
 2713TIP3   OH2 8144   0.127   4.745   4.616
 2713TIP3    H1 8145   0.138   4.743   4.711
 2713TIP3    H2 8146   0.213   4.770   4.582
 2714TIP3   OH2 8147   2.961   3.869   3.432
 2714TIP3    H1 8148   2.912   3.789   3.412
 2714TIP3    H2 8149   3.044   3.837   3.467
 2715TIP3   OH2 8150   6.299   4.937   2.949
 2715TIP3    H1 8151   6.339   5.001   3.009
 2715TIP3    H2 8152   6.220   4.982   2.917
 2716TIP3   OH2 8153   3.893   0.892   3.793
 2716TIP3    H1 8154   3.905   0.798   3.804
 2716TIP3    H2 8155   3.981   0.927   3.785
 2717TIP3   OH2 8156   2.584   2.596   4.898
 2717TIP3    H1 8157   2.641   2.650   4.844
 2717TIP3    H2 8158   2.611   2.506   4.880
 2718TIP3   OH2 8159   0.913   2.637   2.319
 2718TIP3    H1 8160   0.874   2.628   2.232
 2718TIP3    H2 8161   1.008   2.636   2.302
 2719TIP3   OH2 8162   0.960   4.878   2.611
 2719TIP3    H1 8163   0.995   4.792   2.587
 2719TIP3    H2 8164   0.911   4.906   2.533
 2720TIP3   OH2 8165   4.395   4.934   2.908
 2720TIP3    H1 8166   4.303   4.945   2.883
 2720TIP3    H2 8167   4.436   5.017   2.884
 2721TIP3   OH2 8168   3.317   3.499   3.839
 2721TIP3    H1 8169   3.390   3.499   3.900
 2721TIP3    H2 8170   3.240   3.511   3.893
 2722TIP3   OH2 8171   1.610   0.315   2.535
 2722TIP3    H1 8172   1.679   0.314   2.469
 2722TIP3    H2 8173   1.559   0.393   2.515
 2723TIP3   OH2 8174   4.336   1.685   0.221
 2723TIP3    H1 8175   4.369   1.609   0.173
 2723TIP3    H2 8176   4.242   1.667   0.232
 2724TIP3   OH2 8177   2.624   2.591   1.525
 2724TIP3    H1 8178   2.616   2.685   1.509
 2724TIP3    H2 8179   2.681   2.583   1.601
 2725TIP3   OH2 8180   5.698   4.385   3.804
 2725TIP3    H1 8181   5.688   4.347   3.716
 2725TIP3    H2 8182   5.771   4.337   3.843
 2726TIP3   OH2 8183   0.975   0.230   0.067
 2726TIP3    H1 8184   1.052   0.238   0.123
 2726TIP3    H2 8185   1.008   0.191  -0.014
 2727TIP3   OH2 8186   4.846   5.375   0.060
 2727TIP3    H1 8187   4.869   5.459   0.020
 2727TIP3    H2 8188   4.911   5.362   0.129
 2728TIP3   OH2 8189   0.123   3.762   0.192
 2728TIP3    H1 8190   0.155   3.739   0.279
 2728TIP3    H2 8191   0.125   3.680   0.143
 2729TIP3   OH2 8192   1.210   5.762   4.979
 2729TIP3    H1 8193   1.268   5.838   4.976
 2729TIP3    H2 8194   1.191   5.744   4.887
 2730TIP3   OH2 8195   0.397   4.716   4.561
 2730TIP3    H1 8196   0.371   4.639   4.611
 2730TIP3    H2 8197   0.470   4.686   4.507
 2731TIP3   OH2 8198   1.568   3.217   5.104
 2731TIP3    H1 8199   1.483   3.213   5.148
 2731TIP3    H2 8200   1.546   3.210   5.011
 2732TIP3   OH2 8201   2.279   5.701   2.073
 2732TIP3    H1 8202   2.226   5.647   2.131
 2732TIP3    H2 8203   2.276   5.656   1.989
 2733TIP3   OH2 8204   0.524   4.210   1.311
 2733TIP3    H1 8205   0.524   4.174   1.222
 2733TIP3    H2 8206   0.609   4.187   1.346
 2734TIP3   OH2 8207   1.830   3.635   3.694
 2734TIP3    H1 8208   1.888   3.693   3.645
 2734TIP3    H2 8209   1.753   3.689   3.714
 2735TIP3   OH2 8210   3.755   3.943   0.188
 2735TIP3    H1 8211   3.842   3.960   0.151
 2735TIP3    H2 8212   3.739   3.850   0.171
 2736TIP3   OH2 8213   2.936   2.863   0.638
 2736TIP3    H1 8214   2.877   2.790   0.657
 2736TIP3    H2 8215   2.894   2.909   0.565
 2737TIP3   OH2 8216   0.455   3.045   4.607
 2737TIP3    H1 8217   0.411   3.029   4.690
 2737TIP3    H2 8218   0.471   3.139   4.606
 2738TIP3   OH2 8219   0.663   5.302   5.117
 2738TIP3    H1 8220   0.714   5.228   5.084
 2738TIP3    H2 8221   0.718   5.378   5.102
 2739TIP3   OH2 8222   4.700   4.483   1.401
 2739TIP3    H1 8223   4.667   4.451   1.485
 2739TIP3    H2 8224   4.700   4.406   1.345
 2740TIP3   OH2 8225   1.042   4.683   0.433
 2740TIP3    H1 8226   1.039   4.700   0.339
 2740TIP3    H2 8227   1.046   4.769   0.473
 2741TIP3   OH2 8228   4.569   5.796   0.757
 2741TIP3    H1 8229   4.528   5.874   0.794
 2741TIP3    H2 8230   4.536   5.793   0.667
 2742TIP3   OH2 8231   3.991   3.796   3.635
 2742TIP3    H1 8232   4.016   3.706   3.658
 2742TIP3    H2 8233   4.057   3.824   3.572
 2743TIP3   OH2 8234   3.822   1.952   4.701
 2743TIP3    H1 8235   3.873   2.023   4.661
 2743TIP3    H2 8236   3.763   1.996   4.762
 2744TIP3   OH2 8237   1.842   4.364   0.010
 2744TIP3    H1 8238   1.767   4.335  -0.043
 2744TIP3    H2 8239   1.879   4.283   0.045
 2745TIP3   OH2 8240   1.860   0.991   1.658
 2745TIP3    H1 8241   1.885   1.003   1.567
 2745TIP3    H2 8242   1.786   1.050   1.672
 2746TIP3   OH2 8243   5.067   5.278   4.371
 2746TIP3    H1 8244   5.051   5.205   4.431
 2746TIP3    H2 8245   4.989   5.280   4.315
 2747TIP3   OH2 8246   0.305   0.487   3.984
 2747TIP3    H1 8247   0.381   0.479   4.041
 2747TIP3    H2 8248   0.324   0.429   3.910
 2748TIP3   OH2 8249   5.301   1.589   3.522
 2748TIP3    H1 8250   5.214   1.551   3.523
 2748TIP3    H2 8251   5.286   1.684   3.520
 2749TIP3   OH2 8252   3.653   1.589   2.343
 2749TIP3    H1 8253   3.599   1.512   2.326
 2749TIP3    H2 8254   3.664   1.631   2.258
 2750TIP3   OH2 8255   3.812   1.371   0.659
 2750TIP3    H1 8256   3.811   1.282   0.624
 2750TIP3    H2 8257   3.721   1.389   0.681
 2751TIP3   OH2 8258   6.009   0.177   1.817
 2751TIP3    H1 8259   5.950   0.170   1.893
 2751TIP3    H2 8260   5.965   0.239   1.759
 2752TIP3   OH2 8261   1.845   0.104   3.028
 2752TIP3    H1 8262   1.883   0.179   3.074
 2752TIP3    H2 8263   1.759   0.135   2.999
 2753TIP3   OH2 8264   0.178   1.021   0.591
 2753TIP3    H1 8265   0.228   0.944   0.563
 2753TIP3    H2 8266   0.145   0.998   0.678
 2754TIP3   OH2 8267   2.928   5.691   0.158
 2754TIP3    H1 8268   2.908   5.602   0.128
 2754TIP3    H2 8269   2.876   5.748   0.101
 2755TIP3   OH2 8270   0.983   0.328   3.189
 2755TIP3    H1 8271   0.946   0.267   3.253
 2755TIP3    H2 8272   0.964   0.288   3.104
 2756TIP3   OH2 8273   1.477   2.002   4.549
 2756TIP3    H1 8274   1.402   1.947   4.571
 2756TIP3    H2 8275   1.551   1.960   4.592
 2757TIP3   OH2 8276   5.864   5.146   1.194
 2757TIP3    H1 8277   5.846   5.055   1.218
 2757TIP3    H2 8278   5.959   5.150   1.183
 2758TIP3   OH2 8279   3.520   2.980   0.928
 2758TIP3    H1 8280   3.568   2.946   1.004
 2758TIP3    H2 8281   3.501   3.071   0.950
 2759TIP3   OH2 8282   0.552   5.202   3.341
 2759TIP3    H1 8283   0.632   5.223   3.389
 2759TIP3    H2 8284   0.537   5.277   3.284
 2760TIP3   OH2 8285   0.549   2.394   2.361
 2760TIP3    H1 8286   0.580   2.418   2.449
 2760TIP3    H2 8287   0.625   2.352   2.320
 2761TIP3   OH2 8288   4.412   2.965   4.202
 2761TIP3    H1 8289   4.449   2.972   4.290
 2761TIP3    H2 8290   4.486   2.938   4.148
 2762TIP3   OH2 8291   0.043   3.531   0.505
 2762TIP3    H1 8292   0.046   3.437   0.487
 2762TIP3    H2 8293   0.112   3.568   0.451
 2763TIP3   OH2 8294   1.893   0.629   0.912
 2763TIP3    H1 8295   1.921   0.545   0.877
 2763TIP3    H2 8296   1.824   0.607   0.975
 2764TIP3   OH2 8297   5.522   5.773   3.901
 2764TIP3    H1 8298   5.442   5.725   3.920
 2764TIP3    H2 8299   5.553   5.804   3.987
 2765TIP3   OH2 8300   1.932   4.936   1.977
 2765TIP3    H1 8301   1.970   4.848   1.978
 2765TIP3    H2 8302   2.007   4.995   1.985
 2766TIP3   OH2 8303   0.146   5.176   2.116
 2766TIP3    H1 8304   0.061   5.170   2.073
 2766TIP3    H2 8305   0.136   5.127   2.198
 2767TIP3   OH2 8306   5.235   3.492   3.077
 2767TIP3    H1 8307   5.142   3.472   3.077
 2767TIP3    H2 8308   5.247   3.549   3.001
 2768TIP3   OH2 8309   1.938   5.846   0.897
 2768TIP3    H1 8310   2.014   5.793   0.922
 2768TIP3    H2 8311   1.962   5.935   0.923
 2769TIP3   OH2 8312   2.251   4.737   4.646
 2769TIP3    H1 8313   2.169   4.775   4.615
 2769TIP3    H2 8314   2.244   4.738   4.741
 2770TIP3   OH2 8315   4.548   2.430   4.847
 2770TIP3    H1 8316   4.584   2.366   4.785
 2770TIP3    H2 8317   4.473   2.385   4.886
 2771TIP3   OH2 8318   2.432   0.058   2.946
 2771TIP3    H1 8319   2.495   0.099   3.006
 2771TIP3    H2 8320   2.485   0.005   2.887
 2772TIP3   OH2 8321   1.934   1.723   2.025
 2772TIP3    H1 8322   1.952   1.794   1.963
 2772TIP3    H2 8323   1.843   1.738   2.052
 2773TIP3   OH2 8324   1.002   4.166   1.151
 2773TIP3    H1 8325   1.010   4.075   1.124
 2773TIP3    H2 8326   0.910   4.188   1.135
 2774TIP3   OH2 8327   3.560   0.871   2.403
 2774TIP3    H1 8328   3.541   0.951   2.452
 2774TIP3    H2 8329   3.608   0.816   2.465
 2775TIP3   OH2 8330   5.821   3.126   1.887
 2775TIP3    H1 8331   5.899   3.182   1.897
 2775TIP3    H2 8332   5.817   3.108   1.793
 2776TIP3   OH2 8333   2.445   5.650   3.929
 2776TIP3    H1 8334   2.460   5.593   4.004
 2776TIP3    H2 8335   2.434   5.738   3.967
 2777TIP3   OH2 8336   3.185   4.141   3.995
 2777TIP3    H1 8337   3.106   4.092   4.018
 2777TIP3    H2 8338   3.203   4.195   4.072
 2778TIP3   OH2 8339   1.439   4.091   4.191
 2778TIP3    H1 8340   1.354   4.055   4.216
 2778TIP3    H2 8341   1.499   4.018   4.199
 2779TIP3   OH2 8342   2.347   0.912   2.670
 2779TIP3    H1 8343   2.379   0.995   2.705
 2779TIP3    H2 8344   2.426   0.866   2.641
 2780TIP3   OH2 8345   2.849   4.299   3.785
 2780TIP3    H1 8346   2.845   4.205   3.768
 2780TIP3    H2 8347   2.799   4.311   3.866
 2781TIP3   OH2 8348   3.287   4.922   0.988
 2781TIP3    H1 8349   3.214   4.862   1.003
 2781TIP3    H2 8350   3.357   4.889   1.045
 2782TIP3   OH2 8351   5.103   5.736   1.387
 2782TIP3    H1 8352   5.046   5.700   1.455
 2782TIP3    H2 8353   5.162   5.664   1.365
 2783TIP3   OH2 8354   1.334   1.273   0.915
 2783TIP3    H1 8355   1.334   1.313   1.002
 2783TIP3    H2 8356   1.424   1.241   0.904
 2784TIP3   OH2 8357   1.951   5.497   3.216
 2784TIP3    H1 8358   2.042   5.471   3.226
 2784TIP3    H2 8359   1.951   5.591   3.237
 2785TIP3   OH2 8360   0.043   1.076   3.736
 2785TIP3    H1 8361   0.024   1.166   3.765
 2785TIP3    H2 8362   0.128   1.056   3.775
 2786TIP3   OH2 8363   6.042   1.299   0.364
 2786TIP3    H1 8364   5.953   1.330   0.381
 2786TIP3    H2 8365   6.097   1.348   0.426
 2787TIP3   OH2 8366   2.075   2.305   2.130
 2787TIP3    H1 8367   2.059   2.214   2.154
 2787TIP3    H2 8368   2.143   2.335   2.190
 2788TIP3   OH2 8369   0.367   2.177   2.328
 2788TIP3    H1 8370   0.410   2.262   2.328
 2788TIP3    H2 8371   0.438   2.113   2.332
 2789TIP3   OH2 8372   5.381   3.302   4.912
 2789TIP3    H1 8373   5.305   3.309   4.971
 2789TIP3    H2 8374   5.351   3.341   4.830
 2790TIP3   OH2 8375   5.805   0.282   2.580
 2790TIP3    H1 8376   5.710   0.280   2.591
 2790TIP3    H2 8377   5.819   0.342   2.506
 2791TIP3   OH2 8378   5.236   5.761   0.689
 2791TIP3    H1 8379   5.301   5.747   0.758
 2791TIP3    H2 8380   5.287   5.784   0.612
 2792TIP3   OH2 8381   5.866   5.288   3.220
 2792TIP3    H1 8382   5.857   5.382   3.235
 2792TIP3    H2 8383   5.864   5.249   3.308
 2793TIP3   OH2 8384   5.578   5.934   0.458
 2793TIP3    H1 8385   5.624   5.992   0.397
 2793TIP3    H2 8386   5.576   5.982   0.541
 2794TIP3   OH2 8387   2.801   0.235   2.399
 2794TIP3    H1 8388   2.892   0.253   2.376
 2794TIP3    H2 8389   2.768   0.179   2.329
 2795TIP3   OH2 8390   3.871   2.514   1.024
 2795TIP3    H1 8391   3.796   2.479   1.072
 2795TIP3    H2 8392   3.841   2.517   0.933
 2796TIP3   OH2 8393   0.173   4.956   0.372
 2796TIP3    H1 8394   0.199   5.047   0.388
 2796TIP3    H2 8395   0.144   4.955   0.281
 2797TIP3   OH2 8396   3.861   0.205   0.209
 2797TIP3    H1 8397   3.787   0.210   0.270
 2797TIP3    H2 8398   3.930   0.258   0.251
 2798TIP3   OH2 8399   5.774   0.854   4.666
 2798TIP3    H1 8400   5.759   0.762   4.685
 2798TIP3    H2 8401   5.814   0.889   4.746
 2799TIP3   OH2 8402   6.108   3.253   4.425
 2799TIP3    H1 8403   6.090   3.185   4.490
 2799TIP3    H2 8404   6.139   3.328   4.477
 2800TIP3   OH2 8405   4.053   5.772   0.495
 2800TIP3    H1 8406   3.991   5.784   0.567
 2800TIP3    H2 8407   4.006   5.803   0.418
 2801TIP3   OH2 8408   5.474   4.508   2.850
 2801TIP3    H1 8409   5.522   4.551   2.779
 2801TIP3    H2 8410   5.542   4.479   2.911
 2802TIP3   OH2 8411   3.138   2.010   4.286
 2802TIP3    H1 8412   3.131   2.039   4.377
 2802TIP3    H2 8413   3.208   2.064   4.249
 2803TIP3   OH2 8414   2.455   3.283   5.018
 2803TIP3    H1 8415   2.407   3.220   5.071
 2803TIP3    H2 8416   2.473   3.236   4.936
 2804TIP3   OH2 8417   1.412   1.547   0.092
 2804TIP3    H1 8418   1.383   1.637   0.107
 2804TIP3    H2 8419   1.505   1.555   0.072
 2805TIP3   OH2 8420   5.198   3.524   1.594
 2805TIP3    H1 8421   5.150   3.442   1.600
 2805TIP3    H2 8422   5.175   3.571   1.674
 2806TIP3   OH2 8423   2.693   0.672   5.031
 2806TIP3    H1 8424   2.688   0.589   5.078
 2806TIP3    H2 8425   2.756   0.725   5.081
 2807TIP3   OH2 8426   0.612   4.055   2.449
 2807TIP3    H1 8427   0.635   4.139   2.410
 2807TIP3    H2 8428   0.621   3.992   2.377
 2808TIP3   OH2 8429   0.930   3.060   2.192
 2808TIP3    H1 8430   0.980   2.998   2.139
 2808TIP3    H2 8431   0.892   3.007   2.262
 2809TIP3   OH2 8432   1.945   5.744   2.297
 2809TIP3    H1 8433   1.895   5.731   2.217
 2809TIP3    H2 8434   1.948   5.839   2.308
 2810TIP3   OH2 8435   5.549   3.922   3.873
 2810TIP3    H1 8436   5.598   3.840   3.880
 2810TIP3    H2 8437   5.564   3.967   3.956
 2811TIP3   OH2 8438   2.811   0.038   0.005
 2811TIP3    H1 8439   2.808  -0.005   0.090
 2811TIP3    H2 8440   2.902   0.030  -0.023
 2812TIP3   OH2 8441   4.996   3.672   0.352
 2812TIP3    H1 8442   5.041   3.672   0.436
 2812TIP3    H2 8443   5.059   3.636   0.290
 2813TIP3   OH2 8444   0.824   0.830   3.868
 2813TIP3    H1 8445   0.873   0.911   3.877
 2813TIP3    H2 8446   0.889   0.761   3.881
 2814TIP3   OH2 8447   4.105   1.227   1.653
 2814TIP3    H1 8448   4.020   1.225   1.696
 2814TIP3    H2 8449   4.120   1.320   1.635
 2815TIP3   OH2 8450   4.675   0.371   4.581
 2815TIP3    H1 8451   4.769   0.365   4.598
 2815TIP3    H2 8452   4.635   0.316   4.649
 2816TIP3   OH2 8453   3.271   2.304   2.941
 2816TIP3    H1 8454   3.187   2.258   2.943
 2816TIP3    H2 8455   3.263   2.365   2.868
 2817TIP3   OH2 8456   1.502   3.794   1.723
 2817TIP3    H1 8457   1.467   3.742   1.795
 2817TIP3    H2 8458   1.437   3.788   1.654
 2818TIP3   OH2 8459   3.210   2.156   2.191
 2818TIP3    H1 8460   3.258   2.106   2.125
 2818TIP3    H2 8461   3.168   2.089   2.245
 2819TIP3   OH2 8462   6.272   1.233   0.745
 2819TIP3    H1 8463   6.348   1.177   0.761
 2819TIP3    H2 8464   6.216   1.219   0.821
 2820TIP3   OH2 8465   1.642   3.561   3.467
 2820TIP3    H1 8466   1.654   3.627   3.398
 2820TIP3    H2 8467   1.664   3.607   3.548
 2821TIP3   OH2 8468   4.506   4.240   3.344
 2821TIP3    H1 8469   4.584   4.293   3.329
 2821TIP3    H2 8470   4.436   4.287   3.299
 2822TIP3   OH2 8471   1.691   4.585   0.502
 2822TIP3    H1 8472   1.702   4.531   0.424
 2822TIP3    H2 8473   1.635   4.657   0.473
 2823TIP3   OH2 8474   4.521   4.280   3.878
 2823TIP3    H1 8475   4.565   4.231   3.808
 2823TIP3    H2 8476   4.477   4.352   3.832
 2824TIP3   OH2 8477   5.407   3.614   3.871
 2824TIP3    H1 8478   5.404   3.649   3.782
 2824TIP3    H2 8479   5.319   3.627   3.905
 2825TIP3   OH2 8480   3.742   1.163   2.484
 2825TIP3    H1 8481   3.788   1.089   2.443
 2825TIP3    H2 8482   3.785   1.175   2.569
 2826TIP3   OH2 8483   5.367   5.479   2.182
 2826TIP3    H1 8484   5.359   5.528   2.264
 2826TIP3    H2 8485   5.309   5.403   2.194
 2827TIP3   OH2 8486   6.245   5.588   1.856
 2827TIP3    H1 8487   6.323   5.584   1.800
 2827TIP3    H2 8488   6.262   5.522   1.924
 2828TIP3   OH2 8489   0.344   3.871   4.275
 2828TIP3    H1 8490   0.314   3.801   4.217
 2828TIP3    H2 8491   0.415   3.915   4.227
 2829TIP3   OH2 8492   6.261   4.227   0.377
 2829TIP3    H1 8493   6.195   4.197   0.439
 2829TIP3    H2 8494   6.270   4.155   0.315
 2830TIP3   OH2 8495   4.271   3.056   5.016
 2830TIP3    H1 8496   4.238   3.136   4.976
 2830TIP3    H2 8497   4.303   3.083   5.102
 2831TIP3   OH2 8498   3.440   3.919   5.068
 2831TIP3    H1 8499   3.431   3.937   5.162
 2831TIP3    H2 8500   3.356   3.942   5.031
 2832TIP3   OH2 8501   4.533   1.706   3.382
 2832TIP3    H1 8502   4.490   1.623   3.402
 2832TIP3    H2 8503   4.466   1.759   3.339
 2833TIP3   OH2 8504   1.834   1.589   3.890
 2833TIP3    H1 8505   1.782   1.635   3.824
 2833TIP3    H2 8506   1.773   1.578   3.964
 2834TIP3   OH2 8507   5.111   5.829   4.517
 2834TIP3    H1 8508   5.041   5.894   4.524
 2834TIP3    H2 8509   5.172   5.853   4.586
 2835TIP3   OH2 8510   5.111   1.069   2.973
 2835TIP3    H1 8511   5.168   1.018   2.914
 2835TIP3    H2 8512   5.162   1.148   2.991
 2836TIP3   OH2 8513   5.956   0.760   0.424
 2836TIP3    H1 8514   5.940   0.784   0.333
 2836TIP3    H2 8515   6.009   0.832   0.459
 2837TIP3   OH2 8516   2.953   2.364   4.403
 2837TIP3    H1 8517   2.894   2.367   4.479
 2837TIP3    H2 8518   3.002   2.282   4.413
 2838TIP3   OH2 8519   3.749   3.106   1.304
 2838TIP3    H1 8520   3.830   3.097   1.354
 2838TIP3    H2 8521   3.776   3.146   1.221
 2839TIP3   OH2 8522   5.939   5.293   4.320
 2839TIP3    H1 8523   5.856   5.320   4.357
 2839TIP3    H2 8524   5.939   5.197   4.328
 2840TIP3   OH2 8525   5.100   3.882   1.128
 2840TIP3    H1 8526   5.097   3.821   1.202
 2840TIP3    H2 8527   5.012   3.919   1.123
 2841TIP3   OH2 8528   4.202   0.438   0.567
 2841TIP3    H1 8529   4.203   0.525   0.528
 2841TIP3    H2 8530   4.258   0.445   0.644
 2842TIP3   OH2 8531   0.333   5.638   0.100
 2842TIP3    H1 8532   0.261   5.577   0.121
 2842TIP3    H2 8533   0.393   5.586   0.048
 2843TIP3   OH2 8534   0.524   2.776   4.916
 2843TIP3    H1 8535   0.599   2.751   4.862
 2843TIP3    H2 8536   0.548   2.749   5.005
 2844TIP3   OH2 8537   1.025   2.172   2.840
 2844TIP3    H1 8538   1.083   2.199   2.912
 2844TIP3    H2 8539   0.941   2.212   2.861
 2845TIP3   OH2 8540   2.761   4.186   0.328
 2845TIP3    H1 8541   2.776   4.130   0.405
 2845TIP3    H2 8542   2.665   4.189   0.320
 2846TIP3   OH2 8543   6.296   3.642   1.449
 2846TIP3    H1 8544   6.233   3.574   1.425
 2846TIP3    H2 8545   6.256   3.687   1.523
 2847TIP3   OH2 8546   2.441   2.173   0.602
 2847TIP3    H1 8547   2.378   2.241   0.577
 2847TIP3    H2 8548   2.388   2.104   0.641
 2848TIP3   OH2 8549   2.012   2.367   0.101
 2848TIP3    H1 8550   1.979   2.417   0.027
 2848TIP3    H2 8551   1.934   2.345   0.152
 2849TIP3   OH2 8552   5.096   0.123   4.141
 2849TIP3    H1 8553   5.184   0.161   4.141
 2849TIP3    H2 8554   5.102   0.049   4.081
 2850TIP3   OH2 8555   1.073   0.960   0.950
 2850TIP3    H1 8556   1.099   1.032   1.008
 2850TIP3    H2 8557   0.989   0.987   0.913
 2851TIP3   OH2 8558   3.071   4.931   2.638
 2851TIP3    H1 8559   3.028   4.923   2.723
 2851TIP3    H2 8560   3.112   4.846   2.623
 2852TIP3   OH2 8561   0.476   1.709   2.188
 2852TIP3    H1 8562   0.417   1.767   2.141
 2852TIP3    H2 8563   0.548   1.693   2.128
 2853TIP3   OH2 8564   2.109   2.003   2.914
 2853TIP3    H1 8565   2.202   2.006   2.937
 2853TIP3    H2 8566   2.092   2.087   2.870
 2854TIP3   OH2 8567   3.254   4.235   1.403
 2854TIP3    H1 8568   3.271   4.207   1.493
 2854TIP3    H2 8569   3.175   4.187   1.378
 2855TIP3   OH2 8570   4.277   2.800   2.325
 2855TIP3    H1 8571   4.211   2.828   2.389
 2855TIP3    H2 8572   4.360   2.829   2.362
 2856TIP3   OH2 8573   3.739   4.868   1.903
 2856TIP3    H1 8574   3.662   4.848   1.956
 2856TIP3    H2 8575   3.746   4.795   1.842
 2857TIP3   OH2 8576   3.422   3.790   0.394
 2857TIP3    H1 8577   3.426   3.869   0.449
 2857TIP3    H2 8578   3.506   3.746   0.410
 2858TIP3   OH2 8579   0.795   1.273   2.125
 2858TIP3    H1 8580   0.741   1.326   2.065
 2858TIP3    H2 8581   0.755   1.186   2.123
 2859TIP3   OH2 8582   4.878   1.739   1.134
 2859TIP3    H1 8583   4.818   1.788   1.077
 2859TIP3    H2 8584   4.956   1.725   1.080
 2860TIP3   OH2 8585   5.667   1.965   4.657
 2860TIP3    H1 8586   5.595   1.902   4.667
 2860TIP3    H2 8587   5.624   2.050   4.657
 2861TIP3   OH2 8588   0.121   0.685   3.871
 2861TIP3    H1 8589   0.106   0.598   3.908
 2861TIP3    H2 8590   0.214   0.686   3.848
 2862TIP3   OH2 8591   3.801   3.118   2.017
 2862TIP3    H1 8592   3.775   3.048   1.956
 2862TIP3    H2 8593   3.764   3.198   1.979
 2863TIP3   OH2 8594   3.582   1.043   0.016
 2863TIP3    H1 8595   3.597   0.990   0.094
 2863TIP3    H2 8596   3.501   1.090   0.034
 2864TIP3   OH2 8597   1.618   3.422   2.502
 2864TIP3    H1 8598   1.653   3.510   2.485
 2864TIP3    H2 8599   1.543   3.437   2.559
 2865TIP3   OH2 8600   5.876   3.938   3.998
 2865TIP3    H1 8601   5.818   4.014   3.987
 2865TIP3    H2 8602   5.903   3.942   4.090
 2866TIP3   OH2 8603   5.681   2.554   1.688
 2866TIP3    H1 8604   5.774   2.548   1.708
 2866TIP3    H2 8605   5.675   2.619   1.618
 2867TIP3   OH2 8606   0.306   0.222   0.573
 2867TIP3    H1 8607   0.389   0.181   0.547
 2867TIP3    H2 8608   0.264   0.247   0.491
 2868TIP3   OH2 8609   0.207   3.442   0.764
 2868TIP3    H1 8610   0.185   3.362   0.718
 2868TIP3    H2 8611   0.276   3.483   0.711
 2869TIP3   OH2 8612   0.652   5.788   0.820
 2869TIP3    H1 8613   0.670   5.855   0.886
 2869TIP3    H2 8614   0.559   5.801   0.799
 2870TIP3   OH2 8615   1.940   4.126   0.296
 2870TIP3    H1 8616   1.972   4.052   0.346
 2870TIP3    H2 8617   1.942   4.200   0.357
 2871TIP3   OH2 8618   2.654   4.966   4.068
 2871TIP3    H1 8619   2.665   5.055   4.035
 2871TIP3    H2 8620   2.560   4.950   4.062
 2872TIP3   OH2 8621   4.691   1.175   1.502
 2872TIP3    H1 8622   4.689   1.097   1.447
 2872TIP3    H2 8623   4.703   1.142   1.591
 2873TIP3   OH2 8624   0.484   3.302   4.779
 2873TIP3    H1 8625   0.501   3.223   4.830
 2873TIP3    H2 8626   0.440   3.361   4.840
 2874TIP3   OH2 8627   1.216   3.328   3.298
 2874TIP3    H1 8628   1.260   3.253   3.338
 2874TIP3    H2 8629   1.263   3.404   3.333
 2875TIP3   OH2 8630   0.153   2.649   3.219
 2875TIP3    H1 8631   0.122   2.694   3.140
 2875TIP3    H2 8632   0.178   2.719   3.279
 2876TIP3   OH2 8633   0.999   0.624   3.930
 2876TIP3    H1 8634   1.035   0.644   4.016
 2876TIP3    H2 8635   0.972   0.532   3.937
 2877TIP3   OH2 8636   5.515   0.140   4.885
 2877TIP3    H1 8637   5.477   0.071   4.830
 2877TIP3    H2 8638   5.439   0.181   4.927
 2878TIP3   OH2 8639   3.018   2.298   4.832
 2878TIP3    H1 8640   2.970   2.224   4.796
 2878TIP3    H2 8641   3.103   2.261   4.857
 2879TIP3   OH2 8642   3.463   0.953   3.096
 2879TIP3    H1 8643   3.524   1.002   3.042
 2879TIP3    H2 8644   3.449   0.871   3.048
 2880TIP3   OH2 8645   2.799   1.914   2.357
 2880TIP3    H1 8646   2.771   1.905   2.266
 2880TIP3    H2 8647   2.744   1.852   2.405
 2881TIP3   OH2 8648   3.517   1.453   3.431
 2881TIP3    H1 8649   3.455   1.392   3.471
 2881TIP3    H2 8650   3.474   1.538   3.436
 2882TIP3   OH2 8651   4.814   0.147   4.177
 2882TIP3    H1 8652   4.792   0.195   4.257
 2882TIP3    H2 8653   4.910   0.153   4.172
 2883TIP3   OH2 8654   1.056   3.344   2.667
 2883TIP3    H1 8655   0.961   3.361   2.669
 2883TIP3    H2 8656   1.088   3.397   2.595
 2884TIP3   OH2 8657   3.953   5.964   5.123
 2884TIP3    H1 8658   3.911   5.882   5.148
 2884TIP3    H2 8659   3.912   6.031   5.179
 2885TIP3   OH2 8660   3.006   2.619   3.960
 2885TIP3    H1 8661   3.011   2.583   4.049
 2885TIP3    H2 8662   3.028   2.711   3.970
 2886TIP3   OH2 8663   2.081   4.084   1.924
 2886TIP3    H1 8664   1.998   4.094   1.876
 2886TIP3    H2 8665   2.060   4.023   1.994
 2887TIP3   OH2 8666   2.095   5.066   1.353
 2887TIP3    H1 8667   2.072   5.109   1.271
 2887TIP3    H2 8668   2.012   5.038   1.390
 2888TIP3   OH2 8669   1.999   4.815   4.503
 2888TIP3    H1 8670   1.953   4.743   4.460
 2888TIP3    H2 8671   1.961   4.820   4.591
 2889TIP3   OH2 8672   1.020   5.736   4.184
 2889TIP3    H1 8673   0.999   5.750   4.091
 2889TIP3    H2 8674   1.113   5.714   4.184
 2890TIP3   OH2 8675   2.919   3.139   1.044
 2890TIP3    H1 8676   2.947   3.229   1.059
 2890TIP3    H2 8677   2.912   3.101   1.132
 2891TIP3   OH2 8678   0.193   5.291   4.801
 2891TIP3    H1 8679   0.215   5.274   4.710
 2891TIP3    H2 8680   0.165   5.206   4.835
 2892TIP3   OH2 8681   6.207   3.674   0.150
 2892TIP3    H1 8682   6.281   3.732   0.171
 2892TIP3    H2 8683   6.168   3.711   0.072
 2893TIP3   OH2 8684   1.216   2.144   1.855
 2893TIP3    H1 8685   1.169   2.098   1.925
 2893TIP3    H2 8686   1.155   2.212   1.827
 2894TIP3   OH2 8687   0.312   1.342   2.434
 2894TIP3    H1 8688   0.387   1.296   2.396
 2894TIP3    H2 8689   0.261   1.273   2.476
 2895TIP3   OH2 8690   5.023   1.421   3.890
 2895TIP3    H1 8691   4.963   1.359   3.850
 2895TIP3    H2 8692   5.106   1.374   3.896
 2896TIP3   OH2 8693   0.971   2.810   4.962
 2896TIP3    H1 8694   0.958   2.718   4.984
 2896TIP3    H2 8695   0.909   2.857   5.017
 2897TIP3   OH2 8696   5.884   3.876   1.682
 2897TIP3    H1 8697   5.929   3.868   1.766
 2897TIP3    H2 8698   5.798   3.837   1.697
 2898TIP3   OH2 8699   5.799   0.535   1.385
 2898TIP3    H1 8700   5.809   0.595   1.459
 2898TIP3    H2 8701   5.733   0.576   1.330
 2899TIP3   OH2 8702   2.731   5.011   0.563
 2899TIP3    H1 8703   2.731   5.036   0.470
 2899TIP3    H2 8704   2.685   4.928   0.565
 2900TIP3   OH2 8705   0.123   2.501   0.383
 2900TIP3    H1 8706   0.106   2.443   0.458
 2900TIP3    H2 8707   0.038   2.510   0.340
 2901TIP3   OH2 8708   0.436   4.608   3.592
 2901TIP3    H1 8709   0.356   4.556   3.605
 2901TIP3    H2 8710   0.459   4.638   3.680
 2902TIP3   OH2 8711   0.463   0.921   4.104
 2902TIP3    H1 8712   0.407   0.940   4.179
 2902TIP3    H2 8713   0.543   0.971   4.121
 2903TIP3   OH2 8714   3.535   4.226   1.886
 2903TIP3    H1 8715   3.536   4.289   1.958
 2903TIP3    H2 8716   3.559   4.278   1.809
 2904TIP3   OH2 8717   5.446   0.383   4.607
 2904TIP3    H1 8718   5.471   0.398   4.515
 2904TIP3    H2 8719   5.372   0.322   4.602
 2905TIP3   OH2 8720   0.362   3.916   2.425
 2905TIP3    H1 8721   0.447   3.953   2.400
 2905TIP3    H2 8722   0.349   3.843   2.365
 2906TIP3   OH2 8723   1.812   2.205   5.039
 2906TIP3    H1 8724   1.867   2.148   5.092
 2906TIP3    H2 8725   1.839   2.294   5.062
 2907TIP3   OH2 8726   3.882   2.263   0.205
 2907TIP3    H1 8727   3.911   2.349   0.237
 2907TIP3    H2 8728   3.811   2.283   0.144
 2908TIP3   OH2 8729   2.900   4.423   0.222
 2908TIP3    H1 8730   2.873   4.335   0.248
 2908TIP3    H2 8731   2.991   4.429   0.250
 2909TIP3   OH2 8732   0.730   0.803   0.516
 2909TIP3    H1 8733   0.705   0.750   0.592
 2909TIP3    H2 8734   0.673   0.771   0.445
 2910TIP3   OH2 8735   2.702   3.453   2.063
 2910TIP3    H1 8736   2.760   3.501   2.005
 2910TIP3    H2 8737   2.620   3.502   2.061
 2911TIP3   OH2 8738   4.658   2.130   0.874
 2911TIP3    H1 8739   4.739   2.133   0.823
 2911TIP3    H2 8740   4.600   2.075   0.823
 2912TIP3   OH2 8741   6.334   3.043   0.905
 2912TIP3    H1 8742   6.271   2.999   0.847
 2912TIP3    H2 8743   6.334   2.989   0.985
 2913TIP3   OH2 8744   3.405   4.511   3.949
 2913TIP3    H1 8745   3.500   4.518   3.964
 2913TIP3    H2 8746   3.369   4.486   4.034
 2914TIP3   OH2 8747   4.344   5.111   3.736
 2914TIP3    H1 8748   4.379   5.200   3.729
 2914TIP3    H2 8749   4.400   5.069   3.802
 2915TIP3   OH2 8750   2.462   2.813   1.011
 2915TIP3    H1 8751   2.496   2.814   0.922
 2915TIP3    H2 8752   2.376   2.771   1.003
 2916TIP3   OH2 8753   0.928   1.695   3.990
 2916TIP3    H1 8754   0.941   1.672   4.082
 2916TIP3    H2 8755   1.010   1.737   3.963
 2917TIP3   OH2 8756   2.934   3.387   0.790
 2917TIP3    H1 8757   2.872   3.458   0.806
 2917TIP3    H2 8758   2.979   3.375   0.874
 2918TIP3   OH2 8759   2.287   5.891   4.922
 2918TIP3    H1 8760   2.375   5.854   4.909
 2918TIP3    H2 8761   2.228   5.816   4.912
 2919TIP3   OH2 8762   3.604   0.595   0.461
 2919TIP3    H1 8763   3.552   0.548   0.526
 2919TIP3    H2 8764   3.593   0.687   0.483
 2920TIP3   OH2 8765   1.693   3.496   1.719
 2920TIP3    H1 8766   1.709   3.412   1.676
 2920TIP3    H2 8767   1.608   3.485   1.761
 2921TIP3   OH2 8768   1.432   5.984   1.984
 2921TIP3    H1 8769   1.371   5.916   2.013
 2921TIP3    H2 8770   1.383   6.034   1.918
 2922TIP3   OH2 8771   1.482   3.309   1.490
 2922TIP3    H1 8772   1.496   3.258   1.411
 2922TIP3    H2 8773   1.518   3.256   1.561
 2923TIP3   OH2 8774   0.698   3.582   0.183
 2923TIP3    H1 8775   0.660   3.495   0.188
 2923TIP3    H2 8776   0.740   3.595   0.268
 2924TIP3   OH2 8777   0.685   0.891   0.958
 2924TIP3    H1 8778   0.741   0.947   0.905
 2924TIP3    H2 8779   0.703   0.917   1.049
 2925TIP3   OH2 8780   5.847   3.973   2.020
 2925TIP3    H1 8781   5.900   3.899   1.992
 2925TIP3    H2 8782   5.903   4.050   2.009
 2926TIP3   OH2 8783   5.345   4.088   2.722
 2926TIP3    H1 8784   5.366   4.005   2.681
 2926TIP3    H2 8785   5.415   4.147   2.695
 2927TIP3   OH2 8786   2.870   1.030   4.506
 2927TIP3    H1 8787   2.798   1.086   4.534
 2927TIP3    H2 8788   2.915   1.080   4.439
 2928TIP3   OH2 8789   2.496   1.782   0.692
 2928TIP3    H1 8790   2.536   1.823   0.768
 2928TIP3    H2 8791   2.498   1.688   0.712
 2929TIP3   OH2 8792   1.974   2.320   4.236
 2929TIP3    H1 8793   2.030   2.398   4.246
 2929TIP3    H2 8794   1.887   2.355   4.215
 2930TIP3   OH2 8795   5.611   4.879   2.662
 2930TIP3    H1 8796   5.597   4.891   2.756
 2930TIP3    H2 8797   5.650   4.792   2.655
 2931TIP3   OH2 8798   4.382   1.305   2.873
 2931TIP3    H1 8799   4.370   1.396   2.901
 2931TIP3    H2 8800   4.470   1.304   2.835
 2932TIP3   OH2 8801   1.418   5.682   0.189
 2932TIP3    H1 8802   1.396   5.759   0.241
 2932TIP3    H2 8803   1.511   5.669   0.203
 2933TIP3   OH2 8804   1.053   1.801   3.502
 2933TIP3    H1 8805   0.965   1.785   3.468
 2933TIP3    H2 8806   1.063   1.739   3.575
 2934TIP3   OH2 8807   2.648   5.275   2.262
 2934TIP3    H1 8808   2.595   5.215   2.313
 2934TIP3    H2 8809   2.736   5.237   2.264
 2935TIP3   OH2 8810   3.081   0.914   0.937
 2935TIP3    H1 8811   3.030   0.988   0.969
 2935TIP3    H2 8812   3.116   0.872   1.016
 2936TIP3   OH2 8813   4.360   3.075   0.048
 2936TIP3    H1 8814   4.339   2.998   0.101
 2936TIP3    H2 8815   4.324   3.149   0.097
 2937TIP3   OH2 8816   5.454   2.661   4.358
 2937TIP3    H1 8817   5.549   2.657   4.349
 2937TIP3    H2 8818   5.424   2.693   4.273
 2938TIP3   OH2 8819   0.165   0.124   3.198
 2938TIP3    H1 8820   0.148   0.218   3.193
 2938TIP3    H2 8821   0.255   0.118   3.231
 2939TIP3   OH2 8822   2.646   4.356   0.056
 2939TIP3    H1 8823   2.669   4.354  -0.037
 2939TIP3    H2 8824   2.724   4.392   0.099
 2940TIP3   OH2 8825   2.619   5.269   1.694
 2940TIP3    H1 8826   2.685   5.286   1.627
 2940TIP3    H2 8827   2.665   5.279   1.777
 2941TIP3   OH2 8828   4.827   0.541   4.892
 2941TIP3    H1 8829   4.753   0.599   4.911
 2941TIP3    H2 8830   4.899   0.600   4.871
 2942TIP3   OH2 8831   1.966   2.179   3.597
 2942TIP3    H1 8832   1.980   2.253   3.538
 2942TIP3    H2 8833   2.050   2.133   3.598
 2943TIP3   OH2 8834   1.264   0.914   2.814
 2943TIP3    H1 8835   1.216   0.920   2.731
 2943TIP3    H2 8836   1.266   1.004   2.846
 2944TIP3   OH2 8837   1.092   3.809   0.149
 2944TIP3    H1 8838   1.161   3.795   0.215
 2944TIP3    H2 8839   1.083   3.723   0.108
 2945TIP3   OH2 8840   5.446   2.415   2.597
 2945TIP3    H1 8841   5.515   2.371   2.648
 2945TIP3    H2 8842   5.475   2.409   2.506
 2946TIP3   OH2 8843   5.932   4.812   3.071
 2946TIP3    H1 8844   5.902   4.881   3.130
 2946TIP3    H2 8845   6.025   4.829   3.060
 2947TIP3   OH2 8846   2.085   4.947   4.862
 2947TIP3    H1 8847   2.048   4.958   4.950
 2947TIP3    H2 8848   2.053   4.862   4.833
 2948TIP3   OH2 8849   4.878   4.352   3.719
 2948TIP3    H1 8850   4.842   4.431   3.758
 2948TIP3    H2 8851   4.971   4.353   3.742
 2949TIP3   OH2 8852   4.850   0.824   0.820
 2949TIP3    H1 8853   4.915   0.860   0.760
 2949TIP3    H2 8854   4.795   0.898   0.843
 2950TIP3   OH2 8855   2.921   1.820   4.479
 2950TIP3    H1 8856   2.979   1.839   4.552
 2950TIP3    H2 8857   2.838   1.795   4.520
 2951TIP3   OH2 8858   1.305   0.687   2.402
 2951TIP3    H1 8859   1.296   0.781   2.384
 2951TIP3    H2 8860   1.301   0.681   2.498
 2952TIP3   OH2 8861   5.656   2.108   2.840
 2952TIP3    H1 8862   5.732   2.056   2.865
 2952TIP3    H2 8863   5.682   2.151   2.759
 2953TIP3   OH2 8864   2.643   5.855   3.713
 2953TIP3    H1 8865   2.556   5.835   3.749
 2953TIP3    H2 8866   2.673   5.930   3.764
 2954TIP3   OH2 8867   5.643   2.010   3.624
 2954TIP3    H1 8868   5.673   1.928   3.585
 2954TIP3    H2 8869   5.605   1.983   3.708
 2955TIP3   OH2 8870   4.073   0.031   4.971
 2955TIP3    H1 8871   4.079   0.090   5.046
 2955TIP3    H2 8872   4.030   0.084   4.903
 2956TIP3   OH2 8873   4.490   0.117   4.755
 2956TIP3    H1 8874   4.454   0.050   4.813
 2956TIP3    H2 8875   4.516   0.188   4.814
 2957TIP3   OH2 8876   6.055   0.739   1.589
 2957TIP3    H1 8877   6.141   0.766   1.557
 2957TIP3    H2 8878   6.065   0.646   1.610
 2958TIP3   OH2 8879   3.130   0.869   1.884
 2958TIP3    H1 8880   3.211   0.919   1.877
 2958TIP3    H2 8881   3.098   0.860   1.794
 2959TIP3   OH2 8882   3.439   5.773   0.304
 2959TIP3    H1 8883   3.452   5.750   0.396
 2959TIP3    H2 8884   3.382   5.703   0.270
 2960TIP3   OH2 8885   2.343   1.957   2.656
 2960TIP3    H1 8886   2.376   2.034   2.701
 2960TIP3    H2 8887   2.349   1.886   2.721
 2961TIP3   OH2 8888   1.300   1.835   3.401
 2961TIP3    H1 8889   1.326   1.744   3.386
 2961TIP3    H2 8890   1.218   1.828   3.451
 2962TIP3   OH2 8891   2.064   4.233   3.213
 2962TIP3    H1 8892   2.068   4.209   3.121
 2962TIP3    H2 8893   2.087   4.326   3.215
 2963TIP3   OH2 8894   6.063   0.665   2.290
 2963TIP3    H1 8895   6.114   0.699   2.216
 2963TIP3    H2 8896   6.030   0.743   2.334
 2964TIP3   OH2 8897   5.656   5.626   0.809
 2964TIP3    H1 8898   5.638   5.549   0.755
 2964TIP3    H2 8899   5.751   5.639   0.800
 2965TIP3   OH2 8900   5.722   5.740   4.737
 2965TIP3    H1 8901   5.802   5.688   4.736
 2965TIP3    H2 8902   5.680   5.718   4.820
 2966TIP3   OH2 8903   3.010   4.234   2.252
 2966TIP3    H1 8904   3.090   4.181   2.249
 2966TIP3    H2 8905   3.031   4.307   2.310
 2967TIP3   OH2 8906   4.120   2.207   1.307
 2967TIP3    H1 8907   4.046   2.267   1.312
 2967TIP3    H2 8908   4.124   2.165   1.393
 2968TIP3   OH2 8909   2.154   2.798   1.653
 2968TIP3    H1 8910   2.165   2.764   1.564
 2968TIP3    H2 8911   2.233   2.769   1.699
 2969TIP3   OH2 8912   5.975   0.108   3.446
 2969TIP3    H1 8913   6.031   0.049   3.495
 2969TIP3    H2 8914   5.886   0.088   3.477
 2970TIP3   OH2 8915   5.058   3.365   2.765
 2970TIP3    H1 8916   5.152   3.356   2.752
 2970TIP3    H2 8917   5.020   3.359   2.677
 2971TIP3   OH2 8918   0.878   5.155   1.438
 2971TIP3    H1 8919   0.831   5.236   1.419
 2971TIP3    H2 8920   0.873   5.105   1.357
 2972TIP3   OH2 8921   2.383   2.973   1.611
 2972TIP3    H1 8922   2.339   2.911   1.670
 2972TIP3    H2 8923   2.329   3.052   1.616
 2973TIP3   OH2 8924  -0.003   0.649   2.999
 2973TIP3    H1 8925   0.068   0.585   2.995
 2973TIP3    H2 8926   0.041   0.733   2.990
 2974TIP3   OH2 8927   5.876   5.832   4.426
 2974TIP3    H1 8928   5.933   5.859   4.498
 2974TIP3    H2 8929   5.934   5.781   4.369
 2975TIP3   OH2 8930   1.368   5.226   4.307
 2975TIP3    H1 8931   1.448   5.255   4.262
 2975TIP3    H2 8932   1.309   5.200   4.236
 2976TIP3   OH2 8933   2.668   0.441   0.050
 2976TIP3    H1 8934   2.657   0.352   0.017
 2976TIP3    H2 8935   2.670   0.495  -0.029
 2977TIP3   OH2 8936   3.696   3.714   0.464
 2977TIP3    H1 8937   3.764   3.665   0.417
 2977TIP3    H2 8938   3.710   3.692   0.556
 2978TIP3   OH2 8939   0.690   0.836   1.766
 2978TIP3    H1 8940   0.722   0.849   1.855
 2978TIP3    H2 8941   0.770   0.837   1.712
 2979TIP3   OH2 8942   1.654   1.405   0.441
 2979TIP3    H1 8943   1.701   1.461   0.503
 2979TIP3    H2 8944   1.712   1.330   0.428
 2980TIP3   OH2 8945   3.425   1.704   0.212
 2980TIP3    H1 8946   3.351   1.656   0.174
 2980TIP3    H2 8947   3.500   1.679   0.157
 2981TIP3   OH2 8948   2.365   3.448   3.817
 2981TIP3    H1 8949   2.348   3.539   3.843
 2981TIP3    H2 8950   2.386   3.403   3.898
 2982TIP3   OH2 8951   0.152   5.556   2.854
 2982TIP3    H1 8952   0.158   5.598   2.940
 2982TIP3    H2 8953   0.070   5.588   2.817
 2983TIP3   OH2 8954   1.284   5.602   3.117
 2983TIP3    H1 8955   1.336   5.523   3.128
 2983TIP3    H2 8956   1.301   5.630   3.027
 2984TIP3   OH2 8957   4.292   4.506   1.586
 2984TIP3    H1 8958   4.215   4.453   1.566
 2984TIP3    H2 8959   4.290   4.517   1.681
 2985TIP3   OH2 8960   5.767   3.112   2.318
 2985TIP3    H1 8961   5.726   3.075   2.240
 2985TIP3    H2 8962   5.820   3.185   2.284
 2986TIP3   OH2 8963   3.854   2.343   2.529
 2986TIP3    H1 8964   3.915   2.379   2.464
 2986TIP3    H2 8965   3.806   2.275   2.481
 2987TIP3   OH2 8966   6.088   1.231   2.217
 2987TIP3    H1 8967   6.033   1.310   2.221
 2987TIP3    H2 8968   6.177   1.265   2.214
 2988TIP3   OH2 8969   6.043   4.959   4.970
 2988TIP3    H1 8970   6.101   4.975   4.896
 2988TIP3    H2 8971   5.985   5.035   4.973
 2989TIP3   OH2 8972   5.246   4.579   1.662
 2989TIP3    H1 8973   5.262   4.669   1.633
 2989TIP3    H2 8974   5.307   4.526   1.611
 2990TIP3   OH2 8975   0.637   5.008   3.552
 2990TIP3    H1 8976   0.582   5.035   3.478
 2990TIP3    H2 8977   0.705   4.954   3.514
 2991TIP3   OH2 8978   5.571   2.276   4.985
 2991TIP3    H1 8979   5.499   2.310   5.038
 2991TIP3    H2 8980   5.650   2.294   5.036
 2992TIP3   OH2 8981   1.636   1.438   1.287
 2992TIP3    H1 8982   1.684   1.368   1.330
 2992TIP3    H2 8983   1.684   1.454   1.206
 2993TIP3   OH2 8984   3.501   1.588   3.099
 2993TIP3    H1 8985   3.484   1.567   3.007
 2993TIP3    H2 8986   3.435   1.654   3.121
 2994TIP3   OH2 8987   2.955   5.496   1.862
 2994TIP3    H1 8988   2.877   5.530   1.906
 2994TIP3    H2 8989   2.928   5.412   1.826
 2995TIP3   OH2 8990   5.766   0.745   2.883
 2995TIP3    H1 8991   5.769   0.713   2.973
 2995TIP3    H2 8992   5.739   0.670   2.831
 2996TIP3   OH2 8993   2.833   4.272   4.413
 2996TIP3    H1 8994   2.759   4.294   4.470
 2996TIP3    H2 8995   2.898   4.339   4.433
 2997TIP3   OH2 8996   1.788   0.758   3.177
 2997TIP3    H1 8997   1.787   0.735   3.085
 2997TIP3    H2 8998   1.696   0.773   3.199
 2998TIP3   OH2 8999   0.483   3.007   2.840
 2998TIP3    H1 9000   0.416   2.944   2.865
 2998TIP3    H2 9001   0.545   3.006   2.913
 2999TIP3   OH2 9002   2.099   0.627   0.361
 2999TIP3    H1 9003   2.127   0.715   0.386
 2999TIP3    H2 9004   2.092   0.630   0.265
 3000TIP3   OH2 9005   0.977   3.227   0.519
 3000TIP3    H1 9006   1.017   3.143   0.500
 3000TIP3    H2 9007   1.050   3.288   0.529
 3001TIP3   OH2 9008   1.260   5.576   1.376
 3001TIP3    H1 9009   1.219   5.661   1.392
 3001TIP3    H2 9010   1.354   5.595   1.373
 3002TIP3   OH2 9011   0.200   1.812   2.500
 3002TIP3    H1 9012   0.137   1.882   2.518
 3002TIP3    H2 9013   0.198   1.802   2.405
 3003TIP3   OH2 9014   0.150   1.495   1.461
 3003TIP3    H1 9015   0.122   1.548   1.535
 3003TIP3    H2 9016   0.165   1.558   1.391
 3004TIP3   OH2 9017   4.271   2.696   1.896
 3004TIP3    H1 9018   4.180   2.683   1.868
 3004TIP3    H2 9019   4.322   2.690   1.815
 3005TIP3   OH2 9020   2.066   0.019   0.732
 3005TIP3    H1 9021   2.137   0.070   0.695
 3005TIP3    H2 9022   2.029  -0.030   0.658
 3006TIP3   OH2 9023   0.908   2.811   0.622
 3006TIP3    H1 9024   0.826   2.761   0.627
 3006TIP3    H2 9025   0.894   2.872   0.549
 3007TIP3   OH2 9026   2.254   2.365   0.253
 3007TIP3    H1 9027   2.319   2.432   0.233
 3007TIP3    H2 9028   2.192   2.369   0.180
 3008TIP3   OH2 9029   0.260   5.359   1.911
 3008TIP3    H1 9030   0.215   5.342   1.829
 3008TIP3    H2 9031   0.256   5.276   1.959
 3009TIP3   OH2 9032   5.765   4.540   0.080
 3009TIP3    H1 9033   5.729   4.455   0.105
 3009TIP3    H2 9034   5.774   4.587   0.163
 3010TIP3   OH2 9035   0.505   3.489   4.323
 3010TIP3    H1 9036   0.556   3.567   4.299
 3010TIP3    H2 9037   0.446   3.475   4.249
 3011TIP3   OH2 9038   2.535   5.216   4.314
 3011TIP3    H1 9039   2.460   5.171   4.275
 3011TIP3    H2 9040   2.551   5.169   4.397
 3012TIP3   OH2 9041   0.973   1.370   3.097
 3012TIP3    H1 9042   0.934   1.431   3.159
 3012TIP3    H2 9043   1.043   1.327   3.147
 3013TIP3   OH2 9044   4.378   1.251   0.825
 3013TIP3    H1 9045   4.428   1.247   0.907
 3013TIP3    H2 9046   4.394   1.338   0.791
 3014TIP3   OH2 9047   2.559   1.468   0.319
 3014TIP3    H1 9048   2.482   1.468   0.261
 3014TIP3    H2 9049   2.552   1.549   0.369
 3015TIP3   OH2 9050   4.501   0.574   2.388
 3015TIP3    H1 9051   4.565   0.543   2.324
 3015TIP3    H2 9052   4.453   0.496   2.415
 3016TIP3   OH2 9053   2.532   1.199   0.042
 3016TIP3    H1 9054   2.470   1.249   0.096
 3016TIP3    H2 9055   2.561   1.262  -0.025
 3017TIP3   OH2 9056   4.973   4.565   1.353
 3017TIP3    H1 9057   4.878   4.560   1.365
 3017TIP3    H2 9058   4.984   4.620   1.275
 3018TIP3   OH2 9059   4.626   0.176   3.712
 3018TIP3    H1 9060   4.576   0.198   3.633
 3018TIP3    H2 9061   4.717   0.198   3.690
 3019TIP3   OH2 9062   5.252   4.217   3.503
 3019TIP3    H1 9063   5.210   4.132   3.517
 3019TIP3    H2 9064   5.299   4.208   3.420
 3020TIP3   OH2 9065   2.982   1.277   0.793
 3020TIP3    H1 9066   2.960   1.253   0.883
 3020TIP3    H2 9067   3.076   1.262   0.785
 3021TIP3   OH2 9068   3.011   2.220   3.265
 3021TIP3    H1 9069   3.067   2.249   3.337
 3021TIP3    H2 9070   2.952   2.294   3.250
 3022TIP3   OH2 9071   3.620   2.001   4.918
 3022TIP3    H1 9072   3.614   2.085   4.965
 3022TIP3    H2 9073   3.530   1.970   4.915
 3023TIP3   OH2 9074   1.607   2.791   2.334
 3023TIP3    H1 9075   1.574   2.780   2.244
 3023TIP3    H2 9076   1.646   2.707   2.356
 3024TIP3   OH2 9077   1.842   4.374   3.813
 3024TIP3    H1 9078   1.794   4.454   3.793
 3024TIP3    H2 9079   1.879   4.347   3.729
 3025TIP3   OH2 9080   3.944   0.302   3.068
 3025TIP3    H1 9081   3.938   0.213   3.105
 3025TIP3    H2 9082   3.901   0.296   2.983
 3026TIP3   OH2 9083   0.431   4.177   0.771
 3026TIP3    H1 9084   0.489   4.237   0.723
 3026TIP3    H2 9085   0.461   4.090   0.747
 3027TIP3   OH2 9086   3.873   0.671   4.663
 3027TIP3    H1 9087   3.883   0.765   4.651
 3027TIP3    H2 9088   3.836   0.662   4.751
 3028TIP3   OH2 9089   5.372   0.511   0.320
 3028TIP3    H1 9090   5.391   0.507   0.226
 3028TIP3    H2 9091   5.297   0.453   0.332
 3029TIP3   OH2 9092   0.193   1.658   3.028
 3029TIP3    H1 9093   0.101   1.679   3.044
 3029TIP3    H2 9094   0.243   1.721   3.080
 3030TIP3   OH2 9095   0.777   1.260   1.514
 3030TIP3    H1 9096   0.841   1.328   1.537
 3030TIP3    H2 9097   0.802   1.232   1.426
 3031TIP3   OH2 9098   1.094   0.240   4.173
 3031TIP3    H1 9099   1.132   0.202   4.253
 3031TIP3    H2 9100   1.166   0.289   4.133
 3032TIP3   OH2 9101   2.603   0.882   1.599
 3032TIP3    H1 9102   2.546   0.835   1.660
 3032TIP3    H2 9103   2.670   0.922   1.654
 3033TIP3   OH2 9104   2.775   2.496   2.052
 3033TIP3    H1 9105   2.852   2.445   2.027
 3033TIP3    H2 9106   2.711   2.478   1.983
 3034TIP3   OH2 9107   3.642   2.355   0.056
 3034TIP3    H1 9108   3.647   2.450   0.044
 3034TIP3    H2 9109   3.553   2.332   0.028
 3035TIP3   OH2 9110   0.227   4.441   3.695
 3035TIP3    H1 9111   0.240   4.361   3.745
 3035TIP3    H2 9112   0.168   4.494   3.748
 3036TIP3   OH2 9113   5.758   3.072   4.616
 3036TIP3    H1 9114   5.822   3.058   4.546
 3036TIP3    H2 9115   5.779   3.158   4.651
 3037TIP3   OH2 9116   2.338   5.145   4.142
 3037TIP3    H1 9117   2.311   5.056   4.119
 3037TIP3    H2 9118   2.339   5.193   4.060
 3038TIP3   OH2 9119   2.543   2.873   3.794
 3038TIP3    H1 9120   2.564   2.966   3.787
 3038TIP3    H2 9121   2.448   2.871   3.803
 3039TIP3   OH2 9122   3.305   5.362   2.489
 3039TIP3    H1 9123   3.396   5.384   2.474
 3039TIP3    H2 9124   3.256   5.425   2.436
 3040TIP3   OH2 9125   3.218   1.430   2.815
 3040TIP3    H1 9126   3.218   1.357   2.877
 3040TIP3    H2 9127   3.155   1.493   2.850
 3041TIP3   OH2 9128   5.630   0.558   2.715
 3041TIP3    H1 9129   5.713   0.582   2.674
 3041TIP3    H2 9130   5.611   0.470   2.681
 3042TIP3   OH2 9131   0.299   4.979   3.313
 3042TIP3    H1 9132   0.211   4.964   3.279
 3042TIP3    H2 9133   0.305   4.922   3.389
 3043TIP3   OH2 9134   0.808   0.080   4.054
 3043TIP3    H1 9135   0.877   0.037   4.105
 3043TIP3    H2 9136   0.728   0.065   4.104
 3044TIP3   OH2 9137   0.934   2.972   1.824
 3044TIP3    H1 9138   0.872   3.041   1.801
 3044TIP3    H2 9139   0.928   2.964   1.919
 3045TIP3   OH2 9140   4.339   3.744   3.216
 3045TIP3    H1 9141   4.417   3.694   3.242
 3045TIP3    H2 9142   4.291   3.685   3.158
 3046TIP3   OH2 9143   0.291   1.959   4.046
 3046TIP3    H1 9144   0.206   2.003   4.040
 3046TIP3    H2 9145   0.332   1.996   4.125
 3047TIP3   OH2 9146   3.252   1.206   2.975
 3047TIP3    H1 9147   3.224   1.116   2.958
 3047TIP3    H2 9148   3.269   1.209   3.069
 3048TIP3   OH2 9149   5.666   3.701   3.946
 3048TIP3    H1 9150   5.638   3.610   3.942
 3048TIP3    H2 9151   5.719   3.707   4.025
 3049TIP3   OH2 9152   1.144   1.828   3.137
 3049TIP3    H1 9153   1.142   1.812   3.231
 3049TIP3    H2 9154   1.233   1.807   3.111
 3050TIP3   OH2 9155   4.453   1.010   3.660
 3050TIP3    H1 9156   4.411   0.938   3.708
 3050TIP3    H2 9157   4.419   1.002   3.571
 3051TIP3   OH2 9158   2.038   5.459   4.396
 3051TIP3    H1 9159   2.089   5.537   4.376
 3051TIP3    H2 9160   2.100   5.400   4.439
 3052TIP3   OH2 9161   4.047   0.139   0.615
 3052TIP3    H1 9162   3.999   0.056   0.613
 3052TIP3    H2 9163   3.979   0.205   0.628
 3053TIP3   OH2 9164   0.395   5.773   2.030
 3053TIP3    H1 9165   0.449   5.697   2.050
 3053TIP3    H2 9166   0.318   5.763   2.087
 3054TIP3   OH2 9167   0.959   0.587   3.307
 3054TIP3    H1 9168   0.970   0.542   3.391
 3054TIP3    H2 9169   0.983   0.521   3.242
 3055TIP3   OH2 9170   5.469   3.985  -0.030
 3055TIP3    H1 9171   5.563   3.982  -0.014
 3055TIP3    H2 9172   5.432   4.009   0.055
 3056TIP3   OH2 9173   2.789   0.329   3.328
 3056TIP3    H1 9174   2.815   0.266   3.261
 3056TIP3    H2 9175   2.869   0.346   3.378
 3057TIP3   OH2 9176   0.125   3.231   3.090
 3057TIP3    H1 9177   0.088   3.204   3.006
 3057TIP3    H2 9178   0.066   3.299   3.121
 3058TIP3   OH2 9179   5.885   5.607   5.206
 3058TIP3    H1 9180   5.847   5.695   5.201
 3058TIP3    H2 9181   5.936   5.599   5.125
 3059TIP3   OH2 9182   5.487   1.357   1.012
 3059TIP3    H1 9183   5.534   1.278   1.039
 3059TIP3    H2 9184   5.443   1.332   0.931
 3060TIP3   OH2 9185   5.681   5.553   1.660
 3060TIP3    H1 9186   5.693   5.543   1.754
 3060TIP3    H2 9187   5.755   5.607   1.632
 3061TIP3   OH2 9188   3.641   2.833   1.336
 3061TIP3    H1 9189   3.697   2.824   1.413
 3061TIP3    H2 9190   3.678   2.908   1.289
 3062TIP3   OH2 9191   2.432   2.364   1.753
 3062TIP3    H1 9192   2.432   2.310   1.833
 3062TIP3    H2 9193   2.361   2.427   1.768
 3063TIP3   OH2 9194   0.128   5.152   2.724
 3063TIP3    H1 9195   0.211   5.199   2.722
 3063TIP3    H2 9196   0.153   5.061   2.741
 3064TIP3   OH2 9197   4.541   3.709   4.940
 3064TIP3    H1 9198   4.603   3.782   4.938
 3064TIP3    H2 9199   4.537   3.685   5.033
 3065TIP3   OH2 9200   4.951   3.860   3.315
 3065TIP3    H1 9201   4.906   3.935   3.275
 3065TIP3    H2 9202   5.004   3.824   3.245
 3066TIP3   OH2 9203   1.953   5.729   1.161
 3066TIP3    H1 9204   1.878   5.671   1.177
 3066TIP3    H2 9205   2.013   5.677   1.108
 3067TIP3   OH2 9206   2.222   0.752   4.277
 3067TIP3    H1 9207   2.207   0.665   4.315
 3067TIP3    H2 9208   2.218   0.737   4.182
 3068TIP3   OH2 9209   3.371   1.316   4.653
 3068TIP3    H1 9210   3.386   1.410   4.642
 3068TIP3    H2 9211   3.408   1.296   4.739
 3069TIP3   OH2 9212   1.119   2.595   1.658
 3069TIP3    H1 9213   1.190   2.609   1.596
 3069TIP3    H2 9214   1.120   2.501   1.675
 3070TIP3   OH2 9215   2.604   2.803   4.649
 3070TIP3    H1 9216   2.561   2.721   4.624
 3070TIP3    H2 9217   2.598   2.858   4.571
 3071TIP3   OH2 9218   0.192   5.678   4.326
 3071TIP3    H1 9219   0.200   5.718   4.413
 3071TIP3    H2 9220   0.227   5.744   4.266
 3072TIP3   OH2 9221   3.295   0.040   1.803
 3072TIP3    H1 9222   3.347   0.024   1.724
 3072TIP3    H2 9223   3.246  -0.041   1.816
 3073TIP3   OH2 9224   5.798   3.288   5.158
 3073TIP3    H1 9225   5.881   3.245   5.181
 3073TIP3    H2 9226   5.737   3.216   5.144
 3074TIP3   OH2 9227   5.498   5.942   2.056
 3074TIP3    H1 9228   5.529   6.026   2.089
 3074TIP3    H2 9229   5.449   5.904   2.129
 3075TIP3   OH2 9230   1.887   2.741   0.211
 3075TIP3    H1 9231   1.822   2.687   0.257
 3075TIP3    H2 9232   1.971   2.712   0.246
 3076TIP3   OH2 9233   1.289   5.716   4.159
 3076TIP3    H1 9234   1.337   5.776   4.216
 3076TIP3    H2 9235   1.311   5.629   4.191
 3077TIP3   OH2 9236   3.258   3.312   2.047
 3077TIP3    H1 9237   3.342   3.359   2.043
 3077TIP3    H2 9238   3.234   3.313   2.140
 3078TIP3   OH2 9239   2.371   5.017   0.523
 3078TIP3    H1 9240   2.386   4.959   0.448
 3078TIP3    H2 9241   2.352   5.102   0.484
 3079TIP3   OH2 9242   5.889   4.094   3.223
 3079TIP3    H1 9243   5.884   4.093   3.319
 3079TIP3    H2 9244   5.809   4.050   3.194
 3080TIP3   OH2 9245   4.139   0.992   3.899
 3080TIP3    H1 9246   4.212   0.931   3.896
 3080TIP3    H2 9247   4.138   1.023   3.989
 3081TIP3   OH2 9248   4.914   0.822   2.221
 3081TIP3    H1 9249   5.008   0.842   2.222
 3081TIP3    H2 9250   4.879   0.871   2.295
 3082TIP3   OH2 9251   3.638   3.048   0.290
 3082TIP3    H1 9252   3.604   3.021   0.375
 3082TIP3    H2 9253   3.731   3.064   0.305
 3083TIP3   OH2 9254   1.176   1.818   3.903
 3083TIP3    H1 9255   1.256   1.769   3.885
 3083TIP3    H2 9256   1.198   1.909   3.881
 3084TIP3   OH2 9257   3.086   3.260   4.107
 3084TIP3    H1 9258   3.139   3.208   4.045
 3084TIP3    H2 9259   3.061   3.198   4.175
 3085TIP3   OH2 9260   3.274   1.700   4.782
 3085TIP3    H1 9261   3.199   1.696   4.723
 3085TIP3    H2 9262   3.264   1.624   4.839
 3086TIP3   OH2 9263   0.433   4.764   1.746
 3086TIP3    H1 9264   0.344   4.757   1.709
 3086TIP3    H2 9265   0.420   4.805   1.831
 3087TIP3   OH2 9266   3.493   1.923   0.872
 3087TIP3    H1 9267   3.580   1.953   0.845
 3087TIP3    H2 9268   3.442   2.004   0.883
 3088TIP3   OH2 9269   0.600   1.563   2.427
 3088TIP3    H1 9270   0.661   1.490   2.428
 3088TIP3    H2 9271   0.585   1.581   2.334
 3089TIP3   OH2 9272   3.286   0.796   2.664
 3089TIP3    H1 9273   3.349   0.848   2.714
 3089TIP3    H2 9274   3.276   0.843   2.581
 3090TIP3   OH2 9275   5.610   0.597   3.323
 3090TIP3    H1 9276   5.597   0.535   3.395
 3090TIP3    H2 9277   5.557   0.673   3.347
 3091TIP3   OH2 9278   3.497   0.825   1.052
 3091TIP3    H1 9279   3.511   0.823   1.146
 3091TIP3    H2 9280   3.559   0.762   1.017
 3092TIP3   OH2 9281   2.383   2.827   3.289
 3092TIP3    H1 9282   2.370   2.920   3.306
 3092TIP3    H2 9283   2.294   2.791   3.283
 3093TIP3   OH2 9284   4.890   4.024   1.217
 3093TIP3    H1 9285   4.803   3.993   1.242
 3093TIP3    H2 9286   4.922   4.071   1.294
 3094TIP3   OH2 9287   2.577   4.885   4.349
 3094TIP3    H1 9288   2.511   4.870   4.281
 3094TIP3    H2 9289   2.549   4.832   4.423
 3095TIP3   OH2 9290   0.416   3.079   2.377
 3095TIP3    H1 9291   0.486   3.030   2.333
 3095TIP3    H2 9292   0.455   3.104   2.461
 3096TIP3   OH2 9293   6.226   4.015   2.118
 3096TIP3    H1 9294   6.272   4.061   2.047
 3096TIP3    H2 9295   6.182   3.942   2.074
 3097TIP3   OH2 9296   3.745   2.984   3.922
 3097TIP3    H1 9297   3.810   2.918   3.943
 3097TIP3    H2 9298   3.783   3.066   3.953
 3098TIP3   OH2 9299   5.058   5.117   4.028
 3098TIP3    H1 9300   5.026   5.116   3.938
 3098TIP3    H2 9301   5.137   5.170   4.025
 3099TIP3   OH2 9302   2.018   2.782   3.424
 3099TIP3    H1 9303   2.069   2.719   3.373
 3099TIP3    H2 9304   1.981   2.841   3.358
 3100TIP3   OH2 9305   5.190   3.224   1.549
 3100TIP3    H1 9306   5.198   3.158   1.618
 3100TIP3    H2 9307   5.207   3.177   1.468
 3101TIP3   OH2 9308   1.146   0.855   4.200
 3101TIP3    H1 9309   1.140   0.763   4.174
 3101TIP3    H2 9310   1.200   0.854   4.279
 3102TIP3   OH2 9311   3.621   4.363   2.809
 3102TIP3    H1 9312   3.709   4.352   2.773
 3102TIP3    H2 9313   3.635   4.403   2.895
 3103TIP3   OH2 9314   3.062   3.985   2.005
 3103TIP3    H1 9315   3.050   3.890   2.002
 3103TIP3    H2 9316   3.128   3.998   2.073
 3104TIP3   OH2 9317   4.963   4.464   3.147
 3104TIP3    H1 9318   4.937   4.465   3.055
 3104TIP3    H2 9319   5.013   4.383   3.158
 3105TIP3   OH2 9320   2.762   0.958   4.874
 3105TIP3    H1 9321   2.789   0.913   4.954
 3105TIP3    H2 9322   2.750   0.888   4.810
 3106TIP3   OH2 9323   1.645   0.374   0.235
 3106TIP3    H1 9324   1.661   0.326   0.316
 3106TIP3    H2 9325   1.710   0.340   0.173
 3107TIP3   OH2 9326   4.872   3.829   4.679
 3107TIP3    H1 9327   4.911   3.751   4.717
 3107TIP3    H2 9328   4.943   3.893   4.678
 3108TIP3   OH2 9329   0.473   4.437   3.374
 3108TIP3    H1 9330   0.450   4.516   3.423
 3108TIP3    H2 9331   0.428   4.447   3.290
 3109TIP3   OH2 9332   3.671   0.645   4.093
 3109TIP3    H1 9333   3.677   0.717   4.155
 3109TIP3    H2 9334   3.757   0.605   4.093
 3110TIP3   OH2 9335   4.753   5.076   0.757
 3110TIP3    H1 9336   4.785   4.986   0.748
 3110TIP3    H2 9337   4.795   5.108   0.836
 3111TIP3   OH2 9338   3.910   4.417   3.114
 3111TIP3    H1 9339   3.980   4.480   3.134
 3111TIP3    H2 9340   3.947   4.333   3.140
 3112TIP3   OH2 9341   0.437   0.721   3.914
 3112TIP3    H1 9342   0.441   0.789   3.982
 3112TIP3    H2 9343   0.381   0.653   3.951
 3113TIP3   OH2 9344   5.940   1.638   1.375
 3113TIP3    H1 9345   5.923   1.598   1.290
 3113TIP3    H2 9346   5.965   1.565   1.431
 3114TIP3   OH2 9347   6.123   0.344   3.610
 3114TIP3    H1 9348   6.099   0.427   3.568
 3114TIP3    H2 9349   6.103   0.277   3.545
 3115TIP3   OH2 9350   2.823   2.063   4.717
 3115TIP3    H1 9351   2.845   2.007   4.792
 3115TIP3    H2 9352   2.746   2.021   4.678
 3116TIP3   OH2 9353   4.936   0.305   4.641
 3116TIP3    H1 9354   4.992   0.313   4.718
 3116TIP3    H2 9355   4.994   0.274   4.572
 3117TIP3   OH2 9356   0.940   5.324   4.377
 3117TIP3    H1 9357   0.896   5.269   4.313
 3117TIP3    H2 9358   0.974   5.263   4.443
 3118TIP3   OH2 9359   2.700   3.502   1.105
 3118TIP3    H1 9360   2.645   3.448   1.162
 3118TIP3    H2 9361   2.642   3.571   1.073
 3119TIP3   OH2 9362   2.168   3.864   1.322
 3119TIP3    H1 9363   2.169   3.929   1.392
 3119TIP3    H2 9364   2.127   3.787   1.361
 3120TIP3   OH2 9365   4.570   2.220   3.806
 3120TIP3    H1 9366   4.529   2.134   3.793
 3120TIP3    H2 9367   4.626   2.209   3.883
 3121TIP3   OH2 9368   1.030   0.341   1.119
 3121TIP3    H1 9369   0.943   0.337   1.079
 3121TIP3    H2 9370   1.036   0.430   1.155
 3122TIP3   OH2 9371   0.759   1.812   3.741
 3122TIP3    H1 9372   0.779   1.826   3.648
 3122TIP3    H2 9373   0.665   1.828   3.748
 3123TIP3   OH2 9374   4.360   1.473   1.180
 3123TIP3    H1 9375   4.313   1.399   1.142
 3123TIP3    H2 9376   4.428   1.432   1.234
 3124TIP3   OH2 9377   3.151   5.657   1.497
 3124TIP3    H1 9378   3.188   5.712   1.567
 3124TIP3    H2 9379   3.173   5.568   1.523
 3125TIP3   OH2 9380   5.753   4.016   2.632
 3125TIP3    H1 9381   5.736   3.962   2.709
 3125TIP3    H2 9382   5.692   4.089   2.640
 3126TIP3   OH2 9383   1.374   3.191   4.023
 3126TIP3    H1 9384   1.290   3.154   3.995
 3126TIP3    H2 9385   1.389   3.155   4.110
 3127TIP3   OH2 9386   5.103   2.360   1.660
 3127TIP3    H1 9387   5.139   2.447   1.677
 3127TIP3    H2 9388   5.170   2.316   1.607
 3128TIP3   OH2 9389   0.876   3.039   1.164
 3128TIP3    H1 9390   0.863   3.000   1.078
 3128TIP3    H2 9391   0.936   2.980   1.209
 3129TIP3   OH2 9392   3.354   0.698   2.187
 3129TIP3    H1 9393   3.348   0.635   2.115
 3129TIP3    H2 9394   3.364   0.782   2.144
 3130TIP3   OH2 9395   4.906   1.122   4.700
 3130TIP3    H1 9396   4.983   1.099   4.648
 3130TIP3    H2 9397   4.892   1.046   4.757
 3131TIP3   OH2 9398   1.640   3.838   4.260
 3131TIP3    H1 9399   1.567   3.781   4.238
 3131TIP3    H2 9400   1.679   3.798   4.338
 3132TIP3   OH2 9401   3.457   5.725   1.625
 3132TIP3    H1 9402   3.415   5.709   1.710
 3132TIP3    H2 9403   3.536   5.774   1.646
 3133TIP3   OH2 9404   1.042   2.895   3.258
 3133TIP3    H1 9405   1.011   2.816   3.302
 3133TIP3    H2 9406   1.106   2.933   3.318
 3134TIP3   OH2 9407   3.116   5.974   2.277
 3134TIP3    H1 9408   3.035   5.983   2.326
 3134TIP3    H2 9409   3.104   5.894   2.225
 3135TIP3   OH2 9410   4.147   2.623   2.175
 3135TIP3    H1 9411   4.208   2.686   2.212
 3135TIP3    H2 9412   4.198   2.572   2.112
 3136TIP3   OH2 9413   5.630   0.035   4.510
 3136TIP3    H1 9414   5.614   0.096   4.438
 3136TIP3    H2 9415   5.649   0.091   4.585
 3137TIP3   OH2 9416   3.128   5.668   1.938
 3137TIP3    H1 9417   3.107   5.699   2.026
 3137TIP3    H2 9418   3.054   5.612   1.915
 3138TIP3   OH2 9419   0.867   3.191   3.540
 3138TIP3    H1 9420   0.882   3.174   3.447
 3138TIP3    H2 9421   0.850   3.285   3.545
 3139TIP3   OH2 9422   0.562   4.182   4.058
 3139TIP3    H1 9423   0.617   4.129   4.115
 3139TIP3    H2 9424   0.496   4.121   4.024
 3140TIP3   OH2 9425   4.629   5.540   0.528
 3140TIP3    H1 9426   4.681   5.526   0.607
 3140TIP3    H2 9427   4.650   5.466   0.471
 3141TIP3   OH2 9428   5.107   3.650   3.685
 3141TIP3    H1 9429   5.134   3.666   3.595
 3141TIP3    H2 9430   5.179   3.684   3.738
 3142TIP3   OH2 9431   5.528   0.941   2.534
 3142TIP3    H1 9432   5.490   0.901   2.456
 3142TIP3    H2 9433   5.580   1.014   2.500
 3143TIP3   OH2 9434   2.262   5.677   2.704
 3143TIP3    H1 9435   2.315   5.752   2.730
 3143TIP3    H2 9436   2.259   5.682   2.608
 3144TIP3   OH2 9437   3.024   2.572   3.520
 3144TIP3    H1 9438   3.018   2.527   3.604
 3144TIP3    H2 9439   3.085   2.645   3.536
 3145TIP3   OH2 9440   2.152   0.578   2.478
 3145TIP3    H1 9441   2.116   0.651   2.528
 3145TIP3    H2 9442   2.175   0.512   2.543
 3146TIP3   OH2 9443   4.214   5.340   0.644
 3146TIP3    H1 9444   4.298   5.314   0.682
 3146TIP3    H2 9445   4.197   5.277   0.574
 3147TIP3   OH2 9446   3.483   0.603   4.958
 3147TIP3    H1 9447   3.414   0.553   4.913
 3147TIP3    H2 9448   3.442   0.688   4.975
 3148TIP3   OH2 9449   1.569   0.269   2.166
 3148TIP3    H1 9450   1.625   0.324   2.221
 3148TIP3    H2 9451   1.623   0.194   2.143
 3149TIP3   OH2 9452   2.524   4.752   4.590
 3149TIP3    H1 9453   2.531   4.734   4.684
 3149TIP3    H2 9454   2.430   4.765   4.576
 3150TIP3   OH2 9455   5.855   0.647   2.587
 3150TIP3    H1 9456   5.819   0.718   2.534
 3150TIP3    H2 9457   5.948   0.669   2.596
 3151TIP3   OH2 9458   0.042   5.104   4.930
 3151TIP3    H1 9459   0.013   5.149   5.010
 3151TIP3    H2 9460   0.017   5.013   4.943
 3152TIP3   OH2 9461   3.044   0.923   4.723
 3152TIP3    H1 9462   3.007   0.976   4.653
 3152TIP3    H2 9463   3.054   0.984   4.796
 3153TIP3   OH2 9464   0.925   1.436   5.154
 3153TIP3    H1 9465   0.913   1.419   5.247
 3153TIP3    H2 9466   1.020   1.450   5.145
 3154TIP3   OH2 9467   0.026   0.365   3.760
 3154TIP3    H1 9468   0.110   0.361   3.713
 3154TIP3    H2 9469  -0.039   0.337   3.695
 3155TIP3   OH2 9470   1.761   5.485   0.731
 3155TIP3    H1 9471   1.848   5.508   0.699
 3155TIP3    H2 9472   1.775   5.405   0.782
 3156TIP3   OH2 9473   0.960   4.493   0.629
 3156TIP3    H1 9474   0.951   4.539   0.545
 3156TIP3    H2 9475   1.031   4.539   0.673
 3157TIP3   OH2 9476   5.390   4.257   4.938
 3157TIP3    H1 9477   5.393   4.306   4.856
 3157TIP3    H2 9478   5.409   4.321   5.006
 3158TIP3   OH2 9479   4.125   5.147   5.107
 3158TIP3    H1 9480   4.055   5.136   5.171
 3158TIP3    H2 9481   4.146   5.240   5.109
 3159TIP3   OH2 9482   2.771   3.095   1.554
 3159TIP3    H1 9483   2.723   3.013   1.554
 3159TIP3    H2 9484   2.811   3.100   1.467
 3160TIP3   OH2 9485   5.485   3.394   5.181
 3160TIP3    H1 9486   5.505   3.318   5.126
 3160TIP3    H2 9487   5.560   3.400   5.241
 3161TIP3   OH2 9488   2.535   2.328   0.884
 3161TIP3    H1 9489   2.469   2.321   0.953
 3161TIP3    H2 9490   2.506   2.402   0.830
 3162TIP3   OH2 9491   6.097   1.021   0.350
 3162TIP3    H1 9492   6.181   1.018   0.395
 3162TIP3    H2 9493   6.072   1.113   0.353
 3163TIP3   OH2 9494   4.723   2.873   2.677
 3163TIP3    H1 9495   4.703   2.965   2.657
 3163TIP3    H2 9496   4.792   2.878   2.743
 3164TIP3   OH2 9497   5.877   1.042   3.996
 3164TIP3    H1 9498   5.875   0.958   3.952
 3164TIP3    H2 9499   5.792   1.082   3.977
 3165TIP3   OH2 9500   6.309   3.887   3.633
 3165TIP3    H1 9501   6.229   3.856   3.590
 3165TIP3    H2 9502   6.354   3.938   3.565
 3166TIP3   OH2 9503   1.013   5.212   4.077
 3166TIP3    H1 9504   0.971   5.298   4.074
 3166TIP3    H2 9505   0.940   5.149   4.077
 3167TIP3   OH2 9506   1.005   0.231   1.387
 3167TIP3    H1 9507   1.019   0.241   1.293
 3167TIP3    H2 9508   1.087   0.194   1.420
 3168TIP3   OH2 9509   2.215   4.412   2.931
 3168TIP3    H1 9510   2.191   4.319   2.931
 3168TIP3    H2 9511   2.174   4.447   2.852
 3169TIP3   OH2 9512   5.442   4.860   3.117
 3169TIP3    H1 9513   5.416   4.786   3.062
 3169TIP3    H2 9514   5.500   4.913   3.062
 3170TIP3   OH2 9515   4.631   5.661   1.206
 3170TIP3    H1 9516   4.662   5.720   1.137
 3170TIP3    H2 9517   4.711   5.619   1.239
 3171TIP3   OH2 9518   6.291   4.010   2.588
 3171TIP3    H1 9519   6.337   3.941   2.540
 3171TIP3    H2 9520   6.239   4.056   2.521
 3172TIP3   OH2 9521   0.293   1.268   0.699
 3172TIP3    H1 9522   0.295   1.330   0.625
 3172TIP3    H2 9523   0.297   1.182   0.658
 3173TIP3   OH2 9524   1.055   1.387   3.374
 3173TIP3    H1 9525   1.020   1.297   3.373
 3173TIP3    H2 9526   0.979   1.441   3.395
 3174TIP3   OH2 9527   3.559   4.248   3.698
 3174TIP3    H1 9528   3.571   4.203   3.615
 3174TIP3    H2 9529   3.497   4.318   3.679
 3175TIP3   OH2 9530   0.886   1.301   4.830
 3175TIP3    H1 9531   0.938   1.314   4.909
 3175TIP3    H2 9532   0.916   1.216   4.796
 3176TIP3   OH2 9533   0.438   0.607   5.024
 3176TIP3    H1 9534   0.455   0.538   5.089
 3176TIP3    H2 9535   0.499   0.677   5.046
 3177TIP3   OH2 9536   1.098   5.210   0.543
 3177TIP3    H1 9537   1.112   5.259   0.462
 3177TIP3    H2 9538   1.026   5.256   0.587
 3178TIP3   OH2 9539   0.603   0.547   3.296
 3178TIP3    H1 9540   0.609   0.470   3.240
 3178TIP3    H2 9541   0.670   0.606   3.264
 3179TIP3   OH2 9542   2.825   5.137   0.060
 3179TIP3    H1 9543   2.812   5.121  -0.033
 3179TIP3    H2 9544   2.917   5.113   0.075
 3180TIP3   OH2 9545   4.812   4.569   0.925
 3180TIP3    H1 9546   4.730   4.540   0.967
 3180TIP3    H2 9547   4.856   4.487   0.900
 3181TIP3   OH2 9548   0.527   0.914   1.386
 3181TIP3    H1 9549   0.535   0.844   1.451
 3181TIP3    H2 9550   0.514   0.994   1.438
 3182TIP3   OH2 9551   0.072   4.052   5.069
 3182TIP3    H1 9552   0.044   4.071   5.159
 3182TIP3    H2 9553   0.119   3.969   5.077
 3183TIP3   OH2 9554   0.283   5.336   0.715
 3183TIP3    H1 9555   0.343   5.291   0.774
 3183TIP3    H2 9556   0.201   5.286   0.722
 3184TIP3   OH2 9557   1.847   4.570   4.298
 3184TIP3    H1 9558   1.929   4.521   4.297
 3184TIP3    H2 9559   1.793   4.528   4.230
 3185TIP3   OH2 9560   6.205   4.371   3.372
 3185TIP3    H1 9561   6.208   4.424   3.293
 3185TIP3    H2 9562   6.146   4.419   3.431
 3186TIP3   OH2 9563   1.306   1.584   0.588
 3186TIP3    H1 9564   1.309   1.489   0.580
 3186TIP3    H2 9565   1.226   1.602   0.637
 3187TIP3   OH2 9566   3.166   4.481   0.722
 3187TIP3    H1 9567   3.115   4.540   0.777
 3187TIP3    H2 9568   3.228   4.438   0.782
 3188TIP3   OH2 9569   0.030   4.278   1.666
 3188TIP3    H1 9570   0.105   4.327   1.702
 3188TIP3    H2 9571   0.015   4.318   1.580
 3189TIP3   OH2 9572   6.007   1.792   0.161
 3189TIP3    H1 9573   6.102   1.789   0.178
 3189TIP3    H2 9574   5.990   1.715   0.107
 3190TIP3   OH2 9575   0.458   0.106   4.801
 3190TIP3    H1 9576   0.477   0.199   4.786
 3190TIP3    H2 9577   0.443   0.099   4.895
 3191TIP3   OH2 9578   2.397   3.176   0.294
 3191TIP3    H1 9579   2.459   3.106   0.275
 3191TIP3    H2 9580   2.345   3.184   0.214
 3192TIP3   OH2 9581   3.001   2.298   2.355
 3192TIP3    H1 9582   3.006   2.204   2.375
 3192TIP3    H2 9583   3.038   2.341   2.432
 3193TIP3   OH2 9584   0.232   0.115   1.857
 3193TIP3    H1 9585   0.263   0.024   1.860
 3193TIP3    H2 9586   0.255   0.151   1.942
 3194TIP3   OH2 9587   0.359   0.317   3.774
 3194TIP3    H1 9588   0.334   0.235   3.730
 3194TIP3    H2 9589   0.410   0.365   3.708
 3195TIP3   OH2 9590   5.526   0.163   1.452
 3195TIP3    H1 9591   5.445   0.113   1.450
 3195TIP3    H2 9592   5.501   0.248   1.489
 3196TIP3   OH2 9593   3.899   5.266   2.430
 3196TIP3    H1 9594   3.920   5.359   2.434
 3196TIP3    H2 9595   3.868   5.243   2.518
 3197TIP3   OH2 9596   0.268   1.941   0.520
 3197TIP3    H1 9597   0.179   1.924   0.552
 3197TIP3    H2 9598   0.306   1.854   0.508
 3198TIP3   OH2 9599   2.038   1.444   0.899
 3198TIP3    H1 9600   1.989   1.520   0.869
 3198TIP3    H2 9601   2.035   1.450   0.994
 3199TIP3   OH2 9602   3.369   2.590   1.514
 3199TIP3    H1 9603   3.353   2.548   1.599
 3199TIP3    H2 9604   3.289   2.577   1.465
 3200TIP3   OH2 9605   0.737   3.167   3.970
 3200TIP3    H1 9606   0.655   3.212   3.949
 3200TIP3    H2 9607   0.796   3.237   3.998
 3201TIP3   OH2 9608   4.444   1.275   4.296
 3201TIP3    H1 9609   4.530   1.284   4.337
 3201TIP3    H2 9610   4.453   1.321   4.212
 3202TIP3   OH2 9611   5.950   1.580   4.469
 3202TIP3    H1 9612   5.985   1.495   4.443
 3202TIP3    H2 9613   5.861   1.562   4.497
 3203TIP3   OH2 9614   0.464   1.533   4.774
 3203TIP3    H1 9615   0.378   1.527   4.815
 3203TIP3    H2 9616   0.480   1.626   4.763
 3204TIP3   OH2 9617   2.392   5.343   4.709
 3204TIP3    H1 9618   2.305   5.314   4.684
 3204TIP3    H2 9619   2.448   5.267   4.693
 3205TIP3   OH2 9620   2.795   5.886   1.813
 3205TIP3    H1 9621   2.799   5.806   1.865
 3205TIP3    H2 9622   2.733   5.866   1.743
 3206TIP3   OH2 9623   5.233   3.829   0.006
 3206TIP3    H1 9624   5.299   3.889  -0.028
 3206TIP3    H2 9625   5.276   3.786   0.081
 3207TIP3   OH2 9626   1.363   0.005   3.006
 3207TIP3    H1 9627   1.304   0.002   3.081
 3207TIP3    H2 9628   1.310   0.047   2.937
 3208TIP3   OH2 9629   5.946   4.538   2.920
 3208TIP3    H1 9630   6.030   4.560   2.880
 3208TIP3    H2 9631   5.924   4.614   2.974
 3209TIP3   OH2 9632   5.116   4.580   3.929
 3209TIP3    H1 9633   5.091   4.564   3.838
 3209TIP3    H2 9634   5.160   4.665   3.927
 3210TIP3   OH2 9635   0.171   4.074   1.255
 3210TIP3    H1 9636   0.131   4.047   1.173
 3210TIP3    H2 9637   0.243   4.012   1.268
 3211TIP3   OH2 9638   2.670   2.137   2.922
 3211TIP3    H1 9639   2.719   2.102   2.996
 3211TIP3    H2 9640   2.666   2.065   2.859
 3212TIP3   OH2 9641   3.207   1.486   4.946
 3212TIP3    H1 9642   3.118   1.497   4.979
 3212TIP3    H2 9643   3.258   1.463   5.023
 3213TIP3   OH2 9644   4.363   1.914   1.675
 3213TIP3    H1 9645   4.303   1.979   1.638
 3213TIP3    H2 9646   4.396   1.866   1.599
 3214TIP3   OH2 9647   4.090   1.663   3.336
 3214TIP3    H1 9648   4.004   1.685   3.371
 3214TIP3    H2 9649   4.076   1.654   3.242
 3215TIP3   OH2 9650   2.311   1.629   1.491
 3215TIP3    H1 9651   2.300   1.543   1.530
 3215TIP3    H2 9652   2.403   1.650   1.503
 3216TIP3   OH2 9653   1.908   1.380   4.167
 3216TIP3    H1 9654   1.932   1.461   4.121
 3216TIP3    H2 9655   1.817   1.394   4.194
 3217TIP3   OH2 9656   1.218   3.124   1.303
 3217TIP3    H1 9657   1.226   3.053   1.368
 3217TIP3    H2 9658   1.138   3.170   1.328
 3218TIP3   OH2 9659   1.441   4.545   0.136
 3218TIP3    H1 9660   1.497   4.493   0.192
 3218TIP3    H2 9661   1.497   4.616   0.104
 3219TIP3   OH2 9662   1.812   2.908   3.765
 3219TIP3    H1 9663   1.756   2.985   3.749
 3219TIP3    H2 9664   1.750   2.838   3.787
 3220TIP3   OH2 9665   0.069   1.999   2.349
 3220TIP3    H1 9666   0.119   2.042   2.280
 3220TIP3    H2 9667   0.001   1.951   2.302
 3221TIP3   OH2 9668   3.345   0.465   0.572
 3221TIP3    H1 9669   3.346   0.507   0.487
 3221TIP3    H2 9670   3.259   0.484   0.608
 3222TIP3   OH2 9671   5.701   0.088   3.514
 3222TIP3    H1 9672   5.680  -0.005   3.527
 3222TIP3    H2 9673   5.626   0.124   3.468
 3223TIP3   OH2 9674   2.887   3.194   0.621
 3223TIP3    H1 9675   2.883   3.272   0.675
 3223TIP3    H2 9676   2.826   3.211   0.549
 3224TIP3   OH2 9677   1.510   3.066   0.813
 3224TIP3    H1 9678   1.593   3.063   0.861
 3224TIP3    H2 9679   1.452   3.009   0.862
 3225TIP3   OH2 9680   4.153   5.222   3.974
 3225TIP3    H1 9681   4.105   5.207   3.892
 3225TIP3    H2 9682   4.084   5.229   4.041
 3226TIP3   OH2 9683   0.411   3.229   5.166
 3226TIP3    H1 9684   0.338   3.227   5.229
 3226TIP3    H2 9685   0.436   3.137   5.157
 3227TIP3   OH2 9686   1.097   5.334   1.338
 3227TIP3    H1 9687   1.096   5.273   1.412
 3227TIP3    H2 9688   1.157   5.403   1.366
 3228TIP3   OH2 9689   2.076   5.753   3.261
 3228TIP3    H1 9690   2.101   5.708   3.181
 3228TIP3    H2 9691   2.116   5.840   3.253
 3229TIP3   OH2 9692   3.063   5.460   2.979
 3229TIP3    H1 9693   3.017   5.518   3.040
 3229TIP3    H2 9694   3.102   5.392   3.034
 3230TIP3   OH2 9695   5.952   1.019   3.673
 3230TIP3    H1 9696   5.894   0.943   3.685
 3230TIP3    H2 9697   5.909   1.069   3.603
 3231TIP3   OH2 9698   4.140   4.014   0.890
 3231TIP3    H1 9699   4.139   4.015   0.794
 3231TIP3    H2 9700   4.108   3.927   0.913
 3232TIP3   OH2 9701   2.285   1.556   0.258
 3232TIP3    H1 9702   2.239   1.625   0.305
 3232TIP3    H2 9703   2.276   1.579   0.166
 3233TIP3   OH2 9704   5.445   1.625   0.893
 3233TIP3    H1 9705   5.447   1.551   0.953
 3233TIP3    H2 9706   5.390   1.596   0.820
 3234TIP3   OH2 9707   1.213   3.691   4.410
 3234TIP3    H1 9708   1.206   3.779   4.447
 3234TIP3    H2 9709   1.126   3.653   4.419
 3235TIP3   OH2 9710   1.497   0.271   4.714
 3235TIP3    H1 9711   1.527   0.298   4.801
 3235TIP3    H2 9712   1.464   0.182   4.727
 3236TIP3   OH2 9713   1.340   5.018   3.787
 3236TIP3    H1 9714   1.330   5.019   3.692
 3236TIP3    H2 9715   1.296   5.098   3.816
 3237TIP3   OH2 9716   3.227   3.177   4.536
 3237TIP3    H1 9717   3.265   3.257   4.572
 3237TIP3    H2 9718   3.299   3.113   4.538
 3238TIP3   OH2 9719   3.189   3.203   1.406
 3238TIP3    H1 9720   3.244   3.137   1.365
 3238TIP3    H2 9721   3.228   3.217   1.492
 3239TIP3   OH2 9722   3.654   4.322   1.176
 3239TIP3    H1 9723   3.637   4.360   1.090
 3239TIP3    H2 9724   3.686   4.396   1.228
 3240TIP3   OH2 9725   4.879   1.785   1.903
 3240TIP3    H1 9726   4.908   1.749   1.819
 3240TIP3    H2 9727   4.814   1.723   1.935
 3241TIP3   OH2 9728   1.918   2.213   3.868
 3241TIP3    H1 9729   2.008   2.219   3.900
 3241TIP3    H2 9730   1.927   2.198   3.774
 3242TIP3   OH2 9731   0.748   2.951   0.410
 3242TIP3    H1 9732   0.668   2.979   0.454
 3242TIP3    H2 9733   0.749   3.000   0.328
 3243TIP3   OH2 9734   6.163   0.742   4.488
 3243TIP3    H1 9735   6.170   0.722   4.582
 3243TIP3    H2 9736   6.241   0.796   4.470
 3244TIP3   OH2 9737   0.240   3.020   2.162
 3244TIP3    H1 9738   0.287   3.059   2.089
 3244TIP3    H2 9739   0.302   3.024   2.235
 3245TIP3   OH2 9740   2.092   0.237   4.420
 3245TIP3    H1 9741   2.027   0.238   4.351
 3245TIP3    H2 9742   2.045   0.205   4.497
 3246TIP3   OH2 9743   0.360   4.011   3.847
 3246TIP3    H1 9744   0.359   4.003   3.751
 3246TIP3    H2 9745   0.288   4.071   3.867
 3247TIP3   OH2 9746   1.532   4.225   0.340
 3247TIP3    H1 9747   1.467   4.155   0.346
 3247TIP3    H2 9748   1.556   4.244   0.431
 3248TIP3   OH2 9749   5.339   5.901   2.914
 3248TIP3    H1 9750   5.343   5.996   2.899
 3248TIP3    H2 9751   5.249   5.886   2.944
 3249TIP3   OH2 9752   5.618   3.330   1.802
 3249TIP3    H1 9753   5.687   3.393   1.778
 3249TIP3    H2 9754   5.660   3.272   1.865
 3250TIP3   OH2 9755   3.536   2.695   3.764
 3250TIP3    H1 9756   3.625   2.661   3.758
 3250TIP3    H2 9757   3.486   2.623   3.804
 3251TIP3   OH2 9758   1.408   0.129   3.631
 3251TIP3    H1 9759   1.460   0.060   3.589
 3251TIP3    H2 9760   1.387   0.190   3.560
 3252TIP3   OH2 9761   1.444   4.738   4.901
 3252TIP3    H1 9762   1.519   4.700   4.854
 3252TIP3    H2 9763   1.377   4.748   4.833
 3253TIP3   OH2 9764   5.997   0.702   3.652
 3253TIP3    H1 9765   6.056   0.714   3.726
 3253TIP3    H2 9766   5.909   0.716   3.688
 3254TIP3   OH2 9767   2.006   0.989   2.301
 3254TIP3    H1 9768   2.031   0.931   2.373
 3254TIP3    H2 9769   1.931   1.038   2.334
 3255TIP3   OH2 9770   4.763   0.929   0.414
 3255TIP3    H1 9771   4.762   0.841   0.375
 3255TIP3    H2 9772   4.850   0.963   0.392
 3256TIP3   OH2 9773   2.351   5.468   0.683
 3256TIP3    H1 9774   2.437   5.455   0.722
 3256TIP3    H2 9775   2.311   5.537   0.735
 3257TIP3   OH2 9776   3.045   3.469   3.206
 3257TIP3    H1 9777   3.110   3.447   3.273
 3257TIP3    H2 9778   3.087   3.537   3.154
 3258TIP3   OH2 9779   0.288   3.443   4.161
 3258TIP3    H1 9780   0.219   3.507   4.145
 3258TIP3    H2 9781   0.245   3.373   4.210
 3259TIP3   OH2 9782   6.091   3.081   0.077
 3259TIP3    H1 9783   6.156   3.149   0.098
 3259TIP3    H2 9784   6.039   3.073   0.157
 3260TIP3   OH2 9785   1.832   1.021   3.700
 3260TIP3    H1 9786   1.826   0.944   3.644
 3260TIP3    H2 9787   1.791   0.994   3.782
 3261TIP3   OH2 9788   0.176   0.158   0.276
 3261TIP3    H1 9789   0.103   0.097   0.290
 3261TIP3    H2 9790   0.141   0.244   0.298
 3262TIP3   OH2 9791   3.760   4.573   0.440
 3262TIP3    H1 9792   3.786   4.537   0.356
 3262TIP3    H2 9793   3.782   4.666   0.435
 3263TIP3   OH2 9794   0.052   4.798   2.418
 3263TIP3    H1 9795   0.009   4.736   2.360
 3263TIP3    H2 9796   0.004   4.791   2.501
 3264TIP3   OH2 9797   3.590   3.443   3.282
 3264TIP3    H1 9798   3.641   3.363   3.289
 3264TIP3    H2 9799   3.623   3.499   3.352
 3265TIP3   OH2 9800   3.160   4.420   1.645
 3265TIP3    H1 9801   3.109   4.358   1.698
 3265TIP3    H2 9802   3.127   4.408   1.556
 3266TIP3   OH2 9803   5.634   5.232   0.139
 3266TIP3    H1 9804   5.654   5.180   0.061
 3266TIP3    H2 9805   5.671   5.182   0.212
 3267TIP3   OH2 9806   3.796   4.357   1.586
 3267TIP3    H1 9807   3.785   4.428   1.649
 3267TIP3    H2 9808   3.713   4.309   1.588
 3268TIP3   OH2 9809   2.843   4.822   0.787
 3268TIP3    H1 9810   2.862   4.914   0.771
 3268TIP3    H2 9811   2.793   4.794   0.711
 3269TIP3   OH2 9812   4.530   1.529   5.138
 3269TIP3    H1 9813   4.532   1.621   5.165
 3269TIP3    H2 9814   4.527   1.480   5.221
 3270TIP3   OH2 9815   2.892   3.767   3.708
 3270TIP3    H1 9816   2.805   3.764   3.670
 3270TIP3    H2 9817   2.919   3.675   3.713
 3271TIP3   OH2 9818   4.288   5.026   1.104
 3271TIP3    H1 9819   4.324   5.112   1.082
 3271TIP3    H2 9820   4.318   5.010   1.194
 3272TIP3   OH2 9821   3.173   5.093   2.048
 3272TIP3    H1 9822   3.188   5.006   2.011
 3272TIP3    H2 9823   3.078   5.102   2.053
 3273TIP3   OH2 9824   0.729   0.360   4.281
 3273TIP3    H1 9825   0.804   0.352   4.223
 3273TIP3    H2 9826   0.763   0.338   4.368
 3274TIP3   OH2 9827   3.533   0.073   2.968
 3274TIP3    H1 9828   3.452   0.124   2.979
 3274TIP3    H2 9829   3.528   0.007   3.037
 3275TIP3   OH2 9830   4.410   5.921   5.147
 3275TIP3    H1 9831   4.353   5.997   5.157
 3275TIP3    H2 9832   4.350   5.846   5.153
 3276TIP3   OH2 9833   1.949   3.116   2.252
 3276TIP3    H1 9834   1.925   3.041   2.307
 3276TIP3    H2 9835   1.887   3.184   2.277
 3277TIP3   OH2 9836   2.634   2.980   4.361
 3277TIP3    H1 9837   2.585   3.014   4.286
 3277TIP3    H2 9838   2.692   2.913   4.324
 3278TIP3   OH2 9839   4.173   5.148   0.377
 3278TIP3    H1 9840   4.243   5.094   0.415
 3278TIP3    H2 9841   4.208   5.175   0.292
 3279TIP3   OH2 9842   3.092   3.434   1.368
 3279TIP3    H1 9843   3.117   3.349   1.404
 3279TIP3    H2 9844   3.165   3.457   1.310
 3280TIP3   OH2 9845   5.930   5.624   2.883
 3280TIP3    H1 9846   5.924   5.648   2.790
 3280TIP3    H2 9847   5.872   5.549   2.892
 3281TIP3   OH2 9848   0.708   4.445   0.239
 3281TIP3    H1 9849   0.795   4.403   0.239
 3281TIP3    H2 9850   0.658   4.395   0.175
 3282TIP3   OH2 9851   1.185   2.175   1.191
 3282TIP3    H1 9852   1.184   2.121   1.270
 3282TIP3    H2 9853   1.277   2.177   1.165
 3283TIP3   OH2 9854   0.876   2.442   4.609
 3283TIP3    H1 9855   0.912   2.354   4.603
 3283TIP3    H2 9856   0.822   2.452   4.531
 3284TIP3   OH2 9857   6.082   5.026   0.241
 3284TIP3    H1 9858   5.989   5.047   0.235
 3284TIP3    H2 9859   6.090   4.941   0.198
 3285TIP3   OH2 9860   5.326   4.040   1.078
 3285TIP3    H1 9861   5.253   3.990   1.114
 3285TIP3    H2 9862   5.384   3.975   1.039
 3286TIP3   OH2 9863   1.065   0.303   1.711
 3286TIP3    H1 9864   1.081   0.219   1.670
 3286TIP3    H2 9865   1.079   0.367   1.641
 3287TIP3   OH2 9866   3.007   3.306   4.521
 3287TIP3    H1 9867   3.070   3.236   4.501
 3287TIP3    H2 9868   2.925   3.259   4.538
 3288TIP3   OH2 9869   0.619   3.374   1.703
 3288TIP3    H1 9870   0.659   3.306   1.649
 3288TIP3    H2 9871   0.628   3.455   1.653
 3289TIP3   OH2 9872   1.096   4.578   3.250
 3289TIP3    H1 9873   1.095   4.483   3.243
 3289TIP3    H2 9874   1.017   4.606   3.205
 3290TIP3   OH2 9875   4.692   1.248   5.050
 3290TIP3    H1 9876   4.677   1.342   5.036
 3290TIP3    H2 9877   4.606   1.214   5.075
 3291TIP3   OH2 9878   5.946   4.782   4.556
 3291TIP3    H1 9879   6.033   4.748   4.539
 3291TIP3    H2 9880   5.935   4.775   4.651
 3292TIP3   OH2 9881   6.105   5.675   3.317
 3292TIP3    H1 9882   6.155   5.747   3.356
 3292TIP3    H2 9883   6.081   5.707   3.230
 3293TIP3   OH2 9884   2.725   4.833   2.141
 3293TIP3    H1 9885   2.778   4.844   2.220
 3293TIP3    H2 9886   2.647   4.786   2.172
 3294TIP3   OH2 9887   6.063   3.152   0.995
 3294TIP3    H1 9888   6.109   3.099   0.931
 3294TIP3    H2 9889   5.971   3.148   0.969
 3295TIP3   OH2 9890   5.234   4.519   0.625
 3295TIP3    H1 9891   5.282   4.601   0.641
 3295TIP3    H2 9892   5.145   4.548   0.604
 3296TIP3   OH2 9893   5.340   1.938   5.126
 3296TIP3    H1 9894   5.410   1.889   5.082
 3296TIP3    H2 9895   5.385   1.999   5.183
 3297TIP3   OH2 9896   3.426   2.101   4.404
 3297TIP3    H1 9897   3.407   2.179   4.456
 3297TIP3    H2 9898   3.424   2.029   4.467
 3298TIP3   OH2 9899   5.503   4.360   1.742
 3298TIP3    H1 9900   5.539   4.426   1.801
 3298TIP3    H2 9901   5.476   4.288   1.799
 3299TIP3   OH2 9902   3.205   3.858   1.422
 3299TIP3    H1 9903   3.154   3.897   1.494
 3299TIP3    H2 9904   3.151   3.873   1.344
 3300TIP3   OH2 9905   2.183   3.394   4.962
 3300TIP3    H1 9906   2.272   3.398   4.927
 3300TIP3    H2 9907   2.148   3.311   4.931
 3301TIP3   OH2 9908   5.024   3.990   0.622
 3301TIP3    H1 9909   5.117   4.012   0.619
 3301TIP3    H2 9910   5.007   3.971   0.714
 3302TIP3   OH2 9911   2.815   1.228   1.776
 3302TIP3    H1 9912   2.891   1.246   1.831
 3302TIP3    H2 9913   2.821   1.290   1.704
 3303TIP3   OH2 9914   3.559   1.651   4.492
 3303TIP3    H1 9915   3.628   1.694   4.440
 3303TIP3    H2 9916   3.512   1.596   4.429
 3304TIP3   OH2 9917   5.873   0.457   2.349
 3304TIP3    H1 9918   5.836   0.517   2.414
 3304TIP3    H2 9919   5.961   0.491   2.333
 3305TIP3   OH2 9920   1.465   1.556   2.816
 3305TIP3    H1 9921   1.480   1.496   2.743
 3305TIP3    H2 9922   1.386   1.604   2.792
 3306TIP3   OH2 9923   1.765   0.442   4.337
 3306TIP3    H1 9924   1.819   0.384   4.282
 3306TIP3    H2 9925   1.817   0.455   4.416
 3307TIP3   OH2 9926   3.427   2.910   3.652
 3307TIP3    H1 9927   3.462   2.964   3.722
 3307TIP3    H2 9928   3.447   2.820   3.679
 3308TIP3   OH2 9929   5.439   5.376   1.761
 3308TIP3    H1 9930   5.497   5.379   1.685
 3308TIP3    H2 9931   5.444   5.286   1.791
 3309TIP3   OH2 9932   6.223   3.744   1.683
 3309TIP3    H1 9933   6.259   3.805   1.749
 3309TIP3    H2 9934   6.153   3.698   1.729
 3310TIP3   OH2 9935   5.553   1.184   0.443
 3310TIP3    H1 9936   5.534   1.174   0.536
 3310TIP3    H2 9937   5.499   1.258   0.415
 3311TIP3   OH2 9938   6.118   3.687   0.459
 3311TIP3    H1 9939   6.197   3.633   0.465
 3311TIP3    H2 9940   6.094   3.684   0.366
 3312TIP3   OH2 9941   0.564   1.062   0.558
 3312TIP3    H1 9942   0.580   1.149   0.521
 3312TIP3    H2 9943   0.591   1.001   0.490
 3313TIP3   OH2 9944   6.028   0.052   0.973
 3313TIP3    H1 9945   6.119   0.022   0.980
 3313TIP3    H2 9946   6.010   0.052   0.879
 3314TIP3   OH2 9947   5.606   2.407   3.464
 3314TIP3    H1 9948   5.542   2.338   3.453
 3314TIP3    H2 9949   5.628   2.434   3.375
 3315TIP3   OH2 9950   5.216   3.216   0.749
 3315TIP3    H1 9951   5.196   3.286   0.812
 3315TIP3    H2 9952   5.205   3.257   0.663
 3316TIP3   OH2 9953   3.582   2.960   0.544
 3316TIP3    H1 9954   3.512   3.022   0.567
 3316TIP3    H2 9955   3.538   2.875   0.540
 3317TIP3   OH2 9956   2.557   1.970   0.158
 3317TIP3    H1 9957   2.592   1.976   0.069
 3317TIP3    H2 9958   2.470   2.009   0.152
 3318TIP3   OH2 9959   2.175   4.176   2.506
 3318TIP3    H1 9960   2.227   4.189   2.585
 3318TIP3    H2 9961   2.097   4.129   2.535
 3319TIP3   OH2 9962   3.166   5.397   1.614
 3319TIP3    H1 9963   3.254   5.377   1.646
 3319TIP3    H2 9964   3.110   5.387   1.692
 3320TIP3   OH2 9965   1.425   3.298   4.618
 3320TIP3    H1 9966   1.343   3.309   4.571
 3320TIP3    H2 9967   1.414   3.216   4.666
 3321TIP3   OH2 9968   1.542   1.146   2.112
 3321TIP3    H1 9969   1.545   1.114   2.202
 3321TIP3    H2 9970   1.483   1.086   2.067
 3322TIP3   OH2 9971   4.076   2.073   0.172
 3322TIP3    H1 9972   4.141   2.143   0.184
 3322TIP3    H2 9973   3.995   2.110   0.206
 3323TIP3   OH2 9974   5.798   2.833   1.653
 3323TIP3    H1 9975   5.711   2.874   1.660
 3323TIP3    H2 9976   5.842   2.856   1.735
 3324TIP3   OH2 9977   1.680   4.822   0.949
 3324TIP3    H1 9978   1.754   4.860   0.902
 3324TIP3    H2 9979   1.719   4.761   1.012
 3325TIP3   OH2 9980   0.653   1.851   4.441
 3325TIP3    H1 9981   0.621   1.762   4.455
 3325TIP3    H2 9982   0.739   1.852   4.485
 3326TIP3   OH2 9983   4.397   1.862   0.443
 3326TIP3    H1 9984   4.304   1.884   0.446
 3326TIP3    H2 9985   4.403   1.791   0.379
 3327TIP3   OH2 9986   1.317   5.459   3.792
 3327TIP3    H1 9987   1.250   5.522   3.818
 3327TIP3    H2 9988   1.326   5.472   3.697
 3328TIP3   OH2 9989   0.793   4.269   0.769
 3328TIP3    H1 9990   0.709   4.303   0.736
 3328TIP3    H2 9991   0.859   4.321   0.722
 3329TIP3   OH2 9992   4.449   4.549   2.114
 3329TIP3    H1 9993   4.398   4.510   2.043
 3329TIP3    H2 9994   4.540   4.531   2.090
 3330TIP3   OH2 9995   0.453   4.045   1.073
 3330TIP3    H1 9996   0.518   4.022   1.006
 3330TIP3    H2 9997   0.388   4.097   1.025
 3331TIP3   OH2 9998   5.016   0.586   2.937
 3331TIP3    H1 9999   4.945   0.593   3.002
 3331TIP3    H210000   5.074   0.519   2.972
 3332TIP3   OH210001   0.721   2.469   1.081
 3332TIP3    H110002   0.693   2.439   1.168
 3332TIP3    H210003   0.810   2.435   1.070
 3333TIP3   OH210004   1.538   4.502   4.256
 3333TIP3    H110005   1.586   4.493   4.173
 3333TIP3    H210006   1.581   4.441   4.315
 3334TIP3   OH210007   5.671   5.726   2.011
 3334TIP3    H110008   5.721   5.740   2.091
 3334TIP3    H210009   5.608   5.798   2.010
 3335TIP3   OH210010   4.803   3.590   5.009
 3335TIP3    H110011   4.892   3.617   4.988
 3335TIP3    H210012   4.748   3.635   4.944
 3336TIP3   OH210013   1.972   1.902   1.021
 3336TIP3    H110014   1.916   1.829   0.995
 3336TIP3    H210015   1.986   1.889   1.115
 3337TIP3   OH210016   3.763   3.221   3.266
 3337TIP3    H110017   3.798   3.133   3.272
 3337TIP3    H210018   3.811   3.262   3.194
 3338TIP3   OH210019   4.432   2.280   2.459
 3338TIP3    H110020   4.379   2.305   2.535
 3338TIP3    H210021   4.520   2.267   2.495
 3339TIP3   OH210022   1.739   5.949   3.010
 3339TIP3    H110023   1.662   5.918   3.057
 3339TIP3    H210024   1.750   5.887   2.938
 3340TIP3   OH210025   1.875   1.677   5.196
 3340TIP3    H110026   1.841   1.694   5.108
 3340TIP3    H210027   1.963   1.714   5.196
 3341TIP3   OH210028   2.679   2.027   0.473
 3341TIP3    H110029   2.724   2.108   0.496
 3341TIP3    H210030   2.600   2.027   0.526
 3342TIP3   OH210031   3.591   5.609   2.958
 3342TIP3    H110032   3.524   5.583   3.022
 3342TIP3    H210033   3.668   5.557   2.982
 3343TIP3   OH210034   4.207   5.660   4.389
 3343TIP3    H110035   4.114   5.654   4.410
 3343TIP3    H210036   4.235   5.569   4.378
 3344TIP3   OH210037   2.179   2.960   0.814
 3344TIP3    H110038   2.264   2.958   0.768
 3344TIP3    H210039   2.173   3.050   0.848
 3345TIP3   OH210040   0.730   5.165   4.524
 3345TIP3    H110041   0.732   5.143   4.430
 3345TIP3    H210042   0.653   5.120   4.557
 3346TIP3   OH210043   4.645   4.949   4.832
 3346TIP3    H110044   4.659   5.014   4.763
 3346TIP3    H210045   4.627   4.867   4.785
 3347TIP3   OH210046   0.292   1.692   3.381
 3347TIP3    H110047   0.332   1.608   3.357
 3347TIP3    H210048   0.216   1.667   3.433
 3348TIP3   OH210049   6.046   3.790   2.910
 3348TIP3    H110050   6.040   3.769   2.817
 3348TIP3    H210051   6.126   3.841   2.919
 3349TIP3   OH210052   0.086   2.044   4.837
 3349TIP3    H110053   0.036   2.093   4.902
 3349TIP3    H210054   0.054   1.954   4.845
 3350TIP3   OH210055   3.406   5.341   2.204
 3350TIP3    H110056   3.318   5.374   2.186
 3350TIP3    H210057   3.425   5.282   2.131
 3351TIP3   OH210058   1.666   1.882   1.563
 3351TIP3    H110059   1.587   1.936   1.562
 3351TIP3    H210060   1.714   1.911   1.641
 3352TIP3   OH210061   1.601   3.300   3.370
 3352TIP3    H110062   1.597   3.296   3.275
 3352TIP3    H210063   1.612   3.393   3.390
 3353TIP3   OH210064   4.259   5.267   0.126
 3353TIP3    H110065   4.308   5.320   0.189
 3353TIP3    H210066   4.186   5.322   0.099
 3354TIP3   OH210067   5.215   0.863   2.816
 3354TIP3    H110068   5.221   0.804   2.892
 3354TIP3    H210069   5.293   0.843   2.764
 3355TIP3   OH210070   0.949   0.636   1.767
 3355TIP3    H110071   0.881   0.587   1.814
 3355TIP3    H210072   0.958   0.589   1.684
 3356TIP3   OH210073   5.051   0.368   3.947
 3356TIP3    H110074   5.058   0.458   3.979
 3356TIP3    H210075   5.057   0.314   4.025
 3357TIP3   OH210076   1.057   4.280   5.066
 3357TIP3    H110077   1.148   4.260   5.046
 3357TIP3    H210078   1.060   4.366   5.107
 3358TIP3   OH210079   5.095   5.207   0.130
 3358TIP3    H110080   5.126   5.258   0.055
 3358TIP3    H210081   5.175   5.188   0.180
 3359TIP3   OH210082   2.198   1.417   3.372
 3359TIP3    H110083   2.167   1.473   3.443
 3359TIP3    H210084   2.118   1.390   3.326
 3360TIP3   OH210085   5.258   0.623   4.120
 3360TIP3    H110086   5.194   0.562   4.155
 3360TIP3    H210087   5.231   0.708   4.153
 3361TIP3   OH210088   0.649   3.297   4.404
 3361TIP3    H110089   0.723   3.320   4.348
 3361TIP3    H210090   0.581   3.361   4.382
 3362TIP3   OH210091   2.343   5.065   1.493
 3362TIP3    H110092   2.389   5.146   1.468
 3362TIP3    H210093   2.254   5.077   1.459
 3363TIP3   OH210094   3.390   0.809   0.781
 3363TIP3    H110095   3.426   0.829   0.868
 3363TIP3    H210096   3.300   0.780   0.798
 3364TIP3   OH210097   3.620   0.788   2.673
 3364TIP3    H110098   3.630   0.873   2.715
 3364TIP3    H210099   3.665   0.726   2.732
 3365TIP3   OH210100   3.943   3.267   3.537
 3365TIP3    H110101   3.853   3.244   3.560
 3365TIP3    H210102   3.946   3.262   3.441
 3366TIP3   OH210103   0.601   0.803   5.129
 3366TIP3    H110104   0.662   0.776   5.197
 3366TIP3    H210105   0.545   0.869   5.171
 3367TIP3   OH210106   5.874   2.081   0.614
 3367TIP3    H110107   5.839   2.140   0.546
 3367TIP3    H210108   5.945   2.131   0.654
 3368TIP3   OH210109   3.243   3.237   2.307
 3368TIP3    H110110   3.293   3.215   2.386
 3368TIP3    H210111   3.155   3.204   2.324
 3369TIP3   OH210112   1.561   3.687   4.999
 3369TIP3    H110113   1.640   3.696   4.946
 3369TIP3    H210114   1.579   3.614   5.057
 3370TIP3   OH210115   2.056   3.529   3.429
 3370TIP3    H110116   2.059   3.529   3.525
 3370TIP3    H210117   1.968   3.559   3.407
 3371TIP3   OH210118   0.497   1.842   2.549
 3371TIP3    H110119   0.538   1.779   2.491
 3371TIP3    H210120   0.563   1.911   2.561
 3372TIP3   OH210121   1.517   4.134   2.780
 3372TIP3    H110122   1.467   4.216   2.790
 3372TIP3    H210123   1.489   4.080   2.854
 3373TIP3   OH210124   5.852   1.390   3.014
 3373TIP3    H110125   5.885   1.310   2.974
 3373TIP3    H210126   5.861   1.457   2.946
 3374TIP3   OH210127   1.670   1.634   0.066
 3374TIP3    H110128   1.742   1.615   0.127
 3374TIP3    H210129   1.706   1.614  -0.020
 3375TIP3   OH210130   5.867   3.867   1.125
 3375TIP3    H110131   5.804   3.796   1.123
 3375TIP3    H210132   5.940   3.834   1.178
 3376TIP3   OH210133   4.413   2.752   1.651
 3376TIP3    H110134   4.449   2.815   1.589
 3376TIP3    H210135   4.327   2.728   1.615
 3377TIP3   OH210136   2.128   5.049   0.848
 3377TIP3    H110137   2.115   4.956   0.865
 3377TIP3    H210138   2.217   5.055   0.813
 3378TIP3   OH210139   4.614   3.000   0.434
 3378TIP3    H110140   4.629   3.048   0.515
 3378TIP3    H210141   4.567   2.921   0.462
 3379TIP3   OH210142   4.646   5.554   2.513
 3379TIP3    H110143   4.565   5.592   2.478
 3379TIP3    H210144   4.664   5.480   2.455
 3380TIP3   OH210145   3.073   0.230   4.590
 3380TIP3    H110146   3.096   0.217   4.682
 3380TIP3    H210147   3.114   0.156   4.545
 3381TIP3   OH210148   3.123   4.916   0.462
 3381TIP3    H110149   3.186   4.915   0.533
 3381TIP3    H210150   3.088   5.006   0.463
 3382TIP3   OH210151   0.988   0.254   0.446
 3382TIP3    H110152   0.946   0.333   0.412
 3382TIP3    H210153   1.002   0.272   0.539
 3383TIP3   OH210154   0.094   5.787   3.898
 3383TIP3    H110155   0.065   5.870   3.861
 3383TIP3    H210156   0.142   5.811   3.977
 3384TIP3   OH210157   0.679   1.257   1.844
 3384TIP3    H110158   0.694   1.165   1.865
 3384TIP3    H210159   0.732   1.273   1.766
 3385TIP3   OH210160   5.766   2.264   1.495
 3385TIP3    H110161   5.675   2.292   1.501
 3385TIP3    H210162   5.796   2.299   1.411
 3386TIP3   OH210163   4.410   1.242   5.097
 3386TIP3    H110164   4.367   1.326   5.118
 3386TIP3    H210165   4.420   1.199   5.182
 3387TIP3   OH210166   5.457   5.482   2.738
 3387TIP3    H110167   5.395   5.550   2.711
 3387TIP3    H210168   5.525   5.529   2.786
 3388TIP3   OH210169   3.287   4.455   3.055
 3388TIP3    H110170   3.278   4.404   3.135
 3388TIP3    H210171   3.203   4.501   3.047
 3389TIP3   OH210172   6.368   0.371   0.400
 3389TIP3    H110173   6.369   0.428   0.323
 3389TIP3    H210174   6.322   0.422   0.467
 3390TIP3   OH210175   1.355   4.302   1.403
 3390TIP3    H110176   1.382   4.236   1.339
 3390TIP3    H210177   1.319   4.251   1.475
 3391TIP3   OH210178   5.481   1.306   5.055
 3391TIP3    H110179   5.552   1.337   4.999
 3391TIP3    H210180   5.525   1.270   5.132
 3392TIP3   OH210181   1.881   5.858   1.721
 3392TIP3    H110182   1.935   5.875   1.798
 3392TIP3    H210183   1.792   5.854   1.755
 3393TIP3   OH210184   6.336   5.144   4.159
 3393TIP3    H110185   6.356   5.211   4.094
 3393TIP3    H210186   6.267   5.183   4.214
 3394TIP3   OH210187   4.989   1.821   0.430
 3394TIP3    H110188   5.081   1.806   0.407
 3394TIP3    H210189   4.952   1.734   0.437
 3395TIP3   OH210190   3.843   0.399   4.038
 3395TIP3    H110191   3.919   0.456   4.052
 3395TIP3    H210192   3.879   0.311   4.032
 3396TIP3   OH210193   0.458   3.058   4.906
 3396TIP3    H110194   0.504   2.974   4.899
 3396TIP3    H210195   0.369   3.034   4.932
 3397TIP3   OH210196   0.968   3.886   4.276
 3397TIP3    H110197   0.962   3.795   4.304
 3397TIP3    H210198   0.983   3.882   4.182
 3398TIP3   OH210199   3.858   2.971   3.336
 3398TIP3    H110200   3.939   3.020   3.322
 3398TIP3    H210201   3.863   2.942   3.427
 3399TIP3   OH210202   5.271   0.959   0.532
 3399TIP3    H110203   5.311   1.046   0.528
 3399TIP3    H210204   5.336   0.902   0.491
 3400TIP3   OH210205   3.257   4.140   2.174
 3400TIP3    H110206   3.328   4.158   2.236
 3400TIP3    H210207   3.292   4.168   2.089
 3401TIP3   OH210208   4.639   5.150   0.006
 3401TIP3    H110209   4.688   5.232   0.013
 3401TIP3    H210210   4.628   5.120   0.097
 3402TIP3   OH210211   3.587   2.535   4.776
 3402TIP3    H110212   3.600   2.560   4.868
 3402TIP3    H210213   3.651   2.588   4.728
 3403TIP3   OH210214   5.418   1.939   0.749
 3403TIP3    H110215   5.338   1.992   0.745
 3403TIP3    H210216   5.441   1.938   0.842
 3404TIP3   OH210217   1.390   3.875   5.108
 3404TIP3    H110218   1.446   3.845   5.036
 3404TIP3    H210219   1.405   3.811   5.178
 3405TIP3   OH210220   3.522   2.951   2.554
 3405TIP3    H110221   3.446   2.956   2.496
 3405TIP3    H210222   3.569   2.873   2.525
 3406TIP3   OH210223   4.496   2.924   0.787
 3406TIP3    H110224   4.480   2.957   0.875
 3406TIP3    H210225   4.551   2.991   0.746
 3407TIP3   OH210226   4.947   4.734   1.120
 3407TIP3    H110227   5.017   4.714   1.057
 3407TIP3    H210228   4.868   4.742   1.066
 3408TIP3   OH210229   6.253   2.384   1.984
 3408TIP3    H110230   6.204   2.312   1.942
 3408TIP3    H210231   6.240   2.369   2.078
 3409TIP3   OH210232   1.329   3.845   0.716
 3409TIP3    H110233   1.419   3.865   0.693
 3409TIP3    H210234   1.294   3.927   0.750
 3410TIP3   OH210235   5.337   3.231   2.681
 3410TIP3    H110236   5.328   3.280   2.599
 3410TIP3    H210237   5.429   3.205   2.683
 3411TIP3   OH210238   6.096   2.113   2.685
 3411TIP3    H110239   6.188   2.126   2.707
 3411TIP3    H210240   6.050   2.123   2.768
 3412TIP3   OH210241   3.271   2.721   2.658
 3412TIP3    H110242   3.286   2.743   2.750
 3412TIP3    H210243   3.261   2.626   2.657
 3413TIP3   OH210244   5.229   2.551   0.196
 3413TIP3    H110245   5.149   2.536   0.247
 3413TIP3    H210246   5.198   2.566   0.107
 3414TIP3   OH210247   0.592   3.535   3.744
 3414TIP3    H110248   0.558   3.465   3.798
 3414TIP3    H210249   0.518   3.562   3.690
 3415TIP3   OH210250   2.842   4.617   2.557
 3415TIP3    H110251   2.820   4.526   2.539
 3415TIP3    H210252   2.862   4.618   2.651
 3416TIP3   OH210253   0.570   3.521   2.403
 3416TIP3    H110254   0.660   3.554   2.412
 3416TIP3    H210255   0.540   3.508   2.492
 3417TIP3   OH210256   4.582   1.579   1.648
 3417TIP3    H110257   4.618   1.660   1.612
 3417TIP3    H210258   4.656   1.519   1.653
 3418TIP3   OH210259   5.233   0.447   3.089
 3418TIP3    H110260   5.260   0.356   3.103
 3418TIP3    H210261   5.181   0.469   3.166
 3419TIP3   OH210262   0.166   3.629   1.964
 3419TIP3    H110263   0.167   3.572   2.041
 3419TIP3    H210264   0.162   3.569   1.889
 3420TIP3   OH210265   3.403   1.099   0.990
 3420TIP3    H110266   3.394   1.159   1.063
 3420TIP3    H210267   3.419   1.014   1.030
 3421TIP3   OH210268   4.352   5.151   4.318
 3421TIP3    H110269   4.359   5.062   4.352
 3421TIP3    H210270   4.393   5.147   4.232
 3422TIP3   OH210271   6.305   2.716   1.387
 3422TIP3    H110272   6.329   2.808   1.394
 3422TIP3    H210273   6.209   2.716   1.386
 3423TIP3   OH210274   3.284   0.565   0.322
 3423TIP3    H110275   3.276   0.659   0.341
 3423TIP3    H210276   3.203   0.543   0.276
 3424TIP3   OH210277   2.953   1.578   2.650
 3424TIP3    H110278   2.931   1.650   2.709
 3424TIP3    H210279   2.988   1.621   2.572
 3425TIP3   OH210280   2.444   3.922   1.424
 3425TIP3    H110281   2.468   3.996   1.368
 3425TIP3    H210282   2.358   3.946   1.459
 3426TIP3   OH210283   2.860   4.483   2.268
 3426TIP3    H110284   2.771   4.459   2.243
 3426TIP3    H210285   2.854   4.506   2.361
 3427TIP3   OH210286   5.208   3.514   0.976
 3427TIP3    H110287   5.175   3.525   1.065
 3427TIP3    H210288   5.303   3.514   0.985
 3428TIP3   OH210289   5.945   5.916   4.686
 3428TIP3    H110290   5.882   5.849   4.713
 3428TIP3    H210291   5.996   5.934   4.765
 3429TIP3   OH210292   2.665   4.957   3.325
 3429TIP3    H110293   2.722   5.032   3.310
 3429TIP3    H210294   2.687   4.926   3.413
 3430TIP3   OH210295   2.629   5.499   4.697
 3430TIP3    H110296   2.543   5.471   4.727
 3430TIP3    H210297   2.683   5.420   4.703
 3431TIP3   OH210298   3.168   2.244   3.728
 3431TIP3    H110299   3.090   2.299   3.721
 3431TIP3    H210300   3.145   2.177   3.791
 3432TIP3   OH210301   2.552   3.683   3.271
 3432TIP3    H110302   2.461   3.670   3.299
 3432TIP3    H210303   2.574   3.771   3.302
 3433TIP3   OH210304   5.732   0.318   2.153
 3433TIP3    H110305   5.760   0.390   2.210
 3433TIP3    H210306   5.714   0.245   2.212
 3434TIP3   OH210307   3.597   4.312   2.164
 3434TIP3    H110308   3.592   4.406   2.177
 3434TIP3    H210309   3.532   4.276   2.224
 3435TIP3   OH210310   5.602   1.052   3.205
 3435TIP3    H110311   5.643   1.032   3.290
 3435TIP3    H210312   5.618   1.146   3.194
 3436TIP3   OH210313   2.355   4.485   4.655
 3436TIP3    H110314   2.345   4.580   4.644
 3436TIP3    H210315   2.441   4.475   4.695
 3437TIP3   OH210316   0.358   4.161   1.532
 3437TIP3    H110317   0.381   4.164   1.439
 3437TIP3    H210318   0.267   4.131   1.533
 3438TIP3   OH210319   0.092   5.081   1.159
 3438TIP3    H110320   0.159   5.137   1.198
 3438TIP3    H210321   0.118   4.992   1.182
 3439TIP3   OH210322   2.427   5.259   0.939
 3439TIP3    H110323   2.428   5.163   0.932
 3439TIP3    H210324   2.455   5.289   0.853
 3440TIP3   OH210325   0.420   2.417   5.027
 3440TIP3    H110326   0.450   2.428   4.937
 3440TIP3    H210327   0.390   2.327   5.031
 3441TIP3   OH210328   0.744   1.330   2.490
 3441TIP3    H110329   0.768   1.242   2.461
 3441TIP3    H210330   0.823   1.365   2.531
 3442TIP3   OH210331   3.978   5.817   3.283
 3442TIP3    H110332   3.963   5.828   3.376
 3442TIP3    H210333   3.898   5.849   3.242
 3443TIP3   OH210334   4.197   1.390   4.843
 3443TIP3    H110335   4.244   1.463   4.803
 3443TIP3    H210336   4.263   1.344   4.895
 3444TIP3   OH210337   6.000   3.462   3.520
 3444TIP3    H110338   6.018   3.549   3.486
 3444TIP3    H210339   5.942   3.477   3.595
 3445TIP3   OH210340   0.466   3.857   0.132
 3445TIP3    H110341   0.415   3.776   0.125
 3445TIP3    H210342   0.544   3.841   0.079
 3446TIP3   OH210343   2.377   2.999   0.595
 3446TIP3    H110344   2.390   3.070   0.659
 3446TIP3    H210345   2.290   3.015   0.559
 3447TIP3   OH210346   3.779   5.214   0.817
 3447TIP3    H110347   3.731   5.194   0.897
 3447TIP3    H210348   3.819   5.299   0.832
 3448TIP3   OH210349   1.596   2.739   2.057
 3448TIP3    H110350   1.610   2.833   2.047
 3448TIP3    H210351   1.630   2.700   1.976
 3449TIP3   OH210352   2.487   0.855   0.384
 3449TIP3    H110353   2.439   0.816   0.311
 3449TIP3    H210354   2.566   0.892   0.344
 3450TIP3   OH210355   3.956   4.148   1.736
 3450TIP3    H110356   3.932   4.170   1.646
 3450TIP3    H210357   3.890   4.192   1.790
 3451TIP3   OH210358   5.277   5.586   2.444
 3451TIP3    H110359   5.263   5.493   2.462
 3451TIP3    H210360   5.278   5.628   2.530
 3452TIP3   OH210361   5.816   4.168   1.168
 3452TIP3    H110362   5.855   4.139   1.251
 3452TIP3    H210363   5.722   4.150   1.178
 3453TIP3   OH210364   2.220   1.565   4.145
 3453TIP3    H110365   2.191   1.651   4.177
 3453TIP3    H210366   2.279   1.533   4.214
 3454TIP3   OH210367   2.540   1.222   1.731
 3454TIP3    H110368   2.498   1.156   1.786
 3454TIP3    H210369   2.632   1.220   1.757
 3455TIP3   OH210370   3.320   3.050   0.491
 3455TIP3    H110371   3.293   3.123   0.435
 3455TIP3    H210372   3.272   3.065   0.573
 3456TIP3   OH210373   3.018   2.482   0.085
 3456TIP3    H110374   3.028   2.568   0.042
 3456TIP3    H210375   2.957   2.435   0.029
 3457TIP3   OH210376   5.989   2.649   2.992
 3457TIP3    H110377   5.990   2.702   3.072
 3457TIP3    H210378   6.010   2.710   2.922
 3458TIP3   OH210379   3.823   2.017   1.957
 3458TIP3    H110380   3.786   2.091   2.005
 3458TIP3    H210381   3.914   2.012   1.987
 3459TIP3   OH210382   4.339   0.092   3.033
 3459TIP3    H110383   4.253   0.067   3.067
 3459TIP3    H210384   4.355   0.179   3.069
 3460TIP3   OH210385   0.641   5.416   4.195
 3460TIP3    H110386   0.726   5.441   4.160
 3460TIP3    H210387   0.585   5.406   4.117
 3461TIP3   OH210388   6.162   0.149   0.754
 3461TIP3    H110389   6.207   0.104   0.826
 3461TIP3    H210390   6.213   0.127   0.676
 3462TIP3   OH210391   4.930   2.885   4.006
 3462TIP3    H110392   4.946   2.967   3.960
 3462TIP3    H210393   4.967   2.899   4.093
 3463TIP3   OH210394   4.374   0.588   1.110
 3463TIP3    H110395   4.345   0.667   1.157
 3463TIP3    H210396   4.432   0.621   1.042
 3464TIP3   OH210397   0.553   3.584   3.000
 3464TIP3    H110398   0.551   3.530   2.920
 3464TIP3    H210399   0.626   3.549   3.050
 3465TIP3   OH210400   5.577   1.817   5.029
 3465TIP3    H110401   5.615   1.734   5.059
 3465TIP3    H210402   5.644   1.854   4.971
 3466TIP3   OH210403   0.219   2.794   0.126
 3466TIP3    H110404   0.176   2.739   0.061
 3466TIP3    H210405   0.211   2.883   0.092
 3467TIP3   OH210406   1.900   2.925   4.079
 3467TIP3    H110407   1.807   2.933   4.058
 3467TIP3    H210408   1.945   2.936   3.996
 3468TIP3   OH210409   4.269   3.243   1.197
 3468TIP3    H110410   4.341   3.201   1.151
 3468TIP3    H210411   4.197   3.180   1.193
 3469TIP3   OH210412   2.383   3.773   2.523
 3469TIP3    H110413   2.349   3.774   2.613
 3469TIP3    H210414   2.373   3.683   2.494
 3470TIP3   OH210415   0.060   5.535   5.107
 3470TIP3    H110416   0.009   5.502   5.181
 3470TIP3    H210417   0.144   5.560   5.145
 3471TIP3   OH210418   2.799   0.513   0.582
 3471TIP3    H110419   2.796   0.480   0.492
 3471TIP3    H210420   2.745   0.592   0.580
 3472TIP3   OH210421   1.013   4.499   1.785
 3472TIP3    H110422   0.931   4.513   1.737
 3472TIP3    H210423   1.071   4.458   1.721
 3473TIP3   OH210424   0.841   3.120   2.721
 3473TIP3    H110425   0.932   3.132   2.696
 3473TIP3    H210426   0.834   3.026   2.740
 3474TIP3   OH210427   1.866   1.546   3.535
 3474TIP3    H110428   1.817   1.469   3.564
 3474TIP3    H210429   1.872   1.536   3.440
 3475TIP3   OH210430   2.223   5.267   2.927
 3475TIP3    H110431   2.287   5.338   2.915
 3475TIP3    H210432   2.262   5.211   2.994
 3476TIP3   OH210433   4.418   0.666   3.534
 3476TIP3    H110434   4.349   0.689   3.597
 3476TIP3    H210435   4.492   0.640   3.588
 3477TIP3   OH210436   1.128   5.540   1.919
 3477TIP3    H110437   1.039   5.505   1.911
 3477TIP3    H210438   1.175   5.475   1.971
 3478TIP3   OH210439   3.072   0.743   2.285
 3478TIP3    H110440   3.165   0.753   2.265
 3478TIP3    H210441   3.030   0.738   2.199
 3479TIP3   OH210442   1.149   0.989   2.155
 3479TIP3    H110443   1.136   0.908   2.107
 3479TIP3    H210444   1.226   0.973   2.209
 3480TIP3   OH210445   4.977   0.115   2.805
 3480TIP3    H110446   4.923   0.166   2.744
 3480TIP3    H210447   5.058   0.098   2.757
 3481TIP3   OH210448   3.237   2.746   1.144
 3481TIP3    H110449   3.249   2.838   1.166
 3481TIP3    H210450   3.194   2.747   1.059
 3482TIP3   OH210451   3.350   0.632   1.283
 3482TIP3    H110452   3.357   0.727   1.294
 3482TIP3    H210453   3.386   0.596   1.364
 3483TIP3   OH210454   0.463   3.634   1.016
 3483TIP3    H110455   0.532   3.684   0.972
 3483TIP3    H210456   0.496   3.544   1.017
 3484TIP3   OH210457   2.174   1.816   1.619
 3484TIP3    H110458   2.225   1.751   1.570
 3484TIP3    H210459   2.170   1.892   1.561
 3485TIP3   OH210460   3.198   0.015   3.585
 3485TIP3    H110461   3.113   0.057   3.575
 3485TIP3    H210462   3.239   0.061   3.659
 3486TIP3   OH210463   5.128   5.722   5.123
 3486TIP3    H110464   5.153   5.690   5.037
 3486TIP3    H210465   5.042   5.763   5.109
 3487TIP3   OH210466   1.842   1.637   1.053
 3487TIP3    H110467   1.890   1.603   1.128
 3487TIP3    H210468   1.769   1.576   1.041
 3488TIP3   OH210469   1.568   1.942   4.112
 3488TIP3    H110470   1.479   1.976   4.101
 3488TIP3    H210471   1.589   1.904   4.027
 3489TIP3   OH210472   0.311   4.726   0.430
 3489TIP3    H110473   0.388   4.780   0.450
 3489TIP3    H210474   0.245   4.789   0.400
 3490TIP3   OH210475   0.082   3.723   1.213
 3490TIP3    H110476   0.057   3.725   1.306
 3490TIP3    H210477   0.087   3.630   1.192
 3491TIP3   OH210478   0.186   1.721   4.106
 3491TIP3    H110479   0.205   1.814   4.097
 3491TIP3    H210480   0.193   1.686   4.017
 3492TIP3   OH210481   5.870   4.349   0.859
 3492TIP3    H110482   5.848   4.423   0.803
 3492TIP3    H210483   5.947   4.379   0.908
 3493TIP3   OH210484   4.397   4.361   0.309
 3493TIP3    H110485   4.346   4.314   0.243
 3493TIP3    H210486   4.445   4.293   0.356
 3494TIP3   OH210487   1.939   2.471   3.068
 3494TIP3    H110488   1.924   2.406   3.137
 3494TIP3    H210489   1.857   2.471   3.018
 3495TIP3   OH210490   2.046   3.090   3.888
 3495TIP3    H110491   1.974   3.153   3.886
 3495TIP3    H210492   2.058   3.064   3.796
 3496TIP3   OH210493   6.245   0.305   1.036
 3496TIP3    H110494   6.311   0.297   0.967
 3496TIP3    H210495   6.169   0.257   1.002
 3497TIP3   OH210496   1.943   1.261   2.857
 3497TIP3    H110497   1.893   1.186   2.891
 3497TIP3    H210498   1.967   1.234   2.768
 3498TIP3   OH210499   5.565   2.406   2.047
 3498TIP3    H110500   5.565   2.465   1.972
 3498TIP3    H210501   5.608   2.326   2.016
 3499TIP3   OH210502   3.341   4.738   5.045
 3499TIP3    H110503   3.369   4.771   5.131
 3499TIP3    H210504   3.345   4.815   4.988
 3500TIP3   OH210505  -0.001   4.591   3.921
 3500TIP3    H110506  -0.052   4.510   3.928
 3500TIP3    H210507   0.075   4.576   3.977
 3501TIP3   OH210508   0.823   0.849   4.913
 3501TIP3    H110509   0.791   0.842   5.003
 3501TIP3    H210510   0.802   0.765   4.873
 3502TIP3   OH210511   4.129   1.417   1.895
 3502TIP3    H110512   4.167   1.469   1.966
 3502TIP3    H210513   4.190   1.345   1.883
 3503TIP3   OH210514   0.885   3.725   2.917
 3503TIP3    H110515   0.816   3.676   2.961
 3503TIP3    H210516   0.962   3.668   2.924
 3504TIP3   OH210517   5.254   3.609   2.618
 3504TIP3    H110518   5.169   3.583   2.585
 3504TIP3    H210519   5.305   3.630   2.540
 3505TIP3   OH210520   5.556   1.286   1.413
 3505TIP3    H110521   5.497   1.320   1.346
 3505TIP3    H210522   5.561   1.356   1.478
 3506TIP3   OH210523   2.725   5.250   1.943
 3506TIP3    H110524   2.639   5.221   1.974
 3506TIP3    H210525   2.786   5.187   1.981
 3507TIP3   OH210526   2.487   2.309   4.379
 3507TIP3    H110527   2.416   2.372   4.385
 3507TIP3    H210528   2.496   2.274   4.468
 3508TIP3   OH210529   4.729   2.271   0.183
 3508TIP3    H110530   4.769   2.196   0.228
 3508TIP3    H210531   4.797   2.304   0.125
 3509TIP3   OH210532   4.453   3.261   4.156
 3509TIP3    H110533   4.409   3.183   4.190
 3509TIP3    H210534   4.390   3.300   4.096
 3510TIP3   OH210535   2.651   3.068   0.432
 3510TIP3    H110536   2.572   3.048   0.481
 3510TIP3    H210537   2.701   2.987   0.432
 3511TIP3   OH210538   5.793   3.058   0.905
 3511TIP3    H110539   5.778   2.965   0.925
 3511TIP3    H210540   5.706   3.096   0.900
 3512TIP3   OH210541   3.403   4.492   3.671
 3512TIP3    H110542   3.318   4.481   3.627
 3512TIP3    H210543   3.383   4.485   3.764
 3513TIP3   OH210544   1.982   5.487   0.394
 3513TIP3    H110545   1.888   5.505   0.383
 3513TIP3    H210546   2.000   5.508   0.486
 3514TIP3   OH210547   1.694   3.828   3.033
 3514TIP3    H110548   1.751   3.900   3.060
 3514TIP3    H210549   1.641   3.865   2.962
 3515TIP3   OH210550   5.165   1.650   1.908
 3515TIP3    H110551   5.184   1.594   1.983
 3515TIP3    H210552   5.091   1.607   1.864
 3516TIP3   OH210553   2.945   5.210   3.921
 3516TIP3    H110554   2.852   5.194   3.908
 3516TIP3    H210555   2.983   5.123   3.935
 3517TIP3   OH210556   0.670   2.773   0.107
 3517TIP3    H110557   0.628   2.852   0.141
 3517TIP3    H210558   0.621   2.751   0.028
 3518TIP3   OH210559   3.162   4.092   4.781
 3518TIP3    H110560   3.144   4.048   4.698
 3518TIP3    H210561   3.252   4.068   4.801
 3519TIP3   OH210562   0.608   0.970  -0.001
 3519TIP3    H110563   0.681   0.921   0.038
 3519TIP3    H210564   0.610   1.055   0.042
 3520TIP3   OH210565   1.595   0.766   2.075
 3520TIP3    H110566   1.628   0.737   2.160
 3520TIP3    H210567   1.673   0.799   2.029
 3521TIP3   OH210568   0.948   3.231   1.351
 3521TIP3    H110569   0.916   3.191   1.270
 3521TIP3    H210570   0.951   3.325   1.332
 3522TIP3   OH210571   5.746  -0.001   1.352
 3522TIP3    H110572   5.670   0.044   1.389
 3522TIP3    H210573   5.794   0.067   1.305
 3523TIP3   OH210574   3.250   0.919   0.107
 3523TIP3    H110575   3.217   0.933   0.018
 3523TIP3    H210576   3.286   1.004   0.133
 3524TIP3   OH210577   3.576   4.697   3.058
 3524TIP3    H110578   3.581   4.603   3.076
 3524TIP3    H210579   3.482   4.716   3.057
 3525TIP3   OH210580   0.539   0.660   1.652
 3525TIP3    H110581   0.610   0.719   1.676
 3525TIP3    H210582   0.475   0.668   1.722
 3526TIP3   OH210583   2.711   3.577   1.807
 3526TIP3    H110584   2.682   3.620   1.887
 3526TIP3    H210585   2.696   3.642   1.738
 3527TIP3   OH210586   3.562   2.524   2.686
 3527TIP3    H110587   3.524   2.558   2.767
 3527TIP3    H210588   3.614   2.597   2.652
 3528TIP3   OH210589   1.902   3.171   1.124
 3528TIP3    H110590   1.834   3.236   1.140
 3528TIP3    H210591   1.964   3.215   1.066
 3529TIP3   OH210592   1.832   5.234   3.994
 3529TIP3    H110593   1.875   5.156   4.028
 3529TIP3    H210594   1.747   5.236   4.036
 3530TIP3   OH210595   6.072   4.062   5.168
 3530TIP3    H110596   5.984   4.092   5.193
 3530TIP3    H210597   6.061   3.968   5.153
 3531TIP3   OH210598   1.699   4.663   3.009
 3531TIP3    H110599   1.754   4.635   2.936
 3531TIP3    H210600   1.762   4.689   3.077
 3532TIP3   OH210601   5.534   1.020   1.665
 3532TIP3    H110602   5.481   1.029   1.585
 3532TIP3    H210603   5.624   1.033   1.635
 3533TIP3   OH210604   4.420   5.138   2.612
 3533TIP3    H110605   4.448   5.189   2.688
 3533TIP3    H210606   4.461   5.053   2.624
 3534TIP3   OH210607   3.884   4.573   2.404
 3534TIP3    H110608   3.807   4.530   2.368
 3534TIP3    H210609   3.892   4.537   2.492
 3535TIP3   OH210610   4.325   4.348   1.067
 3535TIP3    H110611   4.269   4.281   1.105
 3535TIP3    H210612   4.269   4.426   1.060
 3536TIP3   OH210613   3.666   2.490   4.311
 3536TIP3    H110614   3.749   2.513   4.268
 3536TIP3    H210615   3.603   2.486   4.240
 3537TIP3   OH210616   2.328   4.336   3.221
 3537TIP3    H110617   2.348   4.244   3.237
 3537TIP3    H210618   2.299   4.339   3.130
 3538TIP3   OH210619   6.315   2.194   4.292
 3538TIP3    H110620   6.227   2.219   4.263
 3538TIP3    H210621   6.373   2.220   4.221
 3539TIP3   OH210622   6.027   5.939   1.077
 3539TIP3    H110623   6.079   6.009   1.038
 3539TIP3    H210624   6.065   5.859   1.041
 3540TIP3   OH210625   3.059   3.743   1.763
 3540TIP3    H110626   2.996   3.781   1.702
 3540TIP3    H210627   3.011   3.734   1.845
 3541TIP3   OH210628   2.241   5.188   2.671
 3541TIP3    H110629   2.187   5.220   2.743
 3541TIP3    H210630   2.265   5.267   2.622
 3542TIP3   OH210631   4.403   5.002   3.451
 3542TIP3    H110632   4.373   5.083   3.492
 3542TIP3    H210633   4.482   4.979   3.501
 3543TIP3   OH210634   1.385   1.592   1.163
 3543TIP3    H110635   1.403   1.584   1.256
 3543TIP3    H210636   1.463   1.555   1.120
 3544TIP3   OH210637   3.695   5.047   3.655
 3544TIP3    H110638   3.699   4.991   3.733
 3544TIP3    H210639   3.776   5.028   3.608
 3545TIP3   OH210640   4.754   2.777   4.299
 3545TIP3    H110641   4.747   2.806   4.208
 3545TIP3    H210642   4.786   2.854   4.347
 3546TIP3   OH210643   6.162   0.668   1.042
 3546TIP3    H110644   6.081   0.622   1.023
 3546TIP3    H210645   6.136   0.760   1.050
 3547TIP3   OH210646   5.017   0.954   0.639
 3547TIP3    H110647   5.012   1.037   0.687
 3547TIP3    H210648   5.106   0.952   0.604
 3548TIP3   OH210649   3.225   5.209   4.773
 3548TIP3    H110650   3.162   5.138   4.759
 3548TIP3    H210651   3.187   5.261   4.844
 3549TIP3   OH210652   0.689   2.612   1.610
 3549TIP3    H110653   0.619   2.615   1.545
 3549TIP3    H210654   0.747   2.684   1.586
 3550TIP3   OH210655   2.770   2.199   0.958
 3550TIP3    H110656   2.710   2.254   0.908
 3550TIP3    H210657   2.720   2.173   1.035
 3551TIP3   OH210658   1.437   1.771   3.043
 3551TIP3    H110659   1.436   1.798   2.951
 3551TIP3    H210660   1.500   1.829   3.084
 3552TIP3   OH210661   3.426   5.266   0.073
 3552TIP3    H110662   3.498   5.316   0.112
 3552TIP3    H210663   3.470   5.200   0.018
 3553TIP3   OH210664   2.320   3.204   2.439
 3553TIP3    H110665   2.290   3.207   2.529
 3553TIP3    H210666   2.402   3.154   2.443
 3554TIP3   OH210667   3.789   4.580   3.845
 3554TIP3    H110668   3.838   4.577   3.763
 3554TIP3    H210669   3.761   4.490   3.860
 3555TIP3   OH210670   2.589   5.528   5.123
 3555TIP3    H110671   2.532   5.457   5.093
 3555TIP3    H210672   2.576   5.531   5.218
 3556TIP3   OH210673   3.806   2.649   3.741
 3556TIP3    H110674   3.795   2.600   3.659
 3556TIP3    H210675   3.875   2.602   3.788
 3557TIP3   OH210676   4.130   0.227   1.991
 3557TIP3    H110677   4.169   0.140   1.984
 3557TIP3    H210678   4.167   0.277   1.918
 3558TIP3   OH210679   4.590   3.007   3.527
 3558TIP3    H110680   4.541   2.999   3.609
 3558TIP3    H210681   4.568   2.928   3.478
 3559TIP3   OH210682   2.261   2.530   3.457
 3559TIP3    H110683   2.317   2.453   3.449
 3559TIP3    H210684   2.310   2.589   3.515
 3560TIP3   OH210685   3.474   2.182   2.808
 3560TIP3    H110686   3.506   2.108   2.858
 3560TIP3    H210687   3.409   2.223   2.865
 3561TIP3   OH210688   5.646   2.249   4.246
 3561TIP3    H110689   5.621   2.287   4.162
 3561TIP3    H210690   5.605   2.162   4.246
 3562TIP3   OH210691   0.145   0.239   2.344
 3562TIP3    H110692   0.061   0.254   2.300
 3562TIP3    H210693   0.149   0.307   2.411
 3563TIP3   OH210694   3.090   0.110   2.540
 3563TIP3    H110695   3.118   0.183   2.594
 3563TIP3    H210696   3.059   0.044   2.602
 3564TIP3   OH210697   4.872   1.973   1.571
 3564TIP3    H110698   4.935   2.017   1.628
 3564TIP3    H210699   4.792   1.969   1.622
 3565TIP3   OH210700   5.561   3.748   1.389
 3565TIP3    H110701   5.489   3.685   1.388
 3565TIP3    H210702   5.611   3.728   1.309
 3566TIP3   OH210703   6.193   4.523   3.130
 3566TIP3    H110704   6.132   4.583   3.172
 3566TIP3    H210705   6.214   4.565   3.046
 3567TIP3   OH210706   4.796   5.161   4.498
 3567TIP3    H110707   4.787   5.232   4.434
 3567TIP3    H210708   4.794   5.081   4.446
 3568TIP3   OH210709   0.255   4.438   1.710
 3568TIP3    H110710   0.335   4.413   1.664
 3568TIP3    H210711   0.246   4.532   1.693
 3569TIP3   OH210712   3.555   2.631   0.366
 3569TIP3    H110713   3.564   2.536   0.369
 3569TIP3    H210714   3.490   2.652   0.434
 3570TIP3   OH210715   0.103   0.344   4.907
 3570TIP3    H110716   0.120   0.383   4.821
 3570TIP3    H210717   0.094   0.250   4.890
 3571TIP3   OH210718   0.942   1.575   1.373
 3571TIP3    H110719   0.993   1.500   1.404
 3571TIP3    H210720   0.856   1.539   1.352
 3572TIP3   OH210721   5.636   4.337   0.211
 3572TIP3    H110722   5.601   4.408   0.264
 3572TIP3    H210723   5.671   4.274   0.275
 3573TIP3   OH210724   5.885   5.740   1.552
 3573TIP3    H110725   5.815   5.802   1.537
 3573TIP3    H210726   5.964   5.794   1.559
 3574TIP3   OH210727   3.304   0.001   2.354
 3574TIP3    H110728   3.217   0.015   2.316
 3574TIP3    H210729   3.338   0.090   2.368
 3575TIP3   OH210730   2.015   6.013   3.704
 3575TIP3    H110731   2.015   5.927   3.662
 3575TIP3    H210732   1.954   6.005   3.777
 3576TIP3   OH210733   0.247   1.085   2.556
 3576TIP3    H110734   0.299   1.005   2.547
 3576TIP3    H210735   0.178   1.063   2.618
 3577TIP3   OH210736   0.485   0.559   2.393
 3577TIP3    H110737   0.495   0.554   2.298
 3577TIP3    H210738   0.531   0.639   2.418
 3578TIP3   OH210739   4.796   4.551   4.286
 3578TIP3    H110740   4.753   4.480   4.334
 3578TIP3    H210741   4.753   4.552   4.201
 3579TIP3   OH210742   4.332   4.658   0.216
 3579TIP3    H110743   4.353   4.565   0.224
 3579TIP3    H210744   4.303   4.684   0.303
 3580TIP3   OH210745   5.705   0.081   2.312
 3580TIP3    H110746   5.764   0.033   2.254
 3580TIP3    H210747   5.702   0.028   2.392
 3581TIP3   OH210748   5.233   1.362   5.106
 3581TIP3    H110749   5.221   1.457   5.116
 3581TIP3    H210750   5.324   1.352   5.079
 3582TIP3   OH210751   0.612   5.374   0.381
 3582TIP3    H110752   0.537   5.342   0.332
 3582TIP3    H210753   0.577   5.442   0.438
 3583TIP3   OH210754   0.439   5.359   0.974
 3583TIP3    H110755   0.530   5.384   0.989
 3583TIP3    H210756   0.431   5.271   1.012
 3584TIP3   OH210757   4.862   1.926   0.670
 3584TIP3    H110758   4.779   1.915   0.625
 3584TIP3    H210759   4.929   1.909   0.604
 3585TIP3   OH210760   1.023   3.563   0.048
 3585TIP3    H110761   0.938   3.527   0.026
 3585TIP3    H210762   1.055   3.507   0.119
 3586TIP3   OH210763   1.437   5.047   2.283
 3586TIP3    H110764   1.369   4.984   2.261
 3586TIP3    H210765   1.409   5.086   2.365
 3587TIP3   OH210766   1.717   1.380   0.756
 3587TIP3    H110767   1.686   1.309   0.700
 3587TIP3    H210768   1.804   1.351   0.785
 3588TIP3   OH210769   3.432   3.620   3.003
 3588TIP3    H110770   3.428   3.544   3.062
 3588TIP3    H210771   3.341   3.647   2.993
 3589TIP3   OH210772   2.416   3.530   5.100
 3589TIP3    H110773   2.412   3.435   5.090
 3589TIP3    H210774   2.481   3.559   5.036
 3590TIP3   OH210775   4.066   5.671   1.163
 3590TIP3    H110776   4.097   5.597   1.216
 3590TIP3    H210777   4.146   5.706   1.123
 3591TIP3   OH210778   4.688   4.509   1.782
 3591TIP3    H110779   4.647   4.578   1.729
 3591TIP3    H210780   4.689   4.545   1.871
 3592TIP3   OH210781   1.431   1.932   2.017
 3592TIP3    H110782   1.449   2.022   2.046
 3592TIP3    H210783   1.510   1.884   2.040
 3593TIP3   OH210784   1.182   1.813   4.239
 3593TIP3    H110785   1.241   1.872   4.191
 3593TIP3    H210786   1.239   1.741   4.267
 3594TIP3   OH210787   0.648   1.304   3.373
 3594TIP3    H110788   0.649   1.323   3.467
 3594TIP3    H210789   0.714   1.236   3.362
 3595TIP3   OH210790   4.073   3.225   1.758
 3595TIP3    H110791   3.997   3.210   1.702
 3595TIP3    H210792   4.144   3.179   1.713
 3596TIP3   OH210793   3.016   2.353   2.615
 3596TIP3    H110794   3.101   2.394   2.634
 3596TIP3    H210795   2.958   2.387   2.683
 3597TIP3   OH210796   5.742   1.730   3.398
 3597TIP3    H110797   5.650   1.741   3.371
 3597TIP3    H210798   5.784   1.811   3.370
 3598TIP3   OH210799   2.999   3.827   4.616
 3598TIP3    H110800   2.943   3.753   4.593
 3598TIP3    H210801   2.988   3.837   4.711
 3599TIP3   OH210802   5.158   4.289   3.752
 3599TIP3    H110803   5.135   4.199   3.775
 3599TIP3    H210804   5.166   4.288   3.657
 3600TIP3   OH210805   5.726   5.496   1.917
 3600TIP3    H110806   5.711   5.579   1.963
 3600TIP3    H210807   5.674   5.432   1.965
 3601TIP3   OH210808   4.914   0.356   0.413
 3601TIP3    H110809   4.922   0.405   0.332
 3601TIP3    H210810   5.003   0.326   0.432
 3602TIP3   OH210811   4.781   0.466   0.082
 3602TIP3    H110812   4.695   0.506   0.066
 3602TIP3    H210813   4.777   0.382   0.036
 3603TIP3   OH210814   4.012   0.631   0.686
 3603TIP3    H110815   4.093   0.676   0.712
 3603TIP3    H210816   3.946   0.699   0.682
 3604TIP3   OH210817   5.017   3.496   2.510
 3604TIP3    H110818   5.005   3.456   2.424
 3604TIP3    H210819   4.940   3.552   2.522
 3605TIP3   OH210820   2.491   4.958   3.768
 3605TIP3    H110821   2.420   4.910   3.726
 3605TIP3    H210822   2.525   4.897   3.834
 3606TIP3   OH210823   3.819   1.247   5.072
 3606TIP3    H110824   3.831   1.341   5.056
 3606TIP3    H210825   3.901   1.219   5.111
 3607TIP3   OH210826   1.771   5.595   4.746
 3607TIP3    H110827   1.771   5.690   4.758
 3607TIP3    H210828   1.744   5.560   4.831
 3608TIP3   OH210829   2.552   5.300   3.703
 3608TIP3    H110830   2.477   5.264   3.750
 3608TIP3    H210831   2.538   5.395   3.705
 3609TIP3   OH210832   3.102   4.688   1.178
 3609TIP3    H110833   3.142   4.738   1.249
 3609TIP3    H210834   3.130   4.598   1.192
 3610TIP3   OH210835   0.417   2.564   0.190
 3610TIP3    H110836   0.393   2.526   0.275
 3610TIP3    H210837   0.348   2.626   0.170
 3611TIP3   OH210838   4.622   0.297   4.927
 3611TIP3    H110839   4.691   0.347   4.883
 3611TIP3    H210840   4.669   0.244   4.992
 3612TIP3   OH210841   1.304   2.065   4.117
 3612TIP3    H110842   1.308   2.140   4.176
 3612TIP3    H210843   1.241   2.091   4.050
 3613TIP3   OH210844   4.238   5.900   4.550
 3613TIP3    H110845   4.231   5.832   4.617
 3613TIP3    H210846   4.229   5.853   4.467
 3614TIP3   OH210847   1.590   3.723   0.766
 3614TIP3    H110848   1.538   3.643   0.772
 3614TIP3    H210849   1.641   3.713   0.686
 3615TIP3   OH210850   4.783   3.415   3.003
 3615TIP3    H110851   4.698   3.373   3.015
 3615TIP3    H210852   4.847   3.344   3.011
 3616TIP3   OH210853   2.886   5.361   4.679
 3616TIP3    H110854   2.909   5.336   4.768
 3616TIP3    H210855   2.961   5.336   4.626
 3617TIP3   OH210856   6.294   5.417   2.109
 3617TIP3    H110857   6.362   5.352   2.093
 3617TIP3    H210858   6.220   5.366   2.143
 3618TIP3   OH210859   3.239   4.131   3.740
 3618TIP3    H110860   3.246   4.036   3.730
 3618TIP3    H210861   3.188   4.144   3.820
 3619TIP3   OH210862   5.144   2.997   1.363
 3619TIP3    H110863   5.129   3.014   1.270
 3619TIP3    H210864   5.089   2.922   1.383
 3620TIP3   OH210865   2.410   0.732   0.145
 3620TIP3    H110866   2.318   0.728   0.120
 3620TIP3    H210867   2.448   0.799   0.088
 3621TIP3   OH210868   1.378   5.260   1.148
 3621TIP3    H110869   1.286   5.278   1.166
 3621TIP3    H210870   1.423   5.273   1.231
 3622TIP3   OH210871   5.549   3.018   1.572
 3622TIP3    H110872   5.531   2.980   1.487
 3622TIP3    H210873   5.465   3.018   1.617
 3623TIP3   OH210874   0.205   1.626   4.877
 3623TIP3    H110875   0.208   1.619   4.973
 3623TIP3    H210876   0.123   1.673   4.860
 3624TIP3   OH210877   3.636   2.031   2.298
 3624TIP3    H110878   3.621   2.051   2.391
 3624TIP3    H210879   3.731   2.019   2.292
 3625TIP3   OH210880   1.280   4.564   1.136
 3625TIP3    H110881   1.307   4.473   1.128
 3625TIP3    H210882   1.192   4.566   1.097
 3626TIP3   OH210883   0.946   1.289   1.302
 3626TIP3    H110884   1.034   1.319   1.326
 3626TIP3    H210885   0.930   1.328   1.216
 3627TIP3   OH210886   4.298   2.614   3.830
 3627TIP3    H110887   4.319   2.536   3.778
 3627TIP3    H210888   4.203   2.607   3.846
 3628TIP3   OH210889   4.133   1.774   3.626
 3628TIP3    H110890   4.214   1.808   3.588
 3628TIP3    H210891   4.140   1.679   3.620
 3629TIP3   OH210892   3.842   5.777   4.254
 3629TIP3    H110893   3.832   5.856   4.201
 3629TIP3    H210894   3.777   5.787   4.324
 3630TIP3   OH210895   4.925   0.934   3.369
 3630TIP3    H110896   4.835   0.955   3.345
 3630TIP3    H210897   4.963   0.893   3.291
 3631TIP3   OH210898   0.570   2.886   3.680
 3631TIP3    H110899   0.657   2.847   3.682
 3631TIP3    H210900   0.571   2.946   3.606
 3632TIP3   OH210901   1.726   5.087   0.502
 3632TIP3    H110902   1.667   5.096   0.577
 3632TIP3    H210903   1.793   5.153   0.517
 3633TIP3   OH210904   4.613   3.656   3.125
 3633TIP3    H110905   4.531   3.628   3.085
 3633TIP3    H210906   4.606   3.751   3.129
 3634TIP3   OH210907   4.500   1.846   4.480
 3634TIP3    H110908   4.536   1.921   4.528
 3634TIP3    H210909   4.449   1.798   4.545
 3635TIP3   OH210910   1.557   5.055   3.542
 3635TIP3    H110911   1.585   5.131   3.592
 3635TIP3    H210912   1.602   5.064   3.458
 3636TIP3   OH210913   3.253   0.873   1.497
 3636TIP3    H110914   3.179   0.887   1.556
 3636TIP3    H210915   3.290   0.789   1.524
 3637TIP3   OH210916   2.071   1.723   3.906
 3637TIP3    H110917   2.032   1.807   3.930
 3637TIP3    H210918   1.997   1.662   3.906
 3638TIP3   OH210919   1.586   4.313   2.402
 3638TIP3    H110920   1.631   4.387   2.444
 3638TIP3    H210921   1.655   4.269   2.351
 3639TIP3   OH210922   5.800   4.151   0.644
 3639TIP3    H110923   5.780   4.067   0.687
 3639TIP3    H210924   5.838   4.205   0.713
 3640TIP3   OH210925   5.432   1.264   3.466
 3640TIP3    H110926   5.474   1.340   3.428
 3640TIP3    H210927   5.383   1.298   3.541
 3641TIP3   OH210928   3.934   0.153   3.348
 3641TIP3    H110929   3.882   0.075   3.368
 3641TIP3    H210930   3.900   0.220   3.407
 3642TIP3   OH210931   4.574   5.575   3.211
 3642TIP3    H110932   4.577   5.660   3.254
 3642TIP3    H210933   4.481   5.559   3.197
 3643TIP3   OH210934   5.268   1.105   0.831
 3643TIP3    H110935   5.300   1.089   0.920
 3643TIP3    H210936   5.317   1.042   0.777
 3644TIP3   OH210937   2.419   4.408   2.745
 3644TIP3    H110938   2.350   4.367   2.797
 3644TIP3    H210939   2.418   4.500   2.771
 3645TIP3   OH210940   3.168   0.346   1.523
 3645TIP3    H110941   3.182   0.331   1.429
 3645TIP3    H210942   3.095   0.408   1.527
 3646TIP3   OH210943   1.703   4.349   1.326
 3646TIP3    H110944   1.779   4.367   1.271
 3646TIP3    H210945   1.633   4.404   1.290
 3647TIP3   OH210946   4.496   1.106   3.089
 3647TIP3    H110947   4.460   1.182   3.043
 3647TIP3    H210948   4.533   1.052   3.019
 3648TIP3   OH210949   2.481   0.356   4.328
 3648TIP3    H110950   2.485   0.271   4.283
 3648TIP3    H210951   2.549   0.350   4.396
 3649TIP3   OH210952   1.235   1.081   1.134
 3649TIP3    H110953   1.295   1.006   1.130
 3649TIP3    H210954   1.289   1.153   1.168
 3650TIP3   OH210955   2.200   4.018   1.538
 3650TIP3    H110956   2.159   3.944   1.583
 3650TIP3    H210957   2.143   4.092   1.558
 3651TIP3   OH210958   1.855   1.549   0.254
 3651TIP3    H110959   1.874   1.643   0.257
 3651TIP3    H210960   1.929   1.509   0.301
 3652TIP3   OH210961   5.635   1.659   3.102
 3652TIP3    H110962   5.581   1.586   3.074
 3652TIP3    H210963   5.589   1.696   3.177
 3653TIP3   OH210964   3.792   2.791   4.503
 3653TIP3    H110965   3.801   2.886   4.511
 3653TIP3    H210966   3.833   2.770   4.418
 3654TIP3   OH210967   3.609   5.305   3.358
 3654TIP3    H110968   3.642   5.378   3.304
 3654TIP3    H210969   3.521   5.332   3.384
 3655TIP3   OH210970   3.877   4.596   3.405
 3655TIP3    H110971   3.907   4.664   3.345
 3655TIP3    H210972   3.795   4.630   3.440
 3656TIP3   OH210973   4.783   4.628   3.781
 3656TIP3    H110974   4.847   4.694   3.807
 3656TIP3    H210975   4.729   4.671   3.714
 3657TIP3   OH210976   6.201   5.133   1.029
 3657TIP3    H110977   6.141   5.061   1.006
 3657TIP3    H210978   6.256   5.098   1.098
 3658TIP3   OH210979   0.315   1.112   2.196
 3658TIP3    H110980   0.344   1.036   2.246
 3658TIP3    H210981   0.379   1.181   2.217
 3659TIP3   OH210982   0.914   5.362   0.697
 3659TIP3    H110983   0.989   5.403   0.741
 3659TIP3    H210984   0.841   5.421   0.713
 3660TIP3   OH210985   1.589   1.204   2.386
 3660TIP3    H110986   1.539   1.281   2.360
 3660TIP3    H210987   1.546   1.173   2.466
 3661TIP3   OH210988   3.630   3.338   4.109
 3661TIP3    H110989   3.696   3.333   4.178
 3661TIP3    H210990   3.551   3.302   4.149
 3662TIP3   OH210991   3.811   4.658   4.443
 3662TIP3    H110992   3.781   4.570   4.464
 3662TIP3    H210993   3.769   4.714   4.508
 3663TIP3   OH210994   0.788   5.811   4.315
 3663TIP3    H110995   0.856   5.797   4.249
 3663TIP3    H210996   0.812   5.751   4.387
 3664TIP3   OH210997   5.667   1.396   4.883
 3664TIP3    H110998   5.663   1.339   4.806
 3664TIP3    H210999   5.678   1.484   4.847
 3665TIP3   OH211000   5.464   3.574   1.692
 3665TIP3    H111001   5.507   3.493   1.719
 3665TIP3    H211002   5.387   3.545   1.643
 3666TIP3   OH211003   0.083   0.937   4.388
 3666TIP3    H111004   0.064   0.980   4.305
 3666TIP3    H211005   0.024   0.978   4.451
 3667TIP3   OH211006   0.315   5.823   1.373
 3667TIP3    H111007   0.397   5.798   1.331
 3667TIP3    H211008   0.257   5.748   1.357
 3668TIP3   OH211009   1.023   1.925   0.742
 3668TIP3    H111010   1.075   1.995   0.781
 3668TIP3    H211011   0.945   1.969   0.708
 3669TIP3   OH211012   0.068   5.575   1.152
 3669TIP3    H111013   0.159   5.564   1.127
 3669TIP3    H211014   0.049   5.502   1.211
 3670TIP3   OH211015   4.803   3.956   3.854
 3670TIP3    H111016   4.807   3.867   3.818
 3670TIP3    H211017   4.736   3.951   3.922
 3671TIP3   OH211018   6.232   0.060   1.715
 3671TIP3    H111019   6.262   0.118   1.645
 3671TIP3    H211020   6.158   0.106   1.754
 3672TIP3   OH211021   2.341   3.815   1.801
 3672TIP3    H111022   2.340   3.908   1.826
 3672TIP3    H211023   2.250   3.797   1.776
 3673TIP3   OH211024   4.718   3.401   1.452
 3673TIP3    H111025   4.678   3.326   1.496
 3673TIP3    H211026   4.794   3.422   1.506
 3674TIP3   OH211027   4.561   1.408   2.061
 3674TIP3    H111028   4.481   1.418   2.112
 3674TIP3    H211029   4.605   1.493   2.070
 3675TIP3   OH211030   3.973   2.483   2.744
 3675TIP3    H111031   3.931   2.460   2.827
 3675TIP3    H211032   3.920   2.441   2.677
 3676TIP3   OH211033   2.705   2.364   4.867
 3676TIP3    H111034   2.751   2.320   4.938
 3676TIP3    H211035   2.653   2.295   4.826
 3677TIP3   OH211036   3.514   4.522   1.907
 3677TIP3    H111037   3.487   4.550   1.995
 3677TIP3    H211038   3.434   4.526   1.855
 3678TIP3   OH211039   0.312   5.588   1.045
 3678TIP3    H111040   0.355   5.511   1.007
 3678TIP3    H211041   0.384   5.644   1.074
 3679TIP3   OH211042   2.932   2.974   3.895
 3679TIP3    H111043   2.880   2.923   3.832
 3679TIP3    H211044   2.893   3.062   3.893
 3680TIP3   OH211045   4.209   3.882   1.286
 3680TIP3    H111046   4.207   3.942   1.361
 3680TIP3    H211047   4.184   3.797   1.323
 3681TIP3   OH211048   1.589   1.535   1.005
 3681TIP3    H111049   1.550   1.582   0.931
 3681TIP3    H211050   1.633   1.460   0.965
 3682TIP3   OH211051   5.332   2.673   0.562
 3682TIP3    H111052   5.272   2.741   0.531
 3682TIP3    H211053   5.275   2.602   0.591
 3683TIP3   OH211054   3.557   4.637   1.371
 3683TIP3    H111055   3.547   4.696   1.445
 3683TIP3    H211056   3.516   4.556   1.398
 3684TIP3   OH211057   5.345   1.761   2.928
 3684TIP3    H111058   5.355   1.853   2.904
 3684TIP3    H211059   5.322   1.717   2.846
 3685TIP3   OH211060   4.969   5.135   1.608
 3685TIP3    H111061   5.053   5.179   1.599
 3685TIP3    H211062   4.919   5.163   1.531
 3686TIP3   OH211063   4.531   0.330   0.805
 3686TIP3    H111064   4.602   0.295   0.752
 3686TIP3    H211065   4.526   0.423   0.781
 3687TIP3   OH211066   1.383   5.728   2.898
 3687TIP3    H111067   1.330   5.797   2.857
 3687TIP3    H211068   1.402   5.667   2.826
 3688TIP3   OH211069   5.583   2.979   4.812
 3688TIP3    H111070   5.651   3.021   4.758
 3688TIP3    H211071   5.525   2.938   4.748
 3689TIP3   OH211072   6.261   2.483   1.683
 3689TIP3    H111073   6.345   2.518   1.654
 3689TIP3    H211074   6.278   2.445   1.769
 3690TIP3   OH211075   2.993   2.453   1.783
 3690TIP3    H111076   3.014   2.435   1.875
 3690TIP3    H211077   2.909   2.410   1.770
 3691TIP3   OH211078   3.419   1.259   0.472
 3691TIP3    H111079   3.405   1.179   0.522
 3691TIP3    H211080   3.391   1.330   0.530
 3692TIP3   OH211081   5.107   0.478   2.689
 3692TIP3    H111082   5.030   0.485   2.633
 3692TIP3    H211083   5.076   0.502   2.776
 3693TIP3   OH211084   5.002   0.143   1.892
 3693TIP3    H111085   5.085   0.113   1.929
 3693TIP3    H211086   4.976   0.073   1.832
 3694TIP3   OH211087   3.653   2.452   1.182
 3694TIP3    H111088   3.608   2.368   1.169
 3694TIP3    H211089   3.601   2.515   1.132
 3695TIP3   OH211090   0.398   2.518   3.750
 3695TIP3    H111091   0.405   2.563   3.666
 3695TIP3    H211092   0.379   2.427   3.727
 3696TIP3   OH211093   2.905   0.344   4.124
 3696TIP3    H111094   2.876   0.417   4.178
 3696TIP3    H211095   2.971   0.300   4.178
 3697TIP3   OH211096   5.471   2.964   3.566
 3697TIP3    H111097   5.438   2.876   3.586
 3697TIP3    H211098   5.508   2.957   3.478
 3698TIP3   OH211099   0.646   5.555   3.488
 3698TIP3    H111100   0.688   5.641   3.487
 3698TIP3    H211101   0.703   5.500   3.435
 3699TIP3   OH211102   2.611   0.119   2.230
 3699TIP3    H111103   2.558   0.097   2.154
 3699TIP3    H211104   2.565   0.193   2.270
 3700TIP3   OH211105   4.047   1.941   1.254
 3700TIP3    H111106   4.046   1.893   1.171
 3700TIP3    H211107   4.066   2.031   1.229
 3701TIP3   OH211108   1.328   0.412   4.135
 3701TIP3    H111109   1.392   0.385   4.201
 3701TIP3    H211110   1.378   0.416   4.054
 3702TIP3   OH211111   6.191   4.976   2.141
 3702TIP3    H111112   6.178   5.071   2.139
 3702TIP3    H211113   6.161   4.949   2.227
 3703TIP3   OH211114   1.774   5.702   2.073
 3703TIP3    H111115   1.686   5.737   2.058
 3703TIP3    H211116   1.777   5.621   2.024
 3704TIP3   OH211117   5.048   3.278   2.002
 3704TIP3    H111118   5.112   3.210   1.980
 3704TIP3    H211119   4.972   3.258   1.949
 3705TIP3   OH211120   3.142   3.161   0.696
 3705TIP3    H111121   3.063   3.108   0.705
 3705TIP3    H211122   3.110   3.246   0.667
 3706TIP3   OH211123   4.059   3.723   2.486
 3706TIP3    H111124   4.135   3.764   2.527
 3706TIP3    H211125   4.093   3.643   2.447
 3707TIP3   OH211126   1.635   2.804   0.002
 3707TIP3    H111127   1.551   2.849   0.005
 3707TIP3    H211128   1.626   2.730   0.062
 3708TIP3   OH211129   5.345   5.291   0.234
 3708TIP3    H111130   5.434   5.275   0.202
 3708TIP3    H211131   5.358   5.333   0.319
 3709TIP3   OH211132   5.923   0.961   4.865
 3709TIP3    H111133   5.850   0.943   4.925
 3709TIP3    H211134   5.995   0.988   4.923
 3710TIP3   OH211135   2.349   3.716   3.810
 3710TIP3    H111136   2.329   3.805   3.841
 3710TIP3    H211137   2.290   3.703   3.736
 3711TIP3   OH211138   0.324   0.286   4.446
 3711TIP3    H111139   0.377   0.283   4.366
 3711TIP3    H211140   0.257   0.219   4.433
 3712TIP3   OH211141   4.444   3.897   2.541
 3712TIP3    H111142   4.508   3.887   2.470
 3712TIP3    H211143   4.496   3.902   2.621
 3713TIP3   OH211144   3.882   5.531   0.157
 3713TIP3    H111145   3.876   5.568   0.069
 3713TIP3    H211146   3.824   5.586   0.210
 3714TIP3   OH211147   5.645   3.763   1.638
 3714TIP3    H111148   5.563   3.721   1.664
 3714TIP3    H211149   5.640   3.770   1.543
 3715TIP3   OH211150  -0.033   5.128   4.516
 3715TIP3    H111151   0.032   5.156   4.580
 3715TIP3    H211152   0.017   5.076   4.453
 3716TIP3   OH211153   0.928   2.875   0.010
 3716TIP3    H111154   0.848   2.848   0.055
 3716TIP3    H211155   0.994   2.882   0.079
 3717TIP3   OH211156   2.389   0.477   1.369
 3717TIP3    H111157   2.477   0.488   1.405
 3717TIP3    H211158   2.364   0.387   1.393
 3718TIP3   OH211159   4.301   5.227   4.625
 3718TIP3    H111160   4.379   5.262   4.669
 3718TIP3    H211161   4.294   5.137   4.656
 3719TIP3   OH211162   1.604   4.928   0.142
 3719TIP3    H111163   1.690   4.938   0.182
 3719TIP3    H211164   1.619   4.868   0.069
 3720TIP3   OH211165   2.162   1.846   0.213
 3720TIP3    H111166   2.193   1.937   0.219
 3720TIP3    H211167   2.187   1.807   0.297
 3721TIP3   OH211168   2.206   5.711   3.514
 3721TIP3    H111169   2.296   5.689   3.490
 3721TIP3    H211170   2.169   5.752   3.436
 3722TIP3   OH211171   3.016   4.678   2.139
 3722TIP3    H111172   2.999   4.764   2.177
 3722TIP3    H211173   2.967   4.618   2.195
 3723TIP3   OH211174   0.500   1.829   4.668
 3723TIP3    H111175   0.417   1.794   4.637
 3723TIP3    H211176   0.542   1.864   4.589
 3724TIP3   OH211177   1.449   2.607   5.044
 3724TIP3    H111178   1.473   2.515   5.040
 3724TIP3    H211179   1.526   2.651   5.078
 3725TIP3   OH211180   4.510   2.774   1.213
 3725TIP3    H111181   4.575   2.709   1.187
 3725TIP3    H211182   4.441   2.724   1.257
 3726TIP3   OH211183   2.175   0.649   1.340
 3726TIP3    H111184   2.117   0.612   1.274
 3726TIP3    H211185   2.255   0.596   1.334
 3727TIP3   OH211186   4.031   4.500   4.299
 3727TIP3    H111187   4.002   4.522   4.211
 3727TIP3    H211188   4.040   4.404   4.299
 3728TIP3   OH211189   0.653   0.165   2.146
 3728TIP3    H111190   0.628   0.141   2.057
 3728TIP3    H211191   0.748   0.178   2.141
 3729TIP3   OH211192   3.693   2.369   2.890
 3729TIP3    H111193   3.633   2.387   2.963
 3729TIP3    H211194   3.647   2.401   2.813
 3730TIP3   OH211195   1.277   4.280   3.098
 3730TIP3    H111196   1.350   4.217   3.104
 3730TIP3    H211197   1.320   4.365   3.091
 3731TIP3   OH211198   1.865   4.900   3.768
 3731TIP3    H111199   1.888   4.829   3.828
 3731TIP3    H211200   1.796   4.949   3.814
 3732TIP3   OH211201   0.802   0.032   0.507
 3732TIP3    H111202   0.825  -0.052   0.467
 3732TIP3    H211203   0.853   0.097   0.458
 3733TIP3   OH211204   2.994   3.057   1.805
 3733TIP3    H111205   3.079   3.024   1.778
 3733TIP3    H211206   2.995   3.051   1.900
 3734TIP3   OH211207   4.265   5.311   2.363
 3734TIP3    H111208   4.296   5.240   2.308
 3734TIP3    H211209   4.249   5.271   2.448
 3735TIP3   OH211210   1.917   2.831   0.610
 3735TIP3    H111211   1.950   2.825   0.700
 3735TIP3    H211212   1.914   2.925   0.591
 3736TIP3   OH211213   4.285   4.630   1.911
 3736TIP3    H111214   4.370   4.672   1.915
 3736TIP3    H211215   4.241   4.657   1.992
 3737TIP3   OH211216   0.072   4.239   4.872
 3737TIP3    H111217   0.121   4.205   4.798
 3737TIP3    H211218   0.064   4.164   4.932
 3738TIP3   OH211219   1.163   0.125   0.288
 3738TIP3    H111220   1.204   0.046   0.324
 3738TIP3    H211221   1.112   0.160   0.361
 3739TIP3   OH211222   4.411   3.472   2.603
 3739TIP3    H111223   4.498   3.507   2.618
 3739TIP3    H211224   4.398   3.476   2.508
 3740TIP3   OH211225   2.889   0.878   3.615
 3740TIP3    H111226   2.944   0.876   3.694
 3740TIP3    H211227   2.815   0.934   3.639
 3741TIP3   OH211228   3.809   5.477   3.584
 3741TIP3    H111229   3.903   5.455   3.585
 3741TIP3    H211230   3.774   5.439   3.664
 3742TIP3   OH211231   1.966   2.596   1.706
 3742TIP3    H111232   1.957   2.575   1.613
 3742TIP3    H211233   2.037   2.660   1.709
 3743TIP3   OH211234   1.217   0.153   1.152
 3743TIP3    H111235   1.138   0.110   1.119
 3743TIP3    H211236   1.188   0.241   1.175
 3744TIP3   OH211237   0.197   3.764   3.750
 3744TIP3    H111238   0.252   3.804   3.683
 3744TIP3    H211239   0.108   3.791   3.727
 3745TIP3   OH211240   5.954   3.913   2.500
 3745TIP3    H111241   5.891   3.976   2.536
 3745TIP3    H211242   6.022   3.967   2.459
 3746TIP3   OH211243   5.686   3.878   0.693
 3746TIP3    H111244   5.650   3.900   0.608
 3746TIP3    H211245   5.728   3.793   0.681
 3747TIP3   OH211246   2.551   4.950   2.934
 3747TIP3    H111247   2.501   4.990   3.005
 3747TIP3    H211248   2.558   5.019   2.868
 3748TIP3   OH211249   6.106   0.967   4.150
 3748TIP3    H111250   6.095   0.874   4.134
 3748TIP3    H211251   6.094   1.008   4.065
 3749TIP3   OH211252   3.645   3.499   4.933
 3749TIP3    H111253   3.597   3.448   4.999
 3749TIP3    H211254   3.645   3.588   4.967
 3750TIP3   OH211255   4.351   4.449   4.824
 3750TIP3    H111256   4.319   4.536   4.847
 3750TIP3    H211257   4.356   4.450   4.728
 3751TIP3   OH211258   0.899   4.605   2.513
 3751TIP3    H111259   0.826   4.643   2.464
 3751TIP3    H211260   0.875   4.514   2.525
 3752TIP3   OH211261   0.699   4.597   2.796
 3752TIP3    H111262   0.733   4.679   2.831
 3752TIP3    H211263   0.668   4.619   2.708
 3753TIP3   OH211264   5.872   5.364   0.442
 3753TIP3    H111265   5.966   5.385   0.444
 3753TIP3    H211266   5.867   5.272   0.468
 3754TIP3   OH211267   3.202   2.819   2.155
 3754TIP3    H111268   3.246   2.862   2.229
 3754TIP3    H211269   3.168   2.891   2.103
 3755TIP3   OH211270   3.340   1.770   4.030
 3755TIP3    H111271   3.303   1.800   3.947
 3755TIP3    H211272   3.264   1.752   4.086
 3756TIP3   OH211273   1.040   3.927   1.035
 3756TIP3    H111274   1.002   3.968   0.957
 3756TIP3    H211275   1.086   3.850   1.001
 3757TIP3   OH211276   4.518   5.356   1.052
 3757TIP3    H111277   4.600   5.391   1.015
 3757TIP3    H211278   4.461   5.342   0.977
 3758TIP3   OH211279   4.462   3.116   1.036
 3758TIP3    H111280   4.474   3.191   0.978
 3758TIP3    H211281   4.551   3.091   1.061
 3759TIP3   OH211282   1.049   5.074   3.595
 3759TIP3    H111283   1.044   5.104   3.686
 3759TIP3    H211284   1.038   4.979   3.601
 3760TIP3   OH211285   4.828   1.519   2.699
 3760TIP3    H111286   4.753   1.459   2.696
 3760TIP3    H211287   4.867   1.505   2.785
 3761TIP3   OH211288   2.394   4.615   3.036
 3761TIP3    H111289   2.341   4.535   3.035
 3761TIP3    H211290   2.331   4.686   3.030
 3762TIP3   OH211291   4.677   3.972   0.564
 3762TIP3    H111292   4.695   3.922   0.644
 3762TIP3    H211293   4.757   3.962   0.511
 3763TIP3   OH211294   1.682   5.709   3.623
 3763TIP3    H111295   1.667   5.642   3.557
 3763TIP3    H211296   1.772   5.694   3.652
 3764TIP3   OH211297   0.367   5.919   5.089
 3764TIP3    H111298   0.374   5.918   4.994
 3764TIP3    H211299   0.425   5.849   5.119
 3765TIP3   OH211300   0.683   0.144   2.969
 3765TIP3    H111301   0.727   0.227   2.948
 3765TIP3    H211302   0.750   0.077   2.957
 3766TIP3   OH211303   1.768   0.823   0.580
 3766TIP3    H111304   1.770   0.728   0.565
 3766TIP3    H211305   1.794   0.861   0.496
 3767TIP3   OH211306   3.239   0.662   3.743
 3767TIP3    H111307   3.318   0.711   3.763
 3767TIP3    H211308   3.170   0.701   3.797
 3768TIP3   OH211309   3.254   2.064   2.625
 3768TIP3    H111310   3.298   1.982   2.603
 3768TIP3    H211311   3.303   2.098   2.700
 3769TIP3   OH211312   0.095   0.898   0.087
 3769TIP3    H111313   0.014   0.887   0.036
 3769TIP3    H211314   0.068   0.948   0.164
 3770TIP3   OH211315   2.111   1.398   1.778
 3770TIP3    H111316   2.025   1.439   1.784
 3770TIP3    H211317   2.094   1.305   1.794
 3771TIP3   OH211318   4.682   5.197   4.747
 3771TIP3    H111319   4.648   5.282   4.720
 3771TIP3    H211320   4.720   5.159   4.668
 3772TIP3   OH211321   3.006   1.058   2.363
 3772TIP3    H111322   2.943   1.126   2.387
 3772TIP3    H211323   2.953   0.989   2.324
 3773TIP3   OH211324   0.499   5.499   1.859
 3773TIP3    H111325   0.509   5.520   1.952
 3773TIP3    H211326   0.413   5.456   1.854
 3774TIP3   OH211327   1.010   2.290   1.745
 3774TIP3    H111328   0.931   2.336   1.774
 3774TIP3    H211329   0.977   2.219   1.690
 3775TIP3   OH211330   2.343   1.291   0.218
 3775TIP3    H111331   2.276   1.246   0.166
 3775TIP3    H211332   2.299   1.367   0.253
 3776TIP3   OH211333   4.540   4.192   2.768
 3776TIP3    H111334   4.554   4.097   2.771
 3776TIP3    H211335   4.629   4.228   2.762
 3777TIP3   OH211336   4.601   4.743   1.639
 3777TIP3    H111337   4.529   4.718   1.583
 3777TIP3    H211338   4.662   4.789   1.581
 3778TIP3   OH211339   3.261   1.816   1.722
 3778TIP3    H111340   3.330   1.872   1.759
 3778TIP3    H211341   3.309   1.752   1.670
 3779TIP3   OH211342   2.785   5.800   3.240
 3779TIP3    H111343   2.743   5.835   3.319
 3779TIP3    H211344   2.778   5.870   3.176
 3780TIP3   OH211345   3.110   4.955   4.227
 3780TIP3    H111346   3.018   4.931   4.242
 3780TIP3    H211347   3.118   5.042   4.267
 3781TIP3   OH211348   0.894   1.441   1.066
 3781TIP3    H111349   0.925   1.527   1.094
 3781TIP3    H211350   0.799   1.452   1.057
 3782TIP3   OH211351   4.012   2.254   3.511
 3782TIP3    H111352   3.998   2.337   3.464
 3782TIP3    H211353   3.961   2.263   3.592
 3783TIP3   OH211354   5.535   1.453   1.854
 3783TIP3    H111355   5.441   1.448   1.836
 3783TIP3    H211356   5.544   1.417   1.943
 3784TIP3   OH211357   1.207   4.456   3.555
 3784TIP3    H111358   1.199   4.463   3.650
 3784TIP3    H211359   1.127   4.496   3.521
 3785TIP3   OH211360   2.215   5.413   3.283
 3785TIP3    H111361   2.234   5.392   3.374
 3785TIP3    H211362   2.298   5.447   3.248
 3786TIP3   OH211363   4.295   0.548   4.124
 3786TIP3    H111364   4.255   0.614   4.180
 3786TIP3    H211365   4.358   0.597   4.071
 3787TIP3   OH211366   1.653   4.864   3.311
 3787TIP3    H111367   1.726   4.872   3.373
 3787TIP3    H211368   1.666   4.934   3.248
 3788TIP3   OH211369   1.367   3.140   0.442
 3788TIP3    H111370   1.391   3.137   0.349
 3788TIP3    H211371   1.358   3.233   0.462
 3789TIP3   OH211372   2.512   1.119   2.321
 3789TIP3    H111373   2.470   1.156   2.398
 3789TIP3    H211374   2.480   1.029   2.317
 3790TIP3   OH211375   2.005   2.437   3.451
 3790TIP3    H111376   1.946   2.502   3.489
 3790TIP3    H211377   2.091   2.477   3.454
 3791TIP3   OH211378   1.999   2.319   4.671
 3791TIP3    H111379   1.914   2.315   4.715
 3791TIP3    H211380   2.004   2.238   4.621
 3792TIP3   OH211381   4.481   5.634   4.405
 3792TIP3    H111382   4.397   5.677   4.388
 3792TIP3    H211383   4.459   5.541   4.409
 3793TIP3   OH211384   2.832   4.993   5.070
 3793TIP3    H111385   2.751   4.975   5.022
 3793TIP3    H211386   2.891   4.923   5.044
 3794TIP3   OH211387   5.755   0.738   0.973
 3794TIP3    H111388   5.814   0.812   0.988
 3794TIP3    H211389   5.811   0.661   0.973
 3795TIP3   OH211390   2.433   0.710   2.486
 3795TIP3    H111391   2.407   0.667   2.405
 3795TIP3    H211392   2.393   0.657   2.555
 3796TIP3   OH211393   5.477   4.950   0.356
 3796TIP3    H111394   5.386   4.951   0.387
 3796TIP3    H211395   5.521   5.018   0.407
 3797TIP3   OH211396   2.824   4.687   3.450
 3797TIP3    H111397   2.743   4.729   3.422
 3797TIP3    H211398   2.807   4.661   3.541
 3798TIP3   OH211399   2.075   3.013   2.012
 3798TIP3    H111400   2.005   3.021   2.076
 3798TIP3    H211401   2.123   2.934   2.038
 3799TIP3   OH211402   3.998   4.792   4.253
 3799TIP3    H111403   4.033   4.881   4.263
 3799TIP3    H211404   3.957   4.792   4.167
 3800TIP3   OH211405   1.349   5.026   0.549
 3800TIP3    H111406   1.315   5.063   0.631
 3800TIP3    H211407   1.444   5.022   0.562
 3801TIP3   OH211408   6.079   5.728   4.002
 3801TIP3    H111409   6.033   5.777   3.933
 3801TIP3    H211410   6.099   5.644   3.961
 3802TIP3   OH211411   0.578   4.128   0.416
 3802TIP3    H111412   0.651   4.086   0.461
 3802TIP3    H211413   0.501   4.076   0.439
 3803TIP3   OH211414   6.287   5.922   3.340
 3803TIP3    H111415   6.296   6.009   3.381
 3803TIP3    H211416   6.356   5.920   3.274
 3804TIP3   OH211417   3.945   5.096   2.983
 3804TIP3    H111418   3.879   5.038   3.022
 3804TIP3    H211419   3.950   5.170   3.043
 3805TIP3   OH211420   2.428   1.018   1.861
 3805TIP3    H111421   2.346   1.050   1.898
 3805TIP3    H211422   2.438   0.930   1.896
 3806TIP3   OH211423   1.446   0.371   3.884
 3806TIP3    H111424   1.449   0.276   3.891
 3806TIP3    H211425   1.465   0.389   3.792
 3807TIP3   OH211426   5.734   1.310   2.181
 3807TIP3    H111427   5.803   1.343   2.239
 3807TIP3    H211428   5.756   1.218   2.166
 3808TIP3   OH211429   2.527   1.671   3.594
 3808TIP3    H111430   2.526   1.576   3.579
 3808TIP3    H211431   2.507   1.708   3.509
 3809TIP3   OH211432   3.649   0.382   2.401
 3809TIP3    H111433   3.737   0.416   2.384
 3809TIP3    H211434   3.595   0.459   2.416
 3810TIP3   OH211435   4.128   1.773   3.889
 3810TIP3    H111436   4.191   1.839   3.918
 3810TIP3    H211437   4.132   1.775   3.794
 3811TIP3   OH211438   4.496   0.020   3.900
 3811TIP3    H111439   4.581  -0.020   3.918
 3811TIP3    H211440   4.511   0.072   3.821
 3812TIP3   OH211441   6.222   5.791   3.679
 3812TIP3    H111442   6.144   5.828   3.637
 3812TIP3    H211443   6.269   5.868   3.713
 3813TIP3   OH211444   5.974   3.260   0.596
 3813TIP3    H111445   5.931   3.175   0.590
 3813TIP3    H211446   5.960   3.289   0.686
 3814TIP3   OH211447   6.200   2.734   4.074
 3814TIP3    H111448   6.246   2.776   4.002
 3814TIP3    H211449   6.142   2.670   4.032
 3815TIP3   OH211450   0.849   1.754   0.995
 3815TIP3    H111451   0.938   1.775   0.964
 3815TIP3    H211452   0.792   1.807   0.940
 3816TIP3   OH211453   2.414   0.039   3.386
 3816TIP3    H111454   2.338   0.029   3.443
 3816TIP3    H211455   2.489   0.039   3.446
 3817TIP3   OH211456   4.763   1.592   2.230
 3817TIP3    H111457   4.826   1.660   2.254
 3817TIP3    H211458   4.815   1.526   2.184
 3818TIP3   OH211459   0.451   0.438   1.113
 3818TIP3    H111460   0.483   0.377   1.179
 3818TIP3    H211461   0.395   0.498   1.163
 3819TIP3   OH211462   1.485   4.924   1.546
 3819TIP3    H111463   1.410   4.869   1.523
 3819TIP3    H211464   1.555   4.895   1.488
 3820TIP3   OH211465   6.144   0.923   2.377
 3820TIP3    H111466   6.195   0.953   2.302
 3820TIP3    H211467   6.208   0.885   2.437
 3821TIP3   OH211468   1.380   0.394   2.012
 3821TIP3    H111469   1.305   0.335   2.020
 3821TIP3    H211470   1.450   0.351   2.062
 3822TIP3   OH211471   3.943   2.871   0.637
 3822TIP3    H111472   4.010   2.901   0.699
 3822TIP3    H211473   3.870   2.843   0.693
 3823TIP3   OH211474   4.019   4.118   2.620
 3823TIP3    H111475   4.090   4.085   2.565
 3823TIP3    H211476   3.939   4.091   2.575
 3824TIP3   OH211477   2.565   2.759   0.407
 3824TIP3    H111478   2.575   2.807   0.325
 3824TIP3    H211479   2.470   2.750   0.418
 3825TIP3   OH211480   5.484   2.859   1.338
 3825TIP3    H111481   5.524   2.851   1.251
 3825TIP3    H211482   5.391   2.870   1.319
 3826TIP3   OH211483   4.625   2.853   4.037
 3826TIP3    H111484   4.621   2.770   3.989
 3826TIP3    H211485   4.693   2.903   3.994
 3827TIP3   OH211486   5.822   1.028   0.928
 3827TIP3    H111487   5.802   1.082   0.851
 3827TIP3    H211488   5.762   1.058   0.995
 3828TIP3   OH211489   0.994   1.119   3.329
 3828TIP3    H111490   0.919   1.062   3.309
 3828TIP3    H211491   1.063   1.088   3.271
 3829TIP3   OH211492   1.406   5.490   2.691
 3829TIP3    H111493   1.461   5.541   2.633
 3829TIP3    H211494   1.460   5.415   2.717
 3830TIP3   OH211495   3.769   3.833   1.679
 3830TIP3    H111496   3.724   3.884   1.611
 3830TIP3    H211497   3.861   3.836   1.653
 3831TIP3   OH211498   3.382   5.627   1.964
 3831TIP3    H111499   3.291   5.611   1.939
 3831TIP3    H211500   3.390   5.722   1.967
 3832TIP3   OH211501   4.925   0.227   3.739
 3832TIP3    H111502   4.925   0.287   3.813
 3832TIP3    H211503   5.012   0.187   3.740
 3833TIP3   OH211504   1.630   4.040   2.532
 3833TIP3    H111505   1.580   4.084   2.600
 3833TIP3    H211506   1.612   4.090   2.452
 3834TIP3   OH211507   1.910   3.812   3.476
 3834TIP3    H111508   1.841   3.828   3.411
 3834TIP3    H211509   1.947   3.898   3.494
 3835TIP3   OH211510   2.526   2.007   1.543
 3835TIP3    H111511   2.468   2.082   1.530
 3835TIP3    H211512   2.565   1.992   1.457
 3836TIP3   OH211513   0.057   1.758   0.673
 3836TIP3    H111514   0.050   1.717   0.759
 3836TIP3    H211515   0.053   1.685   0.611
 3837TIP3   OH211516   0.547   1.340   4.186
 3837TIP3    H111517   0.637   1.354   4.158
 3837TIP3    H211518   0.520   1.425   4.222
 3838TIP3   OH211519   3.344   2.626   1.953
 3838TIP3    H111520   3.381   2.571   2.022
 3838TIP3    H211521   3.303   2.699   2.000
 3839TIP3   OH211522   1.261   0.650   3.090
 3839TIP3    H111523   1.231   0.567   3.051
 3839TIP3    H211524   1.216   0.717   3.039
 3840TIP3   OH211525   3.318   0.740   4.564
 3840TIP3    H111526   3.362   0.808   4.616
 3840TIP3    H211527   3.375   0.663   4.573
 3841TIP3   OH211528   5.402   0.793   1.741
 3841TIP3    H111529   5.312   0.818   1.763
 3841TIP3    H211530   5.444   0.875   1.714
 3842TIP3   OH211531   2.907   2.481   1.061
 3842TIP3    H111532   2.941   2.430   0.988
 3842TIP3    H211533   2.900   2.419   1.133
 3843TIP3   OH211534   5.230   4.238   4.548
 3843TIP3    H111535   5.324   4.225   4.537
 3843TIP3    H211536   5.222   4.323   4.593
 3844TIP3   OH211537   5.571   0.406   0.473
 3844TIP3    H111538   5.494   0.450   0.440
 3844TIP3    H211539   5.547   0.314   0.478
 3845TIP3   OH211540   6.245   1.987   0.695
 3845TIP3    H111541   6.228   2.027   0.610
 3845TIP3    H211542   6.309   1.918   0.677
 3846TIP3   OH211543   1.135   4.136   3.646
 3846TIP3    H111544   1.146   4.076   3.572
 3846TIP3    H211545   1.169   4.220   3.613
 3847TIP3   OH211546   0.514   2.843   3.301
 3847TIP3    H111547   0.592   2.853   3.355
 3847TIP3    H211548   0.453   2.909   3.334
 3848TIP3   OH211549   2.667   3.016   4.088
 3848TIP3    H111550   2.582   3.061   4.086
 3848TIP3    H211551   2.704   3.031   4.002
 3849TIP3   OH211552   4.928   0.016   4.847
 3849TIP3    H111553   5.001   0.043   4.902
 3849TIP3    H211554   4.851   0.057   4.886
 3850TIP3   OH211555   3.476   0.568   3.909
 3850TIP3    H111556   3.428   0.549   3.990
 3850TIP3    H211557   3.552   0.618   3.939
 3851TIP3   OH211558   6.065   0.622   5.035
 3851TIP3    H111559   5.988   0.659   5.078
 3851TIP3    H211560   6.096   0.555   5.095
 3852TIP3   OH211561   1.170   3.090   1.786
 3852TIP3    H111562   1.090   3.037   1.791
 3852TIP3    H211563   1.234   3.032   1.746
 3853TIP3   OH211564   1.043   5.047   4.538
 3853TIP3    H111565   0.983   4.991   4.587
 3853TIP3    H211566   1.113   5.068   4.599
 3854TIP3   OH211567   4.500   4.882   3.172
 3854TIP3    H111568   4.550   4.963   3.187
 3854TIP3    H211569   4.478   4.885   3.079
 3855TIP3   OH211570   3.248   0.970   2.459
 3855TIP3    H111571   3.332   1.007   2.432
 3855TIP3    H211572   3.188   0.991   2.388
 3856TIP3   OH211573   6.090   1.506   0.753
 3856TIP3    H111574   6.001   1.485   0.726
 3856TIP3    H211575   6.145   1.467   0.686
 3857TIP3   OH211576   4.469   0.771   3.278
 3857TIP3    H111577   4.400   0.722   3.232
 3857TIP3    H211578   4.475   0.729   3.364
 3858TIP3   OH211579   4.302   5.402   4.382
 3858TIP3    H111580   4.328   5.311   4.373
 3858TIP3    H211581   4.267   5.409   4.471
 3859TIP3   OH211582   5.212   3.064   1.971
 3859TIP3    H111583   5.273   3.111   1.913
 3859TIP3    H211584   5.259   3.057   2.054
 3860TIP3   OH211585   4.059   1.790   1.005
 3860TIP3    H111586   3.974   1.763   1.040
 3860TIP3    H211587   4.040   1.870   0.957
 3861TIP3   OH211588   1.307   4.466   3.824
 3861TIP3    H111589   1.315   4.557   3.853
 3861TIP3    H211590   1.341   4.415   3.898
 3862TIP3   OH211591   3.390   1.676   0.959
 3862TIP3    H111592   3.441   1.745   0.916
 3862TIP3    H211593   3.334   1.641   0.889
 3863TIP3   OH211594   4.007   2.956   5.037
 3863TIP3    H111595   4.088   3.003   5.055
 3863TIP3    H211596   3.946   2.986   5.104
 3864TIP3   OH211597   1.998   5.214   3.790
 3864TIP3    H111598   1.936   5.246   3.855
 3864TIP3    H211599   2.048   5.146   3.836
 3865TIP3   OH211600   1.739   5.252   1.956
 3865TIP3    H111601   1.684   5.308   2.011
 3865TIP3    H211602   1.718   5.163   1.984
 3866TIP3   OH211603   0.586   1.292   4.680
 3866TIP3    H111604   0.544   1.368   4.720
 3866TIP3    H211605   0.593   1.228   4.751
 3867TIP3   OH211606   2.851   5.546   4.941
 3867TIP3    H111607   2.792   5.523   5.012
 3867TIP3    H211608   2.812   5.508   4.863
 3868TIP3   OH211609   6.133   5.326   4.845
 3868TIP3    H111610   6.202   5.390   4.829
 3868TIP3    H211611   6.100   5.304   4.758
 3869TIP3   OH211612   5.142   5.935   1.698
 3869TIP3    H111613   5.209   5.993   1.664
 3869TIP3    H211614   5.175   5.906   1.783
 3870TIP3   OH211615   3.093   0.947   3.801
 3870TIP3    H111616   3.114   1.040   3.799
 3870TIP3    H211617   3.169   0.906   3.843
 3871TIP3   OH211618   0.792   3.012   4.732
 3871TIP3    H111619   0.780   2.996   4.638
 3871TIP3    H211620   0.804   2.925   4.769
 3872TIP3   OH211621   2.799   1.491   4.501
 3872TIP3    H111622   2.824   1.440   4.578
 3872TIP3    H211623   2.750   1.565   4.537
 3873TIP3   OH211624   5.903   5.661  -0.002
 3873TIP3    H111625   5.987   5.675  -0.047
 3873TIP3    H211626   5.924   5.600   0.069
 3874TIP3   OH211627   5.065   4.968   4.546
 3874TIP3    H111628   5.062   4.962   4.450
 3874TIP3    H211629   4.997   4.907   4.576
 3875TIP3   OH211630   1.482   4.788   0.417
 3875TIP3    H111631   1.413   4.789   0.350
 3875TIP3    H211632   1.443   4.828   0.494
 3876TIP3   OH211633   0.797   3.165   1.977
 3876TIP3    H111634   0.727   3.229   1.992
 3876TIP3    H211635   0.831   3.145   2.064
 3877TIP3   OH211636   5.787   0.763   4.028
 3877TIP3    H111637   5.790   0.786   4.121
 3877TIP3    H211638   5.877   0.737   4.007
 3878TIP3   OH211639   5.713   1.227   0.760
 3878TIP3    H111640   5.665   1.172   0.699
 3878TIP3    H211641   5.692   1.316   0.735
 3879TIP3   OH211642   0.951   5.797   1.220
 3879TIP3    H111643   0.972   5.876   1.170
 3879TIP3    H211644   1.027   5.785   1.278
 3880TIP3   OH211645   1.623   1.090   1.189
 3880TIP3    H111646   1.683   1.016   1.197
 3880TIP3    H211647   1.550   1.067   1.246
 3881TIP3   OH211648   5.637   0.425   0.972
 3881TIP3    H111649   5.708   0.396   0.914
 3881TIP3    H211650   5.677   0.493   1.026
 3882TIP3   OH211651   5.785   4.373   2.774
 3882TIP3    H111652   5.778   4.295   2.829
 3882TIP3    H211653   5.842   4.432   2.824
 3883TIP3   OH211654   3.610   2.678   2.081
 3883TIP3    H111655   3.667   2.606   2.111
 3883TIP3    H211656   3.630   2.688   1.988
 3884TIP3   OH211657   1.069   2.271   2.602
 3884TIP3    H111658   1.163   2.290   2.609
 3884TIP3    H211659   1.046   2.233   2.687
 3885TIP3   OH211660   0.042   3.954   1.046
 3885TIP3    H111661  -0.032   3.946   0.985
 3885TIP3    H211662   0.035   3.877   1.102
 3886TIP3   OH211663   0.637   1.552   4.538
 3886TIP3    H111664   0.647   1.530   4.631
 3886TIP3    H211665   0.565   1.498   4.507
 3887TIP3   OH211666   3.710   0.403   5.086
 3887TIP3    H111667   3.664   0.319   5.097
 3887TIP3    H211668   3.649   0.456   5.035
 3888TIP3   OH211669   4.612   5.622   0.211
 3888TIP3    H111670   4.683   5.647   0.152
 3888TIP3    H211671   4.570   5.547   0.168
 3889TIP3   OH211672   0.382   0.016   0.192
 3889TIP3    H111673   0.315   0.074   0.227
 3889TIP3    H211674   0.405  -0.041   0.265
 3890TIP3   OH211675   3.614   1.755   3.898
 3890TIP3    H111676   3.625   1.665   3.868
 3890TIP3    H211677   3.689   1.801   3.860
 3891TIP3   OH211678   4.773   3.053   1.947
 3891TIP3    H111679   4.800   3.097   2.028
 3891TIP3    H211680   4.680   3.032   1.961
 3892TIP3   OH211681   4.311   3.316   1.570
 3892TIP3    H111682   4.258   3.385   1.610
 3892TIP3    H211683   4.343   3.264   1.644
 3893TIP3   OH211684   0.832   2.137   3.367
 3893TIP3    H111685   0.849   2.091   3.284
 3893TIP3    H211686   0.916   2.137   3.413
 3894TIP3   OH211687   5.578   2.786   5.046
 3894TIP3    H111688   5.628   2.824   4.974
 3894TIP3    H211689   5.640   2.728   5.090
 3895TIP3   OH211690   5.988   2.564   4.607
 3895TIP3    H111691   6.020   2.474   4.613
 3895TIP3    H211692   6.002   2.588   4.515
 3896TIP3   OH211693   0.784   5.199   1.132
 3896TIP3    H111694   0.843   5.179   1.060
 3896TIP3    H211695   0.757   5.290   1.118
 3897TIP3   OH211696   1.502   3.362   4.869
 3897TIP3    H111697   1.598   3.369   4.867
 3897TIP3    H211698   1.479   3.326   4.784
 3898TIP3   OH211699   1.215   2.650   5.137
 3898TIP3    H111700   1.153   2.634   5.065
 3898TIP3    H211701   1.301   2.637   5.097
 3899TIP3   OH211702   2.638   3.512   3.077
 3899TIP3    H111703   2.688   3.566   3.015
 3899TIP3    H211704   2.626   3.569   3.153
 3900TIP3   OH211705   3.883   3.528   4.468
 3900TIP3    H111706   3.948   3.595   4.447
 3900TIP3    H211707   3.800   3.575   4.476
 3901TIP3   OH211708   3.146   2.109   1.163
 3901TIP3    H111709   3.132   2.014   1.169
 3901TIP3    H211710   3.181   2.122   1.075
 3902TIP3   OH211711   1.059   3.804   3.946
 3902TIP3    H111712   1.082   3.897   3.947
 3902TIP3    H211713   1.143   3.759   3.946
 3903TIP3   OH211714   1.855   5.607   2.539
 3903TIP3    H111715   1.900   5.623   2.456
 3903TIP3    H211716   1.763   5.599   2.515
 3904TIP3   OH211717   2.061   0.833   1.075
 3904TIP3    H111718   2.140   0.818   1.023
 3904TIP3    H211719   2.010   0.752   1.066
 3905TIP3   OH211720   3.051   4.566   3.021
 3905TIP3    H111721   2.977   4.579   3.080
 3905TIP3    H211722   3.061   4.651   2.977
 3906TIP3   OH211723   4.899   2.307   1.912
 3906TIP3    H111724   4.968   2.291   1.847
 3906TIP3    H211725   4.865   2.220   1.933
 3907TIP3   OH211726   0.882   4.383   2.264
 3907TIP3    H111727   0.790   4.365   2.284
 3907TIP3    H211728   0.897   4.342   2.179
 3908TIP3   OH211729   0.145   2.596   4.465
 3908TIP3    H111730   0.145   2.505   4.494
 3908TIP3    H211731   0.087   2.597   4.389
 3909TIP3   OH211732   0.354   1.691   4.315
 3909TIP3    H111733   0.292   1.709   4.245
 3909TIP3    H211734   0.430   1.652   4.272
 3910TIP3   OH211735   4.189   3.655   0.281
 3910TIP3    H111736   4.155   3.572   0.315
 3910TIP3    H211737   4.283   3.651   0.297
 3911TIP3   OH211738   4.958   2.025   2.451
 3911TIP3    H111739   4.948   2.027   2.546
 3911TIP3    H211740   5.046   2.059   2.435
 3912TIP3   OH211741   6.166   4.409   0.680
 3912TIP3    H111742   6.171   4.315   0.698
 3912TIP3    H211743   6.072   4.425   0.667
 3913TIP3   OH211744   2.097   1.715   2.792
 3913TIP3    H111745   2.163   1.768   2.838
 3913TIP3    H211746   2.117   1.625   2.819
 3914TIP3   OH211747   5.287   1.508   4.130
 3914TIP3    H111748   5.237   1.567   4.072
 3914TIP3    H211749   5.361   1.479   4.076
 3915TIP3   OH211750   0.597   2.473   3.495
 3915TIP3    H111751   0.662   2.517   3.551
 3915TIP3    H211752   0.543   2.543   3.461
 3916TIP3   OH211753   4.606   1.258   3.316
 3916TIP3    H111754   4.670   1.206   3.268
 3916TIP3    H211755   4.522   1.214   3.300
 3917TIP3   OH211756   5.031   1.496   3.529
 3917TIP3    H111757   4.971   1.431   3.565
 3917TIP3    H211758   4.975   1.557   3.480
 3918TIP3   OH211759   5.992   3.872   4.499
 3918TIP3    H111760   6.082   3.902   4.488
 3918TIP3    H211761   5.938   3.945   4.470
 3919TIP3   OH211762   1.405   5.372   0.552
 3919TIP3    H111763   1.315   5.341   0.558
 3919TIP3    H211764   1.432   5.350   0.463
 3920TIP3   OH211765   5.801   1.413   0.376
 3920TIP3    H111766   5.754   1.479   0.427
 3920TIP3    H211767   5.733   1.367   0.327
 3921TIP3   OH211768   4.265   2.398   4.298
 3921TIP3    H111769   4.338   2.456   4.277
 3921TIP3    H211770   4.188   2.455   4.294
 3922TIP3   OH211771   5.794   3.744   4.175
 3922TIP3    H111772   5.855   3.778   4.241
 3922TIP3    H211773   5.707   3.769   4.207
 3923TIP3   OH211774   4.460   5.647   4.800
 3923TIP3    H111775   4.509   5.727   4.784
 3923TIP3    H211776   4.368   5.672   4.791
 3924TIP3   OH211777   3.627   4.437   2.469
 3924TIP3    H111778   3.699   4.436   2.533
 3924TIP3    H211779   3.552   4.402   2.517
 3925TIP3   OH211780   5.255   3.175   3.274
 3925TIP3    H111781   5.241   3.102   3.334
 3925TIP3    H211782   5.176   3.229   3.283
 3926TIP3   OH211783   5.398   2.763   4.631
 3926TIP3    H111784   5.402   2.748   4.537
 3926TIP3    H211785   5.488   2.749   4.662
 3927TIP3   OH211786   4.324   2.593   3.053
 3927TIP3    H111787   4.328   2.500   3.032
 3927TIP3    H211788   4.242   2.623   3.014
 3928TIP3   OH211789   5.294   2.988   0.171
 3928TIP3    H111790   5.307   3.012   0.079
 3928TIP3    H211791   5.286   3.072   0.217
 3929TIP3   OH211792   1.696   4.107   1.488
 3929TIP3    H111793   1.665   4.161   1.561
 3929TIP3    H211794   1.696   4.166   1.413
 3930TIP3   OH211795   3.307   4.020   3.270
 3930TIP3    H111796   3.331   3.930   3.292
 3930TIP3    H211797   3.284   4.060   3.354
 3931TIP3   OH211798   2.593   2.048   4.336
 3931TIP3    H111799   2.686   2.043   4.314
 3931TIP3    H211800   2.569   2.139   4.322
 3932TIP3   OH211801   2.728   4.168   2.328
 3932TIP3    H111802   2.791   4.196   2.262
 3932TIP3    H211803   2.655   4.229   2.320
 3933TIP3   OH211804   3.414   5.289   1.710
 3933TIP3    H111805   3.508   5.293   1.723
 3933TIP3    H211806   3.391   5.197   1.719
 3934TIP3   OH211807   4.892   2.276   0.787
 3934TIP3    H111808   4.841   2.348   0.750
 3934TIP3    H211809   4.960   2.258   0.723
 3935TIP3   OH211810   2.721   3.157   2.756
 3935TIP3    H111811   2.669   3.195   2.826
 3935TIP3    H211812   2.709   3.062   2.765
 3936TIP3   OH211813   4.458   5.740   0.521
 3936TIP3    H111814   4.527   5.679   0.494
 3936TIP3    H211815   4.411   5.760   0.441
 3937TIP3   OH211816   2.204   1.739   0.456
 3937TIP3    H111817   2.158   1.812   0.495
 3937TIP3    H211818   2.214   1.676   0.527
 3938TIP3   OH211819   3.026   1.921   3.460
 3938TIP3    H111820   3.054   1.853   3.521
 3938TIP3    H211821   3.098   1.984   3.459
 3939TIP3   OH211822   0.882   5.405   1.710
 3939TIP3    H111823   0.883   5.393   1.805
 3939TIP3    H211824   0.946   5.342   1.678
 3940TIP3   OH211825   5.335   2.031   3.959
 3940TIP3    H111826   5.412   2.005   4.011
 3940TIP3    H211827   5.360   2.114   3.918
 3941TIP3   OH211828   5.075   2.252   0.535
 3941TIP3    H111829   5.093   2.188   0.466
 3941TIP3    H211830   5.092   2.337   0.493
 3942TIP3   OH211831   3.734   3.869   1.967
 3942TIP3    H111832   3.646   3.873   2.005
 3942TIP3    H211833   3.722   3.831   1.881
 3943TIP3   OH211834   1.804   4.378   4.894
 3943TIP3    H111835   1.873   4.404   4.954
 3943TIP3    H211836   1.834   4.409   4.808
 3944TIP3   OH211837   3.043   3.515   2.684
 3944TIP3    H111838   3.068   3.600   2.648
 3944TIP3    H211839   2.970   3.486   2.631
 3945TIP3   OH211840   4.110   0.568   1.944
 3945TIP3    H111841   4.019   0.567   1.972
 3945TIP3    H211842   4.135   0.476   1.938
 3946TIP3   OH211843   4.697   0.992   3.233
 3946TIP3    H111844   4.647   1.042   3.168
 3946TIP3    H211845   4.642   0.916   3.252
 3947TIP3   OH211846   2.285   1.012   4.814
 3947TIP3    H111847   2.212   1.067   4.844
 3947TIP3    H211848   2.323   1.062   4.742
 3948TIP3   OH211849   4.721   3.420   4.700
 3948TIP3    H111850   4.781   3.450   4.631
 3948TIP3    H211851   4.681   3.341   4.665
 3949TIP3   OH211852   0.176   0.535   2.350
 3949TIP3    H111853   0.260   0.491   2.362
 3949TIP3    H211854   0.149   0.512   2.261
 3950TIP3   OH211855   2.470   2.280   2.308
 3950TIP3    H111856   2.535   2.348   2.324
 3950TIP3    H211857   2.512   2.199   2.337
 3951TIP3   OH211858   5.375   5.520   3.502
 3951TIP3    H111859   5.454   5.502   3.451
 3951TIP3    H211860   5.339   5.434   3.524
 3952TIP3   OH211861   5.180   1.700   2.395
 3952TIP3    H111862   5.098   1.696   2.445
 3952TIP3    H211863   5.196   1.609   2.370
 3953TIP3   OH211864   3.417   1.627   1.608
 3953TIP3    H111865   3.489   1.565   1.594
 3953TIP3    H211866   3.358   1.612   1.534
 3954TIP3   OH211867   2.851   3.623   3.310
 3954TIP3    H111868   2.773   3.570   3.328
 3954TIP3    H211869   2.917   3.560   3.282
 3955TIP3   OH211870   3.061   4.659   4.591
 3955TIP3    H111871   3.141   4.705   4.614
 3955TIP3    H211872   3.021   4.637   4.675
 3956TIP3   OH211873   0.206   2.931   2.933
 3956TIP3    H111874   0.125   2.975   2.904
 3956TIP3    H211875   0.211   2.951   3.026
 3957TIP3   OH211876   2.943   0.737   2.036
 3957TIP3    H111877   2.860   0.774   2.006
 3957TIP3    H211878   3.007   0.762   1.969
 3958TIP3   OH211879   2.580   1.399   3.605
 3958TIP3    H111880   2.597   1.350   3.525
 3958TIP3    H211881   2.489   1.380   3.626
 3959TIP3   OH211882   5.707   1.071   1.953
 3959TIP3    H111883   5.676   0.983   1.975
 3959TIP3    H211884   5.628   1.119   1.928
 3960TIP3   OH211885   0.952   5.602   2.518
 3960TIP3    H111886   0.946   5.688   2.560
 3960TIP3    H211887   1.044   5.593   2.493
 3961TIP3   OH211888   0.486   2.593   4.601
 3961TIP3    H111889   0.460   2.525   4.539
 3961TIP3    H211890   0.517   2.665   4.546
 3962TIP3   OH211891   2.870   5.122   4.389
 3962TIP3    H111892   2.905   5.188   4.330
 3962TIP3    H211893   2.893   5.039   4.348
 3963TIP3   OH211894   5.413   1.449   3.720
 3963TIP3    H111895   5.348   1.379   3.722
 3963TIP3    H211896   5.380   1.510   3.655
 3964TIP3   OH211897   5.177   3.037   2.811
 3964TIP3    H111898   5.225   3.108   2.768
 3964TIP3    H211899   5.212   3.035   2.900
 3965TIP3   OH211900   1.939   2.441   5.132
 3965TIP3    H111901   1.891   2.486   5.202
 3965TIP3    H211902   1.981   2.511   5.083
 3966TIP3   OH211903   3.184   0.066   5.098
 3966TIP3    H111904   3.123   0.133   5.065
 3966TIP3    H211905   3.216   0.023   5.019
 3967TIP3   OH211906   1.189   3.415   1.194
 3967TIP3    H111907   1.094   3.427   1.206
 3967TIP3    H211908   1.226   3.425   1.281
 3968TIP3   OH211909   1.700   3.431   0.868
 3968TIP3    H111910   1.646   3.467   0.939
 3968TIP3    H211911   1.638   3.402   0.802
 3969TIP3   OH211912   4.760   1.057   1.762
 3969TIP3    H111913   4.793   1.029   1.847
 3969TIP3    H211914   4.738   0.976   1.716
 3970TIP3   OH211915   5.542   5.786   1.452
 3970TIP3    H111916   5.525   5.692   1.454
 3970TIP3    H211917   5.559   5.810   1.543
 3971TIP3   OH211918   2.870   0.268   4.811
 3971TIP3    H111919   2.851   0.211   4.738
 3971TIP3    H211920   2.813   0.344   4.798
 3972TIP3   OH211921   1.310   1.546   3.385
 3972TIP3    H111922   1.236   1.492   3.358
 3972TIP3    H211923   1.340   1.508   3.467
 3973TIP3   OH211924   6.263   5.881   4.639
 3973TIP3    H111925   6.207   5.935   4.583
 3973TIP3    H211926   6.225   5.793   4.633
 3974TIP3   OH211927   1.676   3.177   4.348
 3974TIP3    H111928   1.750   3.179   4.289
 3974TIP3    H211929   1.660   3.269   4.370
 3975TIP3   OH211930   3.111   2.342   5.120
 3975TIP3    H111931   3.127   2.291   5.040
 3975TIP3    H211932   3.096   2.431   5.089
 3976TIP3   OH211933   3.864   2.822   2.451
 3976TIP3    H111934   3.834   2.764   2.521
 3976TIP3    H211935   3.785   2.839   2.399
 3977TIP3   OH211936   5.481   0.645   1.954
 3977TIP3    H111937   5.454   0.689   1.873
 3977TIP3    H211938   5.417   0.575   1.966
 3978TIP3   OH211939   0.475   2.606   1.403
 3978TIP3    H111940   0.496   2.654   1.323
 3978TIP3    H211941   0.382   2.583   1.394
 3979TIP3   OH211942   4.093   0.990   0.965
 3979TIP3    H111943   4.056   1.049   0.899
 3979TIP3    H211944   4.017   0.953   1.009
 3980TIP3   OH211945   1.397   3.765   4.713
 3980TIP3    H111946   1.440   3.849   4.731
 3980TIP3    H211947   1.306   3.788   4.695
 3981TIP3   OH211948   0.864   5.864   0.664
 3981TIP3    H111949   0.781   5.838   0.703
 3981TIP3    H211950   0.922   5.789   0.677
 3982TIP3   OH211951   1.752   5.872   3.410
 3982TIP3    H111952   1.841   5.895   3.434
 3982TIP3    H211953   1.729   5.799   3.468
 3983TIP3   OH211954   4.923   1.417   0.638
 3983TIP3    H111955   4.832   1.387   0.641
 3983TIP3    H211956   4.920   1.506   0.673
 3984TIP3   OH211957   1.681   0.590   1.052
 3984TIP3    H111958   1.640   0.576   1.138
 3984TIP3    H211959   1.628   0.540   0.991
 3985TIP3   OH211960   3.828   3.561   1.471
 3985TIP3    H111961   3.911   3.551   1.517
 3985TIP3    H211962   3.816   3.655   1.462
 3986TIP3   OH211963   4.095   0.039   3.149
 3986TIP3    H111964   4.054   0.081   3.224
 3986TIP3    H211965   4.022   0.007   3.096
 3987TIP3   OH211966   0.514   4.822   2.192
 3987TIP3    H111967   0.574   4.880   2.146
 3987TIP3    H211968   0.435   4.875   2.206
 3988TIP3   OH211969   6.098   3.079   4.624
 3988TIP3    H111970   6.084   3.109   4.714
 3988TIP3    H211971   6.112   2.984   4.632
 3989TIP3   OH211972   1.377   4.796   0.887
 3989TIP3    H111973   1.454   4.790   0.831
 3989TIP3    H211974   1.401   4.859   0.955
 3990TIP3   OH211975   2.488   3.766   3.000
 3990TIP3    H111976   2.569   3.750   2.951
 3990TIP3    H211977   2.517   3.786   3.089
 3991TIP3   OH211978   3.162   2.040   3.930
 3991TIP3    H111979   3.102   2.001   3.993
 3991TIP3    H211980   3.235   2.071   3.983
 3992TIP3   OH211981   5.412   2.012   2.883
 3992TIP3    H111982   5.500   2.046   2.870
 3992TIP3    H211983   5.380   2.056   2.962
 3993TIP3   OH211984   0.405   4.626   2.774
 3993TIP3    H111985   0.459   4.646   2.697
 3993TIP3    H211986   0.412   4.532   2.785
 3994TIP3   OH211987   0.965   2.006   4.145
 3994TIP3    H111988   0.971   2.007   4.050
 3994TIP3    H211989   0.897   2.070   4.165
 3995TIP3   OH211990   4.939   5.355   2.610
 3995TIP3    H111991   4.939   5.272   2.563
 3995TIP3    H211992   4.947   5.421   2.541
 3996TIP3   OH211993   0.531   2.104   0.643
 3996TIP3    H111994   0.444   2.085   0.607
 3996TIP3    H211995   0.519   2.184   0.695
 3997TIP3   OH211996   6.084   5.247   2.152
 3997TIP3    H111997   6.002   5.225   2.196
 3997TIP3    H211998   6.057   5.280   2.066
 3998TIP3   OH211999   4.559   0.791   4.344
 3998TIP3    H112000   4.504   0.854   4.392
 3998TIP3    H212001   4.561   0.714   4.401
 3999TIP3   OH212002   0.792   4.194   1.441
 3999TIP3    H112003   0.846   4.117   1.457
 3999TIP3    H212004   0.848   4.268   1.465
 4000TIP3   OH212005   4.496   2.837   3.730
 4000TIP3    H112006   4.421   2.784   3.758
 4000TIP3    H212007   4.569   2.775   3.727
 4001TIP3   OH212008   4.006   4.095   0.207
 4001TIP3    H112009   3.988   4.129   0.294
 4001TIP3    H212010   4.052   4.012   0.222
 4002TIP3   OH212011   1.199   2.577   2.136
 4002TIP3    H112012   1.171   2.487   2.120
 4002TIP3    H212013   1.294   2.571   2.147
 4003TIP3   OH212014   5.048   3.176   3.970
 4003TIP3    H112015   4.997   3.238   3.918
 4003TIP3    H212016   5.036   3.205   4.061
 4004TIP3   OH212017   1.297   2.743   3.856
 4004TIP3    H112018   1.346   2.810   3.809
 4004TIP3    H212019   1.359   2.671   3.867
 4005TIP3   OH212020   6.047   5.521   1.627
 4005TIP3    H112021   6.132   5.565   1.634
 4005TIP3    H212022   5.983   5.592   1.624
 4006TIP3   OH212023   2.801   5.786   4.198
 4006TIP3    H112024   2.858   5.837   4.256
 4006TIP3    H212025   2.731   5.755   4.255
 4007TIP3   OH212026   2.346   1.171   3.081
 4007TIP3    H112027   2.277   1.237   3.093
 4007TIP3    H212028   2.329   1.106   3.149
 4008TIP3   OH212029   4.973   1.104   4.335
 4008TIP3    H112030   4.960   1.024   4.284
 4008TIP3    H212031   5.039   1.081   4.400
 4009TIP3   OH212032   5.054   0.422   0.149
 4009TIP3    H112033   5.098   0.499   0.113
 4009TIP3    H212034   4.963   0.431   0.122
 4010TIP3   OH212035   0.907   2.774   1.543
 4010TIP3    H112036   0.948   2.705   1.595
 4010TIP3    H212037   0.958   2.776   1.462
 4011TIP3   OH212038   3.971   0.450   4.934
 4011TIP3    H112039   3.883   0.413   4.947
 4011TIP3    H212040   4.003   0.408   4.854
 4012TIP3   OH212041   1.084   0.694   4.457
 4012TIP3    H112042   1.014   0.702   4.522
 4012TIP3    H212043   1.148   0.635   4.497
 4013TIP3   OH212044   6.308   2.239   0.193
 4013TIP3    H112045   6.361   2.311   0.159
 4013TIP3    H212046   6.219   2.274   0.197
 4014TIP3   OH212047   2.164   3.171   0.076
 4014TIP3    H112048   2.087   3.134   0.117
 4014TIP3    H212049   2.131   3.213  -0.004
 4015TIP3   OH212050   5.439   3.409   3.249
 4015TIP3    H112051   5.399   3.401   3.162
 4015TIP3    H212052   5.407   3.333   3.297
 4016TIP3   OH212053   6.057   2.329   4.701
 4016TIP3    H112054   6.020   2.243   4.722
 4016TIP3    H212055   6.145   2.326   4.738
 4017TIP3   OH212056   4.957   3.473   0.717
 4017TIP3    H112057   4.896   3.510   0.781
 4017TIP3    H212058   4.938   3.379   0.718
 4018TIP3   OH212059   2.692   4.708   3.969
 4018TIP3    H112060   2.600   4.711   3.994
 4018TIP3    H212061   2.726   4.795   3.991
 4019TIP3   OH212062   0.335   4.286   2.562
 4019TIP3    H112063   0.376   4.367   2.531
 4019TIP3    H212064   0.372   4.218   2.506
 4020TIP3   OH212065   2.679   5.595   0.008
 4020TIP3    H112066   2.744   5.538   0.050
 4020TIP3    H212067   2.634   5.538  -0.054
 4021TIP3   OH212068   3.813   2.445   4.546
 4021TIP3    H112069   3.887   2.500   4.522
 4021TIP3    H212070   3.759   2.441   4.467
 4022TIP3   OH212071   3.913   2.067   2.341
 4022TIP3    H112072   3.959   2.114   2.272
 4022TIP3    H212073   3.953   1.980   2.341
 4023TIP3   OH212074   4.781   3.154   2.220
 4023TIP3    H112075   4.765   3.248   2.206
 4023TIP3    H212076   4.695   3.119   2.243
 4024TIP3   OH212077   2.970   4.814   0.236
 4024TIP3    H112078   2.912   4.768   0.175
 4024TIP3    H212079   3.020   4.874   0.181
 4025TIP3   OH212080   6.136   5.001   4.707
 4025TIP3    H112081   6.189   5.076   4.679
 4025TIP3    H212082   6.131   4.945   4.630
 4026TIP3   OH212083   4.445   5.180   4.053
 4026TIP3    H112084   4.493   5.107   4.015
 4026TIP3    H212085   4.362   5.181   4.005
 4027TIP3   OH212086   4.832   2.071   2.719
 4027TIP3    H112087   4.815   1.982   2.750
 4027TIP3    H212088   4.835   2.124   2.798
 4028TIP3   OH212089   0.782   2.062   1.102
 4028TIP3    H112090   0.833   2.138   1.073
 4028TIP3    H212091   0.755   2.018   1.021
 4029TIP3   OH212092   0.368   2.305   4.081
 4029TIP3    H112093   0.416   2.307   3.998
 4029TIP3    H212094   0.351   2.397   4.101
 4030TIP3   OH212095   4.307   5.752   2.010
 4030TIP3    H112096   4.285   5.658   2.012
 4030TIP3    H212097   4.387   5.756   1.959
 4031TIP3   OH212098   1.151   4.007   2.907
 4031TIP3    H112099   1.201   4.082   2.939
 4031TIP3    H212100   1.142   3.951   2.984
 4032TIP3   OH212101   2.814   4.850   1.412
 4032TIP3    H112102   2.800   4.869   1.320
 4032TIP3    H212103   2.902   4.884   1.431
 4033TIP3   OH212104   0.251   5.210   0.421
 4033TIP3    H112105   0.305   5.273   0.469
 4033TIP3    H212106   0.245   5.245   0.333
 4034TIP3   OH212107   3.020   1.379   1.915
 4034TIP3    H112108   2.991   1.322   1.987
 4034TIP3    H212109   3.115   1.380   1.923
 4035TIP3   OH212110   2.571   5.772   2.174
 4035TIP3    H112111   2.489   5.724   2.163
 4035TIP3    H212112   2.544   5.864   2.177
 4036TIP3   OH212113   3.884   5.060   1.998
 4036TIP3    H112114   3.816   5.004   1.962
 4036TIP3    H212115   3.893   5.032   2.089
 4037TIP3   OH212116   2.756   2.414   3.948
 4037TIP3    H112117   2.746   2.379   4.037
 4037TIP3    H212118   2.715   2.501   3.953
 4038TIP3   OH212119   1.484   2.375   2.964
 4038TIP3    H112120   1.542   2.354   3.037
 4038TIP3    H212121   1.452   2.290   2.934
 4039TIP3   OH212122   3.966   5.897   0.214
 4039TIP3    H112123   3.874   5.873   0.224
 4039TIP3    H212124   3.986   5.878   0.123
 4040TIP3   OH212125   4.939   1.911   4.250
 4040TIP3    H112126   4.931   1.818   4.229
 4040TIP3    H212127   5.033   1.925   4.266
 4041TIP3   OH212128   4.658   0.724   4.988
 4041TIP3    H112129   4.670   0.686   5.075
 4041TIP3    H212130   4.660   0.818   5.003
 4042TIP3   OH212131   3.055   0.039   0.999
 4042TIP3    H112132   3.022   0.129   1.002
 4042TIP3    H212133   3.091   0.029   0.911
 4043TIP3   OH212134   5.629   3.223   0.008
 4043TIP3    H112135   5.595   3.309   0.035
 4043TIP3    H212136   5.574   3.160   0.053
 4044TIP3   OH212137   4.058   3.180   2.036
 4044TIP3    H112138   3.966   3.156   2.047
 4044TIP3    H212139   4.081   3.146   1.950
 4045TIP3   OH212140   4.770   5.644   0.857
 4045TIP3    H112141   4.709   5.704   0.815
 4045TIP3    H212142   4.857   5.674   0.828
 4046TIP3   OH212143   4.057   1.964   3.176
 4046TIP3    H112144   3.992   1.915   3.125
 4046TIP3    H212145   4.038   2.056   3.156
 4047TIP3   OH212146   4.637   5.479   2.796
 4047TIP3    H112147   4.633   5.491   2.701
 4047TIP3    H212148   4.642   5.384   2.808
 4048TIP3   OH212149   0.190   3.451   2.162
 4048TIP3    H112150   0.111   3.399   2.154
 4048TIP3    H212151   0.228   3.425   2.246
 4049TIP3   OH212152   6.017   1.311   0.100
 4049TIP3    H112153   5.960   1.238   0.076
 4049TIP3    H212154   6.033   1.299   0.194
 4050TIP3   OH212155   5.614   3.923   4.926
 4050TIP3    H112156   5.551   3.858   4.957
 4050TIP3    H212157   5.627   3.981   5.001
 4051TIP3   OH212158   1.657   2.441   3.657
 4051TIP3    H112159   1.618   2.515   3.705
 4051TIP3    H212160   1.751   2.461   3.656
 4052TIP3   OH212161   1.230   2.733   3.579
 4052TIP3    H112162   1.231   2.728   3.675
 4052TIP3    H212163   1.203   2.823   3.560
 4053TIP3   OH212164   2.872   2.069   3.820
 4053TIP3    H112165   2.880   2.020   3.739
 4053TIP3    H212166   2.949   2.046   3.871
 4054TIP3   OH212167   5.577   0.248   0.050
 4054TIP3    H112168   5.547   0.320  -0.005
 4054TIP3    H212169   5.512   0.179   0.038
 4055TIP3   OH212170   5.618   2.158   2.331
 4055TIP3    H112171   5.698   2.135   2.283
 4055TIP3    H212172   5.610   2.090   2.397
 4056TIP3   OH212173   0.289   4.468   4.665
 4056TIP3    H112174   0.330   4.480   4.750
 4056TIP3    H212175   0.282   4.373   4.654
 4057TIP3   OH212176   0.303   4.360   1.283
 4057TIP3    H112177   0.369   4.292   1.298
 4057TIP3    H212178   0.295   4.365   1.187
 4058TIP3   OH212179   3.139   0.548   2.697
 4058TIP3    H112180   3.083   0.539   2.620
 4058TIP3    H212181   3.192   0.626   2.680
 4059TIP3   OH212182   3.376   4.372   0.551
 4059TIP3    H112183   3.460   4.342   0.587
 4059TIP3    H212184   3.310   4.328   0.605
 4060TIP3   OH212185   3.105   1.713   3.617
 4060TIP3    H112186   3.163   1.786   3.640
 4060TIP3    H212187   3.083   1.672   3.700
 4061TIP3   OH212188   5.472   1.754   3.390
 4061TIP3    H112189   5.407   1.725   3.327
 4061TIP3    H212190   5.426   1.821   3.442
 4062TIP3   OH212191   5.490   3.652   5.056
 4062TIP3    H112192   5.496   3.707   5.134
 4062TIP3    H212193   5.458   3.568   5.089
 4063TIP3   OH212194   5.641   0.984   2.944
 4063TIP3    H112195   5.681   0.901   2.919
 4063TIP3    H212196   5.635   0.980   3.040
 4064TIP3   OH212197   0.781   3.451   3.961
 4064TIP3    H112198   0.748   3.484   3.877
 4064TIP3    H212199   0.874   3.473   3.960
 4065TIP3   OH212200   4.420   0.972   2.115
 4065TIP3    H112201   4.343   0.932   2.155
 4065TIP3    H212202   4.488   0.906   2.122
 4066TIP3   OH212203   0.961   1.245   4.453
 4066TIP3    H112204   1.002   1.174   4.501
 4066TIP3    H212205   0.868   1.222   4.449
 4067TIP3   OH212206   2.467   5.109   1.989
 4067TIP3    H112207   2.460   5.089   2.082
 4067TIP3    H212208   2.395   5.170   1.971
 4068TIP3   OH212209   4.742   2.580   2.800
 4068TIP3    H112210   4.751   2.553   2.892
 4068TIP3    H212211   4.815   2.539   2.755
 4069TIP3   OH212212   6.250   2.428   1.049
 4069TIP3    H112213   6.294   2.513   1.040
 4069TIP3    H212214   6.269   2.401   1.139
 4070TIP3   OH212215   1.718   0.410   0.694
 4070TIP3    H112216   1.629   0.440   0.712
 4070TIP3    H212217   1.755   0.393   0.780
 4071TIP3   OH212218   6.156   3.158   1.261
 4071TIP3    H112219   6.105   3.153   1.180
 4071TIP3    H212220   6.168   3.252   1.276
 4072TIP3   OH212221   0.359   2.151   4.931
 4072TIP3    H112222   0.388   2.129   4.843
 4072TIP3    H212223   0.273   2.110   4.939
 4073TIP3   OH212224   1.605   3.516   3.770
 4073TIP3    H112225   1.700   3.531   3.766
 4073TIP3    H212226   1.590   3.486   3.859
 4074TIP3   OH212227   5.021   4.310   1.231
 4074TIP3    H112228   5.000   4.389   1.281
 4074TIP3    H212229   4.936   4.274   1.208
 4075TIP3   OH212230   3.893   4.245   2.301
 4075TIP3    H112231   3.896   4.154   2.328
 4075TIP3    H212232   3.806   4.255   2.260
 4076TIP3   OH212233   0.901   4.070   5.142
 4076TIP3    H112234   0.927   4.154   5.106
 4076TIP3    H212235   0.887   4.087   5.235
 4077TIP3   OH212236   4.038   2.561   3.920
 4077TIP3    H112237   4.014   2.638   3.972
 4077TIP3    H212238   4.017   2.487   3.976
 4078TIP3   OH212239   3.342   1.128   1.420
 4078TIP3    H112240   3.303   1.166   1.498
 4078TIP3    H212241   3.314   1.037   1.420
 4079TIP3   OH212242   5.109   5.631   2.159
 4079TIP3    H112243   5.114   5.548   2.111
 4079TIP3    H212244   5.122   5.606   2.251
 4080TIP3   OH212245   0.650   0.314   3.192
 4080TIP3    H112246   0.617   0.224   3.190
 4080TIP3    H212247   0.721   0.315   3.128
 4081TIP3   OH212248   4.068   5.144   3.691
 4081TIP3    H112249   4.026   5.079   3.634
 4081TIP3    H212250   4.161   5.125   3.685
 4082TIP3   OH212251   1.501   0.287   1.166
 4082TIP3    H112252   1.478   0.362   1.111
 4082TIP3    H212253   1.524   0.326   1.251
 4083TIP3   OH212254   5.776   3.485   1.373
 4083TIP3    H112255   5.798   3.447   1.458
 4083TIP3    H212256   5.733   3.415   1.326
 4084TIP3   OH212257   0.981   4.780   3.968
 4084TIP3    H112258   0.947   4.725   3.898
 4084TIP3    H212259   1.076   4.772   3.961
 4085TIP3   OH212260   3.544   2.385   3.620
 4085TIP3    H112261   3.559   2.294   3.644
 4085TIP3    H212262   3.462   2.383   3.569
 4086TIP3   OH212263   1.416   1.685   3.941
 4086TIP3    H112264   1.457   1.686   3.854
 4086TIP3    H212265   1.489   1.679   4.002
 4087TIP3   OH212266   1.527   3.338   0.676
 4087TIP3    H112267   1.514   3.255   0.722
 4087TIP3    H212268   1.438   3.365   0.652
 4088TIP3   OH212269   2.879   3.760   2.465
 4088TIP3    H112270   2.947   3.740   2.400
 4088TIP3    H212271   2.828   3.679   2.471
 4089TIP3   OH212272   5.452   2.183   3.429
 4089TIP3    H112273   5.480   2.121   3.496
 4089TIP3    H212274   5.367   2.215   3.460
 4090TIP3   OH212275   5.569   5.101   1.709
 4090TIP3    H112276   5.654   5.069   1.740
 4090TIP3    H212277   5.586   5.133   1.620
 4091TIP3   OH212278   0.888   5.276   4.729
 4091TIP3    H112279   0.862   5.250   4.641
 4091TIP3    H212280   0.830   5.350   4.751
 4092TIP3   OH212281   5.877   1.262   5.017
 4092TIP3    H112282   5.818   1.234   5.087
 4092TIP3    H212283   5.821   1.307   4.954
 4093TIP3   OH212284   4.541   3.966   0.185
 4093TIP3    H112285   4.591   3.887   0.168
 4093TIP3    H212286   4.558   4.023   0.110
 4094TIP3   OH212287   1.069   5.547   3.272
 4094TIP3    H112288   1.139   5.579   3.215
 4094TIP3    H212289   1.068   5.452   3.258
 4095TIP3   OH212290   4.273   3.038   4.696
 4095TIP3    H112291   4.343   3.069   4.753
 4095TIP3    H212292   4.193   3.074   4.735
 4096TIP3   OH212293   3.391   2.912   1.367
 4096TIP3    H112294   3.481   2.881   1.358
 4096TIP3    H212295   3.368   2.947   1.281
 4097TIP3   OH212296   1.859   4.257   4.495
 4097TIP3    H112297   1.853   4.217   4.409
 4097TIP3    H212298   1.917   4.199   4.544
 4098TIP3   OH212299   3.798   3.846   3.923
 4098TIP3    H112300   3.782   3.940   3.930
 4098TIP3    H212301   3.886   3.834   3.958
 4099TIP3   OH212302   3.511   2.219   0.590
 4099TIP3    H112303   3.599   2.191   0.614
 4099TIP3    H212304   3.523   2.266   0.508
 4100TIP3   OH212305   2.222   0.569   2.759
 4100TIP3    H112306   2.141   0.526   2.786
 4100TIP3    H212307   2.229   0.645   2.817
 4101TIP3   OH212308   0.256   2.210   0.463
 4101TIP3    H112309   0.268   2.225   0.369
 4101TIP3    H212310   0.243   2.116   0.470
 4102TIP3   OH212311   1.486   1.677   0.811
 4102TIP3    H112312   1.458   1.627   0.734
 4102TIP3    H212313   1.445   1.762   0.801
 4103TIP3   OH212314   5.235   3.008   2.406
 4103TIP3    H112315   5.144   2.995   2.382
 4103TIP3    H212316   5.249   2.951   2.482
 4104TIP3   OH212317   5.343   0.822   4.787
 4104TIP3    H112318   5.305   0.800   4.872
 4104TIP3    H212319   5.339   0.917   4.782
 4105TIP3   OH212320   1.714   2.817   2.898
 4105TIP3    H112321   1.752   2.729   2.898
 4105TIP3    H212322   1.696   2.835   2.806
 4106TIP3   OH212323   3.049   1.630   4.636
 4106TIP3    H112324   3.045   1.586   4.550
 4106TIP3    H212325   3.042   1.559   4.699
 4107TIP3   OH212326   1.526   1.458   2.278
 4107TIP3    H112327   1.474   1.489   2.204
 4107TIP3    H212328   1.586   1.530   2.296
 4108TIP3   OH212329   5.298   2.421   3.061
 4108TIP3    H112330   5.320   2.429   2.968
 4108TIP3    H212331   5.212   2.379   3.061
 4109TIP3   OH212332   0.787   5.587   0.392
 4109TIP3    H112333   0.721   5.519   0.383
 4109TIP3    H212334   0.791   5.604   0.486
 4110TIP3   OH212335   3.667   0.955   5.017
 4110TIP3    H112336   3.627   1.038   5.041
 4110TIP3    H212337   3.739   0.978   4.959
 4111TIP3   OH212338   4.936   5.683   3.636
 4111TIP3    H112339   4.851   5.712   3.669
 4111TIP3    H212340   4.960   5.749   3.570
 4112TIP3   OH212341   3.833   1.954   0.337
 4112TIP3    H112342   3.776   1.885   0.370
 4112TIP3    H212343   3.814   1.958   0.243
 4113TIP3   OH212344   0.876   5.611   0.967
 4113TIP3    H112345   0.935   5.684   0.982
 4113TIP3    H212346   0.825   5.637   0.890
 4114TIP3   OH212347   1.560   3.556   2.092
 4114TIP3    H112348   1.653   3.544   2.112
 4114TIP3    H212349   1.519   3.474   2.118
 4115TIP3   OH212350   1.565   5.879   4.092
 4115TIP3    H112351   1.571   5.795   4.047
 4115TIP3    H212352   1.516   5.860   4.172
 4116TIP3   OH212353   3.051   1.214   0.302
 4116TIP3    H112354   3.029   1.136   0.353
 4116TIP3    H212355   3.053   1.285   0.366
 4117TIP3   OH212356   6.350   3.742   2.423
 4117TIP3    H112357   6.285   3.684   2.382
 4117TIP3    H212358   6.379   3.799   2.351
 4118TIP3   OH212359   0.139   4.104   2.332
 4118TIP3    H112360   0.206   4.037   2.346
 4118TIP3    H212361   0.115   4.095   2.240
 4119TIP3   OH212362   0.804   5.339   3.326
 4119TIP3    H112363   0.801   5.304   3.237
 4119TIP3    H212364   0.895   5.333   3.352
 4120TIP3   OH212365   1.996   4.497   3.307
 4120TIP3    H112366   1.915   4.547   3.318
 4120TIP3    H212367   2.064   4.554   3.342
 4121TIP3   OH212368   2.421   1.665   0.037
 4121TIP3    H112369   2.495   1.720   0.064
 4121TIP3    H212370   2.462   1.583   0.010
 4122TIP3   OH212371   5.428   0.731   2.677
 4122TIP3    H112372   5.482   0.806   2.650
 4122TIP3    H212373   5.491   0.661   2.693
 4123TIP3   OH212374   6.295   3.812   5.091
 4123TIP3    H112375   6.294   3.903   5.061
 4123TIP3    H212376   6.207   3.779   5.069
 4124TIP3   OH212377   5.154   1.013   2.238
 4124TIP3    H112378   5.115   1.059   2.163
 4124TIP3    H212379   5.106   1.045   2.314
 4125TIP3   OH212380   0.409   3.052   0.271
 4125TIP3    H112381   0.377   3.069   0.360
 4125TIP3    H212382   0.352   2.983   0.238
 4126TIP3   OH212383   1.985   4.371   0.442
 4126TIP3    H112384   1.969   4.427   0.365
 4126TIP3    H212385   1.902   4.369   0.488
 4127TIP3   OH212386   0.701   2.518   4.403
 4127TIP3    H112387   0.661   2.432   4.396
 4127TIP3    H212388   0.660   2.569   4.333
 4128TIP3   OH212389   2.484   1.250   2.558
 4128TIP3    H112390   2.545   1.181   2.584
 4128TIP3    H212391   2.430   1.265   2.635
 4129TIP3   OH212392   6.038   0.465   1.640
 4129TIP3    H112393   5.992   0.421   1.568
 4129TIP3    H212394   6.131   0.455   1.619
 4130TIP3   OH212395   3.509   2.602   2.961
 4130TIP3    H112396   3.594   2.646   2.967
 4130TIP3    H212397   3.448   2.661   3.006
 4131TIP3   OH212398   4.148   1.210   3.694
 4131TIP3    H112399   4.176   1.264   3.767
 4131TIP3    H212400   4.141   1.122   3.730
 4132TIP3   OH212401   3.158   3.803   4.018
 4132TIP3    H112402   3.120   3.716   4.011
 4132TIP3    H212403   3.088   3.863   3.992
 4133TIP3   OH212404   1.506   4.697   4.047
 4133TIP3    H112405   1.520   4.787   4.075
 4133TIP3    H212406   1.503   4.647   4.129
 4134TIP3   OH212407   4.749   4.887   5.083
 4134TIP3    H112408   4.682   4.928   5.028
 4134TIP3    H212409   4.821   4.866   5.024
 4135TIP3   OH212410   5.917   0.420   4.834
 4135TIP3    H112411   5.829   0.457   4.839
 4135TIP3    H212412   5.971   0.478   4.887
 4136TIP3   OH212413   1.725   4.285   2.025
 4136TIP3    H112414   1.654   4.228   1.993
 4136TIP3    H212415   1.770   4.314   1.946
 4137TIP3   OH212416   1.160   3.771   0.463
 4137TIP3    H112417   1.210   3.823   0.526
 4137TIP3    H212418   1.162   3.682   0.498
 4138TIP3   OH212419   2.331   0.916   2.308
 4138TIP3    H112420   2.305   0.835   2.353
 4138TIP3    H212421   2.249   0.959   2.286
 4139TIP3   OH212422   4.992   2.750   2.566
 4139TIP3    H112423   4.967   2.831   2.522
 4139TIP3    H212424   4.916   2.692   2.554
 4140TIP3   OH212425   4.542   3.341   3.737
 4140TIP3    H112426   4.533   3.249   3.760
 4140TIP3    H212427   4.514   3.388   3.816
 4141TIP3   OH212428   1.259   4.534   4.236
 4141TIP3    H112429   1.349   4.512   4.260
 4141TIP3    H212430   1.264   4.624   4.205
 4142TIP3   OH212431   3.928   2.658   4.298
 4142TIP3    H112432   3.996   2.612   4.345
 4142TIP3    H212433   3.974   2.706   4.229
 4143TIP3   OH212434   4.629   5.853   1.639
 4143TIP3    H112435   4.714   5.898   1.638
 4143TIP3    H212436   4.651   5.762   1.656
 4144TIP3   OH212437   3.817   3.577   3.847
 4144TIP3    H112438   3.810   3.672   3.857
 4144TIP3    H212439   3.882   3.566   3.777
 4145TIP3   OH212440   5.618   5.695   2.321
 4145TIP3    H112441   5.670   5.616   2.308
 4145TIP3    H212442   5.682   5.759   2.353
 4146TIP3   OH212443   1.362   1.152   2.885
 4146TIP3    H112444   1.336   1.242   2.863
 4146TIP3    H212445   1.445   1.162   2.931
 4147TIP3   OH212446   4.065   3.417   0.420
 4147TIP3    H112447   4.073   3.374   0.335
 4147TIP3    H212448   4.149   3.401   0.464
 4148TIP3   OH212449   5.048   4.901   2.588
 4148TIP3    H112450   5.007   4.818   2.564
 4148TIP3    H212451   5.136   4.878   2.615
 4149TIP3   OH212452   1.859   0.209   2.043
 4149TIP3    H112453   1.779   0.238   1.999
 4149TIP3    H212454   1.919   0.284   2.033
 4150TIP3   OH212455   3.325   3.712   1.001
 4150TIP3    H112456   3.377   3.791   1.017
 4150TIP3    H212457   3.341   3.691   0.909
 4151TIP3   OH212458   6.210   2.141   0.469
 4151TIP3    H112459   6.153   2.076   0.429
 4151TIP3    H212460   6.222   2.207   0.401
 4152TIP3   OH212461   0.442   1.895   0.900
 4152TIP3    H112462   0.420   1.811   0.859
 4152TIP3    H212463   0.358   1.932   0.925
 4153TIP3   OH212464   5.620   2.512   3.194
 4153TIP3    H112465   5.589   2.439   3.140
 4153TIP3    H212466   5.686   2.555   3.140
 4154TIP3   OH212467   5.831   3.284   3.708
 4154TIP3    H112468   5.921   3.289   3.675
 4154TIP3    H212469   5.801   3.196   3.685
 4155TIP3   OH212470   0.831   0.811   1.400
 4155TIP3    H112471   0.761   0.745   1.398
 4155TIP3    H212472   0.793   0.887   1.355
 4156TIP3   OH212473   5.904   5.534   1.050
 4156TIP3    H112474   5.892   5.613   1.103
 4156TIP3    H212475   5.889   5.563   0.960
 4157TIP3   OH212476   0.289   4.029   2.054
 4157TIP3    H112477   0.345   3.954   2.035
 4157TIP3    H212478   0.330   4.102   2.008
 4158TIP3   OH212479   1.393   5.078   0.127
 4158TIP3    H112480   1.332   5.044   0.193
 4158TIP3    H212481   1.458   5.008   0.117
 4159TIP3   OH212482   1.239   5.200   4.668
 4159TIP3    H112483   1.158   5.241   4.698
 4159TIP3    H212484   1.304   5.270   4.673
 4160TIP3   OH212485   6.290   3.010   2.845
 4160TIP3    H112486   6.196   3.010   2.865
 4160TIP3    H212487   6.294   3.024   2.750
 4161TIP3   OH212488   2.040   4.452   1.389
 4161TIP3    H112489   2.001   4.437   1.303
 4161TIP3    H212490   2.119   4.502   1.371
 4162TIP3   OH212491   3.041   4.099   4.516
 4162TIP3    H112492   3.048   4.060   4.429
 4162TIP3    H212493   2.961   4.152   4.511
 4163TIP3   OH212494   4.596   0.030   1.353
 4163TIP3    H112495   4.543   0.023   1.432
 4163TIP3    H212496   4.672  -0.026   1.370
 4164TIP3   OH212497   2.801   0.958   1.783
 4164TIP3    H112498   2.756   0.956   1.867
 4164TIP3    H212499   2.795   1.049   1.754
 4165TIP3   OH212500   2.817   3.337   4.227
 4165TIP3    H112501   2.857   3.392   4.159
 4165TIP3    H212502   2.880   3.265   4.239
 4166TIP3   OH212503   4.842   3.100   1.391
 4166TIP3    H112504   4.853   3.007   1.411
 4166TIP3    H212505   4.751   3.119   1.415
 4167TIP3   OH212506   4.614   5.706   2.264
 4167TIP3    H112507   4.681   5.688   2.198
 4167TIP3    H212508   4.532   5.713   2.216
 4168TIP3   OH212509   0.191   5.615   0.691
 4168TIP3    H112510   0.167   5.602   0.599
 4168TIP3    H212511   0.205   5.527   0.725
 4169TIP3   OH212512   6.231   4.574   2.414
 4169TIP3    H112513   6.139   4.599   2.425
 4169TIP3    H212514   6.248   4.511   2.485
 4170TIP3   OH212515   0.350   3.460   4.558
 4170TIP3    H112516   0.389   3.454   4.471
 4170TIP3    H212517   0.401   3.400   4.612
 4171TIP3   OH212518   4.239   4.795   0.939
 4171TIP3    H112519   4.283   4.877   0.962
 4171TIP3    H212520   4.241   4.743   1.019
 4172TIP3   OH212521   3.462   4.178   2.377
 4172TIP3    H112522   3.479   4.242   2.447
 4172TIP3    H212523   3.515   4.102   2.401
 4173TIP3   OH212524   4.164   1.355   0.442
 4173TIP3    H112525   4.148   1.448   0.457
 4173TIP3    H212526   4.123   1.312   0.518
 4174TIP3   OH212527   0.820   0.173   3.640
 4174TIP3    H112528   0.732   0.152   3.671
 4174TIP3    H212529   0.807   0.245   3.579
 4175TIP3   OH212530   4.031   3.126   1.111
 4175TIP3    H112531   4.018   3.048   1.166
 4175TIP3    H212532   3.942   3.159   1.095
 4176TIP3   OH212533   3.609   2.739   2.392
 4176TIP3    H112534   3.604   2.648   2.363
 4176TIP3    H212535   3.569   2.789   2.320
 4177TIP3   OH212536   3.202   2.753   3.648
 4177TIP3    H112537   3.220   2.712   3.732
 4177TIP3    H212538   3.268   2.822   3.640
 4178TIP3   OH212539   5.922   2.295   1.715
 4178TIP3    H112540   5.956   2.381   1.693
 4178TIP3    H212541   5.855   2.278   1.649
 4179TIP3   OH212542   3.422   4.301   2.620
 4179TIP3    H112543   3.340   4.303   2.669
 4179TIP3    H212544   3.490   4.292   2.688
 4180TIP3   OH212545   5.897   3.399   4.744
 4180TIP3    H112546   5.881   3.433   4.656
 4180TIP3    H212547   5.810   3.387   4.782
 4181TIP3   OH212548   3.413   3.194   4.233
 4181TIP3    H112549   3.372   3.167   4.150
 4181TIP3    H212550   3.384   3.129   4.296
 4182TIP3   OH212551   4.017   4.309   1.444
 4182TIP3    H112552   4.026   4.375   1.376
 4182TIP3    H212553   3.949   4.343   1.502
 4183TIP3   OH212554   6.264   1.698   3.780
 4183TIP3    H112555   6.212   1.627   3.817
 4183TIP3    H212556   6.355   1.669   3.790
 4184TIP3   OH212557   1.507   4.135   1.927
 4184TIP3    H112558   1.437   4.198   1.913
 4184TIP3    H212559   1.466   4.063   1.976
 4185TIP3   OH212560   5.167   2.697   2.134
 4185TIP3    H112561   5.172   2.604   2.114
 4185TIP3    H212562   5.090   2.707   2.190
 4186TIP3   OH212563   3.310   2.406   3.200
 4186TIP3    H112564   3.340   2.496   3.191
 4186TIP3    H212565   3.263   2.388   3.119
 4187TIP3   OH212566   3.729   2.046   3.396
 4187TIP3    H112567   3.806   1.990   3.407
 4187TIP3    H212568   3.757   2.113   3.333
 4188TIP3   OH212569   4.651   1.641   1.919
 4188TIP3    H112570   4.617   1.597   1.842
 4188TIP3    H212571   4.595   1.718   1.929
 4189TIP3   OH212572   3.873   4.085   1.255
 4189TIP3    H112573   3.964   4.097   1.280
 4189TIP3    H212574   3.841   4.174   1.239
 4190TIP3   OH212575   3.821   4.479   2.660
 4190TIP3    H112576   3.770   4.522   2.728
 4190TIP3    H212577   3.903   4.454   2.704
 4191TIP3   OH212578   5.952   0.998   2.147
 4191TIP3    H112579   5.977   1.040   2.065
 4191TIP3    H212580   5.990   1.052   2.215
 4192TIP3   OH212581   1.554   4.857   2.710
 4192TIP3    H112582   1.471   4.850   2.663
 4192TIP3    H212583   1.529   4.865   2.802
 4193TIP3   OH212584   3.419   4.049   0.561
 4193TIP3    H112585   3.396   4.002   0.641
 4193TIP3    H212586   3.487   4.110   0.588
 4194TIP3   OH212587   0.329   5.190   3.585
 4194TIP3    H112588   0.340   5.169   3.493
 4194TIP3    H212589   0.303   5.107   3.626
 4195TIP3   OH212590   0.476   1.944   3.823
 4195TIP3    H112591   0.438   1.944   3.736
 4195TIP3    H212592   0.402   1.923   3.881
 4196TIP3   OH212593   2.213   2.299   0.508
 4196TIP3    H112594   2.190   2.379   0.555
 4196TIP3    H212595   2.221   2.326   0.416
 4197TIP3   OH212596   5.697   5.061   2.475
 4197TIP3    H112597   5.789   5.078   2.497
 4197TIP3    H212598   5.663   5.015   2.551
 4198TIP3   OH212599   4.635   3.125   2.638
 4198TIP3    H112600   4.592   3.138   2.553
 4198TIP3    H212601   4.687   3.204   2.651
 4199TIP3   OH212602   5.693   4.430   1.062
 4199TIP3    H112603   5.619   4.372   1.044
 4199TIP3    H212604   5.760   4.404   0.998
 4200TIP3   OH212605   2.875   4.264   4.124
 4200TIP3    H112606   2.917   4.187   4.086
 4200TIP3    H212607   2.876   4.247   4.219
 4201TIP3   OH212608   0.805   5.290   3.054
 4201TIP3    H112609   0.850   5.297   2.971
 4201TIP3    H212610   0.712   5.284   3.031
 4202TIP3   OH212611   4.328   4.127   4.585
 4202TIP3    H112612   4.400   4.066   4.568
 4202TIP3    H212613   4.326   4.135   4.680
 4203TIP3   OH212614   4.217   4.049   1.721
 4203TIP3    H112615   4.137   4.100   1.731
 4203TIP3    H212616   4.239   4.022   1.811
 4204TIP3   OH212617   5.544   0.783   4.347
 4204TIP3    H112618   5.603   0.729   4.398
 4204TIP3    H212619   5.578   0.778   4.257
 4205TIP3   OH212620   2.171   0.538   3.368
 4205TIP3    H112621   2.111   0.611   3.383
 4205TIP3    H212622   2.160   0.515   3.276
 4206TIP3   OH212623   4.051   3.323   0.175
 4206TIP3    H112624   4.091   3.293   0.093
 4206TIP3    H212625   3.957   3.312   0.161
 4207TIP3   OH212626   1.733   2.528   2.900
 4207TIP3    H112627   1.653   2.495   2.942
 4207TIP3    H212628   1.714   2.525   2.806
 4208TIP3   OH212629   6.321   5.551   3.934
 4208TIP3    H112630   6.344   5.641   3.912
 4208TIP3    H212631   6.257   5.526   3.867
 4209TIP3   OH212632   2.237   1.621   0.736
 4209TIP3    H112633   2.323   1.584   0.714
 4209TIP3    H212634   2.207   1.570   0.811
 4210TIP3   OH212635   5.347   0.055   1.214
 4210TIP3    H112636   5.324   0.056   1.307
 4210TIP3    H212637   5.374   0.145   1.196
 4211TIP3   OH212638   4.100   4.434   2.767
 4211TIP3    H112639   4.187   4.438   2.726
 4211TIP3    H212640   4.115   4.387   2.849
 4212TIP3   OH212641   4.574   5.421   4.101
 4212TIP3    H112642   4.529   5.336   4.102
 4212TIP3    H212643   4.504   5.485   4.090
 4213TIP3   OH212644   0.781   4.559   2.004
 4213TIP3    H112645   0.774   4.600   1.918
 4213TIP3    H212646   0.816   4.472   1.986
 4214TIP3   OH212647   3.405   5.433   2.812
 4214TIP3    H112648   3.467   5.480   2.868
 4214TIP3    H212649   3.362   5.502   2.761
 4215TIP3   OH212650   1.631   5.808   1.818
 4215TIP3    H112651   1.640   5.716   1.841
 4215TIP3    H212652   1.587   5.847   1.893
 4216TIP3   OH212653   5.403   1.042   0.092
 4216TIP3    H112654   5.344   1.101   0.138
 4216TIP3    H212655   5.414   1.082   0.005
 4217TIP3   OH212656   5.128   0.411   4.265
 4217TIP3    H112657   5.167   0.428   4.351
 4217TIP3    H212658   5.034   0.405   4.283
 4218TIP3   OH212659   2.699   3.102   1.854
 4218TIP3    H112660   2.697   3.110   1.950
 4218TIP3    H212661   2.634   3.035   1.834
 4219TIP3   OH212662   6.388   5.926   4.898
 4219TIP3    H112663   6.328   5.883   4.959
 4219TIP3    H212664   6.343   5.923   4.814
 4220TIP3   OH212665   6.202   4.008   1.308
 4220TIP3    H112666   6.187   4.008   1.403
 4220TIP3    H212667   6.293   3.980   1.298
 4221TIP3   OH212668   3.744   2.465   2.188
 4221TIP3    H112669   3.818   2.495   2.241
 4221TIP3    H212670   3.673   2.452   2.252
 4222TIP3   OH212671   2.852   5.289   2.947
 4222TIP3    H112672   2.931   5.340   2.931
 4222TIP3    H212673   2.881   5.215   3.001
 4223TIP3   OH212674   6.059   5.087   2.885
 4223TIP3    H112675   5.989   5.056   2.829
 4223TIP3    H212676   6.096   5.162   2.839
 4224TIP3   OH212677   0.727   0.624   0.998
 4224TIP3    H112678   0.672   0.699   0.975
 4224TIP3    H212679   0.667   0.550   1.003
 4225TIP3   OH212680   1.457   5.535   4.916
 4225TIP3    H112681   1.381   5.591   4.903
 4225TIP3    H212682   1.478   5.544   5.009
 4226TIP3   OH212683   5.637   4.803   5.026
 4226TIP3    H112684   5.580   4.879   5.038
 4226TIP3    H212685   5.578   4.727   5.032
 4227TIP3   OH212686   5.744   3.818   2.874
 4227TIP3    H112687   5.721   3.734   2.912
 4227TIP3    H212688   5.831   3.837   2.909
 4228TIP3   OH212689   0.454   2.841   0.795
 4228TIP3    H112690   0.492   2.762   0.835
 4228TIP3    H212691   0.362   2.819   0.781
 4229TIP3   OH212692   2.586   0.132   0.483
 4229TIP3    H112693   2.675   0.126   0.449
 4229TIP3    H212694   2.595   0.114   0.576
 4230TIP3   OH212695   0.430   0.418   2.136
 4230TIP3    H112696   0.335   0.415   2.145
 4230TIP3    H212697   0.453   0.335   2.093
 4231TIP3   OH212698   0.244   0.984   3.909
 4231TIP3    H112699   0.184   0.921   3.946
 4231TIP3    H212700   0.312   0.995   3.975
 4232TIP3   OH212701   5.739   0.786   1.817
 4232TIP3    H112702   5.737   0.839   1.897
 4232TIP3    H212703   5.741   0.695   1.848
 4233TIP3   OH212704   1.002   1.302   4.006
 4233TIP3    H112705   1.026   1.248   4.081
 4233TIP3    H212706   1.077   1.360   3.994
 4234TIP3   OH212707   4.506   1.706   0.896
 4234TIP3    H112708   4.562   1.783   0.901
 4234TIP3    H212709   4.497   1.676   0.986
 4235TIP3   OH212710   4.406   5.863   3.892
 4235TIP3    H112711   4.338   5.929   3.895
 4235TIP3    H212712   4.403   5.829   3.803
 4236TIP3   OH212713   3.745   4.829   3.293
 4236TIP3    H112714   3.682   4.807   3.225
 4236TIP3    H212715   3.831   4.818   3.252
 4237TIP3   OH212716   2.104   0.897   4.473
 4237TIP3    H112717   2.120   0.832   4.404
 4237TIP3    H212718   2.160   0.971   4.450
 4238TIP3   OH212719   1.566   5.276   2.194
 4238TIP3    H112720   1.514   5.331   2.253
 4238TIP3    H212721   1.523   5.191   2.196
 4239TIP3   OH212722   3.724   1.015   2.815
 4239TIP3    H112723   3.672   1.091   2.844
 4239TIP3    H212724   3.782   0.996   2.888
 4240TIP3   OH212725   4.248   4.992   4.768
 4240TIP3    H112726   4.257   5.038   4.851
 4240TIP3    H212727   4.154   4.975   4.760
 4241TIP3   OH212728   6.360   4.622   2.152
 4241TIP3    H112729   6.325   4.588   2.234
 4241TIP3    H212730   6.284   4.659   2.106
 4242TIP3   OH212731   5.244   2.282   0.030
 4242TIP3    H112732   5.265   2.301  -0.061
 4242TIP3    H212733   5.317   2.318   0.080
 4243TIP3   OH212734   1.150   5.224   3.826
 4243TIP3    H112735   1.108   5.233   3.912
 4243TIP3    H212736   1.184   5.311   3.807
 4244TIP3   OH212737   4.036   5.921   2.648
 4244TIP3    H112738   4.103   5.885   2.590
 4244TIP3    H212739   4.066   6.010   2.667
 4245TIP3   OH212740   1.363   1.804   0.110
 4245TIP3    H112741   1.351   1.799   0.205
 4245TIP3    H212742   1.430   1.871   0.098
 4246TIP3   OH212743   3.491   5.015   0.505
 4246TIP3    H112744   3.543   5.092   0.479
 4246TIP3    H212745   3.519   4.996   0.594
 4247TIP3   OH212746   5.626   1.931   0.545
 4247TIP3    H112747   5.570   1.914   0.622
 4247TIP3    H212748   5.699   1.982   0.580
 4248TIP3   OH212749   4.622   4.762   2.187
 4248TIP3    H112750   4.544   4.790   2.139
 4248TIP3    H212751   4.640   4.674   2.153
 4249TIP3   OH212752   5.978   0.078   2.487
 4249TIP3    H112753   5.903   0.132   2.514
 4249TIP3    H212754   6.001   0.028   2.566
 4250TIP3   OH212755   0.884   1.501   4.442
 4250TIP3    H112756   0.793   1.510   4.472
 4250TIP3    H212757   0.915   1.421   4.485
 4251TIP3   OH212758   2.153   2.941   1.316
 4251TIP3    H112759   2.224   2.966   1.256
 4251TIP3    H212760   2.190   2.954   1.404
 4252TIP3   OH212761   5.837   5.019   1.695
 4252TIP3    H112762   5.895   5.032   1.769
 4252TIP3    H212763   5.891   5.038   1.618
 4253TIP3   OH212764   5.089   4.668   4.752
 4253TIP3    H112765   5.067   4.607   4.681
 4253TIP3    H212766   5.168   4.631   4.790
 4254TIP3   OH212767   4.031   2.526   3.031
 4254TIP3    H112768   3.998   2.615   3.042
 4254TIP3    H212769   4.007   2.482   3.113
 4255TIP3   OH212770   1.273   2.879   1.414
 4255TIP3    H112771   1.349   2.862   1.358
 4255TIP3    H212772   1.201   2.831   1.373
 4256TIP3   OH212773   3.892   3.638   0.226
 4256TIP3    H112774   3.980   3.654   0.193
 4256TIP3    H212775   3.888   3.543   0.238
 4257TIP3   OH212776   1.303   1.641   4.806
 4257TIP3    H112777   1.335   1.658   4.718
 4257TIP3    H212778   1.212   1.612   4.793
 4258TIP3   OH212779   1.796   3.299   2.685
 4258TIP3    H112780   1.868   3.266   2.632
 4258TIP3    H212781   1.749   3.359   2.628
 4259TIP3   OH212782   6.003   0.418   1.256
 4259TIP3    H112783   5.928   0.466   1.291
 4259TIP3    H212784   6.076   0.444   1.312
 4260TIP3   OH212785   0.122   5.757   0.927
 4260TIP3    H112786   0.122   5.707   0.845
 4260TIP3    H212787   0.184   5.711   0.983
 4261TIP3   OH212788   1.102   5.145   1.127
 4261TIP3    H112789   1.058   5.203   1.189
 4261TIP3    H212790   1.035   5.123   1.062
 4262TIP3   OH212791   0.185   2.243   3.180
 4262TIP3    H112792   0.177   2.254   3.275
 4262TIP3    H212793   0.094   2.242   3.149
 4263TIP3   OH212794   0.145   1.420   1.972
 4263TIP3    H112795   0.211   1.353   1.956
 4263TIP3    H212796   0.176   1.465   2.050
 4264TIP3   OH212797   5.085   4.044   3.848
 4264TIP3    H112798   4.997   4.034   3.811
 4264TIP3    H212799   5.090   3.977   3.916
 4265TIP3   OH212800   6.310   5.297   2.579
 4265TIP3    H112801   6.370   5.248   2.635
 4265TIP3    H212802   6.262   5.230   2.531
 4266TIP3   OH212803   4.268   5.467   0.331
 4266TIP3    H112804   4.283   5.453   0.424
 4266TIP3    H212805   4.173   5.475   0.323
 4267TIP3   OH212806   4.170   0.954   1.495
 4267TIP3    H112807   4.143   1.042   1.469
 4267TIP3    H212808   4.255   0.966   1.535
 4268TIP3   OH212809   1.007   2.401   0.787
 4268TIP3    H112810   1.101   2.419   0.795
 4268TIP3    H212811   0.988   2.340   0.858
 4269TIP3   OH212812   2.858   2.116   5.057
 4269TIP3    H112813   2.831   2.149   5.143
 4269TIP3    H212814   2.953   2.121   5.059
 4270TIP3   OH212815   0.455   5.319   0.132
 4270TIP3    H112816   0.476   5.373   0.056
 4270TIP3    H212817   0.359   5.315   0.132
 4271TIP3   OH212818   2.407   2.319   2.702
 4271TIP3    H112819   2.478   2.345   2.644
 4271TIP3    H212820   2.430   2.356   2.787
 4272TIP3   OH212821   2.722   1.556   2.978
 4272TIP3    H112822   2.783   1.516   3.040
 4272TIP3    H212823   2.636   1.532   3.010
 4273TIP3   OH212824   0.630   2.117   3.119
 4273TIP3    H112825   0.669   2.191   3.166
 4273TIP3    H212826   0.696   2.049   3.123
 4274TIP3   OH212827   4.936   4.802   0.213
 4274TIP3    H112828   5.000   4.811   0.143
 4274TIP3    H212829   4.982   4.833   0.292
 4275TIP3   OH212830   4.070   3.567   1.649
 4275TIP3    H112831   4.150   3.619   1.654
 4275TIP3    H212832   4.030   3.576   1.735
 4276TIP3   OH212833   2.467   5.636   3.529
 4276TIP3    H112834   2.528   5.703   3.498
 4276TIP3    H212835   2.489   5.558   3.477
 4277TIP3   OH212836   5.704   1.155   2.436
 4277TIP3    H112837   5.734   1.222   2.498
 4277TIP3    H212838   5.658   1.205   2.368
 4278TIP3   OH212839   5.992   3.360   1.928
 4278TIP3    H112840   6.074   3.402   1.953
 4278TIP3    H212841   5.925   3.428   1.938
 4279TIP3   OH212842   1.940   2.255   3.251
 4279TIP3    H112843   1.893   2.182   3.293
 4279TIP3    H212844   1.952   2.319   3.322
 4280TIP3   OH212845   6.037   1.481   4.747
 4280TIP3    H112846   6.019   1.513   4.659
 4280TIP3    H212847   6.016   1.388   4.743
 4281TIP3   OH212848   4.540   5.196   2.859
 4281TIP3    H112849   4.623   5.173   2.901
 4281TIP3    H212850   4.493   5.246   2.926
 4282TIP3   OH212851   1.207   5.626   0.408
 4282TIP3    H112852   1.148   5.567   0.362
 4282TIP3    H212853   1.266   5.660   0.341
 4283TIP3   OH212854   3.941   1.341   2.435
 4283TIP3    H112855   3.855   1.301   2.449
 4283TIP3    H212856   3.988   1.325   2.517
 4284TIP3   OH212857   0.748   5.540   4.744
 4284TIP3    H112858   0.791   5.574   4.665
 4284TIP3    H212859   0.667   5.501   4.712
 4285TIP3   OH212860   4.360   5.720   0.249
 4285TIP3    H112861   4.319   5.653   0.305
 4285TIP3    H212862   4.445   5.683   0.226
 4286TIP3   OH212863   0.489   1.137   1.537
 4286TIP3    H112864   0.421   1.192   1.498
 4286TIP3    H212865   0.570   1.186   1.521
 4287TIP3   OH212866   4.448   3.839   0.823
 4287TIP3    H112867   4.417   3.808   0.908
 4287TIP3    H212868   4.505   3.913   0.844
 4288TIP3   OH212869   0.454   5.838   0.269
 4288TIP3    H112870   0.545   5.817   0.291
 4288TIP3    H212871   0.430   5.774   0.202
 4289TIP3   OH212872   2.833   3.556   1.421
 4289TIP3    H112873   2.852   3.630   1.479
 4289TIP3    H212874   2.917   3.511   1.411
 4290TIP3   OH212875   0.131   0.269   4.131
 4290TIP3    H112876   0.048   0.316   4.141
 4290TIP3    H212877   0.189   0.334   4.090
 4291TIP3   OH212878   4.425   0.318   2.453
 4291TIP3    H112879   4.403   0.264   2.529
 4291TIP3    H212880   4.385   0.273   2.379
 4292TIP3   OH212881   5.665   5.130   3.113
 4292TIP3    H112882   5.750   5.173   3.123
 4292TIP3    H212883   5.633   5.161   3.028
 4293TIP3   OH212884   0.893   1.789  -0.035
 4293TIP3    H112885   0.944   1.825   0.037
 4293TIP3    H212886   0.843   1.717   0.003
 4294TIP3   OH212887   0.896   5.006   3.333
 4294TIP3    H112888   0.960   5.064   3.373
 4294TIP3    H212889   0.888   4.933   3.395
 4295TIP3   OH212890   1.721   3.528   0.412
 4295TIP3    H112891   1.736   3.557   0.322
 4295TIP3    H212892   1.731   3.433   0.408
 4296TIP3   OH212893   0.145   0.760   2.058
 4296TIP3    H112894   0.157   0.844   2.014
 4296TIP3    H212895   0.053   0.760   2.084
 4297TIP3   OH212896   2.409   5.460   4.440
 4297TIP3    H112897   2.402   5.491   4.531
 4297TIP3    H212898   2.460   5.379   4.447
 4298TIP3   OH212899   5.034   5.682   4.155
 4298TIP3    H112900   4.998   5.625   4.086
 4298TIP3    H212901   5.075   5.754   4.107
 4299TIP3   OH212902   0.843   2.063   4.699
 4299TIP3    H112903   0.794   1.987   4.666
 4299TIP3    H212904   0.777   2.118   4.741
 4300TIP3   OH212905   3.844   3.857   2.372
 4300TIP3    H112906   3.828   3.778   2.320
 4300TIP3    H212907   3.925   3.839   2.420
 4301TIP3   OH212908   2.205   0.957   5.139
 4301TIP3    H112909   2.278   0.896   5.143
 4301TIP3    H212910   2.246   1.042   5.121
 4302TIP3   OH212911   0.937   4.131   3.456
 4302TIP3    H112912   0.925   4.037   3.463
 4302TIP3    H212913   0.921   4.151   3.364
 4303TIP3   OH212914   4.708   1.633   1.311
 4303TIP3    H112915   4.630   1.660   1.263
 4303TIP3    H212916   4.781   1.667   1.259
 4304TIP3   OH212917   6.132   4.457   5.032
 4304TIP3    H112918   6.112   4.405   4.955
 4304TIP3    H212919   6.084   4.539   5.020
 4305TIP3   OH212920   3.114   1.193   3.424
 4305TIP3    H112921   3.163   1.258   3.475
 4305TIP3    H212922   3.167   1.179   3.345
 4306TIP3   OH212923   0.360   3.892   1.667
 4306TIP3    H112924   0.271   3.924   1.678
 4306TIP3    H212925   0.384   3.919   1.578
 4307TIP3   OH212926   6.079   2.133   2.244
 4307TIP3    H112927   6.140   2.201   2.215
 4307TIP3    H212928   6.119   2.051   2.216
 4308TIP3   OH212929   5.077   5.553   0.945
 4308TIP3    H112930   5.169   5.556   0.972
 4308TIP3    H212931   5.032   5.510   1.018
 4309TIP3   OH212932   1.247   1.050   4.965
 4309TIP3    H112933   1.295   1.040   5.047
 4309TIP3    H212934   1.267   0.970   4.915
 4310TIP3   OH212935   1.312   2.811   0.339
 4310TIP3    H112936   1.367   2.845   0.410
 4310TIP3    H212937   1.323   2.716   0.344
 4311TIP3   OH212938   6.290   1.353   2.420
 4311TIP3    H112939   6.343   1.421   2.461
 4311TIP3    H212940   6.347   1.316   2.352
 4312TIP3   OH212941   4.976   4.850   0.515
 4312TIP3    H112942   5.021   4.859   0.599
 4312TIP3    H212943   4.929   4.767   0.522
 4313TIP3   OH212944   3.570   5.396   2.402
 4313TIP3    H112945   3.524   5.378   2.320
 4313TIP3    H212946   3.623   5.473   2.383
 4314TIP3   OH212947   3.563   3.476   3.680
 4314TIP3    H112948   3.485   3.511   3.723
 4314TIP3    H212949   3.612   3.554   3.651
 4315TIP3   OH212950   1.811   2.686   4.846
 4315TIP3    H112951   1.869   2.610   4.849
 4315TIP3    H212952   1.852   2.751   4.904
 4316TIP3   OH212953   1.048   5.337   0.298
 4316TIP3    H112954   0.953   5.339   0.286
 4316TIP3    H212955   1.083   5.312   0.212
 4317TIP3   OH212956   3.084   5.319   0.705
 4317TIP3    H112957   3.154   5.291   0.646
 4317TIP3    H212958   3.067   5.410   0.681
 4318TIP3   OH212959   0.689   1.590   5.004
 4318TIP3    H112960   0.655   1.511   4.962
 4318TIP3    H212961   0.771   1.562   5.045
 4319TIP3   OH212962   0.957   3.009   3.018
 4319TIP3    H112963   1.017   3.013   2.944
 4319TIP3    H212964   0.992   2.940   3.074
 4320TIP3   OH212965   4.540   2.096   5.096
 4320TIP3    H112966   4.474   2.164   5.087
 4320TIP3    H212967   4.577   2.108   5.183
 4321TIP3   OH212968   5.294   5.270   3.520
 4321TIP3    H112969   5.314   5.262   3.427
 4321TIP3    H212970   5.251   5.188   3.543
 4322TIP3   OH212971   3.616   1.629   1.349
 4322TIP3    H112972   3.535   1.678   1.360
 4322TIP3    H212973   3.685   1.694   1.364
 4323TIP3   OH212974   0.352   4.531   2.461
 4323TIP3    H112975   0.263   4.501   2.442
 4323TIP3    H212976   0.345   4.627   2.459
 4324TIP3   OH212977   1.260   3.445   4.231
 4324TIP3    H112978   1.222   3.408   4.311
 4324TIP3    H212979   1.331   3.384   4.208
 4325TIP3   OH212980   3.921   2.429   1.601
 4325TIP3    H112981   3.847   2.387   1.645
 4325TIP3    H212982   3.898   2.425   1.508
 4326TIP3   OH212983   5.505   0.557   5.130
 4326TIP3    H112984   5.509   0.540   5.036
 4326TIP3    H212985   5.412   0.572   5.148
 4327TIP3   OH212986   3.792   0.978   4.562
 4327TIP3    H112987   3.718   1.029   4.528
 4327TIP3    H212988   3.802   1.008   4.653
 4328TIP3   OH212989   5.815   0.107   3.767
 4328TIP3    H112990   5.895   0.158   3.752
 4328TIP3    H212991   5.769   0.109   3.683
 4329TIP3   OH212992   4.176   5.689   4.726
 4329TIP3    H112993   4.138   5.747   4.792
 4329TIP3    H212994   4.112   5.619   4.715
 4330TIP3   OH212995   3.902   3.279   3.027
 4330TIP3    H112996   3.958   3.291   2.951
 4330TIP3    H212997   3.819   3.319   3.002
 4331TIP3   OH212998   2.999   2.258   4.099
 4331TIP3    H112999   2.946   2.241   4.021
 4331TIP3    H213000   2.953   2.212   4.169
 4332TIP3   OH213001   2.931   0.261   3.861
 4332TIP3    H113002   3.020   0.289   3.841
 4332TIP3    H213003   2.904   0.317   3.934
 4333TIP3   OH213004   3.615   1.482   4.712
 4333TIP3    H113005   3.627   1.536   4.790
 4333TIP3    H213006   3.577   1.541   4.647
 4334TIP3   OH213007   5.847   3.453   0.414
 4334TIP3    H113008   5.898   3.473   0.335
 4334TIP3    H213009   5.903   3.394   0.464
 4335TIP3   OH213010   2.829   4.875   4.253
 4335TIP3    H113011   2.817   4.881   4.158
 4335TIP3    H213012   2.740   4.882   4.289
 4336TIP3   OH213013   2.853   4.068   3.668
 4336TIP3    H113014   2.763   4.039   3.658
 4336TIP3    H213015   2.903   3.987   3.683
 4337TIP3   OH213016   2.762   4.482   1.140
 4337TIP3    H113017   2.820   4.455   1.070
 4337TIP3    H213018   2.820   4.518   1.208
 4338TIP3   OH213019   6.232   5.516   3.667
 4338TIP3    H113020   6.319   5.481   3.645
 4338TIP3    H213021   6.238   5.609   3.644
 4339TIP3   OH213022   0.277   1.511   2.238
 4339TIP3    H113023   0.350   1.567   2.211
 4339TIP3    H213024   0.315   1.455   2.306
 4340TIP3   OH213025   5.711   5.163   1.474
 4340TIP3    H113026   5.673   5.219   1.405
 4340TIP3    H213027   5.795   5.205   1.495
 4341TIP3   OH213028   3.318   3.176   2.979
 4341TIP3    H113029   3.253   3.224   2.929
 4341TIP3    H213030   3.341   3.234   3.052
 4342TIP3   OH213031   0.868   2.423   3.359
 4342TIP3    H113032   0.850   2.329   3.359
 4342TIP3    H213033   0.785   2.463   3.330
 4343TIP3   OH213034   0.297   2.555   4.178
 4343TIP3    H113035   0.210   2.538   4.212
 4343TIP3    H213036   0.296   2.646   4.151
 4344TIP3   OH213037   4.130   4.790   0.674
 4344TIP3    H113038   4.172   4.774   0.758
 4344TIP3    H213039   4.051   4.838   0.695
 4345TIP3   OH213040   1.327   2.523   1.404
 4345TIP3    H113041   1.311   2.514   1.310
 4345TIP3    H213042   1.417   2.554   1.410
 4346TIP3   OH213043   3.513   4.846   4.480
 4346TIP3    H113044   3.598   4.848   4.437
 4346TIP3    H213045   3.452   4.823   4.410
 4347TIP3   OH213046   1.564   0.866   2.911
 4347TIP3    H113047   1.491   0.919   2.945
 4347TIP3    H213048   1.525   0.781   2.891
 4348TIP3   OH213049   0.015   1.121   3.341
 4348TIP3    H113050   0.070   1.052   3.377
 4348TIP3    H213051  -0.065   1.118   3.393
 4349TIP3   OH213052   5.851   4.893   3.985
 4349TIP3    H113053   5.905   4.940   4.048
 4349TIP3    H213054   5.769   4.877   4.032
 4350TIP3   OH213055   1.365   0.964   2.314
 4350TIP3    H113056   1.339   1.048   2.353
 4350TIP3    H213057   1.460   0.966   2.314
 4351TIP3   OH213058   5.519   1.968   0.281
 4351TIP3    H113059   5.539   1.930   0.366
 4351TIP3    H213060   5.449   1.913   0.245
 4352TIP3   OH213061   3.035   1.603   0.231
 4352TIP3    H113062   2.972   1.595   0.302
 4352TIP3    H213063   2.990   1.656   0.165
 4353TIP3   OH213064   6.060   2.016   4.375
 4353TIP3    H113065   6.104   1.931   4.369
 4353TIP3    H213066   5.983   2.007   4.318
 4354TIP3   OH213067   3.945   3.663   4.735
 4354TIP3    H113068   3.946   3.573   4.767
 4354TIP3    H213069   3.866   3.702   4.772
 4355TIP3   OH213070   5.150   4.307   3.249
 4355TIP3    H113071   5.151   4.306   3.345
 4355TIP3    H213072   5.142   4.215   3.224
 4356TIP3   OH213073   5.074   0.231   2.298
 4356TIP3    H113074   5.159   0.193   2.276
 4356TIP3    H213075   5.032   0.165   2.354
 4357TIP3   OH213076   0.789   5.554   5.032
 4357TIP3    H113077   0.813   5.560   4.939
 4357TIP3    H213078   0.848   5.614   5.076
 4358TIP3   OH213079   5.702   4.048   0.942
 4358TIP3    H113080   5.661   4.133   0.927
 4358TIP3    H213081   5.690   4.000   0.860
 4359TIP3   OH213082   2.457   1.536   4.300
 4359TIP3    H113083   2.450   1.628   4.275
 4359TIP3    H213084   2.550   1.516   4.294
 4360TIP3   OH213085   0.406   1.884   3.569
 4360TIP3    H113086   0.411   1.797   3.528
 4360TIP3    H213087   0.414   1.946   3.497
 4361TIP3   OH213088   1.480   5.451   0.805
 4361TIP3    H113089   1.445   5.397   0.734
 4361TIP3    H213090   1.567   5.477   0.774
 4362TIP3   OH213091   3.007   0.919   0.463
 4362TIP3    H113092   2.992   0.900   0.370
 4362TIP3    H213093   2.922   0.952   0.494
 4363TIP3   OH213094   0.732   1.161   3.928
 4363TIP3    H113095   0.822   1.194   3.924
 4363TIP3    H213096   0.731   1.100   4.001
 4364TIP3   OH213097   3.405   4.289   4.864
 4364TIP3    H113098   3.431   4.285   4.956
 4364TIP3    H213099   3.311   4.305   4.867
 4365TIP3   OH213100   2.924   5.591   1.280
 4365TIP3    H113101   3.004   5.629   1.244
 4365TIP3    H213102   2.922   5.621   1.371
 4366TIP3   OH213103   3.785   5.505   3.311
 4366TIP3    H113104   3.731   5.585   3.305
 4366TIP3    H213105   3.803   5.495   3.404
 4367TIP3   OH213106   5.708   1.943   1.531
 4367TIP3    H113107   5.708   2.027   1.577
 4367TIP3    H213108   5.654   1.958   1.454
 4368TIP3   OH213109   3.714   3.160   3.658
 4368TIP3    H113110   3.721   3.215   3.737
 4368TIP3    H213111   3.715   3.071   3.692
 4369TIP3   OH213112   6.291   3.907   0.525
 4369TIP3    H113113   6.254   3.987   0.489
 4369TIP3    H213114   6.230   3.838   0.500
 4370TIP3   OH213115   3.873   0.337   4.428
 4370TIP3    H113116   3.778   0.344   4.439
 4370TIP3    H213117   3.903   0.427   4.419
 4371TIP3   OH213118   0.691   1.875   1.389
 4371TIP3    H113119   0.690   1.900   1.296
 4371TIP3    H213120   0.637   1.797   1.394
 4372TIP3   OH213121   4.943   2.250   3.871
 4372TIP3    H113122   5.033   2.262   3.903
 4372TIP3    H213123   4.911   2.173   3.918
 4373TIP3   OH213124   3.351   0.669   3.265
 4373TIP3    H113125   3.437   0.667   3.223
 4373TIP3    H213126   3.350   0.592   3.321
 4374TIP3   OH213127   3.755   2.162   3.655
 4374TIP3    H113128   3.768   2.112   3.574
 4374TIP3    H213129   3.835   2.149   3.705
 4375TIP3   OH213130   5.916   5.778   2.654
 4375TIP3    H113131   5.850   5.847   2.661
 4375TIP3    H213132   5.891   5.729   2.576
 4376TIP3   OH213133   2.858   3.599   4.533
 4376TIP3    H113134   2.880   3.585   4.440
 4376TIP3    H213135   2.807   3.521   4.557
 4377TIP3   OH213136   0.401   5.440   1.556
 4377TIP3    H113137   0.406   5.533   1.577
 4377TIP3    H213138   0.484   5.404   1.586
 4378TIP3   OH213139   4.553   1.809   5.155
 4378TIP3    H113140   4.511   1.865   5.221
 4378TIP3    H213141   4.548   1.860   5.074
 4379TIP3   OH213142   2.072   2.521   3.753
 4379TIP3    H113143   2.031   2.587   3.698
 4379TIP3    H213144   2.010   2.507   3.825
 4380TIP3   OH213145   2.406   1.258   0.672
 4380TIP3    H113146   2.371   1.236   0.586
 4380TIP3    H213147   2.360   1.200   0.733
 4381TIP3   OH213148   3.785   5.903   2.253
 4381TIP3    H113149   3.827   5.964   2.312
 4381TIP3    H213150   3.857   5.861   2.206
 4382TIP3   OH213151   0.663   1.287   5.012
 4382TIP3    H113152   0.694   1.228   5.080
 4382TIP3    H213153   0.730   1.283   4.944
 4383TIP3   OH213154   2.173   0.883   0.391
 4383TIP3    H113155   2.093   0.916   0.349
 4383TIP3    H213156   2.218   0.962   0.421
 4384TIP3   OH213157   0.956   0.062   2.711
 4384TIP3    H113158   0.897   0.137   2.712
 4384TIP3    H213159   1.036   0.094   2.754
 4385TIP3   OH213160   5.594   3.145   5.010
 4385TIP3    H113161   5.527   3.199   4.969
 4385TIP3    H213162   5.597   3.066   4.957
 4386TIP3   OH213163   0.374   4.243   3.511
 4386TIP3    H113164   0.396   4.327   3.469
 4386TIP3    H213165   0.278   4.240   3.509
 4387TIP3   OH213166   2.853   0.085   0.540
 4387TIP3    H113167   2.902   0.005   0.562
 4387TIP3    H213168   2.916   0.156   0.553
 4388TIP3   OH213169   4.252   3.312   0.812
 4388TIP3    H113170   4.243   3.344   0.722
 4388TIP3    H213171   4.340   3.275   0.815
 4389TIP3   OH213172   1.823   3.650   0.637
 4389TIP3    H113173   1.821   3.602   0.720
 4389TIP3    H213174   1.804   3.584   0.571
 4390TIP3   OH213175   3.988   4.726   2.751
 4390TIP3    H113176   4.045   4.653   2.727
 4390TIP3    H213177   3.920   4.687   2.806
 4391TIP3   OH213178   0.090   0.252   3.443
 4391TIP3    H113179   0.006   0.239   3.398
 4391TIP3    H213180   0.130   0.327   3.399
 4392TIP3   OH213181   0.937   5.689   2.870
 4392TIP3    H113182   0.961   5.772   2.910
 4392TIP3    H213183   1.020   5.652   2.839
 4393TIP3   OH213184   1.377   4.010   0.276
 4393TIP3    H113185   1.389   3.916   0.279
 4393TIP3    H213186   1.375   4.031   0.182
 4394TIP3   OH213187   3.804   3.118   2.753
 4394TIP3    H113188   3.784   3.105   2.661
 4394TIP3    H213189   3.721   3.140   2.794
 4395TIP3   OH213190   1.043   1.685   4.923
 4395TIP3    H113191   1.060   1.772   4.887
 4395TIP3    H213192   1.072   1.690   5.014
 4396TIP3   OH213193   0.525   1.271   0.856
 4396TIP3    H113194   0.453   1.297   0.798
 4396TIP3    H213195   0.512   1.177   0.870
 4397TIP3   OH213196   1.894   1.937   0.618
 4397TIP3    H113197   1.961   1.985   0.569
 4397TIP3    H213198   1.832   2.005   0.644
 4398TIP3   OH213199   4.531   3.912   3.988
 4398TIP3    H113200   4.573   3.928   4.072
 4398TIP3    H213201   4.440   3.939   4.000
 4399TIP3   OH213202   3.367   0.999   0.575
 4399TIP3    H113203   3.392   0.933   0.639
 4399TIP3    H213204   3.315   0.952   0.510
 4400TIP3   OH213205   5.009   1.331   4.858
 4400TIP3    H113206   5.104   1.322   4.849
 4400TIP3    H213207   4.973   1.258   4.808
 4401TIP3   OH213208   4.005   1.195   4.695
 4401TIP3    H113209   4.066   1.260   4.732
 4401TIP3    H213210   3.954   1.243   4.631
 4402TIP3   OH213211   5.534   2.795   1.056
 4402TIP3    H113212   5.595   2.767   0.988
 4402TIP3    H213213   5.454   2.746   1.037
 4403TIP3   OH213214   3.908   2.864   3.572
 4403TIP3    H113215   3.945   2.929   3.632
 4403TIP3    H213216   3.876   2.794   3.630
 4404TIP3   OH213217   4.398   3.642   2.104
 4404TIP3    H113218   4.445   3.668   2.025
 4404TIP3    H213219   4.329   3.583   2.073
 4405TIP3   OH213220   4.420   0.061   1.130
 4405TIP3    H113221   4.474   0.097   1.060
 4405TIP3    H213222   4.475   0.066   1.209
 4406TIP3   OH213223   3.255   3.000   1.771
 4406TIP3    H113224   3.303   2.941   1.713
 4406TIP3    H213225   3.314   3.011   1.846
 4407TIP3   OH213226   5.177   4.322   4.039
 4407TIP3    H113227   5.147   4.398   3.990
 4407TIP3    H213228   5.171   4.249   3.977
 4408TIP3   OH213229   4.761   3.070   3.867
 4408TIP3    H113230   4.802   3.090   3.783
 4408TIP3    H213231   4.668   3.062   3.847
 4409TIP3   OH213232   1.252   1.336   5.039
 4409TIP3    H113233   1.237   1.392   4.963
 4409TIP3    H213234   1.232   1.247   5.008
 4410TIP3   OH213235   2.272   1.548   1.200
 4410TIP3    H113236   2.302   1.552   1.291
 4410TIP3    H213237   2.336   1.492   1.156
 4411TIP3   OH213238   1.662   1.849   4.665
 4411TIP3    H113239   1.687   1.892   4.747
 4411TIP3    H213240   1.730   1.784   4.650
 4412TIP3   OH213241   1.062   0.971   3.558
 4412TIP3    H113242   1.155   0.957   3.539
 4412TIP3    H213243   1.040   1.053   3.514
 4413TIP3   OH213244   1.748   5.097   2.852
 4413TIP3    H113245   1.825   5.152   2.865
 4413TIP3    H213246   1.779   5.025   2.798
 4414TIP3   OH213247   0.691   1.145   4.478
 4414TIP3    H113248   0.644   1.204   4.537
 4414TIP3    H213249   0.678   1.058   4.516
 4415TIP3   OH213250   6.050   2.020   1.577
 4415TIP3    H113251   6.011   1.985   1.497
 4415TIP3    H213252   6.038   2.115   1.570
 4416TIP3   OH213253   5.337   3.230   1.200
 4416TIP3    H113254   5.390   3.156   1.172
 4416TIP3    H213255   5.311   3.274   1.120
 4417TIP3   OH213256   5.302   4.816   2.654
 4417TIP3    H113257   5.299   4.720   2.649
 4417TIP3    H213258   5.392   4.838   2.629
 4418TIP3   OH213259   1.963   1.462   3.242
 4418TIP3    H113260   1.987   1.527   3.176
 4418TIP3    H213261   1.868   1.458   3.238
 4419TIP3   OH213262   1.664   5.245   5.205
 4419TIP3    H113263   1.600   5.215   5.140
 4419TIP3    H213264   1.743   5.264   5.154
 4420TIP3   OH213265   4.890   3.288   4.871
 4420TIP3    H113266   4.811   3.269   4.921
 4420TIP3    H213267   4.865   3.354   4.808
 4421TIP3   OH213268   3.782   3.197   1.058
 4421TIP3    H113269   3.757   3.155   0.975
 4421TIP3    H213270   3.734   3.280   1.058
 4422TIP3   OH213271   2.789   0.625   3.533
 4422TIP3    H113272   2.820   0.712   3.511
 4422TIP3    H213273   2.796   0.620   3.629
 4423TIP3   OH213274   0.243   2.290   1.885
 4423TIP3    H113275   0.296   2.344   1.827
 4423TIP3    H213276   0.181   2.246   1.828
 4424TIP3   OH213277   0.764   0.767   3.216
 4424TIP3    H113278   0.849   0.726   3.230
 4424TIP3    H213279   0.765   0.845   3.271
 4425TIP3   OH213280   5.062   1.162   1.636
 4425TIP3    H113281   5.085   1.185   1.546
 4425TIP3    H213282   4.969   1.139   1.632
 4426TIP3   OH213283   1.756   1.675   4.371
 4426TIP3    H113284   1.723   1.645   4.286
 4426TIP3    H213285   1.686   1.728   4.407
 4427TIP3   OH213286   0.432   3.636   3.555
 4427TIP3    H113287   0.464   3.553   3.520
 4427TIP3    H213288   0.347   3.649   3.513
 4428TIP3   OH213289   5.481   1.494   2.917
 4428TIP3    H113290   5.426   1.563   2.880
 4428TIP3    H213291   5.475   1.422   2.855
 4429TIP3   OH213292   1.974   1.660   3.051
 4429TIP3    H113293   1.996   1.742   3.095
 4429TIP3    H213294   1.971   1.683   2.958
 4430TIP3   OH213295   4.541   3.651   4.614
 4430TIP3    H113296   4.451   3.672   4.636
 4430TIP3    H213297   4.568   3.586   4.679
 4431TIP3   OH213298   3.828   0.914   0.733
 4431TIP3    H113299   3.842   0.850   0.802
 4431TIP3    H213300   3.849   0.998   0.774
 4432TIP3   OH213301   2.540   1.503   2.200
 4432TIP3    H113302   2.593   1.531   2.124
 4432TIP3    H213303   2.604   1.471   2.263
 4433TIP3   OH213304   4.988   3.044   1.151
 4433TIP3    H113305   5.005   3.130   1.190
 4433TIP3    H213306   5.011   3.055   1.059
 4434TIP3   OH213307   1.517   2.594   0.453
 4434TIP3    H113308   1.513   2.679   0.495
 4434TIP3    H213309   1.556   2.536   0.519
 4435TIP3   OH213310   1.373   2.408   0.895
 4435TIP3    H113311   1.325   2.467   0.837
 4435TIP3    H213312   1.454   2.389   0.847
 4436TIP3   OH213313   4.750   4.898   2.914
 4436TIP3    H113314   4.831   4.863   2.952
 4436TIP3    H213315   4.761   4.993   2.916
 4437TIP3   OH213316   2.981   4.846   3.745
 4437TIP3    H113317   2.934   4.762   3.738
 4437TIP3    H213318   2.914   4.912   3.728
 4438TIP3   OH213319   1.654   4.713   4.438
 4438TIP3    H113320   1.714   4.642   4.415
 4438TIP3    H213321   1.675   4.784   4.377
 4439TIP3   OH213322   6.089   4.999   4.138
 4439TIP3    H113323   6.153   4.935   4.107
 4439TIP3    H213324   6.119   5.083   4.103
 4440TIP3   OH213325   5.788   5.916   1.803
 4440TIP3    H113326   5.849   5.844   1.815
 4440TIP3    H213327   5.773   5.949   1.892
 4441TIP3   OH213328   4.215   0.684   0.397
 4441TIP3    H113329   4.270   0.733   0.336
 4441TIP3    H213330   4.136   0.737   0.407
 4442TIP3   OH213331   0.970   2.830   0.292
 4442TIP3    H113332   0.889   2.847   0.339
 4442TIP3    H213333   0.959   2.741   0.257
 4443TIP3   OH213334   6.198   1.894   2.174
 4443TIP3    H113335   6.247   1.910   2.093
 4443TIP3    H213336   6.171   1.802   2.168
 4444TIP3   OH213337   1.357   2.265   2.579
 4444TIP3    H113338   1.445   2.231   2.595
 4444TIP3    H213339   1.370   2.345   2.529
 4445TIP3   OH213340   3.655   1.788   2.089
 4445TIP3    H113341   3.742   1.778   2.127
 4445TIP3    H213342   3.629   1.877   2.110
 4446TIP3   OH213343   2.910   1.545   4.111
 4446TIP3    H113344   2.947   1.569   4.196
 4446TIP3    H213345   2.833   1.601   4.101
 4447TIP3   OH213346   6.152   2.360   2.585
 4447TIP3    H113347   6.107   2.277   2.597
 4447TIP3    H213348   6.082   2.423   2.565
 4448TIP3   OH213349   3.383   3.624   4.264
 4448TIP3    H113350   3.352   3.559   4.326
 4448TIP3    H213351   3.307   3.680   4.247
 4449TIP3   OH213352   1.213   3.556   2.209
 4449TIP3    H113353   1.148   3.486   2.195
 4449TIP3    H213354   1.238   3.582   2.120
 4450TIP3   OH213355   2.884   5.157   2.693
 4450TIP3    H113356   2.877   5.199   2.779
 4450TIP3    H213357   2.970   5.114   2.694
 4451TIP3   OH213358   0.319   1.041   0.039
 4451TIP3    H113359   0.389   0.991  -0.003
 4451TIP3    H213360   0.247   0.978   0.047
 4452TIP3   OH213361   2.947   5.050   3.076
 4452TIP3    H113362   2.899   5.049   3.159
 4452TIP3    H213363   2.997   4.968   3.075
 4453TIP3   OH213364   4.786   2.833   1.404
 4453TIP3    H113365   4.751   2.793   1.484
 4453TIP3    H213366   4.839   2.764   1.365
 4454TIP3   OH213367   3.703   3.974   1.478
 4454TIP3    H113368   3.782   4.011   1.439
 4454TIP3    H213369   3.644   3.961   1.404
 4455TIP3   OH213370   2.836   1.153   0.011
 4455TIP3    H113371   2.827   1.095  -0.064
 4455TIP3    H213372   2.846   1.094   0.086
 4456TIP3   OH213373   4.975   4.824   3.818
 4456TIP3    H113374   5.067   4.850   3.821
 4456TIP3    H213375   4.927   4.904   3.838
 4457TIP3   OH213376   3.624   0.392   0.669
 4457TIP3    H113377   3.658   0.430   0.750
 4457TIP3    H213378   3.535   0.365   0.691
 4458TIP3   OH213379   3.335   3.676   4.892
 4458TIP3    H113380   3.344   3.585   4.922
 4458TIP3    H213381   3.409   3.722   4.932
 4459TIP3   OH213382   1.994   0.908   2.043
 4459TIP3    H113383   2.061   0.971   2.019
 4459TIP3    H213384   1.970   0.932   2.133
 4460TIP3   OH213385   4.039   1.834   0.042
 4460TIP3    H113386   3.968   1.846  -0.021
 4460TIP3    H213387   4.055   1.922   0.078
 4461TIP3   OH213388   1.642   2.291   3.167
 4461TIP3    H113389   1.684   2.205   3.172
 4461TIP3    H213390   1.606   2.305   3.255
 4462TIP3   OH213391   2.944   5.232   4.922
 4462TIP3    H113392   2.936   5.138   4.937
 4462TIP3    H213393   2.963   5.268   5.009
 4463TIP3   OH213394   1.193   4.003   4.362
 4463TIP3    H113395   1.123   3.938   4.351
 4463TIP3    H213396   1.149   4.087   4.349
 4464TIP3   OH213397   5.434   4.610   3.549
 4464TIP3    H113398   5.433   4.552   3.626
 4464TIP3    H213399   5.490   4.566   3.486
 4465TIP3   OH213400   0.907   4.854   4.681
 4465TIP3    H113401   0.814   4.843   4.661
 4465TIP3    H213402   0.910   4.856   4.777
 4466TIP3   OH213403   5.749   4.716   4.370
 4466TIP3    H113404   5.827   4.736   4.421
 4466TIP3    H213405   5.683   4.778   4.402
 4467TIP3   OH213406   6.294   0.719   0.620
 4467TIP3    H113407   6.226   0.786   0.615
 4467TIP3    H213408   6.352   0.748   0.690
 4468TIP3   OH213409   3.109   0.794   3.274
 4468TIP3    H113410   3.060   0.712   3.284
 4468TIP3    H213411   3.201   0.768   3.283
 4469TIP3   OH213412   4.858   0.913   2.488
 4469TIP3    H113413   4.774   0.873   2.508
 4469TIP3    H213414   4.923   0.857   2.530
 4470TIP3   OH213415   4.670   0.862   4.637
 4470TIP3    H113416   4.615   0.786   4.618
 4470TIP3    H213417   4.661   0.918   4.560
 4471TIP3   OH213418   2.226   5.550   1.830
 4471TIP3    H113419   2.144   5.501   1.823
 4471TIP3    H213420   2.288   5.498   1.779
 4472TIP3   OH213421   0.007   3.017   1.418
 4472TIP3    H113422   0.078   3.059   1.467
 4472TIP3    H213423  -0.041   3.090   1.378
 4473TIP3   OH213424   1.395  -0.018   4.085
 4473TIP3    H113425   1.346   0.060   4.057
 4473TIP3    H213426   1.475  -0.016   4.034
 4474TIP3   OH213427   4.964   0.026   0.848
 4474TIP3    H113428   5.009  -0.015   0.922
 4474TIP3    H213429   4.994   0.117   0.850
 4475TIP3   OH213430   1.365   3.159   4.304
 4475TIP3    H113431   1.334   3.129   4.390
 4475TIP3    H213432   1.460   3.158   4.312
 4476TIP3   OH213433   5.394   4.455   4.204
 4476TIP3    H113434   5.324   4.402   4.167
 4476TIP3    H213435   5.472   4.430   4.154
 4477TIP3   OH213436   3.585   1.169   5.165
 4477TIP3    H113437   3.578   1.190   5.258
 4477TIP3    H213438   3.660   1.221   5.135
 4478TIP3   OH213439   0.768   1.589   0.095
 4478TIP3    H113440   0.770   1.608   0.189
 4478TIP3    H213441   0.823   1.511   0.084
 4479TIP3   OH213442   2.244   3.106   5.108
 4479TIP3    H113443   2.266   3.084   5.018
 4479TIP3    H213444   2.282   3.036   5.161
 4480TIP3   OH213445   3.385   2.736   0.546
 4480TIP3    H113446   3.295   2.704   0.535
 4480TIP3    H213447   3.383   2.784   0.628
 4481TIP3   OH213448   0.089   4.867   2.036
 4481TIP3    H113449   0.012   4.919   2.060
 4481TIP3    H213450   0.070   4.779   2.070
 4482TIP3   OH213451   5.164   5.299   2.726
 4482TIP3    H113452   5.084   5.331   2.685
 4482TIP3    H213453   5.134   5.238   2.793
 4483TIP3   OH213454   1.096   2.245   4.622
 4483TIP3    H113455   1.174   2.300   4.619
 4483TIP3    H213456   1.065   2.253   4.712
 4484TIP3   OH213457   5.090   3.013   3.754
 4484TIP3    H113458   5.016   3.033   3.697
 4484TIP3    H213459   5.068   3.056   3.837
 4485TIP3   OH213460   1.870   1.871   0.272
 4485TIP3    H113461   1.928   1.895   0.344
 4485TIP3    H213462   1.887   1.938   0.205
 4486TIP3   OH213463   0.517   5.732   1.171
 4486TIP3    H113464   0.539   5.810   1.120
 4486TIP3    H213465   0.601   5.704   1.208
 4487TIP3   OH213466   1.698   2.153   2.326
 4487TIP3    H113467   1.713   2.061   2.306
 4487TIP3    H213468   1.668   2.154   2.416
 4488TIP3   OH213469   0.838   3.902   2.574
 4488TIP3    H113470   0.779   3.967   2.536
 4488TIP3    H213471   0.846   3.927   2.666
 4489TIP3   OH213472   2.614   1.745   2.465
 4489TIP3    H113473   2.518   1.748   2.470
 4489TIP3    H213474   2.635   1.652   2.465
 4490TIP3   OH213475   5.763   2.460   2.262
 4490TIP3    H113476   5.696   2.443   2.195
 4490TIP3    H213477   5.728   2.533   2.312
 4491TIP3   OH213478   0.462   2.708   2.349
 4491TIP3    H113479   0.504   2.744   2.427
 4491TIP3    H213480   0.504   2.622   2.337
 4492TIP3   OH213481   0.595   4.337   2.410
 4492TIP3    H113482   0.532   4.407   2.395
 4492TIP3    H213483   0.655   4.373   2.475
 4493TIP3   OH213484   5.004   1.906   4.842
 4493TIP3    H113485   4.972   1.948   4.763
 4493TIP3    H213486   5.088   1.949   4.860
 4494TIP3   OH213487   4.023   5.898   3.891
 4494TIP3    H113488   3.951   5.919   3.950
 4494TIP3    H213489   4.079   5.976   3.893
 4495TIP3   OH213490   0.983   3.759   1.224
 4495TIP3    H113491   0.896   3.794   1.204
 4495TIP3    H213492   1.044   3.829   1.199
 4496TIP3   OH213493   6.163   2.877   2.294
 4496TIP3    H113494   6.194   2.829   2.217
 4496TIP3    H213495   6.071   2.851   2.302
 4497TIP3   OH213496   4.080   2.534   4.486
 4497TIP3    H113497   4.098   2.603   4.550
 4497TIP3    H213498   4.133   2.460   4.515
 4498TIP3   OH213499   4.393   5.583   2.887
 4498TIP3    H113500   4.481   5.545   2.879
 4498TIP3    H213501   4.335   5.507   2.893
 4499TIP3   OH213502   4.034   5.925   4.809
 4499TIP3    H113503   3.995   5.872   4.877
 4499TIP3    H213504   3.974   5.999   4.798
 4500TIP3   OH213505   4.446   3.640   3.889
 4500TIP3    H113506   4.534   3.639   3.927
 4500TIP3    H213507   4.457   3.683   3.804
 4501TIP3   OH213508   1.389   0.699   4.616
 4501TIP3    H113509   1.390   0.607   4.592
 4501TIP3    H213510   1.481   0.724   4.624
 4502TIP3   OH213511   6.143   5.240   3.907
 4502TIP3    H113512   6.218   5.265   3.853
 4502TIP3    H213513   6.154   5.291   3.987
 4503TIP3   OH213514   5.695   3.376   2.473
 4503TIP3    H113515   5.755   3.320   2.425
 4503TIP3    H213516   5.634   3.409   2.408
 4504TIP3   OH213517   2.941   1.143   1.031
 4504TIP3    H113518   2.855   1.138   1.071
 4504TIP3    H213519   2.997   1.179   1.100
 4505TIP3   OH213520   4.621   0.069   2.235
 4505TIP3    H113521   4.644   0.086   2.144
 4505TIP3    H213522   4.691   0.109   2.286
 4506TIP3   OH213523   6.302   3.642   2.702
 4506TIP3    H113524   6.307   3.595   2.786
 4506TIP3    H213525   6.210   3.668   2.695
 4507TIP3   OH213526   2.869   0.881   5.121
 4507TIP3    H113527   2.960   0.853   5.134
 4507TIP3    H213528   2.869   0.973   5.148
 4508TIP3   OH213529   6.236   4.271   4.305
 4508TIP3    H113530   6.187   4.351   4.285
 4508TIP3    H213531   6.273   4.287   4.392
 4509TIP3   OH213532   2.849   3.595   3.991
 4509TIP3    H113533   2.864   3.549   3.908
 4509TIP3    H213534   2.786   3.664   3.968
 4510TIP3   OH213535   2.524   3.189   0.748
 4510TIP3    H113536   2.608   3.147   0.768
 4510TIP3    H213537   2.548   3.275   0.713
 4511TIP3   OH213538   0.130   3.612   5.051
 4511TIP3    H113539   0.069   3.686   5.054
 4511TIP3    H213540   0.076   3.539   5.022
 4512TIP3   OH213541   6.284   1.493   4.377
 4512TIP3    H113542   6.263   1.400   4.367
 4512TIP3    H213543   6.359   1.494   4.437
 4513TIP3   OH213544   4.813   0.593   1.813
 4513TIP3    H113545   4.871   0.669   1.806
 4513TIP3    H213546   4.832   0.557   1.899
 4514TIP3   OH213547   5.153   0.068   3.769
 4514TIP3    H113548   5.149   0.023   3.854
 4514TIP3    H213549   5.128   0.000   3.706
 4515TIP3   OH213550   3.437   3.715   4.634
 4515TIP3    H113551   3.388   3.752   4.561
 4515TIP3    H213552   3.373   3.708   4.704
 4516TIP3   OH213553   3.890   4.115   4.676
 4516TIP3    H113554   3.861   4.029   4.646
 4516TIP3    H213555   3.811   4.157   4.710
 4517TIP3   OH213556   3.590   3.328   0.674
 4517TIP3    H113557   3.533   3.376   0.613
 4517TIP3    H213558   3.673   3.319   0.628
 4518TIP3   OH213559   0.592   2.665   3.927
 4518TIP3    H113560   0.558   2.727   3.991
 4518TIP3    H213561   0.515   2.629   3.884
 4519TIP3   OH213562   6.091   2.412   4.251
 4519TIP3    H113563   6.020   2.411   4.315
 4519TIP3    H213564   6.058   2.359   4.178
 4520TIP3   OH213565   1.771   5.468   3.846
 4520TIP3    H113566   1.856   5.512   3.844
 4520TIP3    H213567   1.786   5.391   3.901
 4521TIP3   OH213568   0.696   0.499   3.767
 4521TIP3    H113569   0.639   0.458   3.702
 4521TIP3    H213570   0.665   0.466   3.851
 4522TIP3   OH213571   0.054   4.848   5.094
 4522TIP3    H113572  -0.031   4.822   5.130
 4522TIP3    H213573   0.108   4.866   5.171
 4523TIP3   OH213574   1.023   2.755   3.831
 4523TIP3    H113575   1.004   2.843   3.799
 4523TIP3    H213576   1.109   2.764   3.873
 4524TIP3   OH213577   2.633   5.476   2.929
 4524TIP3    H113578   2.704   5.412   2.936
 4524TIP3    H213579   2.670   5.556   2.965
 4525TIP3   OH213580   2.083   1.494   0.571
 4525TIP3    H113581   1.998   1.538   0.566
 4525TIP3    H213582   2.128   1.539   0.643
 4526TIP3   OH213583   3.832   3.157   0.054
 4526TIP3    H113584   3.916   3.146   0.010
 4526TIP3    H213585   3.819   3.074   0.101
 4527TIP3   OH213586   3.172   2.869   0.322
 4527TIP3    H113587   3.243   2.908   0.374
 4527TIP3    H213588   3.141   2.795   0.375
 4528TIP3   OH213589   5.029   3.357   2.272
 4528TIP3    H113590   5.069   3.350   2.185
 4528TIP3    H213591   4.935   3.361   2.254
 4529TIP3   OH213592   0.326   2.262   1.096
 4529TIP3    H113593   0.399   2.270   1.035
 4529TIP3    H213594   0.298   2.171   1.088
 4530TIP3   OH213595   5.367   2.570   3.996
 4530TIP3    H113596   5.312   2.644   3.969
 4530TIP3    H213597   5.454   2.608   4.007
 4531TIP3   OH213598   3.445   2.246   1.152
 4531TIP3    H113599   3.448   2.178   1.219
 4531TIP3    H213600   3.388   2.313   1.188
 4532TIP3   OH213601   4.592   5.865   2.009
 4532TIP3    H113602   4.674   5.824   2.036
 4532TIP3    H213603   4.598   5.954   2.042
 4533TIP3   OH213604   5.363   1.510   1.523
 4533TIP3    H113605   5.376   1.498   1.429
 4533TIP3    H213606   5.399   1.597   1.540
 4534TIP3   OH213607   5.716   4.904   1.003
 4534TIP3    H113608   5.632   4.950   1.011
 4534TIP3    H213609   5.747   4.895   1.093
 4535TIP3   OH213610   3.848   5.315   4.599
 4535TIP3    H113611   3.753   5.329   4.591
 4535TIP3    H213612   3.860   5.222   4.580
 4536TIP3   OH213613   2.575   0.754   0.879
 4536TIP3    H113614   2.602   0.839   0.913
 4536TIP3    H213615   2.586   0.762   0.784
 4537TIP3   OH213616   0.145   0.685   3.263
 4537TIP3    H113617   0.106   0.761   3.220
 4537TIP3    H213618   0.089   0.668   3.339
 4538TIP3   OH213619   5.165   2.551   4.856
 4538TIP3    H113620   5.242   2.585   4.902
 4538TIP3    H213621   5.103   2.624   4.856
 4539TIP3   OH213622   4.098   0.220   2.812
 4539TIP3    H113623   4.097   0.243   2.905
 4539TIP3    H213624   4.035   0.149   2.803
 4540TIP3   OH213625   1.254   3.959   2.455
 4540TIP3    H113626   1.295   4.037   2.417
 4540TIP3    H213627   1.166   3.957   2.417
 4541TIP3   OH213628   1.020   5.906   0.206
 4541TIP3    H113629   1.037   5.925   0.298
 4541TIP3    H213630   1.090   5.953   0.159
 4542TIP3   OH213631   2.734   2.316   4.207
 4542TIP3    H113632   2.812   2.320   4.261
 4542TIP3    H213633   2.664   2.350   4.262
 4543TIP3   OH213634   1.749   1.444   2.512
 4543TIP3    H113635   1.724   1.512   2.449
 4543TIP3    H213636   1.796   1.380   2.459
 4544TIP3   OH213637   3.257   2.987   3.189
 4544TIP3    H113638   3.244   3.026   3.102
 4544TIP3    H213639   3.319   3.046   3.232
 4545TIP3   OH213640   3.696   0.236   0.430
 4545TIP3    H113641   3.733   0.159   0.474
 4545TIP3    H213642   3.672   0.295   0.502
 4546TIP3   OH213643   6.189   5.594   0.764
 4546TIP3    H113644   6.267   5.576   0.711
 4546TIP3    H213645   6.156   5.508   0.790
 4547TIP3   OH213646   4.445   5.272   0.770
 4547TIP3    H113647   4.519   5.232   0.725
 4547TIP3    H213648   4.418   5.207   0.834
 4548TIP3   OH213649   4.572   1.360   1.339
 4548TIP3    H113650   4.630   1.436   1.349
 4548TIP3    H213651   4.602   1.299   1.406
 4549TIP3   OH213652   3.218   3.970   2.725
 4549TIP3    H113653   3.306   3.941   2.703
 4549TIP3    H213654   3.196   4.033   2.657
 4550TIP3   OH213655   4.311   3.422   0.583
 4550TIP3    H113656   4.405   3.406   0.580
 4550TIP3    H213657   4.304   3.516   0.603
 4551TIP3   OH213658   6.349   0.705   1.234
 4551TIP3    H113659   6.331   0.786   1.281
 4551TIP3    H213660   6.277   0.697   1.173
 4552TIP3   OH213661   3.408   0.645   1.547
 4552TIP3    H113662   3.469   0.702   1.594
 4552TIP3    H213663   3.461   0.569   1.522
 4553TIP3   OH213664   4.284   0.697   1.441
 4553TIP3    H113665   4.218   0.629   1.433
 4553TIP3    H213666   4.235   0.778   1.455
 4554TIP3   OH213667   3.520   3.481   1.260
 4554TIP3    H113668   3.478   3.562   1.290
 4554TIP3    H213669   3.611   3.507   1.244
 4555TIP3   OH213670   4.949   1.487   1.767
 4555TIP3    H113671   4.934   1.535   1.685
 4555TIP3    H213672   4.874   1.429   1.776
 4556TIP3   OH213673   5.087   5.770   0.390
 4556TIP3    H113674   5.160   5.722   0.350
 4556TIP3    H213675   5.057   5.713   0.460
 4557TIP3   OH213676   1.818   5.165   2.231
 4557TIP3    H113677   1.734   5.211   2.229
 4557TIP3    H213678   1.801   5.082   2.186
 4558TIP3   OH213679   1.001   2.011   4.445
 4558TIP3    H113680   1.022   2.095   4.487
 4558TIP3    H213681   0.964   1.958   4.516
 4559TIP3   OH213682   0.328   0.974   4.875
 4559TIP3    H113683   0.417   1.006   4.863
 4559TIP3    H213684   0.289   0.976   4.787
 4560TIP3   OH213685   2.766   0.545   1.726
 4560TIP3    H113686   2.699   0.598   1.770
 4560TIP3    H213687   2.736   0.540   1.635
 4561TIP3   OH213688   2.272   2.811   3.817
 4561TIP3    H113689   2.237   2.734   3.863
 4561TIP3    H213690   2.202   2.838   3.759
 4562TIP3   OH213691   3.476   3.395   2.277
 4562TIP3    H113692   3.400   3.349   2.313
 4562TIP3    H213693   3.546   3.329   2.277
 4563TIP3   OH213694   5.028   1.132   3.520
 4563TIP3    H113695   5.021   1.039   3.540
 4563TIP3    H213696   5.005   1.138   3.428
 4564TIP3   OH213697   2.761   3.751   2.184
 4564TIP3    H113698   2.714   3.833   2.171
 4564TIP3    H213699   2.693   3.685   2.193
 4565TIP3   OH213700   5.075   4.855   0.773
 4565TIP3    H113701   5.074   4.948   0.798
 4565TIP3    H213702   5.147   4.818   0.823
 4566TIP3   OH213703   5.823   5.838   5.075
 4566TIP3    H113704   5.771   5.915   5.097
 4566TIP3    H213705   5.892   5.871   5.018
 4567TIP3   OH213706   5.493   5.716   4.576
 4567TIP3    H113707   5.490   5.625   4.548
 4567TIP3    H213708   5.580   5.727   4.613
 4568TIP3   OH213709   1.333   0.506   4.864
 4568TIP3    H113710   1.416   0.497   4.911
 4568TIP3    H213711   1.357   0.502   4.771
 4569TIP3   OH213712   2.443   3.692   1.266
 4569TIP3    H113713   2.472   3.629   1.333
 4569TIP3    H213714   2.439   3.775   1.312
 4570TIP3   OH213715   3.166   5.237   3.442
 4570TIP3    H113716   3.190   5.160   3.492
 4570TIP3    H213717   3.158   5.206   3.352
 4571TIP3   OH213718   1.469   0.348   1.518
 4571TIP3    H113719   1.427   0.408   1.579
 4571TIP3    H213720   1.401   0.285   1.496
 4572TIP3   OH213721   0.584   0.725   3.675
 4572TIP3    H113722   0.534   0.733   3.757
 4572TIP3    H213723   0.616   0.635   3.675
 4573TIP3   OH213724   3.908   5.230   1.442
 4573TIP3    H113725   3.894   5.323   1.425
 4573TIP3    H213726   3.968   5.228   1.517
 4574TIP3   OH213727   2.823   2.965   4.744
 4574TIP3    H113728   2.745   2.911   4.737
 4574TIP3    H213729   2.820   3.024   4.669
 4575TIP3   OH213730   4.434   0.959   0.771
 4575TIP3    H113731   4.388   1.043   0.773
 4575TIP3    H213732   4.371   0.898   0.733
 4576TIP3   OH213733   0.450   5.515   0.591
 4576TIP3    H113734   0.399   5.473   0.660
 4576TIP3    H213735   0.386   5.532   0.522
 4577TIP3   OH213736   3.557   1.876   1.567
 4577TIP3    H113737   3.516   1.797   1.603
 4577TIP3    H213738   3.631   1.893   1.624
 4578TIP3   OH213739   3.842   5.775   4.663
 4578TIP3    H113740   3.779   5.785   4.734
 4578TIP3    H213741   3.918   5.825   4.691
 4579TIP3   OH213742   1.878   5.762   4.923
 4579TIP3    H113743   1.794   5.741   4.963
 4579TIP3    H213744   1.905   5.844   4.966
 4580TIP3   OH213745   5.028   0.720   4.537
 4580TIP3    H113746   4.954   0.688   4.485
 4580TIP3    H213747   5.093   0.650   4.531
 4581TIP3   OH213748   2.165   5.230   4.481
 4581TIP3    H113749   2.169   5.164   4.411
 4581TIP3    H213750   2.167   5.179   4.562
 4582TIP3   OH213751   4.846   1.254   3.761
 4582TIP3    H113752   4.880   1.165   3.752
 4582TIP3    H213753   4.821   1.279   3.672
 4583TIP3   OH213754   5.005   1.190   1.227
 4583TIP3    H113755   4.926   1.243   1.220
 4583TIP3    H213756   5.062   1.223   1.158
 4584TIP3   OH213757   0.068   0.966   0.844
 4584TIP3    H113758   0.111   1.007   0.919
 4584TIP3    H213759   0.094   0.874   0.850
 4585TIP3   OH213760   3.216   1.152   4.094
 4585TIP3    H113761   3.301   1.195   4.094
 4585TIP3    H213762   3.154   1.220   4.067
 4586TIP3   OH213763   3.250   5.402   4.980
 4586TIP3    H113764   3.248   5.484   4.932
 4586TIP3    H213765   3.195   5.417   5.057
 4587TIP3   OH213766   5.285   1.353   1.753
 4587TIP3    H113767   5.300   1.405   1.674
 4587TIP3    H213768   5.201   1.309   1.737
 4588TIP3   OH213769   1.596   4.707   1.941
 4588TIP3    H113770   1.639   4.634   1.985
 4588TIP3    H213771   1.596   4.684   1.849
 4589TIP3   OH213772   2.295   5.646   1.220
 4589TIP3    H113773   2.366   5.583   1.210
 4589TIP3    H213774   2.332   5.729   1.191
 4590TIP3   OH213775   3.713   2.803   0.781
 4590TIP3    H113776   3.638   2.861   0.770
 4590TIP3    H213777   3.726   2.800   0.876
 4591TIP3   OH213778   5.473   2.838   2.877
 4591TIP3    H113779   5.501   2.851   2.968
 4591TIP3    H213780   5.378   2.847   2.880
 4592TIP3   OH213781   5.940   2.075   4.641
 4592TIP3    H113782   5.853   2.039   4.625
 4592TIP3    H213783   5.995   2.036   4.573
 4593TIP3   OH213784   4.903   1.636   4.009
 4593TIP3    H113785   4.921   1.624   4.102
 4593TIP3    H213786   4.930   1.554   3.968
 4594TIP3   OH213787   1.718   4.294   2.695
 4594TIP3    H113788   1.641   4.347   2.677
 4594TIP3    H213789   1.686   4.223   2.750
 4595TIP3   OH213790   1.471   2.523   2.160
 4595TIP3    H113791   1.535   2.455   2.140
 4595TIP3    H213792   1.505   2.601   2.118
 4596TIP3   OH213793   2.149   3.979   4.123
 4596TIP3    H113794   2.135   3.948   4.213
 4596TIP3    H213795   2.152   4.074   4.130
 4597TIP3   OH213796   6.152   1.825   4.002
 4597TIP3    H113797   6.194   1.908   3.980
 4597TIP3    H213798   6.192   1.761   3.944
 4598TIP3   OH213799   6.229   5.228   5.110
 4598TIP3    H113800   6.172   5.155   5.136
 4598TIP3    H213801   6.185   5.268   5.035
 4599TIP3   OH213802   1.084   4.672   2.316
 4599TIP3    H113803   1.013   4.693   2.255
 4599TIP3    H213804   1.040   4.647   2.397
 4600TIP3   OH213805   5.900   2.279   2.414
 4600TIP3    H113806   5.963   2.238   2.355
 4600TIP3    H213807   5.836   2.321   2.356
 4601TIP3   OH213808   2.192   4.868   1.920
 4601TIP3    H113809   2.213   4.778   1.945
 4601TIP3    H213810   2.277   4.911   1.910
 4602TIP3   OH213811   4.230   5.570   2.279
 4602TIP3    H113812   4.235   5.488   2.328
 4602TIP3    H213813   4.246   5.544   2.188
 4603TIP3   OH213814   3.802   0.284   3.557
 4603TIP3    H113815   3.731   0.331   3.513
 4603TIP3    H213816   3.769   0.266   3.644
 4604TIP3   OH213817   1.993   2.163   1.012
 4604TIP3    H113818   1.998   2.070   0.992
 4604TIP3    H213819   1.994   2.168   1.108
 4605TIP3   OH213820   1.432   3.552   2.644
 4605TIP3    H113821   1.412   3.585   2.556
 4605TIP3    H213822   1.429   3.629   2.700
 4606TIP3   OH213823   3.733   0.471   3.347
 4606TIP3    H113824   3.696   0.388   3.318
 4606TIP3    H213825   3.661   0.516   3.390
 4607TIP3   OH213826   1.166   0.368   3.769
 4607TIP3    H113827   1.216   0.440   3.806
 4607TIP3    H213828   1.203   0.290   3.810
 4608TIP3   OH213829   0.483   1.779   0.321
 4608TIP3    H113830   0.487   1.842   0.249
 4608TIP3    H213831   0.527   1.823   0.394
 4609TIP3   OH213832   5.792   4.117   2.923
 4609TIP3    H113833   5.883   4.134   2.949
 4609TIP3    H213834   5.785   4.021   2.922
 4610TIP3   OH213835   3.176   5.350   0.029
 4610TIP3    H113836   3.256   5.301   0.048
 4610TIP3    H213837   3.177   5.424   0.090
 4611TIP3   OH213838   4.015   3.517   3.653
 4611TIP3    H113839   4.107   3.531   3.633
 4611TIP3    H213840   3.992   3.435   3.611
 4612TIP3   OH213841   5.174   2.164   3.318
 4612TIP3    H113842   5.155   2.255   3.297
 4612TIP3    H213843   5.129   2.149   3.401
 4613TIP3   OH213844   0.763   4.547   1.631
 4613TIP3    H113845   0.673   4.516   1.637
 4613TIP3    H213846   0.789   4.528   1.541
 4614TIP3   OH213847   0.342   1.420   1.153
 4614TIP3    H113848   0.304   1.416   1.065
 4614TIP3    H213849   0.290   1.486   1.198
 4615TIP3   OH213850   2.629   1.201   1.188
 4615TIP3    H113851   2.652   1.172   1.276
 4615TIP3    H213852   2.576   1.131   1.152
 4616TIP3   OH213853   4.466   2.175   1.077
 4616TIP3    H113854   4.549   2.180   1.029
 4616TIP3    H213855   4.435   2.086   1.061
 4617TIP3   OH213856   5.369   3.533   1.372
 4617TIP3    H113857   5.309   3.511   1.443
 4617TIP3    H213858   5.435   3.463   1.373
 4618TIP3   OH213859   3.480   4.563   2.204
 4618TIP3    H113860   3.399   4.597   2.242
 4618TIP3    H213861   3.547   4.627   2.228
 4619TIP3   OH213862   3.729   4.903   2.741
 4619TIP3    H113863   3.777   4.839   2.689
 4619TIP3    H213864   3.637   4.885   2.723
 4620TIP3   OH213865   5.984   1.363   3.530
 4620TIP3    H113866   6.060   1.349   3.586
 4620TIP3    H213867   5.995   1.303   3.457
 4621TIP3   OH213868   1.737   2.665   5.114
 4621TIP3    H113869   1.743   2.659   5.019
 4621TIP3    H213870   1.735   2.759   5.132
 4622TIP3   OH213871   1.767   0.846   1.201
 4622TIP3    H113872   1.813   0.832   1.284
 4622TIP3    H213873   1.750   0.757   1.168
 4623TIP3   OH213874   3.225   2.411   1.151
 4623TIP3    H113875   3.149   2.442   1.201
 4623TIP3    H213876   3.187   2.369   1.074
 4624TIP3   OH213877   3.184   3.528   1.618
 4624TIP3    H113878   3.154   3.602   1.670
 4624TIP3    H213879   3.162   3.551   1.528
 4625TIP3   OH213880   4.700   1.074   2.244
 4625TIP3    H113881   4.679   0.990   2.202
 4625TIP3    H213882   4.672   1.140   2.181
 4626TIP3   OH213883   3.633   1.623   4.172
 4626TIP3    H113884   3.667   1.550   4.120
 4626TIP3    H213885   3.710   1.660   4.215
 4627TIP3   OH213886   4.382   1.042   3.395
 4627TIP3    H113887   4.398   0.966   3.339
 4627TIP3    H213888   4.306   1.085   3.356
 4628TIP3   OH213889   2.943   5.436   2.546
 4628TIP3    H113890   2.949   5.366   2.612
 4628TIP3    H213891   2.900   5.508   2.592
 4629TIP3   OH213892   0.629   2.390   3.200
 4629TIP3    H113893   0.652   2.435   3.119
 4629TIP3    H213894   0.557   2.442   3.236
 4630TIP3   OH213895   4.718   2.530   0.790
 4630TIP3    H113896   4.631   2.505   0.820
 4630TIP3    H213897   4.707   2.550   0.697
 4631TIP3   OH213898   0.436   0.788   1.137
 4631TIP3    H113899   0.498   0.819   1.203
 4631TIP3    H213900   0.377   0.730   1.184
 4632TIP3   OH213901   2.476   5.801   1.079
 4632TIP3    H113902   2.563   5.761   1.084
 4632TIP3    H213903   2.493   5.893   1.060
 4633TIP3   OH213904   5.958   1.798   3.769
 4633TIP3    H113905   5.960   1.728   3.704
 4633TIP3    H213906   6.038   1.785   3.820
 4634TIP3   OH213907   0.626   1.852   0.567
 4634TIP3    H113908   0.601   1.934   0.609
 4634TIP3    H213909   0.717   1.838   0.591
 4635TIP3   OH213910   5.262   4.272   0.740
 4635TIP3    H113911   5.267   4.357   0.696
 4635TIP3    H213912   5.241   4.294   0.831
 4636TIP3   OH213913   0.841   5.564   4.461
 4636TIP3    H113914   0.750   5.538   4.475
 4636TIP3    H213915   0.884   5.485   4.429
 4637TIP3   OH213916   3.159   3.971   5.084
 4637TIP3    H113917   3.178   3.952   5.176
 4637TIP3    H213918   3.097   4.044   5.087
 4638TIP3   OH213919   5.931   1.218   4.700
 4638TIP3    H113920   5.835   1.224   4.699
 4638TIP3    H213921   5.949   1.135   4.745
 4639TIP3   OH213922   4.484   2.535   2.381
 4639TIP3    H113923   4.447   2.539   2.292
 4639TIP3    H213924   4.469   2.444   2.409
 4640TIP3   OH213925   4.671   3.576   2.558
 4640TIP3    H113926   4.734   3.648   2.568
 4640TIP3    H213927   4.630   3.591   2.473
 4641TIP3   OH213928   4.873   5.134   4.939
 4641TIP3    H113929   4.830   5.140   4.853
 4641TIP3    H213930   4.874   5.040   4.958
 4642TIP3   OH213931   1.334   0.977   3.525
 4642TIP3    H113932   1.371   1.022   3.601
 4642TIP3    H213933   1.382   1.013   3.450
 4643TIP3   OH213934   5.015   2.634   3.487
 4643TIP3    H113935   4.990   2.551   3.528
 4643TIP3    H213936   5.008   2.698   3.557
 4644TIP3   OH213937   4.979   1.219   2.627
 4644TIP3    H113938   4.942   1.211   2.539
 4644TIP3    H213939   4.910   1.187   2.685
 4645TIP3   OH213940   0.796   2.717   1.199
 4645TIP3    H113941   0.803   2.628   1.234
 4645TIP3    H213942   0.862   2.720   1.130
 4646TIP3   OH213943   4.925   4.641   5.160
 4646TIP3    H113944   4.853   4.704   5.168
 4646TIP3    H213945   4.902   4.570   5.219
 4647TIP3   OH213946   4.843   5.096   1.072
 4647TIP3    H113947   4.865   5.130   1.158
 4647TIP3    H213948   4.748   5.080   1.076
 4648TIP3   OH213949   4.833   3.679   3.719
 4648TIP3    H113950   4.814   3.684   3.626
 4648TIP3    H213951   4.925   3.655   3.724
 4649TIP3   OH213952   0.366   0.558   0.462
 4649TIP3    H113953   0.312   0.550   0.383
 4649TIP3    H213954   0.316   0.615   0.520
 4650TIP3   OH213955   5.952   4.293   2.378
 4650TIP3    H113956   5.876   4.349   2.390
 4650TIP3    H213957   5.987   4.280   2.466
 4651TIP3   OH213958   3.282   0.119   0.681
 4651TIP3    H113959   3.350   0.056   0.657
 4651TIP3    H213960   3.329   0.190   0.725
 4652TIP3   OH213961   1.183   3.608   1.727
 4652TIP3    H113962   1.250   3.542   1.748
 4652TIP3    H213963   1.228   3.670   1.670
 4653TIP3   OH213964   4.114   5.692   3.684
 4653TIP3    H113965   4.166   5.655   3.755
 4653TIP3    H213966   4.076   5.616   3.640
 4654TIP3   OH213967   3.638   0.749   1.311
 4654TIP3    H113968   3.722   0.707   1.294
 4654TIP3    H213969   3.644   0.778   1.402
 4655TIP3   OH213970   6.274   0.370   1.309
 4655TIP3    H113971   6.358   0.326   1.295
 4655TIP3    H213972   6.236   0.376   1.221
 4656TIP3   OH213973   2.660   1.232   0.438
 4656TIP3    H113974   2.629   1.312   0.395
 4656TIP3    H213975   2.650   1.164   0.371
 4657TIP3   OH213976   3.393   3.767   3.335
 4657TIP3    H113977   3.399   3.723   3.419
 4657TIP3    H213978   3.456   3.722   3.279
 4658TIP3   OH213979   4.067   5.188   1.053
 4658TIP3    H113980   4.136   5.122   1.054
 4658TIP3    H213981   4.090   5.249   1.123
 4659TIP3   OH213982   2.864   2.766   1.102
 4659TIP3    H113983   2.858   2.678   1.067
 4659TIP3    H213984   2.958   2.783   1.108
 4660TIP3   OH213985   3.041   5.305   2.322
 4660TIP3    H113986   3.061   5.213   2.340
 4660TIP3    H213987   3.012   5.340   2.406
 4661TIP3   OH213988   5.536   0.290   2.657
 4661TIP3    H113989   5.529   0.198   2.629
 4661TIP3    H213990   5.453   0.307   2.702
 4662TIP3   OH213991   4.884   0.402   1.620
 4662TIP3    H113992   4.821   0.330   1.619
 4662TIP3    H213993   4.850   0.463   1.685
 4663TIP3   OH213994   0.213   5.299   1.347
 4663TIP3    H113995   0.143   5.364   1.357
 4663TIP3    H213996   0.278   5.325   1.412
 4664TIP3   OH213997   5.239   1.263   3.677
 4664TIP3    H113998   5.214   1.232   3.764
 4664TIP3    H213999   5.166   1.236   3.621
 4665TIP3   OH214000   5.064   4.144   1.935
 4665TIP3    H114001   5.089   4.193   1.856
 4665TIP3    H214002   5.063   4.052   1.907
 4666TIP3   OH214003   0.939   4.118   4.079
 4666TIP3    H114004   0.900   4.100   3.994
 4666TIP3    H214005   1.024   4.157   4.058
 4667TIP3   OH214006   3.410   3.952   4.122
 4667TIP3    H114007   3.335   3.901   4.091
 4667TIP3    H214008   3.430   4.010   4.049
 4668TIP3   OH214009   5.456   4.554   1.151
 4668TIP3    H114010   5.548   4.540   1.174
 4668TIP3    H214011   5.411   4.474   1.180
 4669TIP3   OH214012   4.183   4.185   3.842
 4669TIP3    H114013   4.123   4.250   3.806
 4669TIP3    H214014   4.162   4.183   3.935
 4670TIP3   OH214015   2.870   4.084   3.313
 4670TIP3    H114016   2.879   4.158   3.373
 4670TIP3    H214017   2.910   4.011   3.359
 4671TIP3   OH214018   4.387   1.513   0.731
 4671TIP3    H114019   4.411   1.591   0.781
 4671TIP3    H214020   4.397   1.540   0.639
 4672TIP3   OH214021   4.661   1.923   1.737
 4672TIP3    H114022   4.567   1.904   1.739
 4672TIP3    H214023   4.688   1.917   1.829
 4673TIP3   OH214024   1.367   3.578   0.767
 4673TIP3    H114025   1.300   3.534   0.715
 4673TIP3    H214026   1.361   3.670   0.742
 4674TIP3   OH214027   4.347   2.314   5.046
 4674TIP3    H114028   4.369   2.343   5.134
 4674TIP3    H214029   4.292   2.384   5.010
 4675TIP3   OH214030   1.357   5.731   3.378
 4675TIP3    H114031   1.415   5.770   3.444
 4675TIP3    H214032   1.312   5.660   3.424
 4676TIP3   OH214033   4.192   1.769   0.756
 4676TIP3    H114034   4.113   1.820   0.777
 4676TIP3    H214035   4.191   1.697   0.819
 4677TIP3   OH214036   6.243   1.027   4.576
 4677TIP3    H114037   6.292   1.108   4.595
 4677TIP3    H214038   6.244   0.979   4.659
 4678TIP3   OH214039   4.043   1.157   5.199
 4678TIP3    H114040   4.077   1.078   5.157
 4678TIP3    H214041   4.108   1.224   5.181
 4679TIP3   OH214042   0.235   1.493   0.223
 4679TIP3    H114043   0.319   1.457   0.252
 4679TIP3    H214044   0.206   1.434   0.154
 4680TIP3   OH214045   6.087   2.050   3.227
 4680TIP3    H114046   6.182   2.035   3.221
 4680TIP3    H214047   6.078   2.129   3.279
 4681TIP3   OH214048   4.115   0.053   4.344
 4681TIP3    H114049   4.182   0.047   4.412
 4681TIP3    H214050   4.122   0.142   4.311
 4682TIP3   OH214051   5.227   3.068   5.055
 4682TIP3    H114052   5.320   3.087   5.065
 4682TIP3    H214053   5.224   2.988   5.003
 4683TIP3   OH214054   1.685   1.233   3.389
 4683TIP3    H114055   1.645   1.313   3.355
 4683TIP3    H214056   1.710   1.255   3.479
 4684TIP3   OH214057   2.720   1.448   0.860
 4684TIP3    H114058   2.768   1.424   0.940
 4684TIP3    H214059   2.787   1.482   0.801
 4685TIP3   OH214060   0.231   5.561   0.422
 4685TIP3    H114061   0.196   5.646   0.398
 4685TIP3    H214062   0.184   5.498   0.367
 4686TIP3   OH214063   0.999   1.048   4.860
 4686TIP3    H114064   0.938   0.975   4.871
 4686TIP3    H214065   1.072   1.027   4.918
 4687TIP3   OH214066   1.302   3.540   4.945
 4687TIP3    H114067   1.347   3.617   4.910
 4687TIP3    H214068   1.360   3.467   4.923
 4688TIP3   OH214069   2.706   5.416   1.327
 4688TIP3    H114070   2.722   5.360   1.403
 4688TIP3    H214071   2.786   5.468   1.319
 4689TIP3   OH214072   1.590   3.281   3.109
 4689TIP3    H114073   1.656   3.219   3.080
 4689TIP3    H214074   1.625   3.367   3.084
 4690TIP3   OH214075   1.256   1.916   1.367
 4690TIP3    H114076   1.284   1.879   1.283
 4690TIP3    H214077   1.161   1.902   1.369
 4691TIP3   OH214078   2.060   3.765   1.747
 4691TIP3    H114079   2.013   3.834   1.700
 4691TIP3    H214080   2.003   3.744   1.821
 4692TIP3   OH214081   1.643   2.811   4.335
 4692TIP3    H114082   1.583   2.738   4.350
 4692TIP3    H214083   1.634   2.866   4.413
 4693TIP3   OH214084   1.423   2.483   3.909
 4693TIP3    H114085   1.429   2.421   3.982
 4693TIP3    H214086   1.385   2.432   3.837
 4694TIP3   OH214087   4.648   2.541   4.192
 4694TIP3    H114088   4.697   2.610   4.238
 4694TIP3    H214089   4.710   2.507   4.127
 4695TIP3   OH214090   0.131   1.506   4.574
 4695TIP3    H114091   0.208   1.556   4.547
 4695TIP3    H214092   0.125   1.521   4.668
 4696TIP3   OH214093   2.898   1.433   3.149
 4696TIP3    H114094   2.888   1.340   3.129
 4696TIP3    H214095   2.885   1.439   3.243
 4697TIP3   OH214096   1.373   3.141   3.395
 4697TIP3    H114097   1.455   3.189   3.402
 4697TIP3    H214098   1.397   3.060   3.349
 4698TIP3   OH214099   4.746   0.152   1.619
 4698TIP3    H114100   4.778   0.073   1.576
 4698TIP3    H214101   4.652   0.136   1.631
 4699TIP3   OH214102   5.878   5.893   2.349
 4699TIP3    H114103   5.972   5.880   2.338
 4699TIP3    H214104   5.871   5.951   2.424
 4700TIP3   OH214105   5.614   1.486   3.388
 4700TIP3    H114106   5.688   1.546   3.375
 4700TIP3    H214107   5.544   1.541   3.424
 4701TIP3   OH214108   1.282   1.128   2.555
 4701TIP3    H114109   1.273   1.188   2.481
 4701TIP3    H214110   1.354   1.164   2.607
 4702TIP3   OH214111   5.205   0.972   1.795
 4702TIP3    H114112   5.236   1.005   1.879
 4702TIP3    H214113   5.153   1.044   1.759
 4703TIP3   OH214114   4.412   5.857   2.802
 4703TIP3    H114115   4.416   5.769   2.838
 4703TIP3    H214116   4.344   5.901   2.855
 4704TIP3   OH214117   5.031   3.010   4.235
 4704TIP3    H114118   5.042   3.104   4.249
 4704TIP3    H214119   5.073   2.970   4.311
 4705TIP3   OH214120   1.371   5.308   3.053
 4705TIP3    H114121   1.428   5.340   2.983
 4705TIP3    H214122   1.338   5.224   3.020
 4706TIP3   OH214123   2.931   3.073   4.224
 4706TIP3    H114124   2.839   3.072   4.196
 4706TIP3    H214125   2.936   3.006   4.292
 4707TIP3   OH214126   6.043   3.226   3.284
 4707TIP3    H114127   6.069   3.145   3.240
 4707TIP3    H214128   5.962   3.252   3.240
 4708TIP3   OH214129   3.230   0.349   1.261
 4708TIP3    H114130   3.177   0.400   1.199
 4708TIP3    H214131   3.309   0.402   1.273
 4709TIP3   OH214132   5.611   5.129   0.515
 4709TIP3    H114133   5.545   5.087   0.570
 4709TIP3    H214134   5.695   5.102   0.553
 4710TIP3   OH214135   3.225   3.808   4.482
 4710TIP3    H114136   3.219   3.713   4.486
 4710TIP3    H214137   3.156   3.839   4.541
 4711TIP3   OH214138   3.917   0.052   2.705
 4711TIP3    H114139   3.888  -0.038   2.692
 4711TIP3    H214140   3.898   0.096   2.622
 4712TIP3   OH214141   4.895   4.853   3.522
 4712TIP3    H114142   4.897   4.896   3.436
 4712TIP3    H214143   4.937   4.769   3.507
 4713TIP3   OH214144   4.849   0.813   2.848
 4713TIP3    H114145   4.838   0.772   2.762
 4713TIP3    H214146   4.921   0.763   2.889
 4714TIP3   OH214147   5.631   5.438   0.615
 4714TIP3    H114148   5.620   5.346   0.637
 4714TIP3    H214149   5.724   5.446   0.594
 4715TIP3   OH214150   2.747  -0.032   1.050
 4715TIP3    H114151   2.689   0.041   1.032
 4715TIP3    H214152   2.820   0.006   1.098
 4716TIP3   OH214153   5.950   3.069   2.586
 4716TIP3    H114154   5.910   3.074   2.499
 4716TIP3    H214155   5.997   3.152   2.596
 4717TIP3   OH214156   2.378   3.578   1.671
 4717TIP3    H114157   2.313   3.535   1.616
 4717TIP3    H214158   2.332   3.652   1.710
 4718TIP3   OH214159   1.260   1.657   2.226
 4718TIP3    H114160   1.248   1.575   2.178
 4718TIP3    H214161   1.317   1.710   2.170
 4719TIP3   OH214162   2.022   3.489   2.048
 4719TIP3    H114163   2.004   3.413   1.994
 4719TIP3    H214164   2.118   3.490   2.057
 4720TIP3   OH214165   1.899   0.487   5.038
 4720TIP3    H114166   1.887   0.543   4.961
 4720TIP3    H214167   1.821   0.502   5.091
 4721TIP3   OH214168   2.884   0.378   2.943
 4721TIP3    H114169   2.844   0.318   2.880
 4721TIP3    H214170   2.823   0.451   2.950
 4722TIP3   OH214171   5.494   2.042   1.794
 4722TIP3    H114172   5.533   1.961   1.760
 4722TIP3    H214173   5.422   2.014   1.849
 4723TIP3   OH214174   4.694   5.078   3.215
 4723TIP3    H114175   4.720   5.170   3.216
 4723TIP3    H214176   4.775   5.030   3.225
 4724TIP3   OH214177   3.215   5.381   4.169
 4724TIP3    H114178   3.210   5.444   4.240
 4724TIP3    H214179   3.227   5.434   4.090
 4725TIP3   OH214180   3.410   4.233   1.163
 4725TIP3    H114181   3.363   4.217   1.245
 4725TIP3    H214182   3.496   4.265   1.191
 4726TIP3   OH214183   1.808   3.548   2.223
 4726TIP3    H114184   1.894   3.526   2.186
 4726TIP3    H214185   1.821   3.634   2.264
 4727TIP3   OH214186   5.170   4.913   3.124
 4727TIP3    H114187   5.262   4.922   3.147
 4727TIP3    H214188   5.166   4.830   3.077
 4728TIP3   OH214189   2.969   5.268   4.186
 4728TIP3    H114190   2.940   5.253   4.096
 4728TIP3    H214191   3.059   5.300   4.177
 4729TIP3   OH214192   0.799   2.922   0.943
 4729TIP3    H114193   0.707   2.943   0.929
 4729TIP3    H214194   0.845   2.966   0.871
 4730TIP3   OH214195   4.888   0.753   3.582
 4730TIP3    H114196   4.849   0.815   3.644
 4730TIP3    H214197   4.897   0.804   3.501
 4731TIP3   OH214198   0.131   4.007   1.523
 4731TIP3    H114199   0.118   4.051   1.439
 4731TIP3    H214200   0.046   4.014   1.567
 4732TIP3   OH214201   1.503   1.644   1.426
 4732TIP3    H114202   1.552   1.722   1.454
 4732TIP3    H214203   1.571   1.581   1.402
 4733TIP3   OH214204   0.553   2.528   1.844
 4733TIP3    H114205   0.466   2.540   1.804
 4733TIP3    H214206   0.612   2.578   1.787
 4734TIP3   OH214207   4.350   4.055   3.679
 4734TIP3    H114208   4.294   4.110   3.734
 4734TIP3    H214209   4.439   4.074   3.710
 4735TIP3   OH214210   2.703   3.542   2.503
 4735TIP3    H114211   2.741   3.461   2.537
 4735TIP3    H214212   2.613   3.541   2.536
 4736TIP3   OH214213   1.166   1.400   4.338
 4736TIP3    H114214   1.105   1.473   4.349
 4736TIP3    H214215   1.110   1.322   4.335
 4737TIP3   OH214216   3.465   3.205   1.264
 4737TIP3    H114217   3.554   3.171   1.275
 4737TIP3    H214218   3.477   3.299   1.252
 4738TIP3   OH214219   1.765   4.566   5.185
 4738TIP3    H114220   1.842   4.570   5.128
 4738TIP3    H214221   1.758   4.474   5.209
 4739TIP3   OH214222   4.472   5.327   4.874
 4739TIP3    H114223   4.494   5.393   4.808
 4739TIP3    H214224   4.526   5.349   4.949
 4740TIP3   OH214225   4.728   1.397   3.986
 4740TIP3    H114226   4.787   1.348   4.044
 4740TIP3    H214227   4.754   1.371   3.898
 4741TIP3   OH214228   1.469   0.418   2.981
 4741TIP3    H114229   1.379   0.401   3.008
 4741TIP3    H214230   1.513   0.333   2.989
 4742TIP3   OH214231   1.211   4.040   3.881
 4742TIP3    H114232   1.204   4.117   3.938
 4742TIP3    H214233   1.207   4.076   3.792
 4743TIP3   OH214234   1.649   4.461   0.961
 4743TIP3    H114235   1.650   4.366   0.971
 4743TIP3    H214236   1.559   4.487   0.985
 4744TIP3   OH214237   1.766   5.588   2.875
 4744TIP3    H114238   1.854   5.588   2.836
 4744TIP3    H214239   1.721   5.661   2.832
 4745TIP3   OH214240   3.794   1.656   1.068
 4745TIP3    H114241   3.740   1.595   1.118
 4745TIP3    H214242   3.836   1.602   1.001
 4746TIP3   OH214243   5.293   3.677   2.884
 4746TIP3    H114244   5.265   3.645   2.798
 4746TIP3    H214245   5.265   3.769   2.886
 4747TIP3   OH214246   0.792   3.817   1.496
 4747TIP3    H114247   0.756   3.831   1.409
 4747TIP3    H214248   0.865   3.879   1.503
 4748TIP3   OH214249   2.040   3.823   0.678
 4748TIP3    H114250   1.975   3.770   0.632
 4748TIP3    H214251   2.063   3.771   0.755
 4749TIP3   OH214252   3.965   5.880   3.556
 4749TIP3    H114253   3.885   5.838   3.588
 4749TIP3    H214254   4.035   5.837   3.604
 4750TIP3   OH214255   2.818   0.881   2.281
 4750TIP3    H114256   2.887   0.815   2.289
 4750TIP3    H214257   2.760   0.866   2.356
 4751TIP3   OH214258   5.671   1.500   3.786
 4751TIP3    H114259   5.718   1.454   3.715
 4751TIP3    H214260   5.579   1.489   3.764
 4752TIP3   OH214261   0.745   0.457   2.226
 4752TIP3    H114262   0.801   0.400   2.173
 4752TIP3    H214263   0.657   0.425   2.210
 4753TIP3   OH214264   4.927   0.921   1.488
 4753TIP3    H114265   4.852   0.926   1.429
 4753TIP3    H214266   5.003   0.918   1.430
 4754TIP3   OH214267   2.058   0.693   4.889
 4754TIP3    H114268   2.105   0.646   4.958
 4754TIP3    H214269   2.122   0.700   4.818
 4755TIP3   OH214270   0.290   4.350   0.977
 4755TIP3    H114271   0.309   4.437   0.943
 4755TIP3    H214272   0.319   4.291   0.907
 4756TIP3   OH214273   2.137   4.961   3.063
 4756TIP3    H114274   2.230   4.958   3.089
 4756TIP3    H214275   2.103   5.040   3.106
 4757TIP3   OH214276   3.358   0.009   1.043
 4757TIP3    H114277   3.374   0.043   1.131
 4757TIP3    H214278   3.263   0.015   1.033
 4758TIP3   OH214279   4.260   5.921   3.346
 4758TIP3    H114280   4.287   5.995   3.292
 4758TIP3    H214281   4.165   5.914   3.332
 4759TIP3   OH214282   4.876   0.093   0.360
 4759TIP3    H114283   4.903   0.181   0.385
 4759TIP3    H214284   4.893   0.039   0.438
 4760TIP3   OH214285   0.606   3.729   1.674
 4760TIP3    H114286   0.537   3.795   1.680
 4760TIP3    H214287   0.679   3.774   1.631
 4761TIP3   OH214288   0.636   0.465   4.619
 4761TIP3    H114289   0.598   0.526   4.556
 4761TIP3    H214290   0.567   0.453   4.685
 4762TIP3   OH214291   3.676   0.754   1.900
 4762TIP3    H114292   3.682   0.787   1.990
 4762TIP3    H214293   3.662   0.660   1.911
 4763TIP3   OH214294   6.074   5.355   0.632
 4763TIP3    H114295   6.167   5.340   0.618
 4763TIP3    H214296   6.064   5.352   0.728
 4764TIP3   OH214297   5.892   4.847   2.696
 4764TIP3    H114298   5.838   4.924   2.682
 4764TIP3    H214299   5.854   4.805   2.773
 4765TIP3   OH214300   4.574   2.966   5.037
 4765TIP3    H114301   4.644   2.906   5.012
 4765TIP3    H214302   4.561   3.021   4.959
 4766TIP3   OH214303   3.266   2.196   4.911
 4766TIP3    H114304   3.285   2.104   4.890
 4766TIP3    H214305   3.340   2.224   4.965
 4767TIP3   OH214306   3.568   4.861   2.369
 4767TIP3    H114307   3.563   4.892   2.460
 4767TIP3    H214308   3.487   4.812   2.356
 4768TIP3   OH214309   3.664   3.772   4.792
 4768TIP3    H114310   3.583   3.772   4.740
 4768TIP3    H214311   3.674   3.862   4.821
 4769TIP3   OH214312   1.913   0.550   3.942
 4769TIP3    H114313   1.839   0.580   3.890
 4769TIP3    H214314   1.928   0.620   4.006
 4770TIP3   OH214315   5.002   5.808   0.876
 4770TIP3    H114316   5.045   5.730   0.911
 4770TIP3    H214317   5.041   5.821   0.790
 4771TIP3   OH214318   3.269   3.247   0.951
 4771TIP3    H114319   3.235   3.222   0.865
 4771TIP3    H214320   3.195   3.290   0.994
 4772TIP3   OH214321   2.202   1.620   3.637
 4772TIP3    H114322   2.183   1.650   3.726
 4772TIP3    H214323   2.298   1.625   3.630
 4773TIP3   OH214324   3.280   1.706   3.210
 4773TIP3    H114325   3.310   1.717   3.300
 4773TIP3    H214326   3.237   1.789   3.189
 4774TIP3   OH214327   4.138   4.553   3.125
 4774TIP3    H114328   4.199   4.558   3.198
 4774TIP3    H214329   4.187   4.588   3.050
 4775TIP3   OH214330   6.073   4.344   1.250
 4775TIP3    H114331   5.989   4.385   1.269
 4775TIP3    H214332   6.051   4.255   1.224
 4776TIP3   OH214333   0.932   3.410   5.065
 4776TIP3    H114334   0.864   3.422   5.132
 4776TIP3    H214335   0.899   3.338   5.010
 4777TIP3   OH214336   1.151   0.048   1.646
 4777TIP3    H114337   1.218   0.081   1.585
 4777TIP3    H214338   1.188  -0.034   1.679
 4778TIP3   OH214339   4.916   1.641   3.233
 4778TIP3    H114340   4.864   1.695   3.293
 4778TIP3    H214341   4.909   1.685   3.149
 4779TIP3   OH214342   4.778   3.017   3.076
 4779TIP3    H114343   4.692   3.024   3.035
 4779TIP3    H214344   4.837   3.060   3.014
 4780TIP3   OH214345   0.894   2.180   0.017
 4780TIP3    H114346   0.811   2.134   0.029
 4780TIP3    H214347   0.961   2.115   0.038
 4781TIP3   OH214348   0.983   4.464   4.224
 4781TIP3    H114349   0.962   4.555   4.241
 4781TIP3    H214350   1.074   4.454   4.253
 4782TIP3   OH214351   2.659   2.245   0.185
 4782TIP3    H114352   2.596   2.175   0.200
 4782TIP3    H214353   2.606   2.325   0.180
 4783TIP3   OH214354   4.699   0.067   0.947
 4783TIP3    H114355   4.712   0.158   0.975
 4783TIP3    H214356   4.781   0.043   0.906
 4784TIP3   OH214357   6.016   5.466   3.507
 4784TIP3    H114358   6.038   5.482   3.415
 4784TIP3    H214359   6.101   5.470   3.552
 4785TIP3   OH214360   4.368   3.494   4.915
 4785TIP3    H114361   4.433   3.565   4.909
 4785TIP3    H214362   4.360   3.476   5.008
 4786TIP3   OH214363   0.627   2.015   1.637
 4786TIP3    H114364   0.535   2.029   1.657
 4786TIP3    H214365   0.628   1.992   1.544
 4787TIP3   OH214366   1.493   0.631   2.824
 4787TIP3    H114367   1.495   0.556   2.883
 4787TIP3    H214368   1.401   0.641   2.801
 4788TIP3   OH214369   5.980   1.546   2.801
 4788TIP3    H114370   6.046   1.615   2.798
 4788TIP3    H214371   6.006   1.485   2.732
 4789TIP3   OH214372   1.668   0.996   4.986
 4789TIP3    H114373   1.733   0.971   5.052
 4789TIP3    H214374   1.646   1.087   5.007
 4790TIP3   OH214375   3.734   1.712   2.574
 4790TIP3    H114376   3.816   1.740   2.534
 4790TIP3    H214377   3.685   1.673   2.502
 4791TIP3   OH214378   0.790   0.087   4.996
 4791TIP3    H114379   0.714   0.085   5.054
 4791TIP3    H214380   0.777   0.011   4.938
 4792TIP3   OH214381   1.694   5.467   0.416
 4792TIP3    H114382   1.653   5.486   0.500
 4792TIP3    H214383   1.688   5.549   0.367
 4793TIP3   OH214384   4.774   0.312   1.068
 4793TIP3    H114385   4.810   0.391   1.108
 4793TIP3    H214386   4.824   0.240   1.107
 4794TIP3   OH214387   5.236   4.524   1.940
 4794TIP3    H114388   5.244   4.506   1.847
 4794TIP3    H214389   5.294   4.598   1.956
 4795TIP3   OH214390   3.294   2.436   2.654
 4795TIP3    H114391   3.288   2.391   2.569
 4795TIP3    H214392   3.387   2.447   2.669
 4796TIP3   OH214393   5.985   0.528   0.262
 4796TIP3    H114394   6.012   0.567   0.179
 4796TIP3    H214395   5.949   0.600   0.312
 4797TIP3   OH214396   2.560   5.217   2.810
 4797TIP3    H114397   2.554   5.304   2.848
 4797TIP3    H214398   2.525   5.226   2.722
 4798TIP3   OH214399   3.913   3.023   0.395
 4798TIP3    H114400   4.002   3.057   0.384
 4798TIP3    H214401   3.914   2.979   0.480
 4799TIP3   OH214402   0.137   1.191   1.174
 4799TIP3    H114403   0.148   1.130   1.101
 4799TIP3    H214404   0.106   1.272   1.133
 4800TIP3   OH214405   4.202   4.970   3.212
 4800TIP3    H114406   4.293   4.997   3.219
 4800TIP3    H214407   4.153   5.052   3.205
 4801TIP3   OH214408   2.347   0.653   3.964
 4801TIP3    H114409   2.406   0.621   4.033
 4801TIP3    H214410   2.286   0.581   3.950
 4802TIP3   OH214411   5.537   3.085   1.090
 4802TIP3    H114412   5.522   2.990   1.084
 4802TIP3    H214413   5.499   3.120   1.010
 4803TIP3   OH214414   5.736   0.496   1.905
 4803TIP3    H114415   5.698   0.467   1.822
 4803TIP3    H214416   5.661   0.526   1.956
 4804TIP3   OH214417   1.386   2.222   4.399
 4804TIP3    H114418   1.412   2.148   4.454
 4804TIP3    H214419   1.351   2.286   4.461
 4805TIP3   OH214420   0.191   5.341   2.401
 4805TIP3    H114421   0.206   5.248   2.419
 4805TIP3    H214422   0.103   5.357   2.435
 4806TIP3   OH214423   6.322   1.288   4.693
 4806TIP3    H114424   6.237   1.329   4.708
 4806TIP3    H214425   6.350   1.321   4.607
 4807TIP3   OH214426   3.205   4.101   2.476
 4807TIP3    H114427   3.206   4.009   2.450
 4807TIP3    H214428   3.296   4.128   2.472
 4808TIP3   OH214429   2.921   4.107   2.536
 4808TIP3    H114430   2.867   4.122   2.458
 4808TIP3    H214431   2.995   4.055   2.503
 4809TIP3   OH214432   3.715   0.654   3.123
 4809TIP3    H114433   3.753   0.574   3.159
 4809TIP3    H214434   3.740   0.722   3.185
 4810TIP3   OH214435   0.275   3.707   0.408
 4810TIP3    H114436   0.360   3.739   0.377
 4810TIP3    H214437   0.260   3.756   0.489
 4811TIP3   OH214438   0.409   3.790   1.938
 4811TIP3    H114439   0.339   3.725   1.931
 4811TIP3    H214440   0.418   3.826   1.850
 4812TIP3   OH214441   3.743   5.713   0.316
 4812TIP3    H114442   3.658   5.745   0.286
 4812TIP3    H214443   3.764   5.767   0.392
 4813TIP3   OH214444   3.773   3.871   3.017
 4813TIP3    H114445   3.785   3.784   3.056
 4813TIP3    H214446   3.813   3.931   3.081
 4814TIP3   OH214447   4.570   1.941   2.790
 4814TIP3    H114448   4.656   1.899   2.780
 4814TIP3    H214449   4.538   1.953   2.700
 4815TIP3   OH214450   0.991   3.846   2.339
 4815TIP3    H114451   1.033   3.763   2.359
 4815TIP3    H214452   0.954   3.875   2.423
 4816TIP3   OH214453   2.049   1.916   3.181
 4816TIP3    H114454   1.991   1.986   3.210
 4816TIP3    H214455   2.062   1.933   3.088
 4817TIP3   OH214456   3.494   5.810   4.186
 4817TIP3    H114457   3.430   5.744   4.213
 4817TIP3    H214458   3.578   5.770   4.205
 4818TIP3   OH214459   1.133   5.816   1.431
 4818TIP3    H114460   1.207   5.876   1.441
 4818TIP3    H214461   1.057   5.867   1.460
 4819TIP3   OH214462   3.112   1.983   4.728
 4819TIP3    H114463   3.166   1.904   4.721
 4819TIP3    H214464   3.040   1.959   4.786
 4820TIP3   OH214465   2.024   3.666   1.459
 4820TIP3    H114466   2.081   3.616   1.517
 4820TIP3    H214467   1.935   3.636   1.481
 4821TIP3   OH214468   4.593   0.129   2.935
 4821TIP3    H114469   4.626   0.192   2.999
 4821TIP3    H214470   4.507   0.104   2.969
 4822TIP3   OH214471   4.454   2.792   0.546
 4822TIP3    H114472   4.454   2.825   0.636
 4822TIP3    H214473   4.362   2.784   0.523
 4823TIP3   OH214474   5.755   2.521   0.034
 4823TIP3    H114475   5.669   2.529   0.076
 4823TIP3    H214476   5.794   2.443   0.074
 4824TIP3   OH214477   3.504   5.561   4.404
 4824TIP3    H114478   3.473   5.537   4.492
 4824TIP3    H214479   3.556   5.640   4.418
 4825TIP3   OH214480   1.143   4.422   2.051
 4825TIP3    H114481   1.100   4.460   2.128
 4825TIP3    H214482   1.084   4.444   1.978
 4826TIP3   OH214483   4.158   2.102   0.600
 4826TIP3    H114484   4.159   2.012   0.567
 4826TIP3    H214485   4.129   2.155   0.526
 4827TIP3   OH214486   1.275   1.030   4.044
 4827TIP3    H114487   1.259   0.966   4.113
 4827TIP3    H214488   1.266   0.981   3.962
 4828TIP3   OH214489   0.637   0.037   4.528
 4828TIP3    H114490   0.605   0.127   4.523
 4828TIP3    H214491   0.575  -0.014   4.476
 4829TIP3   OH214492   1.582   0.068   3.931
 4829TIP3    H114493   1.574  -0.008   3.873
 4829TIP3    H214494   1.642   0.127   3.885
 4830TIP3   OH214495   4.334   4.164   0.791
 4830TIP3    H114496   4.316   4.143   0.699
 4830TIP3    H214497   4.259   4.129   0.839
 4831TIP3   OH214498   0.372   3.909   4.997
 4831TIP3    H114499   0.409   3.994   4.973
 4831TIP3    H214500   0.374   3.858   4.916
 4832TIP3   OH214501   4.349   3.467   1.338
 4832TIP3    H114502   4.329   3.410   1.264
 4832TIP3    H214503   4.357   3.407   1.413
 4833TIP3   OH214504   1.702   4.614   3.830
 4833TIP3    H114505   1.639   4.623   3.902
 4833TIP3    H214506   1.671   4.676   3.764
 4834TIP3   OH214507   3.632   4.162   4.768
 4834TIP3    H114508   3.614   4.180   4.675
 4834TIP3    H214509   3.548   4.176   4.812
 4835TIP3   OH214510   2.778   0.744   1.284
 4835TIP3    H114511   2.700   0.791   1.254
 4835TIP3    H214512   2.822   0.805   1.343
 4836TIP3   OH214513   0.795   4.632   0.856
 4836TIP3    H114514   0.707   4.657   0.884
 4836TIP3    H214515   0.781   4.578   0.778
 4837TIP3   OH214516   5.776   0.337   4.460
 4837TIP3    H114517   5.772   0.301   4.548
 4837TIP3    H214518   5.865   0.321   4.430
 4838TIP3   OH214519   3.936   4.838   0.354
 4838TIP3    H114520   3.933   4.918   0.407
 4838TIP3    H214521   3.926   4.869   0.264
 4839TIP3   OH214522   6.082   4.008   4.763
 4839TIP3    H114523   6.047   3.937   4.816
 4839TIP3    H214524   6.041   3.996   4.677
 4840TIP3   OH214525   2.157   3.423   1.547
 4840TIP3    H114526   2.064   3.408   1.527
 4840TIP3    H214527   2.195   3.335   1.551
 4841TIP3   OH214528   0.671   4.936   1.063
 4841TIP3    H114529   0.760   4.908   1.043
 4841TIP3    H214530   0.672   5.031   1.051
 4842TIP3   OH214531   2.707   5.887   1.425
 4842TIP3    H114532   2.664   5.829   1.488
 4842TIP3    H214533   2.773   5.832   1.384
 4843TIP3   OH214534   5.730   2.335   2.668
 4843TIP3    H114535   5.809   2.380   2.699
 4843TIP3    H214536   5.756   2.296   2.584
 4844TIP3   OH214537   3.439   5.902   1.869
 4844TIP3    H114538   3.468   5.979   1.820
 4844TIP3    H214539   3.380   5.937   1.936
 4845TIP3   OH214540   1.931   5.299   2.855
 4845TIP3    H114541   2.021   5.266   2.851
 4845TIP3    H214542   1.940   5.394   2.841
 4846TIP3   OH214543   5.573   0.858   2.104
 4846TIP3    H114544   5.535   0.785   2.055
 4846TIP3    H214545   5.658   0.826   2.133
 4847TIP3   OH214546   0.970   0.358   0.704
 4847TIP3    H114547   0.896   0.342   0.763
 4847TIP3    H214548   0.990   0.451   0.716
 4848TIP3   OH214549   6.311   3.987   0.236
 4848TIP3    H114550   6.290   4.003   0.144
 4848TIP3    H214551   6.385   3.926   0.233
 4849TIP3   OH214552   3.701   0.779   2.179
 4849TIP3    H114553   3.707   0.692   2.217
 4849TIP3    H214554   3.639   0.826   2.236
 4850TIP3   OH214555   1.710   5.470   3.127
 4850TIP3    H114556   1.700   5.522   3.047
 4850TIP3    H214557   1.805   5.462   3.139
 4851TIP3   OH214558   1.584   3.831   2.713
 4851TIP3    H114559   1.581   3.872   2.627
 4851TIP3    H214560   1.525   3.883   2.767
 4852TIP3   OH214561   5.024   3.271   1.290
 4852TIP3    H114562   5.098   3.268   1.351
 4852TIP3    H214563   4.959   3.213   1.328
 4853TIP3   OH214564   5.080   1.930   4.530
 4853TIP3    H114565   5.106   1.841   4.552
 4853TIP3    H214566   5.141   1.957   4.462
 4854TIP3   OH214567   4.888   3.870   2.263
 4854TIP3    H114568   4.802   3.909   2.251
 4854TIP3    H214569   4.950   3.937   2.237
 4855TIP3   OH214570   0.321   5.662   3.777
 4855TIP3    H114571   0.284   5.580   3.743
 4855TIP3    H214572   0.245   5.715   3.799
 4856TIP3   OH214573   3.826   2.025   1.580
 4856TIP3    H114574   3.769   2.099   1.596
 4856TIP3    H214575   3.814   1.967   1.655
 4857TIP3   OH214576   3.720   4.860   3.881
 4857TIP3    H114577   3.660   4.857   3.955
 4857TIP3    H214578   3.727   4.769   3.852
 4858TIP3   OH214579   0.098   2.770   4.672
 4858TIP3    H114580   0.104   2.705   4.602
 4858TIP3    H214581   0.158   2.738   4.740
 4859TIP3   OH214582   1.028   4.523   2.823
 4859TIP3    H114583   1.020   4.601   2.878
 4859TIP3    H214584   0.949   4.523   2.769
 4860TIP3   OH214585   0.089   0.208   2.955
 4860TIP3    H114586   0.163   0.233   2.900
 4860TIP3    H214587   0.127   0.154   3.024
 4861TIP3   OH214588   4.955   4.650   4.505
 4861TIP3    H114589   4.899   4.586   4.550
 4861TIP3    H214590   4.929   4.643   4.413
 4862TIP3   OH214591   5.315   0.313   2.811
 4862TIP3    H114592   5.297   0.331   2.903
 4862TIP3    H214593   5.252   0.368   2.763
 4863TIP3   OH214594   4.282   4.288   2.479
 4863TIP3    H114595   4.229   4.323   2.406
 4863TIP3    H214596   4.264   4.194   2.478
 4864TIP3   OH214597   2.951   3.969   3.949
 4864TIP3    H114598   2.876   4.024   3.968
 4864TIP3    H214599   2.916   3.897   3.897
 4865TIP3   OH214600   3.225   0.562   4.359
 4865TIP3    H114601   3.191   0.507   4.428
 4865TIP3    H214602   3.237   0.648   4.400
 4866TIP3   OH214603   4.191   4.606   2.523
 4866TIP3    H114604   4.229   4.524   2.556
 4866TIP3    H214605   4.236   4.675   2.572
 4867TIP3   OH214606   1.369   0.648   0.165
 4867TIP3    H114607   1.398   0.646   0.074
 4867TIP3    H214608   1.358   0.556   0.189
 4868TIP3   OH214609   1.510   4.960   4.119
 4868TIP3    H114610   1.423   4.989   4.145
 4868TIP3    H214611   1.542   5.029   4.061
 4869TIP3   OH214612   6.193   1.690   2.665
 4869TIP3    H114613   6.269   1.633   2.669
 4869TIP3    H214614   6.227   1.774   2.633
 4870TIP3   OH214615   0.817   5.916   2.712
 4870TIP3    H114616   0.846   5.842   2.765
 4870TIP3    H214617   0.723   5.923   2.729
 4871TIP3   OH214618   5.183   0.332   0.477
 4871TIP3    H114619   5.213   0.255   0.526
 4871TIP3    H214620   5.197   0.405   0.537
 4872TIP3   OH214621   1.884   3.297   5.051
 4872TIP3    H114622   1.949   3.319   5.117
 4872TIP3    H214623   1.841   3.218   5.084
 4873TIP3   OH214624   2.657   5.192   2.536
 4873TIP3    H114625   2.652   5.099   2.557
 4873TIP3    H214626   2.738   5.222   2.576
 4874TIP3   OH214627   0.702   3.290   0.534
 4874TIP3    H114628   0.797   3.280   0.535
 4874TIP3    H214629   0.669   3.200   0.542
 4875TIP3   OH214630   3.774   4.143   3.826
 4875TIP3    H114631   3.690   4.165   3.788
 4875TIP3    H214632   3.839   4.175   3.764
 4876TIP3   OH214633   1.946   1.091   1.398
 4876TIP3    H114634   1.901   1.065   1.318
 4876TIP3    H214635   2.037   1.062   1.385
 4877TIP3   OH214636   1.721   4.587   2.389
 4877TIP3    H114637   1.766   4.603   2.472
 4877TIP3    H214638   1.683   4.671   2.366
 4878TIP3   OH214639   1.702   0.233   0.476
 4878TIP3    H114640   1.797   0.219   0.472
 4878TIP3    H214641   1.689   0.286   0.554
 4879TIP3   OH214642   3.560   5.619   0.593
 4879TIP3    H114643   3.561   5.592   0.685
 4879TIP3    H214644   3.637   5.674   0.582
 4880TIP3   OH214645   4.228   1.245   2.299
 4880TIP3    H114646   4.203   1.258   2.390
 4880TIP3    H214647   4.250   1.151   2.293
 4881TIP3   OH214648   3.717   0.850   3.342
 4881TIP3    H114649   3.633   0.863   3.386
 4881TIP3    H214650   3.761   0.784   3.395
 4882TIP3   OH214651   4.641   2.410   0.419
 4882TIP3    H114652   4.672   2.366   0.340
 4882TIP3    H214653   4.569   2.354   0.451
 4883TIP3   OH214654   0.879   4.404   3.543
 4883TIP3    H114655   0.909   4.313   3.542
 4883TIP3    H214656   0.790   4.401   3.510
 4884TIP3   OH214657   5.997   5.815   3.085
 4884TIP3    H114658   5.977   5.749   3.019
 4884TIP3    H214659   5.998   5.898   3.036
 4885TIP3   OH214660   2.633   3.875   0.424
 4885TIP3    H114661   2.629   3.954   0.478
 4885TIP3    H214662   2.541   3.848   0.414
 4886TIP3   OH214663   5.183   5.120   0.639
 4886TIP3    H114664   5.126   5.092   0.710
 4886TIP3    H214665   5.157   5.210   0.621
 4887TIP3   OH214666   4.071   0.816   4.859
 4887TIP3    H114667   4.133   0.860   4.801
 4887TIP3    H214668   4.077   0.724   4.834
 4888TIP3   OH214669   5.875   2.823   2.315
 4888TIP3    H114670   5.824   2.890   2.271
 4888TIP3    H214671   5.811   2.775   2.368
 4889TIP3   OH214672   0.756   0.601   4.838
 4889TIP3    H114673   0.794   0.533   4.892
 4889TIP3    H214674   0.699   0.554   4.777
 4890TIP3   OH214675   2.824   2.113   1.254
 4890TIP3    H114676   2.883   2.050   1.212
 4890TIP3    H214677   2.881   2.187   1.276
 4891TIP3   OH214678   3.795   1.646   3.395
 4891TIP3    H114679   3.715   1.684   3.432
 4891TIP3    H214680   3.810   1.567   3.446
 4892TIP3   OH214681   1.422   2.757   0.829
 4892TIP3    H114682   1.488   2.771   0.761
 4892TIP3    H214683   1.361   2.695   0.789
 4893TIP3   OH214684   2.530   4.614   1.205
 4893TIP3    H114685   2.609   4.562   1.190
 4893TIP3    H214686   2.547   4.696   1.159
 4894TIP3   OH214687   1.865   4.022   3.173
 4894TIP3    H114688   1.863   4.115   3.154
 4894TIP3    H214689   1.926   4.012   3.245
 4895TIP3   OH214690   2.000   1.994   1.301
 4895TIP3    H114691   1.989   2.033   1.388
 4895TIP3    H214692   2.095   1.991   1.288
 4896TIP3   OH214693   3.089   1.641   2.433
 4896TIP3    H114694   3.121   1.552   2.423
 4896TIP3    H214695   3.061   1.666   2.345
 4897TIP3   OH214696   6.175   3.436   0.975
 4897TIP3    H114697   6.174   3.341   0.987
 4897TIP3    H214698   6.258   3.464   1.013
 4898TIP3   OH214699   3.915   4.968   3.492
 4898TIP3    H114700   3.843   4.916   3.456
 4898TIP3    H214701   3.928   5.037   3.428
 4899TIP3   OH214702   3.765   2.429   5.042
 4899TIP3    H114703   3.811   2.484   4.979
 4899TIP3    H214704   3.757   2.483   5.121
 4900TIP3   OH214705   5.800   0.314   3.363
 4900TIP3    H114706   5.873   0.375   3.354
 4900TIP3    H214707   5.840   0.234   3.399
 4901TIP3   OH214708   3.022   0.868   1.634
 4901TIP3    H114709   2.981   0.816   1.565
 4901TIP3    H214710   2.949   0.894   1.691
 4902TIP3   OH214711   1.961   2.671   1.095
 4902TIP3    H114712   1.903   2.737   1.132
 4902TIP3    H214713   1.903   2.600   1.068
 4903TIP3   OH214714   3.682   5.381   1.682
 4903TIP3    H114715   3.675   5.463   1.732
 4903TIP3    H214716   3.776   5.363   1.681
 4904TIP3   OH214717   4.523   2.058   3.064
 4904TIP3    H114718   4.536   2.004   2.986
 4904TIP3    H214719   4.595   2.034   3.122
 4905TIP3   OH214720   0.784   2.077   4.995
 4905TIP3    H114721   0.880   2.069   4.999
 4905TIP3    H214722   0.756   1.998   4.949
 4906TIP3   OH214723   4.188   2.533   0.163
 4906TIP3    H114724   4.093   2.544   0.164
 4906TIP3    H214725   4.221   2.611   0.207
 4907TIP3   OH214726   5.328   0.461   0.677
 4907TIP3    H114727   5.343   0.387   0.736
 4907TIP3    H214728   5.265   0.516   0.723
 4908TIP3   OH214729   4.784   4.306   2.747
 4908TIP3    H114730   4.823   4.380   2.793
 4908TIP3    H214731   4.858   4.262   2.706
 4909TIP3   OH214732   6.046   4.239   4.099
 4909TIP3    H114733   6.092   4.204   4.175
 4909TIP3    H214734   5.979   4.297   4.136
 4910TIP3   OH214735   3.086   5.221   1.427
 4910TIP3    H114736   3.097   5.225   1.332
 4910TIP3    H214737   3.149   5.285   1.461
 4911TIP3   OH214738   4.525   0.689   0.913
 4911TIP3    H114739   4.618   0.666   0.906
 4911TIP3    H214740   4.518   0.774   0.870
 4912TIP3   OH214741   2.967   4.359   0.973
 4912TIP3    H114742   2.886   4.370   0.923
 4912TIP3    H214743   3.021   4.434   0.949
 4913TIP3   OH214744   4.171   0.735   4.541
 4913TIP3    H114745   4.223   0.680   4.600
 4913TIP3    H214746   4.189   0.825   4.569
 4914TIP3   OH214747   5.430   2.312   3.884
 4914TIP3    H114748   5.433   2.404   3.858
 4914TIP3    H214749   5.522   2.286   3.892
 4915TIP3   OH214750   0.277   0.552   3.550
 4915TIP3    H114751   0.298   0.646   3.547
 4915TIP3    H214752   0.184   0.549   3.574
 4916TIP3   OH214753   0.893   1.078   0.121
 4916TIP3    H114754   0.881   1.119   0.206
 4916TIP3    H214755   0.893   0.984   0.139
 4917TIP3   OH214756   1.774   2.856   1.482
 4917TIP3    H114757   1.765   2.887   1.392
 4917TIP3    H214758   1.859   2.888   1.511
 4918TIP3   OH214759   4.975   3.384   3.774
 4918TIP3    H114760   4.887   3.404   3.745
 4918TIP3    H214761   5.032   3.417   3.705
 4919TIP3   OH214762   4.036   3.005   2.303
 4919TIP3    H114763   3.993   2.942   2.362
 4919TIP3    H214764   4.043   2.958   2.220
 4920TIP3   OH214765   2.035   3.432   0.498
 4920TIP3    H114766   2.012   3.339   0.509
 4920TIP3    H214767   2.055   3.462   0.586
 4921TIP3   OH214768   1.738   3.302   2.302
 4921TIP3    H114769   1.677   3.346   2.362
 4921TIP3    H214770   1.796   3.372   2.272
 4922TIP3   OH214771   1.162   5.285   0.055
 4922TIP3    H114772   1.155   5.380   0.044
 4922TIP3    H214773   1.250   5.272   0.091
 4923TIP3   OH214774   3.352   5.415   3.355
 4923TIP3    H114775   3.298   5.344   3.390
 4923TIP3    H214776   3.307   5.495   3.383
 4924TIP3   OH214777   2.474   1.762   3.356
 4924TIP3    H114778   2.496   1.845   3.314
 4924TIP3    H214779   2.378   1.763   3.361
 4925TIP3   OH214780   3.864   5.089   0.113
 4925TIP3    H114781   3.841   5.151   0.043
 4925TIP3    H214782   3.958   5.077   0.104
 4926TIP3   OH214783   1.933   3.520   4.452
 4926TIP3    H114784   1.890   3.441   4.487
 4926TIP3    H214785   1.870   3.590   4.469
 4927TIP3   OH214786   5.327   2.729   3.561
 4927TIP3    H114787   5.329   2.685   3.476
 4927TIP3    H214788   5.377   2.672   3.619
 4928TIP3   OH214789   1.949   2.544   2.093
 4928TIP3    H114790   1.882   2.482   2.121
 4928TIP3    H214791   2.018   2.490   2.054
 4929TIP3   OH214792   4.640   2.002   4.837
 4929TIP3    H114793   4.731   1.983   4.860
 4929TIP3    H214794   4.601   2.037   4.917
 4930TIP3   OH214795   5.345   1.033   1.101
 4930TIP3    H114796   5.434   1.008   1.126
 4930TIP3    H214797   5.290   1.001   1.173
 4931TIP3   OH214798   1.817   1.192   3.160
 4931TIP3    H114799   1.785   1.211   3.248
 4931TIP3    H214800   1.909   1.170   3.172
 4932TIP3   OH214801   2.767   5.675   1.993
 4932TIP3    H114802   2.784   5.604   2.055
 4932TIP3    H214803   2.689   5.718   2.027
 4933TIP3   OH214804   6.235   4.146   3.790
 4933TIP3    H114805   6.254   4.059   3.756
 4933TIP3    H214806   6.247   4.204   3.715
 4934TIP3   OH214807   5.649   2.112   3.238
 4934TIP3    H114808   5.597   2.127   3.316
 4934TIP3    H214809   5.585   2.101   3.168
 4935TIP3   OH214810   5.195   5.555   4.375
 4935TIP3    H114811   5.290   5.566   4.385
 4935TIP3    H214812   5.176   5.472   4.418
 4936TIP3   OH214813   5.118   3.594   3.960
 4936TIP3    H114814   5.104   3.544   3.880
 4936TIP3    H214815   5.080   3.541   4.030
 4937TIP3   OH214816   0.235   3.156   3.944
 4937TIP3    H114817   0.186   3.209   3.882
 4937TIP3    H214818   0.277   3.089   3.891
 4938TIP3   OH214819   5.650   5.809   2.818
 4938TIP3    H114820   5.628   5.817   2.725
 4938TIP3    H214821   5.625   5.894   2.855
 4939TIP3   OH214822   6.306   2.480   3.901
 4939TIP3    H114823   6.299   2.402   3.846
 4939TIP3    H214824   6.227   2.530   3.882
 4940TIP3   OH214825   4.062   2.028   0.857
 4940TIP3    H114826   4.015   2.087   0.915
 4940TIP3    H214827   4.100   2.084   0.790
 4941TIP3   OH214828   2.511   0.069   1.240
 4941TIP3    H114829   2.446   0.025   1.184
 4941TIP3    H214830   2.563  -0.002   1.277
 4942TIP3   OH214831   1.939   5.057   2.458
 4942TIP3    H114832   1.890   5.074   2.377
 4942TIP3    H214833   1.935   5.140   2.506
 4943TIP3   OH214834   2.625   5.222   0.720
 4943TIP3    H114835   2.633   5.164   0.645
 4943TIP3    H214836   2.690   5.189   0.783
 4944TIP3   OH214837   3.440   3.859   2.641
 4944TIP3    H114838   3.495   3.894   2.571
 4944TIP3    H214839   3.498   3.851   2.716
 4945TIP3   OH214840   4.599   3.906   2.781
 4945TIP3    H114841   4.686   3.893   2.821
 4945TIP3    H214842   4.537   3.885   2.851
 4946TIP3   OH214843   3.000   5.869   4.359
 4946TIP3    H114844   3.027   5.939   4.299
 4946TIP3    H214845   3.036   5.896   4.444
 4947TIP3   OH214846   0.172   1.009   1.998
 4947TIP3    H114847   0.222   1.049   2.069
 4947TIP3    H214848   0.216   1.036   1.918
 4948TIP3   OH214849   1.739   0.043   4.926
 4948TIP3    H114850   1.806   0.039   4.994
 4948TIP3    H214851   1.689   0.122   4.947
 4949TIP3   OH214852   3.509   5.733   1.363
 4949TIP3    H114853   3.459   5.744   1.444
 4949TIP3    H214854   3.562   5.812   1.356
 4950TIP3   OH214855   1.105   5.813   2.627
 4950TIP3    H114856   1.107   5.881   2.559
 4950TIP3    H214857   1.084   5.861   2.707
 4951TIP3   OH214858   2.940   2.489   2.910
 4951TIP3    H114859   2.988   2.407   2.922
 4951TIP3    H214860   2.848   2.464   2.917
 4952TIP3   OH214861   2.703   4.434   0.594
 4952TIP3    H114862   2.792   4.400   0.588
 4952TIP3    H214863   2.663   4.413   0.510
 4953TIP3   OH214864   0.511   0.124   1.885
 4953TIP3    H114865   0.578   0.080   1.832
 4953TIP3    H214866   0.459   0.173   1.821
 4954TIP3   OH214867   4.332   0.133   4.063
 4954TIP3    H114868   4.379   0.125   4.146
 4954TIP3    H214869   4.387   0.086   4.000
 4955TIP3   OH214870   6.086   1.958   4.850
 4955TIP3    H114871   6.056   2.004   4.771
 4955TIP3    H214872   6.095   2.027   4.916
 4956TIP3   OH214873   0.554   2.753   2.607
 4956TIP3    H114874   0.466   2.770   2.640
 4956TIP3    H214875   0.613   2.790   2.673
 4957TIP3   OH214876   0.472   1.270   2.706
 4957TIP3    H114877   0.500   1.269   2.797
 4957TIP3    H214878   0.551   1.293   2.657
 4958TIP3   OH214879   0.234   0.126   3.634
 4958TIP3    H114880   0.194   0.147   3.550
 4958TIP3    H214881   0.183   0.053   3.668
 4959TIP3   OH214882   2.888   5.096   2.113
 4959TIP3    H114883   2.933   5.075   2.196
 4959TIP3    H214884   2.842   5.015   2.090
 4960TIP3   OH214885   1.195   0.691   0.968
 4960TIP3    H114886   1.178   0.785   0.967
 4960TIP3    H214887   1.181   0.664   1.059
 4961TIP3   OH214888   0.203   4.777   4.178
 4961TIP3    H114889   0.198   4.698   4.232
 4961TIP3    H214890   0.283   4.766   4.127
 4962TIP3   OH214891   5.126   3.939   1.538
 4962TIP3    H114892   5.153   4.029   1.519
 4962TIP3    H214893   5.041   3.930   1.496
 4963TIP3   OH214894   4.300   4.379   3.560
 4963TIP3    H114895   4.347   4.461   3.576
 4963TIP3    H214896   4.359   4.328   3.505
 4964TIP3   OH214897   0.356   4.241   1.909
 4964TIP3    H114898   0.332   4.305   1.976
 4964TIP3    H214899   0.366   4.293   1.829
 4965TIP3   OH214900   3.056   4.438   4.416
 4965TIP3    H114901   3.050   4.516   4.471
 4965TIP3    H214902   3.121   4.382   4.459
 4966TIP3   OH214903   5.592   4.694   2.184
 4966TIP3    H114904   5.549   4.648   2.112
 4966TIP3    H214905   5.598   4.628   2.254
 4967TIP3   OH214906   1.460   1.101   3.758
 4967TIP3    H114907   1.432   1.145   3.839
 4967TIP3    H214908   1.532   1.045   3.785
 4968TIP3   OH214909   2.291   0.805   2.919
 4968TIP3    H114910   2.220   0.856   2.958
 4968TIP3    H214911   2.310   0.849   2.837
 4969TIP3   OH214912   5.718   2.209   1.922
 4969TIP3    H114913   5.672   2.147   1.866
 4969TIP3    H214914   5.780   2.253   1.864
 4970TIP3   OH214915   5.732   5.955   1.096
 4970TIP3    H114916   5.715   6.049   1.097
 4970TIP3    H214917   5.817   5.947   1.052
 4971TIP3   OH214918   6.334   4.582   1.491
 4971TIP3    H114919   6.239   4.593   1.491
 4971TIP3    H214920   6.348   4.493   1.458
 4972TIP3   OH214921   2.696   4.733   0.546
 4972TIP3    H114922   2.665   4.648   0.577
 4972TIP3    H214923   2.661   4.740   0.457
 4973TIP3   OH214924   2.720   0.485   0.844
 4973TIP3    H114925   2.675   0.568   0.853
 4973TIP3    H214926   2.731   0.474   0.749
 4974TIP3   OH214927   2.716   3.294   5.140
 4974TIP3    H114928   2.719   3.209   5.183
 4974TIP3    H214929   2.631   3.298   5.098
 4975TIP3   OH214930   2.871   5.149   3.334
 4975TIP3    H114931   2.950   5.102   3.359
 4975TIP3    H214932   2.887   5.240   3.359
 4976TIP3   OH214933   6.031   1.792   2.936
 4976TIP3    H114934   6.009   1.731   3.006
 4976TIP3    H214935   5.948   1.805   2.889
 4977TIP3   OH214936   3.133   4.853   3.036
 4977TIP3    H114937   3.174   4.898   2.962
 4977TIP3    H214938   3.205   4.808   3.080
 4978TIP3   OH214939   1.364   0.968   1.952
 4978TIP3    H114940   1.435   0.905   1.937
 4978TIP3    H214941   1.290   0.913   1.979
 4979TIP3   OH214942   3.640   0.161   1.645
 4979TIP3    H114943   3.604   0.233   1.696
 4979TIP3    H214944   3.572   0.094   1.646
 4980TIP3   OH214945   4.268   0.022   0.919
 4980TIP3    H114946   4.274   0.118   0.925
 4980TIP3    H214947   4.325  -0.009   0.990
 4981TIP3   OH214948   5.942   3.529   2.953
 4981TIP3    H114949   5.989   3.478   2.888
 4981TIP3    H214950   5.985   3.615   2.951
 4982TIP3   OH214951   4.971   2.403   2.676
 4982TIP3    H114952   4.999   2.312   2.670
 4982TIP3    H214953   5.039   2.446   2.728
 4983TIP3   OH214954   2.090   2.710   3.154
 4983TIP3    H114955   2.042   2.645   3.103
 4983TIP3    H214956   2.137   2.762   3.088
 4984TIP3   OH214957   2.468   4.522   4.111
 4984TIP3    H114958   2.423   4.605   4.098
 4984TIP3    H214959   2.499   4.525   4.202
 4985TIP3   OH214960   0.377   2.973   1.363
 4985TIP3    H114961   0.380   2.996   1.456
 4985TIP3    H214962   0.469   2.973   1.336
 4986TIP3   OH214963   1.730   4.270   0.575
 4986TIP3    H114964   1.645   4.300   0.606
 4986TIP3    H214965   1.744   4.187   0.619
 4987TIP3   OH214966   3.610   2.813   0.160
 4987TIP3    H114967   3.589   2.738   0.216
 4987TIP3    H214968   3.565   2.887   0.200
 4988TIP3   OH214969   0.107   2.653   3.750
 4988TIP3    H114970   0.149   2.600   3.683
 4988TIP3    H214971   0.069   2.590   3.811
 4989TIP3   OH214972   0.453   3.020   1.620
 4989TIP3    H114973   0.546   3.007   1.598
 4989TIP3    H214974   0.455   3.049   1.711
 4990TIP3   OH214975   4.176   1.387   0.037
 4990TIP3    H114976   4.259   1.384  -0.011
 4990TIP3    H214977   4.117   1.435  -0.021
 4991TIP3   OH214978   5.182   5.512   0.197
 4991TIP3    H114979   5.236   5.433   0.200
 4991TIP3    H214980   5.099   5.486   0.236
 4992TIP3   OH214981   1.186   4.255   4.097
 4992TIP3    H114982   1.275   4.291   4.090
 4992TIP3    H214983   1.156   4.283   4.183
 4993TIP3   OH214984   0.425   4.376   0.164
 4993TIP3    H114985   0.388   4.418   0.242
 4993TIP3    H214986   0.408   4.283   0.177
 4994TIP3   OH214987   3.777   0.064   4.398
 4994TIP3    H114988   3.851   0.012   4.367
 4994TIP3    H214989   3.804   0.155   4.385
 4995TIP3   OH214990   2.904   3.700   1.040
 4995TIP3    H114991   2.857   3.635   1.092
 4995TIP3    H214992   2.978   3.726   1.095
 4996TIP3   OH214993   1.010   3.375   2.166
 4996TIP3    H114994   0.949   3.345   2.233
 4996TIP3    H214995   0.955   3.398   2.091
 4997TIP3   OH214996   0.535   1.396   3.008
 4997TIP3    H114997   0.602   1.454   3.044
 4997TIP3    H214998   0.466   1.395   3.075
 4998TIP3   OH214999   5.664   5.349   4.353
 4998TIP3    H115000   5.664   5.335   4.258
 4998TIP3    H215001   5.614   5.429   4.366
 4999TIP3   OH215002   2.720   4.926   2.625
 4999TIP3    H115003   2.790   4.963   2.679
 4999TIP3    H215004   2.675   4.864   2.683
 5000TIP3   OH215005   4.544   2.795   0.195
 5000TIP3    H115006   4.635   2.814   0.218
 5000TIP3    H215007   4.549   2.716   0.142
 5001TIP3   OH215008   4.675   0.719   0.589
 5001TIP3    H115009   4.759   0.679   0.611
 5001TIP3    H215010   4.695   0.780   0.519
 5002TIP3   OH215011   1.111   5.842   3.144
 5002TIP3    H115012   1.162   5.761   3.142
 5002TIP3    H215013   1.125   5.878   3.231
 5003TIP3   OH215014   1.837   1.716   4.941
 5003TIP3    H115015   1.782   1.654   4.893
 5003TIP3    H215016   1.829   1.798   4.892
 5004TIP3   OH215017   1.199   2.392   4.893
 5004TIP3    H115018   1.209   2.465   4.832
 5004TIP3    H215019   1.280   2.392   4.945
 5005TIP3   OH215020   5.820   2.237   3.597
 5005TIP3    H115021   5.756   2.167   3.588
 5005TIP3    H215022   5.776   2.314   3.561
 5006TIP3   OH215023   1.516   0.753   4.085
 5006TIP3    H115024   1.504   0.775   4.177
 5006TIP3    H215025   1.430   0.722   4.057
 5007TIP3   OH215026   5.415   4.164   1.893
 5007TIP3    H115027   5.472   4.091   1.916
 5007TIP3    H215028   5.333   4.147   1.940
 5008TIP3   OH215029   3.069   1.284   0.028
 5008TIP3    H115030   2.986   1.264  -0.015
 5008TIP3    H215031   3.060   1.250   0.117
 5009TIP3   OH215032   4.946   5.946   1.271
 5009TIP3    H115033   4.979   5.970   1.184
 5009TIP3    H215034   5.003   5.875   1.299
 5010TIP3   OH215035   3.208   4.921   0.719
 5010TIP3    H115036   3.253   4.840   0.696
 5010TIP3    H215037   3.216   4.927   0.814
 5011TIP3   OH215038   4.465   2.631   4.677
 5011TIP3    H115039   4.499   2.565   4.737
 5011TIP3    H215040   4.542   2.667   4.634
 5012TIP3   OH215041   2.845   4.600   4.268
 5012TIP3    H115042   2.868   4.691   4.251
 5012TIP3    H215043   2.927   4.558   4.293
 5013TIP3   OH215044   4.526   2.302   2.771
 5013TIP3    H115045   4.560   2.385   2.740
 5013TIP3    H215046   4.596   2.266   2.825
 5014TIP3   OH215047   2.155   2.977   2.390
 5014TIP3    H115048   2.209   3.044   2.349
 5014TIP3    H215049   2.209   2.898   2.388
 5015TIP3   OH215050   4.173   4.171   2.103
 5015TIP3    H115051   4.106   4.121   2.056
 5015TIP3    H215052   4.125   4.220   2.169
 5016TIP3   OH215053   5.677   3.785   4.561
 5016TIP3    H115054   5.676   3.757   4.653
 5016TIP3    H215055   5.770   3.794   4.540
 5017TIP3   OH215056   2.001   3.973   3.859
 5017TIP3    H115057   1.965   3.891   3.893
 5017TIP3    H215058   2.081   3.986   3.911
 5018TIP3   OH215059   1.613   5.628   2.446
 5018TIP3    H115060   1.553   5.555   2.427
 5018TIP3    H215061   1.575   5.703   2.401
 5019TIP3   OH215062   2.608   3.382   3.999
 5019TIP3    H115063   2.569   3.460   4.038
 5019TIP3    H215064   2.654   3.339   4.071
 5020TIP3   OH215065   2.063   1.745   4.755
 5020TIP3    H115066   2.036   1.708   4.671
 5020TIP3    H215067   2.116   1.821   4.731
 5021TIP3   OH215068   6.316   3.235   4.243
 5021TIP3    H115069   6.274   3.260   4.161
 5021TIP3    H215070   6.244   3.228   4.306
 5022TIP3   OH215071   2.030   1.061   4.130
 5022TIP3    H115072   2.092   1.129   4.158
 5022TIP3    H215073   2.031   1.064   4.035
 5023TIP3   OH215074   2.960   5.570   4.148
 5023TIP3    H115075   2.961   5.520   4.230
 5023TIP3    H215076   2.891   5.635   4.161
 5024TIP3   OH215077   4.064   0.523   1.381
 5024TIP3    H115078   4.104   0.477   1.455
 5024TIP3    H215079   4.039   0.454   1.320
 5025TIP3   OH215080   2.413   1.791   2.892
 5025TIP3    H115081   2.429   1.704   2.930
 5025TIP3    H215082   2.413   1.850   2.968
 5026TIP3   OH215083   5.815   3.575   1.790
 5026TIP3    H115084   5.769   3.632   1.728
 5026TIP3    H215085   5.861   3.636   1.848
 5027TIP3   OH215086   2.347   4.088   1.851
 5027TIP3    H115087   2.253   4.098   1.871
 5027TIP3    H215088   2.365   4.155   1.785
 5028TIP3   OH215089   5.791   4.805   1.520
 5028TIP3    H115090   5.764   4.855   1.597
 5028TIP3    H215091   5.738   4.726   1.523
 5029TIP3   OH215092   0.834   2.276   4.154
 5029TIP3    H115093   0.893   2.351   4.162
 5029TIP3    H215094   0.805   2.277   4.063
 5030TIP3   OH215095   0.237   2.757   0.408
 5030TIP3    H115096   0.204   2.670   0.429
 5030TIP3    H215097   0.238   2.760   0.313
 5031TIP3   OH215098   5.589   2.694   0.691
 5031TIP3    H115099   5.611   2.611   0.650
 5031TIP3    H215100   5.494   2.702   0.681
 5032TIP3   OH215101   1.286   2.612   4.134
 5032TIP3    H115102   1.371   2.621   4.177
 5032TIP3    H215103   1.302   2.550   4.063
 5033TIP3   OH215104   3.462   1.863   4.248
 5033TIP3    H115105   3.452   1.958   4.258
 5033TIP3    H215106   3.378   1.827   4.278
 5034TIP3   OH215107   6.216   3.152   2.331
 5034TIP3    H115108   6.185   3.063   2.316
 5034TIP3    H215109   6.247   3.181   2.245
 5035TIP3   OH215110   1.242   2.603   2.459
 5035TIP3    H115111   1.170   2.578   2.517
 5035TIP3    H215112   1.291   2.521   2.447
 5036TIP3   OH215113   5.816   2.627   3.743
 5036TIP3    H115114   5.871   2.627   3.664
 5036TIP3    H215115   5.823   2.716   3.777
 5037TIP3   OH215116   5.862   1.162   2.854
 5037TIP3    H115117   5.791   1.109   2.890
 5037TIP3    H215118   5.926   1.099   2.822
 5038TIP3   OH215119   4.716   1.537   4.942
 5038TIP3    H115120   4.651   1.523   5.011
 5038TIP3    H215121   4.677   1.605   4.887
 5039TIP3   OH215122   3.486   0.402   1.475
 5039TIP3    H115123   3.508   0.359   1.557
 5039TIP3    H215124   3.568   0.401   1.424
 5040TIP3   OH215125   1.578   4.161   3.146
 5040TIP3    H115126   1.600   4.144   3.237
 5040TIP3    H215127   1.657   4.201   3.109
 5041TIP3   OH215128   4.465   2.015   0.691
 5041TIP3    H115129   4.437   1.934   0.648
 5041TIP3    H215130   4.484   2.075   0.619
 5042TIP3   OH215131   2.371   3.010   1.160
 5042TIP3    H115132   2.424   2.954   1.104
 5042TIP3    H215133   2.434   3.049   1.221
 5043TIP3   OH215134   1.744   5.499   1.108
 5043TIP3    H115135   1.690   5.563   1.155
 5043TIP3    H215136   1.733   5.418   1.159
 5044TIP3   OH215137   2.713   4.392   0.866
 5044TIP3    H115138   2.657   4.462   0.900
 5044TIP3    H215139   2.685   4.380   0.776
 5045TIP3   OH215140   4.252   3.671   4.669
 5045TIP3    H115141   4.223   3.610   4.737
 5045TIP3    H215142   4.204   3.752   4.686
 5046TIP3   OH215143   3.452   5.683   4.983
 5046TIP3    H115144   3.403   5.746   5.037
 5046TIP3    H215145   3.493   5.625   5.047
 5047TIP3   OH215146   2.850   4.531   3.207
 5047TIP3    H115147   2.767   4.531   3.160
 5047TIP3    H215148   2.838   4.598   3.275
 5048TIP3   OH215149   4.131   4.724   4.552
 5048TIP3    H115150   4.221   4.694   4.560
 5048TIP3    H215151   4.104   4.743   4.642
 5049TIP3   OH215152   1.917   1.183   4.620
 5049TIP3    H115153   1.989   1.178   4.683
 5049TIP3    H215154   1.947   1.246   4.554
 5050TIP3   OH215155   0.027   2.573   2.875
 5050TIP3    H115156   0.021   2.602   2.783
 5050TIP3    H215157   0.119   2.586   2.897
 5051TIP3   OH215158   3.407   2.495   5.036
 5051TIP3    H115159   3.424   2.503   5.130
 5051TIP3    H215160   3.332   2.552   5.021
 5052TIP3   OH215161   1.011   3.696   3.367
 5052TIP3    H115162   1.016   3.629   3.298
 5052TIP3    H215163   0.926   3.680   3.408
 5053TIP3   OH215164   1.587   0.059   2.606
 5053TIP3    H115165   1.494   0.064   2.624
 5053TIP3    H215166   1.613   0.149   2.587
 5054TIP3   OH215167   2.104   4.994   4.312
 5054TIP3    H115168   2.036   4.959   4.370
 5054TIP3    H215169   2.060   5.005   4.228
 5055TIP3   OH215170   4.181   5.970   0.928
 5055TIP3    H115171   4.221   5.916   0.860
 5055TIP3    H215172   4.223   5.942   1.009
 5056TIP3   OH215173   3.094   1.062   2.689
 5056TIP3    H115174   3.034   1.126   2.650
 5056TIP3    H215175   3.137   1.022   2.614
 5057TIP3   OH215176   1.417   1.982   1.576
 5057TIP3    H115177   1.366   1.963   1.497
 5057TIP3    H215178   1.404   2.075   1.591
 5058TIP3   OH215179   5.419   3.877   2.197
 5058TIP3    H115180   5.392   3.968   2.210
 5058TIP3    H215181   5.503   3.884   2.151
 5059TIP3   OH215182   3.361   2.078   1.808
 5059TIP3    H115183   3.389   2.090   1.899
 5059TIP3    H215184   3.423   2.130   1.757
 5060TIP3   OH215185   0.170   5.792   4.566
 5060TIP3    H115186   0.195   5.880   4.594
 5060TIP3    H215187   0.077   5.786   4.588
 5061TIP3   OH215188   3.746   5.405   5.077
 5061TIP3    H115189   3.735   5.462   5.154
 5061TIP3    H215190   3.657   5.388   5.046
 5062TIP3   OH215191   4.031   0.824   1.694
 5062TIP3    H115192   4.083   0.835   1.773
 5062TIP3    H215193   4.089   0.851   1.623
 5063TIP3   OH215194   4.206   0.778   2.532
 5063TIP3    H115195   4.170   0.689   2.524
 5063TIP3    H215196   4.240   0.781   2.622
 5064TIP3   OH215197   5.004   0.687   0.545
 5064TIP3    H115198   5.017   0.773   0.583
 5064TIP3    H215199   5.032   0.696   0.454
 5065TIP3   OH215200   5.664   1.608   4.394
 5065TIP3    H115201   5.570   1.619   4.399
 5065TIP3    H215202   5.696   1.690   4.356
 5066TIP3   OH215203   4.601   0.813   2.513
 5066TIP3    H115204   4.523   0.858   2.547
 5066TIP3    H215205   4.566   0.744   2.457
 5067TIP3   OH215206   3.474   5.193   1.996
 5067TIP3    H115207   3.402   5.194   1.933
 5067TIP3    H215208   3.537   5.130   1.960
 5068TIP3   OH215209   1.750   5.269   0.232
 5068TIP3    H115210   1.839   5.263   0.197
 5068TIP3    H215211   1.759   5.329   0.307
 5069TIP3   OH215212   3.743   0.066   0.776
 5069TIP3    H115213   3.654   0.071   0.811
 5069TIP3    H215214   3.763  -0.028   0.777
 5070TIP3   OH215215   4.827   5.524   1.359
 5070TIP3    H115216   4.810   5.431   1.371
 5070TIP3    H215217   4.806   5.564   1.443
 5071TIP3   OH215218   5.815   1.861   4.862
 5071TIP3    H115219   5.752   1.898   4.800
 5071TIP3    H215220   5.894   1.914   4.850
 5072TIP3   OH215221   1.491   3.166   1.256
 5072TIP3    H115222   1.507   3.074   1.235
 5072TIP3    H215223   1.395   3.175   1.253
 5073TIP3   OH215224   2.813   0.655   2.642
 5073TIP3    H115225   2.876   0.616   2.581
 5073TIP3    H215226   2.784   0.736   2.598
 5074TIP3   OH215227   2.514   1.937   1.032
 5074TIP3    H115228   2.543   1.925   1.122
 5074TIP3    H215229   2.535   1.854   0.989
 5075TIP3   OH215230   6.022   4.682   1.240
 5075TIP3    H115231   5.961   4.614   1.269
 5075TIP3    H215232   6.062   4.715   1.320
 5076TIP3   OH215233   0.770   3.275   1.027
 5076TIP3    H115234   0.675   3.277   1.018
 5076TIP3    H215235   0.789   3.189   1.065
 5077TIP3   OH215236   2.943   3.822   2.740
 5077TIP3    H115237   3.018   3.882   2.735
 5077TIP3    H215238   2.910   3.817   2.650
 5078TIP3   OH215239   6.216   5.645   2.898
 5078TIP3    H115240   6.122   5.630   2.905
 5078TIP3    H215241   6.228   5.735   2.930
 5079TIP3   OH215242   0.184   0.408   3.215
 5079TIP3    H115243   0.183   0.502   3.232
 5079TIP3    H215244   0.253   0.395   3.150
 5080TIP3   OH215245   2.070   2.078   4.911
 5080TIP3    H115246   2.079   2.154   4.968
 5080TIP3    H215247   2.152   2.074   4.862
 5081TIP3   OH215248   2.200   4.690   4.329
 5081TIP3    H115249   2.236   4.743   4.257
 5081TIP3    H215250   2.165   4.755   4.390
 5082TIP3   OH215251   2.618   5.179   4.778
 5082TIP3    H115252   2.614   5.095   4.824
 5082TIP3    H215253   2.662   5.159   4.695
 5083TIP3   OH215254   3.448   0.310   4.696
 5083TIP3    H115255   3.395   0.235   4.722
 5083TIP3    H215256   3.400   0.386   4.730
 5084TIP3   OH215257   0.628   0.636   0.696
 5084TIP3    H115258   0.604   0.548   0.666
 5084TIP3    H215259   0.584   0.645   0.781
 5085TIP3   OH215260   3.085   2.017   2.408
 5085TIP3    H115261   3.016   1.954   2.428
 5085TIP3    H215262   3.117   2.046   2.493
 5086TIP3   OH215263   3.110   1.131   4.893
 5086TIP3    H115264   3.060   1.118   4.974
 5086TIP3    H215265   3.187   1.180   4.921
 5087TIP3   OH215266   4.610   4.927   1.127
 5087TIP3    H115267   4.563   4.960   1.203
 5087TIP3    H215268   4.639   4.839   1.152
 5088TIP3   OH215269   3.299   3.862   3.758
 5088TIP3    H115270   3.390   3.844   3.784
 5088TIP3    H215271   3.247   3.838   3.835
 5089TIP3   OH215272   1.925   2.974   1.699
 5089TIP3    H115273   2.004   2.921   1.713
 5089TIP3    H215274   1.864   2.944   1.766
 5090TIP3   OH215275   5.284   2.033   4.854
 5090TIP3    H115276   5.287   2.124   4.824
 5090TIP3    H215277   5.277   2.039   4.949
 5091TIP3   OH215278   3.647   4.385   0.616
 5091TIP3    H115279   3.701   4.441   0.559
 5091TIP3    H215280   3.637   4.436   0.696
 5092TIP3   OH215281   5.169   4.210   1.459
 5092TIP3    H115282   5.096   4.264   1.429
 5092TIP3    H215283   5.238   4.226   1.394
 5093TIP3   OH215284   5.006   3.302   0.988
 5093TIP3    H115285   4.981   3.328   1.076
 5093TIP3    H215286   5.067   3.370   0.960
 5094TIP3   OH215287   2.955   3.486   2.188
 5094TIP3    H115288   2.860   3.498   2.197
 5094TIP3    H215289   2.972   3.399   2.223
 5095TIP3   OH215290   3.299   3.650   3.595
 5095TIP3    H115291   3.300   3.733   3.643
 5095TIP3    H215292   3.271   3.585   3.660
 5096TIP3   OH215293   2.264   5.377   2.196
 5096TIP3    H115294   2.175   5.411   2.207
 5096TIP3    H215295   2.298   5.368   2.285
 5097TIP3   OH215296   0.232   0.700   0.655
 5097TIP3    H115297   0.324   0.706   0.680
 5097TIP3    H215298   0.187   0.671   0.734
 5098TIP3   OH215299   0.084   1.550   2.583
 5098TIP3    H115300   0.117   1.483   2.643
 5098TIP3    H215301   0.160   1.604   2.562
 5099TIP3   OH215302   1.654   0.654   3.834
 5099TIP3    H115303   1.596   0.583   3.807
 5099TIP3    H215304   1.617   0.685   3.916
 5100TIP3   OH215305   4.047   3.661   0.571
 5100TIP3    H115306   4.034   3.645   0.478
 5100TIP3    H215307   4.142   3.654   0.583
 5101TIP3   OH215308   4.307   0.746   2.269
 5101TIP3    H115309   4.242   0.741   2.339
 5101TIP3    H215310   4.373   0.680   2.292
 5102TIP3   OH215311   5.785   3.797   2.337
 5102TIP3    H115312   5.745   3.877   2.303
 5102TIP3    H215313   5.862   3.827   2.385
 5103TIP3   OH215314   2.636   3.175   3.255
 5103TIP3    H115315   2.689   3.216   3.186
 5103TIP3    H215316   2.624   3.085   3.224
 5104TIP3   OH215317   3.279   1.214   0.777
 5104TIP3    H115318   3.315   1.180   0.859
 5104TIP3    H215319   3.288   1.142   0.715
 5105TIP3   OH215320   5.717   0.964   5.097
 5105TIP3    H115321   5.629   0.994   5.120
 5105TIP3    H215322   5.773   1.002   5.165
 5106TIP3   OH215323   1.989   5.396   2.184
 5106TIP3    H115324   1.926   5.332   2.217
 5106TIP3    H215325   2.045   5.346   2.124
 5107TIP3   OH215326   0.413   2.524   0.462
 5107TIP3    H115327   0.325   2.491   0.479
 5107TIP3    H215328   0.413   2.612   0.500
 5108TIP3   OH215329   5.852   4.841   1.956
 5108TIP3    H115330   5.913   4.912   1.935
 5108TIP3    H215331   5.790   4.880   2.017
 5109TIP3   OH215332   2.885   0.121   3.173
 5109TIP3    H115333   2.911   0.046   3.227
 5109TIP3    H215334   2.876   0.085   3.084
 5110TIP3   OH215335   5.674   2.687   4.665
 5110TIP3    H115336   5.696   2.644   4.583
 5110TIP3    H215337   5.755   2.732   4.690
 5111TIP3   OH215338   3.759   1.985   0.782
 5111TIP3    H115339   3.773   1.900   0.740
 5111TIP3    H215340   3.807   2.047   0.728
 5112TIP3   OH215341   6.354   0.770   4.140
 5112TIP3    H115342   6.385   0.756   4.229
 5112TIP3    H215343   6.289   0.702   4.126
 5113TIP3   OH215344   5.844   5.573   3.254
 5113TIP3    H115345   5.811   5.587   3.342
 5113TIP3    H215346   5.912   5.639   3.243
 5114TIP3   OH215347   4.615   5.887   4.983
 5114TIP3    H115348   4.541   5.895   5.043
 5114TIP3    H215349   4.578   5.908   4.897
 5115TIP3   OH215350   1.186   5.493   5.065
 5115TIP3    H115351   1.223   5.513   5.151
 5115TIP3    H215352   1.188   5.577   5.019
 5116TIP3   OH215353   2.646   4.389   3.950
 5116TIP3    H115354   2.618   4.468   3.995
 5116TIP3    H215355   2.701   4.343   4.014
 5117TIP3   OH215356   2.433   4.594   2.171
 5117TIP3    H115357   2.395   4.680   2.187
 5117TIP3    H215358   2.416   4.545   2.252
 5118TIP3   OH215359   2.208   3.303   2.930
 5118TIP3    H115360   2.214   3.385   2.980
 5118TIP3    H215361   2.141   3.252   2.974
 5119TIP3   OH215362   4.890   0.915   1.965
 5119TIP3    H115363   4.951   0.869   1.907
 5119TIP3    H215364   4.908   0.879   2.052
 5120TIP3   OH215365   2.456   0.273   1.677
 5120TIP3    H115366   2.477   0.185   1.645
 5120TIP3    H215367   2.512   0.331   1.625
 5121TIP3   OH215368   0.679   4.176   2.729
 5121TIP3    H115369   0.637   4.132   2.655
 5121TIP3    H215370   0.750   4.116   2.754
 5122TIP3   OH215371   0.365   3.693   2.270
 5122TIP3    H115372   0.301   3.627   2.244
 5122TIP3    H215373   0.436   3.643   2.310
 5123TIP3   OH215374   4.941   4.388   2.295
 5123TIP3    H115375   4.855   4.386   2.254
 5123TIP3    H215376   5.003   4.395   2.223
 5124TIP3   OH215377   1.862   0.049   0.263
 5124TIP3    H115378   1.844  -0.039   0.229
 5124TIP3    H215379   1.880   0.101   0.185
 5125TIP3   OH215380   2.735   2.624   5.162
 5125TIP3    H115381   2.726   2.647   5.070
 5125TIP3    H215382   2.778   2.699   5.202
 5126TIP3   OH215383   4.981   4.795   1.518
 5126TIP3    H115384   4.991   4.709   1.477
 5126TIP3    H215385   5.006   4.857   1.450
 5127TIP3   OH215386   5.546   1.707   1.568
 5127TIP3    H115387   5.567   1.699   1.661
 5127TIP3    H215388   5.592   1.786   1.539
 5128TIP3   OH215389   5.755   3.592   3.685
 5128TIP3    H115390   5.661   3.600   3.699
 5128TIP3    H215391   5.772   3.498   3.693
 5129TIP3   OH215392   0.375   1.849   1.307
 5129TIP3    H115393   0.397   1.796   1.383
 5129TIP3    H215394   0.433   1.818   1.238
 5130TIP3   OH215395   0.218   3.172   0.919
 5130TIP3    H115396   0.126   3.146   0.919
 5130TIP3    H215397   0.241   3.180   1.011
 5131TIP3   OH215398   2.348   2.182   1.031
 5131TIP3    H115399   2.410   2.134   1.086
 5131TIP3    H215400   2.320   2.119   0.965
 5132TIP3   OH215401   0.427   5.656   3.005
 5132TIP3    H115402   0.430   5.720   3.076
 5132TIP3    H215403   0.335   5.654   2.979
 5133TIP3   OH215404   6.089   5.359   0.904
 5133TIP3    H115405   6.130   5.291   0.957
 5133TIP3    H215406   6.004   5.373   0.945
 5134TIP3   OH215407   6.230   5.239   0.103
 5134TIP3    H115408   6.314   5.279   0.127
 5134TIP3    H215409   6.204   5.189   0.180
 5135TIP3   OH215410   3.340   4.763   3.834
 5135TIP3    H115411   3.384   4.682   3.810
 5135TIP3    H215412   3.273   4.737   3.896
 5136TIP3   OH215413   3.793   3.308   3.872
 5136TIP3    H115414   3.731   3.332   3.941
 5136TIP3    H215415   3.811   3.390   3.827
 5137TIP3   OH215416   1.392   0.876   4.348
 5137TIP3    H115417   1.442   0.958   4.348
 5137TIP3    H215418   1.420   0.831   4.428
 5138TIP3   OH215419   2.329   0.116   4.314
 5138TIP3    H115420   2.365   0.092   4.399
 5138TIP3    H215421   2.244   0.154   4.334
 5139TIP3   OH215422   1.704   2.121   3.671
 5139TIP3    H115423   1.674   2.195   3.725
 5139TIP3    H215424   1.798   2.117   3.686
 5140TIP3   OH215425   1.222   2.588   0.748
 5140TIP3    H115426   1.200   2.572   0.656
 5140TIP3    H215427   1.168   2.663   0.773
 5141TIP3   OH215428   3.537   4.140   0.806
 5141TIP3    H115429   3.573   4.197   0.737
 5141TIP3    H215430   3.613   4.113   0.857
 5142TIP3   OH215431   2.264   1.866   1.938
 5142TIP3    H115432   2.175   1.830   1.935
 5142TIP3    H215433   2.320   1.795   1.906
 5143TIP3   OH215434   4.384   5.590   3.998
 5143TIP3    H115435   4.298   5.569   4.035
 5143TIP3    H215436   4.381   5.684   3.983
 5144TIP3   OH215437   1.789   0.726   4.298
 5144TIP3    H115438   1.795   0.631   4.309
 5144TIP3    H215439   1.722   0.753   4.361
 5145TIP3   OH215440   1.837   1.500   1.862
 5145TIP3    H115441   1.824   1.454   1.944
 5145TIP3    H215442   1.875   1.585   1.887
 5146TIP3   OH215443   5.615   4.877   4.133
 5146TIP3    H115444   5.548   4.946   4.136
 5146TIP3    H215445   5.650   4.874   4.221
 5147TIP3   OH215446   4.673   1.722   2.475
 5147TIP3    H115447   4.658   1.681   2.390
 5147TIP3    H215448   4.585   1.739   2.509
 5148TIP3   OH215449   2.219   0.970   1.625
 5148TIP3    H115450   2.309   1.000   1.612
 5148TIP3    H215451   2.195   1.005   1.711
 5149TIP3   OH215452   5.587   3.955   1.910
 5149TIP3    H115453   5.655   3.965   1.977
 5149TIP3    H215454   5.635   3.951   1.828
 5150TIP3   OH215455   1.361   2.197   0.142
 5150TIP3    H115456   1.337   2.274   0.193
 5150TIP3    H215457   1.439   2.162   0.187
 5151TIP3   OH215458   4.182   5.581   2.679
 5151TIP3    H115459   4.233   5.580   2.761
 5151TIP3    H215460   4.231   5.638   2.621
 5152TIP3   OH215461   2.799   3.711   2.947
 5152TIP3    H115462   2.853   3.779   2.987
 5152TIP3    H215463   2.806   3.728   2.853
 5153TIP3   OH215464   4.995   2.227   4.192
 5153TIP3    H115465   4.980   2.296   4.257
 5153TIP3    H215466   5.036   2.156   4.240
 5154TIP3   OH215467   0.803   4.321   1.046
 5154TIP3    H115468   0.721   4.364   1.070
 5154TIP3    H215469   0.791   4.294   0.955
 5155TIP3   OH215470   0.774   4.481   4.015
 5155TIP3    H115471   0.834   4.484   3.940
 5155TIP3    H215472   0.829   4.452   4.088
 5156TIP3   OH215473   2.899   0.316   1.810
 5156TIP3    H115474   2.946   0.363   1.879
 5156TIP3    H215475   2.837   0.380   1.776
 5157TIP3   OH215476   2.687   3.403   3.418
 5157TIP3    H115477   2.601   3.441   3.433
 5157TIP3    H215478   2.671   3.326   3.364
 5158TIP3   OH215479   0.445   1.603   1.443
 5158TIP3    H115480   0.364   1.554   1.429
 5158TIP3    H215481   0.477   1.570   1.527
 5159TIP3   OH215482   5.201   5.845   1.959
 5159TIP3    H115483   5.248   5.764   1.941
 5159TIP3    H215484   5.200   5.851   2.055
 5160TIP3   OH215485   6.170   1.761   4.433
 5160TIP3    H115486   6.229   1.695   4.395
 5160TIP3    H215487   6.089   1.713   4.451
 5161TIP3   OH215488   4.894   5.131   2.202
 5161TIP3    H115489   4.826   5.175   2.151
 5161TIP3    H215490   4.962   5.108   2.138
 5162TIP3   OH215491   1.199   3.223   0.788
 5162TIP3    H115492   1.245   3.242   0.706
 5162TIP3    H215493   1.153   3.304   0.809
 5163TIP3   OH215494   2.543   1.740   0.412
 5163TIP3    H115495   2.558   1.835   0.415
 5163TIP3    H215496   2.487   1.722   0.487
 5164TIP3   OH215497   2.373   5.521   4.183
 5164TIP3    H115498   2.385   5.478   4.267
 5164TIP3    H215499   2.283   5.500   4.158
 5165TIP3   OH215500   2.975   1.370   4.716
 5165TIP3    H115501   3.040   1.341   4.781
 5165TIP3    H215502   2.932   1.289   4.688
 5166TIP3   OH215503   3.088   0.525   0.669
 5166TIP3    H115504   2.995   0.536   0.651
 5166TIP3    H215505   3.123   0.614   0.669
 5167TIP3   OH215506   1.928   5.727   3.763
 5167TIP3    H115507   1.843   5.747   3.802
 5167TIP3    H215508   1.976   5.681   3.832
 5168TIP3   OH215509   6.062   5.654   5.004
 5168TIP3    H115510   6.097   5.577   4.959
 5168TIP3    H215511   6.137   5.711   5.017
 5169TIP3   OH215512   2.610   4.079   0.063
 5169TIP3    H115513   2.582   4.157   0.109
 5169TIP3    H215514   2.699   4.099   0.033
 5170TIP3   OH215515   0.206   1.945   3.347
 5170TIP3    H115516   0.228   1.852   3.341
 5170TIP3    H215517   0.216   1.977   3.257
 5171TIP3   OH215518   3.910   2.754   3.089
 5171TIP3    H115519   3.846   2.802   3.036
 5171TIP3    H215520   3.978   2.818   3.109
 5172TIP3   OH215521   2.234   5.333   3.543
 5172TIP3    H115522   2.247   5.374   3.628
 5172TIP3    H215523   2.148   5.292   3.549
 5173TIP3   OH215524   0.623   1.294   1.220
 5173TIP3    H115525   0.531   1.321   1.216
 5173TIP3    H215526   0.668   1.371   1.257
 5174TIP3   OH215527   2.073   4.434   3.996
 5174TIP3    H115528   2.036   4.380   3.927
 5174TIP3    H215529   2.110   4.371   4.058
 5175TIP3   OH215530   1.042   3.921   3.147
 5175TIP3    H115531   0.988   4.001   3.150
 5175TIP3    H215532   0.985   3.853   3.183
 5176TIP3   OH215533   3.272   4.961   2.832
 5176TIP3    H115534   3.347   5.007   2.870
 5176TIP3    H215535   3.222   5.030   2.787
 5177TIP3   OH215536   6.311   4.834   2.661
 5177TIP3    H115537   6.383   4.857   2.720
 5177TIP3    H215538   6.266   4.762   2.705
 5178TIP3   OH215539   3.742   3.658   3.420
 5178TIP3    H115540   3.730   3.725   3.487
 5178TIP3    H215541   3.837   3.646   3.414
 5179TIP3   OH215542   1.678   0.245   1.864
 5179TIP3    H115543   1.748   0.240   1.799
 5179TIP3    H215544   1.638   0.158   1.861
 5180TIP3   OH215545   3.022   3.010   0.121
 5180TIP3    H115546   3.062   2.954   0.188
 5180TIP3    H215547   2.936   3.033   0.156
 5181TIP3   OH215548   5.603   5.710   4.998
 5181TIP3    H115549   5.685   5.723   5.045
 5181TIP3    H215550   5.535   5.723   5.064
 5182TIP3   OH215551   4.037   2.187   2.116
 5182TIP3    H115552   3.990   2.252   2.064
 5182TIP3    H215553   4.097   2.145   2.054
 5183TIP3   OH215554   3.238   2.852  -0.007
 5183TIP3    H115555   3.208   2.934   0.033
 5183TIP3    H215556   3.164   2.792   0.001
 5184TIP3   OH215557   4.771   3.691   3.461
 5184TIP3    H115558   4.705   3.666   3.396
 5184TIP3    H215559   4.837   3.738   3.410
 5185TIP3   OH215560   2.563   5.564   0.420
 5185TIP3    H115561   2.560   5.575   0.515
 5185TIP3    H215562   2.499   5.626   0.386
 5186TIP3   OH215563   3.640   3.711   2.835
 5186TIP3    H115564   3.681   3.766   2.902
 5186TIP3    H215565   3.556   3.685   2.873
 5187TIP3   OH215566   2.349   2.139   2.937
 5187TIP3    H115567   2.291   2.176   3.004
 5187TIP3    H215568   2.437   2.165   2.966
 5188TIP3   OH215569   5.748   0.866   0.561
 5188TIP3    H115570   5.825   0.825   0.521
 5188TIP3    H215571   5.676   0.807   0.540
 5189TIP3   OH215572   6.328   2.771   3.056
 5189TIP3    H115573   6.306   2.847   3.002
 5189TIP3    H215574   6.321   2.697   2.996
 5190TIP3   OH215575   1.686   0.669   0.286
 5190TIP3    H115576   1.643   0.597   0.240
 5190TIP3    H215577   1.727   0.628   0.363
 5191TIP3   OH215578   3.494   4.410   4.330
 5191TIP3    H115579   3.414   4.411   4.277
 5191TIP3    H215580   3.564   4.427   4.267
 5192TIP3   OH215581   3.364   1.285   1.172
 5192TIP3    H115582   3.359   1.257   1.263
 5192TIP3    H215583   3.298   1.354   1.164
 5193TIP3   OH215584   2.512   4.145   1.250
 5193TIP3    H115585   2.532   4.177   1.337
 5193TIP3    H215586   2.439   4.200   1.220
 5194TIP3   OH215587   5.832   3.522   5.063
 5194TIP3    H115588   5.740   3.529   5.038
 5194TIP3    H215589   5.840   3.435   5.101
 5195TIP3   OH215590   2.337   4.376   5.150
 5195TIP3    H115591   2.407   4.441   5.141
 5195TIP3    H215592   2.334   4.333   5.064
 5196TIP3   OH215593   4.669   4.516   4.026
 5196TIP3    H115594   4.647   4.423   4.016
 5196TIP3    H215595   4.709   4.540   3.942
 5197TIP3   OH215596   4.298   2.917   1.039
 5197TIP3    H115597   4.334   3.005   1.032
 5197TIP3    H215598   4.346   2.877   1.111
 5198TIP3   OH215599   5.230   3.638   3.446
 5198TIP3    H115600   5.276   3.687   3.377
 5198TIP3    H215601   5.194   3.562   3.400
 5199TIP3   OH215602   4.584   4.657   1.226
 5199TIP3    H115603   4.640   4.604   1.284
 5199TIP3    H215604   4.511   4.685   1.282
 5200TIP3   OH215605   1.144   2.209   3.971
 5200TIP3    H115606   1.120   2.179   3.884
 5200TIP3    H215607   1.116   2.301   3.973
 5201TIP3   OH215608   3.555   0.041   3.904
 5201TIP3    H115609   3.605   0.000   3.974
 5201TIP3    H215610   3.615   0.041   3.829
 5202TIP3   OH215611   0.224   4.800   1.087
 5202TIP3    H115612   0.289   4.783   1.155
 5202TIP3    H215613   0.149   4.746   1.111
 5203TIP3   OH215614   0.536   4.523   0.421
 5203TIP3    H115615   0.585   4.475   0.354
 5203TIP3    H215616   0.567   4.613   0.413
 5204TIP3   OH215617   5.534   0.189   4.313
 5204TIP3    H115618   5.443   0.203   4.285
 5204TIP3    H215619   5.580   0.268   4.286
 5205TIP3   OH215620   3.792   1.938   1.048
 5205TIP3    H115621   3.782   1.842   1.052
 5205TIP3    H215622   3.770   1.961   0.958
 5206TIP3   OH215623   3.375   4.815   4.255
 5206TIP3    H115624   3.324   4.737   4.277
 5206TIP3    H215625   3.310   4.883   4.241
 5207TIP3   OH215626   1.654   5.292   3.640
 5207TIP3    H115627   1.620   5.350   3.572
 5207TIP3    H215628   1.710   5.348   3.694
 5208TIP3   OH215629   4.651   2.541   1.205
 5208TIP3    H115630   4.589   2.484   1.250
 5208TIP3    H215631   4.711   2.481   1.161
 5209TIP3   OH215632   2.407   4.864   5.131
 5209TIP3    H115633   2.346   4.930   5.097
 5209TIP3    H215634   2.442   4.903   5.211
 5210TIP3   OH215635   3.422   5.345   3.847
 5210TIP3    H115636   3.331   5.317   3.833
 5210TIP3    H215637   3.472   5.297   3.781
 5211TIP3   OH215638   4.009   5.804   1.796
 5211TIP3    H115639   3.915   5.825   1.802
 5211TIP3    H215640   4.048   5.883   1.758
 5212TIP3   OH215641   2.443   1.736   4.927
 5212TIP3    H115642   2.474   1.808   4.872
 5212TIP3    H215643   2.423   1.777   5.011
 5213TIP3   OH215644   4.253   3.954   3.990
 5213TIP3    H115645   4.240   4.033   4.043
 5213TIP3    H215646   4.242   3.983   3.900
 5214TIP3   OH215647   0.108   1.718   2.192
 5214TIP3    H115648   0.025   1.670   2.200
 5214TIP3    H215649   0.172   1.660   2.233
 5215TIP3   OH215650   5.426   5.139   4.557
 5215TIP3    H115651   5.400   5.055   4.595
 5215TIP3    H215652   5.405   5.203   4.625
 5216TIP3   OH215653   3.134   1.939   5.058
 5216TIP3    H115654   3.197   1.943   5.129
 5216TIP3    H215655   3.078   1.865   5.079
 5217TIP3   OH215656   1.202   0.374   3.043
 5217TIP3    H115657   1.139   0.349   3.110
 5217TIP3    H215658   1.198   0.305   2.978
 5218TIP3   OH215659   4.848   1.433   2.998
 5218TIP3    H115660   4.793   1.469   3.068
 5218TIP3    H215661   4.848   1.339   3.013
 5219TIP3   OH215662   1.056   2.163   4.999
 5219TIP3    H115663   1.121   2.216   4.952
 5219TIP3    H215664   1.013   2.224   5.058
 5220TIP3   OH215665   4.269   2.862   0.210
 5220TIP3    H115666   4.354   2.820   0.219
 5220TIP3    H215667   4.242   2.882   0.299
 5221TIP3   OH215668   1.423   5.421   4.039
 5221TIP3    H115669   1.471   5.504   4.037
 5221TIP3    H215670   1.374   5.420   3.957
 5222TIP3   OH215671   1.941   4.388   1.875
 5222TIP3    H115672   2.020   4.437   1.850
 5222TIP3    H215673   1.974   4.302   1.902
 5223TIP3   OH215674   3.131   4.383   3.691
 5223TIP3    H115675   3.163   4.296   3.717
 5223TIP3    H215676   3.103   4.424   3.772
 5224TIP3   OH215677   0.237   5.188   4.532
 5224TIP3    H115678   0.242   5.253   4.462
 5224TIP3    H215679   0.253   5.104   4.488
 5225TIP3   OH215680   5.070   2.779   1.004
 5225TIP3    H115681   5.096   2.861   0.961
 5225TIP3    H215682   5.033   2.807   1.088
 5226TIP3   OH215683   3.067   2.935   3.375
 5226TIP3    H115684   3.147   2.953   3.325
 5226TIP3    H215685   3.081   2.847   3.411
 5227TIP3   OH215686   5.790   2.085   1.187
 5227TIP3    H115687   5.705   2.128   1.178
 5227TIP3    H215688   5.854   2.156   1.192
 5228TIP3   OH215689   3.204   5.785   3.171
 5228TIP3    H115690   3.208   5.746   3.258
 5228TIP3    H215691   3.121   5.753   3.135
 5229TIP3   OH215692   0.276   5.754   2.503
 5229TIP3    H115693   0.348   5.697   2.531
 5229TIP3    H215694   0.197   5.708   2.531
 5230TIP3   OH215695   5.534   1.065   4.836
 5230TIP3    H115696   5.568   0.992   4.887
 5230TIP3    H215697   5.590   1.139   4.860
 5231TIP3   OH215698   1.597   5.999   3.661
 5231TIP3    H115699   1.622   5.907   3.657
 5231TIP3    H215700   1.567   6.020   3.573
 5232TIP3   OH215701   5.256   0.235   3.509
 5232TIP3    H115702   5.191   0.281   3.456
 5232TIP3    H215703   5.206   0.169   3.557
 5233TIP3   OH215704   5.890   2.908   4.822
 5233TIP3    H115705   5.905   2.957   4.903
 5233TIP3    H215706   5.866   2.974   4.758
 5234TIP3   OH215707   1.754   4.646   1.145
 5234TIP3    H115708   1.757   4.564   1.095
 5234TIP3    H215709   1.842   4.654   1.182
 5235TIP3   OH215710   4.574   0.714   1.438
 5235TIP3    H115711   4.479   0.702   1.430
 5235TIP3    H215712   4.607   0.629   1.466
 5236TIP3   OH215713   4.297   4.818   2.656
 5236TIP3    H115714   4.259   4.905   2.670
 5236TIP3    H215715   4.387   4.836   2.629
 5237TIP3   OH215716   0.208   1.446   0.906
 5237TIP3    H115717   0.215   1.376   0.841
 5237TIP3    H215718   0.128   1.426   0.955
 5238TIP3   OH215719   6.339   4.344   1.372
 5238TIP3    H115720   6.379   4.266   1.331
 5238TIP3    H215721   6.254   4.351   1.330
 5239TIP3   OH215722   0.547   3.052   0.583
 5239TIP3    H115723   0.505   3.127   0.624
 5239TIP3    H215724   0.508   2.976   0.627
 5240TIP3   OH215725   4.394   2.451   2.117
 5240TIP3    H115726   4.385   2.419   2.027
 5240TIP3    H215727   4.468   2.402   2.153
 5241TIP3   OH215728   5.372   0.212   3.099
 5241TIP3    H115729   5.454   0.252   3.071
 5241TIP3    H215730   5.374   0.124   3.062
 5242TIP3   OH215731   2.255   4.949   2.516
 5242TIP3    H115732   2.253   5.017   2.584
 5242TIP3    H215733   2.165   4.946   2.483
 5243TIP3   OH215734   4.454   5.353   3.701
 5243TIP3    H115735   4.463   5.419   3.632
 5243TIP3    H215736   4.543   5.320   3.714
 5244TIP3   OH215737   3.076   4.107   0.972
 5244TIP3    H115738   3.022   4.076   0.900
 5244TIP3    H215739   3.071   4.203   0.966
 5245TIP3   OH215740   0.746   4.784   1.325
 5245TIP3    H115741   0.733   4.835   1.405
 5245TIP3    H215742   0.701   4.833   1.257
 5246TIP3   OH215743   1.439   0.765   1.654
 5246TIP3    H115744   1.406   0.851   1.682
 5246TIP3    H215745   1.444   0.714   1.734
 5247TIP3   OH215746   1.747   3.664   2.511
 5247TIP3    H115747   1.691   3.693   2.583
 5247TIP3    H215748   1.836   3.679   2.543
 5248TIP3   OH215749   4.750   0.491   3.293
 5248TIP3    H115750   4.749   0.491   3.389
 5248TIP3    H215751   4.838   0.518   3.269
 5249TIP3   OH215752   3.025   3.922   0.508
 5249TIP3    H115753   3.059   3.907   0.420
 5249TIP3    H215754   2.972   3.844   0.526
 5250TIP3   OH215755   4.869   5.638   4.424
 5250TIP3    H115756   4.835   5.621   4.512
 5250TIP3    H215757   4.797   5.616   4.365
 5251TIP3   OH215758   2.696   5.414   4.166
 5251TIP3    H115759   2.649   5.342   4.207
 5251TIP3    H215760   2.782   5.414   4.208
 5252TIP3   OH215761   5.062   0.278   0.815
 5252TIP3    H115762   5.102   0.358   0.850
 5252TIP3    H215763   4.983   0.309   0.770
 5253TIP3   OH215764   4.293   1.514   3.713
 5253TIP3    H115765   4.318   1.475   3.629
 5253TIP3    H215766   4.345   1.595   3.718
 5254TIP3   OH215767   4.404   4.467   4.320
 5254TIP3    H115768   4.464   4.406   4.277
 5254TIP3    H215769   4.397   4.541   4.259
 5255TIP3   OH215770   1.982   5.266   0.110
 5255TIP3    H115771   2.038   5.231   0.179
 5255TIP3    H215772   2.028   5.345   0.081
 5256TIP3   OH215773  -0.005   5.496   4.839
 5256TIP3    H115774   0.004   5.500   4.934
 5256TIP3    H215775   0.071   5.446   4.810
 5257TIP3   OH215776   1.304   0.237   3.412
 5257TIP3    H115777   1.279   0.203   3.326
 5257TIP3    H215778   1.221   0.258   3.455
 5258TIP3   OH215779   3.010   5.097   0.818
 5258TIP3    H115780   3.070   5.043   0.766
 5258TIP3    H215781   3.026   5.186   0.787
 5259TIP3   OH215782   3.887   1.012   4.844
 5259TIP3    H115783   3.940   0.932   4.836
 5259TIP3    H215784   3.932   1.076   4.790
 5260TIP3   OH215785   0.723   4.494   3.048
 5260TIP3    H115786   0.692   4.531   2.965
 5260TIP3    H215787   0.718   4.568   3.110
 5261TIP3   OH215788   3.083   4.937   1.463
 5261TIP3    H115789   3.093   5.030   1.443
 5261TIP3    H215790   3.161   4.896   1.424
 5262TIP3   OH215791   1.933   4.064   0.887
 5262TIP3    H115792   1.879   4.039   0.813
 5262TIP3    H215793   1.938   3.985   0.941
 5263TIP3   OH215794   3.329   0.773   2.930
 5263TIP3    H115795   3.317   0.742   2.841
 5263TIP3    H215796   3.241   0.801   2.958
 5264TIP3   OH215797   1.787   0.395   2.311
 5264TIP3    H115798   1.878   0.370   2.323
 5264TIP3    H215799   1.787   0.490   2.322
 5265TIP3   OH215800   1.435   2.103   3.571
 5265TIP3    H115801   1.517   2.088   3.617
 5265TIP3    H215802   1.461   2.115   3.479
 5266TIP3   OH215803   2.070   4.897   0.102
 5266TIP3    H115804   2.000   4.947   0.144
 5266TIP3    H215805   2.092   4.829   0.166
 5267TIP3   OH215806   1.517   3.435   4.005
 5267TIP3    H115807   1.551   3.462   4.090
 5267TIP3    H215808   1.504   3.340   4.014
 5268TIP3   OH215809   1.064   2.326   3.618
 5268TIP3    H115810   1.089   2.259   3.554
 5268TIP3    H215811   0.974   2.304   3.642
 5269TIP3   OH215812   3.940   3.401   2.729
 5269TIP3    H115813   3.867   3.342   2.748
 5269TIP3    H215814   3.898   3.485   2.710
 5270TIP3   OH215815   1.858   0.781   1.454
 5270TIP3    H115816   1.942   0.768   1.498
 5270TIP3    H215817   1.795   0.795   1.525
 5271TIP3   OH215818   2.132   2.875   4.753
 5271TIP3    H115819   2.215   2.836   4.778
 5271TIP3    H215820   2.113   2.839   4.667
 5272TIP3   OH215821   3.986   2.843   1.232
 5272TIP3    H115822   3.989   2.802   1.319
 5272TIP3    H215823   4.036   2.783   1.176
 5273TIP3   OH215824   1.745   3.722   1.597
 5273TIP3    H115825   1.759   3.645   1.653
 5273TIP3    H215826   1.657   3.753   1.621
 5274TIP3   OH215827   2.078   1.129   3.881
 5274TIP3    H115828   2.055   1.076   3.805
 5274TIP3    H215829   2.057   1.218   3.855
 5275TIP3   OH215830   0.045   4.801   3.433
 5275TIP3    H115831   0.022   4.718   3.475
 5275TIP3    H215832   0.074   4.776   3.345
 5276TIP3   OH215833   2.220   4.180   0.436
 5276TIP3    H115834   2.151   4.120   0.463
 5276TIP3    H215835   2.180   4.266   0.440
 5277TIP3   OH215836   4.419   5.552   0.823
 5277TIP3    H115837   4.437   5.484   0.758
 5277TIP3    H215838   4.493   5.612   0.816
 5278TIP3   OH215839   4.138   1.365   2.627
 5278TIP3    H115840   4.158   1.454   2.655
 5278TIP3    H215841   4.204   1.311   2.670
 5279TIP3   OH215842   0.395   0.670   1.878
 5279TIP3    H115843   0.430   0.701   1.961
 5279TIP3    H215844   0.365   0.581   1.897
 5280TIP3   OH215845   3.481   0.930   4.702
 5280TIP3    H115846   3.455   0.882   4.781
 5280TIP3    H215847   3.568   0.965   4.724
 5281TIP3   OH215848   4.202   4.116   1.444
 5281TIP3    H115849   4.201   4.112   1.540
 5281TIP3    H215850   4.144   4.189   1.422
 5282TIP3   OH215851   1.750   4.164   3.980
 5282TIP3    H115852   1.804   4.201   3.909
 5282TIP3    H215853   1.693   4.101   3.936
 5283TIP3   OH215854   4.661   4.750   0.211
 5283TIP3    H115855   4.755   4.767   0.210
 5283TIP3    H215856   4.651   4.664   0.170
 5284TIP3   OH215857   4.517   3.500   4.257
 5284TIP3    H115858   4.499   3.425   4.201
 5284TIP3    H215859   4.463   3.485   4.335
 5285TIP3   OH215860   3.873   4.974   0.637
 5285TIP3    H115861   3.781   4.961   0.660
 5285TIP3    H215862   3.879   5.067   0.614
 5286TIP3   OH215863   2.160   4.202   0.875
 5286TIP3    H115864   2.134   4.284   0.833
 5286TIP3    H215865   2.078   4.162   0.903
 5287TIP3   OH215866   1.466   0.804   0.864
 5287TIP3    H115867   1.457   0.807   0.960
 5287TIP3    H215868   1.559   0.821   0.849
 5288TIP3   OH215869   4.086   3.405   4.280
 5288TIP3    H115870   4.073   3.410   4.185
 5288TIP3    H215871   4.097   3.496   4.307
 5289TIP3   OH215872   3.519   5.049   4.664
 5289TIP3    H115873   3.530   4.979   4.599
 5289TIP3    H215874   3.520   5.130   4.612
 5290TIP3   OH215875   1.701   3.108   4.609
 5290TIP3    H115876   1.732   3.017   4.607
 5290TIP3    H215877   1.679   3.128   4.518
 5291TIP3   OH215878   5.650   2.667   2.395
 5291TIP3    H115879   5.609   2.683   2.479
 5291TIP3    H215880   5.581   2.686   2.331
 5292TIP3   OH215881   2.950   1.562   1.380
 5292TIP3    H115882   2.934   1.611   1.299
 5292TIP3    H215883   2.889   1.600   1.443
 5293TIP3   OH215884   2.935   1.292   2.597
 5293TIP3    H115885   2.881   1.292   2.675
 5293TIP3    H215886   2.989   1.371   2.604
 5294TIP3   OH215887   2.444   3.011   2.125
 5294TIP3    H115888   2.526   3.058   2.132
 5294TIP3    H215889   2.383   3.073   2.085
 5295TIP3   OH215890   2.094   4.235   4.212
 5295TIP3    H115891   2.007   4.200   4.233
 5295TIP3    H215892   2.112   4.297   4.283
 5296TIP3   OH215893   0.337   2.268   3.629
 5296TIP3    H115894   0.268   2.203   3.618
 5296TIP3    H215895   0.412   2.232   3.582
 5297TIP3   OH215896   3.912   3.365   4.677
 5297TIP3    H115897   3.940   3.277   4.652
 5297TIP3    H215898   3.937   3.420   4.603
 5298TIP3   OH215899   3.165   4.984   3.605
 5298TIP3    H115900   3.248   4.986   3.654
 5298TIP3    H215901   3.108   4.928   3.657
 5299TIP3   OH215902   5.256   5.306   2.476
 5299TIP3    H115903   5.246   5.326   2.569
 5299TIP3    H215904   5.312   5.228   2.474
 5300TIP3   OH215905   2.414   5.960   0.735
 5300TIP3    H115906   2.466   6.004   0.668
 5300TIP3    H215907   2.450   5.991   0.818
 5301TIP3   OH215908   0.394   2.310   1.356
 5301TIP3    H115909   0.488   2.317   1.343
 5301TIP3    H215910   0.356   2.317   1.269
 5302TIP3   OH215911   4.257   5.883   1.167
 5302TIP3    H115912   4.332   5.941   1.176
 5302TIP3    H215913   4.294   5.795   1.171
 5303TIP3   OH215914   3.457   4.180   3.973
 5303TIP3    H115915   3.490   4.196   3.885
 5303TIP3    H215916   3.362   4.185   3.964
 5304TIP3   OH215917   4.953   1.674   2.538
 5304TIP3    H115918   4.867   1.698   2.503
 5304TIP3    H215919   4.935   1.607   2.604
 5305TIP3   OH215920   5.208   4.762   2.337
 5305TIP3    H115921   5.261   4.682   2.337
 5305TIP3    H215922   5.127   4.736   2.381
 5306TIP3   OH215923   2.497   3.180   3.549
 5306TIP3    H115924   2.585   3.184   3.586
 5306TIP3    H215925   2.511   3.162   3.456
 5307TIP3   OH215926   1.122   0.813   0.132
 5307TIP3    H115927   1.201   0.772   0.168
 5307TIP3    H215928   1.099   0.758   0.057
 5308TIP3   OH215929   5.440   0.812   3.263
 5308TIP3    H115930   5.382   0.829   3.337
 5308TIP3    H215931   5.473   0.898   3.238
 5309TIP3   OH215932   3.859   5.028   2.264
 5309TIP3    H115933   3.864   5.117   2.299
 5309TIP3    H215934   3.860   4.972   2.341
 5310TIP3   OH215935   5.422   1.715   4.516
 5310TIP3    H115936   5.332   1.683   4.510
 5310TIP3    H215937   5.424   1.766   4.597
 5311TIP3   OH215938   2.392   2.519   1.311
 5311TIP3    H115939   2.459   2.547   1.248
 5311TIP3    H215940   2.440   2.506   1.393
 5312TIP3   OH215941   4.509   0.401   4.231
 5312TIP3    H115942   4.547   0.371   4.149
 5312TIP3    H215943   4.416   0.414   4.212
 5313TIP3   OH215944   0.090   2.199   1.694
 5313TIP3    H115945   0.027   2.127   1.693
 5313TIP3    H215946   0.077   2.244   1.610
 5314TIP3   OH215947   3.309   4.793   1.345
 5314TIP3    H115948   3.361   4.714   1.357
 5314TIP3    H215949   3.365   4.851   1.294
 5315TIP3   OH215950   5.813   0.657   3.158
 5315TIP3    H115951   5.740   0.644   3.218
 5315TIP3    H215952   5.827   0.571   3.118
 5316TIP3   OH215953   2.701   3.150   3.857
 5316TIP3    H115954   2.651   3.219   3.902
 5316TIP3    H215955   2.737   3.194   3.780
 5317TIP3   OH215956   2.885   5.412   0.112
 5317TIP3    H115957   2.846   5.325   0.120
 5317TIP3    H215958   2.965   5.397   0.062
 5318TIP3   OH215959   2.246   1.432   2.419
 5318TIP3    H115960   2.307   1.505   2.409
 5318TIP3    H215961   2.257   1.380   2.340
 5319TIP3   OH215962   4.058   4.219   3.240
 5319TIP3    H115963   4.054   4.253   3.330
 5319TIP3    H215964   4.031   4.127   3.248
 5320TIP3   OH215965   4.098   4.564   3.685
 5320TIP3    H115966   4.193   4.579   3.680
 5320TIP3    H215967   4.062   4.620   3.616
 5321TIP3   OH215968   1.394   4.198   1.129
 5321TIP3    H115969   1.334   4.206   1.055
 5321TIP3    H215970   1.440   4.115   1.113
 5322TIP3   OH215971   1.531   2.344   4.983
 5322TIP3    H115972   1.494   2.278   4.925
 5322TIP3    H215973   1.568   2.293   5.055
 5323TIP3   OH215974   4.618   0.300   3.988
 5323TIP3    H115975   4.582   0.239   3.924
 5323TIP3    H215976   4.690   0.251   4.029
 5324TIP3   OH215977   5.621   4.217   3.607
 5324TIP3    H115978   5.607   4.134   3.652
 5324TIP3    H215979   5.542   4.229   3.554
 5325TIP3   OH215980   3.091   3.066   2.066
 5325TIP3    H115981   3.159   3.132   2.082
 5325TIP3    H215982   3.026   3.082   2.134
 5326TIP3   OH215983   4.272   3.126   3.416
 5326TIP3    H115984   4.247   3.034   3.432
 5326TIP3    H215985   4.205   3.159   3.356
 5327TIP3   OH215986   1.583   1.987   0.793
 5327TIP3    H115987   1.622   1.927   0.857
 5327TIP3    H215988   1.491   1.962   0.791
 5328TIP3   OH215989   2.507   1.742   1.656
 5328TIP3    H115990   2.485   1.829   1.623
 5328TIP3    H215991   2.533   1.756   1.747
 5329TIP3   OH215992   3.634   3.463   2.566
 5329TIP3    H115993   3.643   3.505   2.481
 5329TIP3    H215994   3.693   3.512   2.624
 5330TIP3   OH215995   4.095   1.823   2.796
 5330TIP3    H115996   4.028   1.817   2.864
 5330TIP3    H215997   4.141   1.905   2.816
 5331TIP3   OH215998   3.087   5.674   5.002
 5331TIP3    H115999   3.087   5.761   5.041
 5331TIP3    H216000   2.995   5.655   4.984
 5332TIP3   OH216001   0.141   2.517   2.022
 5332TIP3    H116002   0.046   2.512   2.012
 5332TIP3    H216003   0.172   2.429   2.003
 5333TIP3   OH216004   2.907   0.985   3.991
 5333TIP3    H116005   2.900   0.894   4.022
 5333TIP3    H216006   2.958   0.979   3.910
 5334TIP3   OH216007   3.487   1.587   1.952
 5334TIP3    H116008   3.539   1.558   1.877
 5334TIP3    H216009   3.512   1.678   1.964
 5335TIP3   OH216010   2.467   5.426   1.163
 5335TIP3    H116011   2.487   5.374   1.085
 5335TIP3    H216012   2.550   5.435   1.209
 5336TIP3   OH216013   2.832   5.915   1.113
 5336TIP3    H116014   2.824   6.003   1.151
 5336TIP3    H216015   2.754   5.869   1.143
 5337TIP3   OH216016   2.290   1.911   1.308
 5337TIP3    H116017   2.300   1.816   1.318
 5337TIP3    H216018   2.378   1.942   1.287
 5338TIP3   OH216019   3.942   0.626   3.830
 5338TIP3    H116020   3.913   0.585   3.912
 5338TIP3    H216021   4.017   0.573   3.803
 5339TIP3   OH216022   5.136   5.024   3.599
 5339TIP3    H116023   5.071   4.966   3.559
 5339TIP3    H216024   5.214   4.969   3.608
 5340TIP3   OH216025   3.158   5.650   3.732
 5340TIP3    H116026   3.160   5.580   3.798
 5340TIP3    H216027   3.232   5.706   3.755
 5341TIP3   OH216028   4.816   5.800   3.233
 5341TIP3    H116029   4.886   5.736   3.240
 5341TIP3    H216030   4.769   5.776   3.153
 5342TIP3   OH216031   2.825   4.618   3.724
 5342TIP3    H116032   2.748   4.632   3.779
 5342TIP3    H216033   2.831   4.523   3.714
 5343TIP3   OH216034   0.260   1.190   4.625
 5343TIP3    H116035   0.203   1.229   4.691
 5343TIP3    H216036   0.210   1.194   4.544
 5344TIP3   OH216037   2.792   5.953   0.582
 5344TIP3    H116038   2.838   5.875   0.552
 5344TIP3    H216039   2.791   5.945   0.678
 5345TIP3   OH216040   4.769   3.898   4.921
 5345TIP3    H116041   4.857   3.913   4.956
 5345TIP3    H216042   4.781   3.890   4.827
 5346TIP3   OH216043   0.763   5.477   2.650
 5346TIP3    H116044   0.744   5.542   2.718
 5346TIP3    H216045   0.839   5.511   2.604
 5347TIP3   OH216046   0.295   4.768   3.839
 5347TIP3    H116047   0.335   4.770   3.926
 5347TIP3    H216048   0.201   4.763   3.857
 5348TIP3   OH216049   2.360   4.391   0.688
 5348TIP3    H116050   2.382   4.441   0.766
 5348TIP3    H216051   2.264   4.395   0.684
 5349TIP3   OH216052   1.099   2.169   3.406
 5349TIP3    H116053   1.119   2.257   3.374
 5349TIP3    H216054   1.133   2.110   3.338
 5350TIP3   OH216055   3.491   5.979   0.668
 5350TIP3    H116056   3.455   6.017   0.748
 5350TIP3    H216057   3.415   5.941   0.623
 5351TIP3   OH216058   2.028   2.526   4.858
 5351TIP3    H116059   2.120   2.553   4.858
 5351TIP3    H216060   2.023   2.460   4.790
 5352TIP3   OH216061   3.533   3.576   3.997
 5352TIP3    H116062   3.494   3.580   4.084
 5352TIP3    H216063   3.609   3.518   4.008
 5353TIP3   OH216064   4.929   4.929   3.268
 5353TIP3    H116065   4.909   4.850   3.216
 5353TIP3    H216066   5.020   4.950   3.245
 5354TIP3   OH216067   4.677   2.068   2.223
 5354TIP3    H116068   4.590   2.093   2.253
 5354TIP3    H216069   4.714   2.018   2.296
 5355TIP3   OH216070   1.000   5.974   4.019
 5355TIP3    H116071   0.925   5.926   3.983
 5355TIP3    H216072   1.061   5.980   3.947
 5356TIP3   OH216073   2.691   2.919   3.164
 5356TIP3    H116074   2.692   2.867   3.244
 5356TIP3    H216075   2.783   2.932   3.142
 5357TIP3   OH216076   0.426   5.257   4.310
 5357TIP3    H116077   0.350   5.316   4.312
 5357TIP3    H216078   0.498   5.312   4.279
 5358TIP3   OH216079   2.811   1.259   2.336
 5358TIP3    H116080   2.720   1.240   2.359
 5358TIP3    H216081   2.846   1.306   2.411
 5359TIP3   OH216082   4.394   4.363   1.907
 5359TIP3    H116083   4.324   4.407   1.859
 5359TIP3    H216084   4.350   4.291   1.953
 5360TIP3   OH216085   4.473   2.165   0.208
 5360TIP3    H116086   4.477   2.079   0.168
 5360TIP3    H216087   4.547   2.213   0.170
 5361TIP3   OH216088   5.466   5.822   0.811
 5361TIP3    H116089   5.529   5.751   0.798
 5361TIP3    H216090   5.521   5.899   0.827
 5362TIP3   OH216091   4.660   1.889   1.031
 5362TIP3    H116092   4.682   1.975   0.994
 5362TIP3    H216093   4.640   1.907   1.123
 5363TIP3   OH216094   3.026   4.011   1.540
 5363TIP3    H116095   3.022   4.078   1.472
 5363TIP3    H216096   2.972   4.045   1.611
 5364TIP3   OH216097   4.273   4.020   3.210
 5364TIP3    H116098   4.363   4.048   3.230
 5364TIP3    H216099   4.280   3.926   3.195
 5365TIP3   OH216100   2.012   5.605   2.757
 5365TIP3    H116101   1.986   5.631   2.668
 5365TIP3    H216102   2.108   5.613   2.757
 5366TIP3   OH216103   3.303   0.092   3.819
 5366TIP3    H116104   3.374   0.071   3.880
 5366TIP3    H216105   3.293   0.187   3.827
 5367TIP3   OH216106   2.064   1.333   2.174
 5367TIP3    H116107   2.154   1.347   2.144
 5367TIP3    H216108   2.027   1.421   2.182
 5368TIP3   OH216109   3.992   5.404   0.878
 5368TIP3    H116110   4.002   5.311   0.899
 5368TIP3    H216111   4.062   5.421   0.815
 5369TIP3   OH216112   0.490   5.867   3.190
 5369TIP3    H116113   0.575   5.867   3.236
 5369TIP3    H216114   0.426   5.846   3.258
 5370TIP3   OH216115   3.325   2.723   4.149
 5370TIP3    H116116   3.349   2.783   4.220
 5370TIP3    H216117   3.251   2.765   4.106
 5371TIP3   OH216118   0.479   0.242   4.220
 5371TIP3    H116119   0.570   0.213   4.228
 5371TIP3    H216120   0.486   0.334   4.195
 5372TIP3   OH216121   5.784   2.619   5.083
 5372TIP3    H116122   5.847   2.585   5.145
 5372TIP3    H216123   5.826   2.610   4.997
 5373TIP3   OH216124   1.654   1.348   4.371
 5373TIP3    H116125   1.655   1.433   4.327
 5373TIP3    H216126   1.746   1.329   4.389
 5374TIP3   OH216127   0.398   3.605   0.063
 5374TIP3    H116128   0.443   3.521   0.054
 5374TIP3    H216129   0.306   3.582   0.074
 5375TIP3   OH216130   2.731   3.250   0.210
 5375TIP3    H116131   2.787   3.312   0.256
 5375TIP3    H216132   2.670   3.218   0.277
 5376TIP3   OH216133   3.234   4.468   4.178
 5376TIP3    H116134   3.187   4.397   4.221
 5376TIP3    H216135   3.173   4.501   4.112
 5377TIP3   OH216136   4.848   4.102   1.486
 5377TIP3    H116137   4.851   4.197   1.489
 5377TIP3    H216138   4.787   4.077   1.555
 5378TIP3   OH216139   6.107   4.449   0.990
 5378TIP3    H116140   6.106   4.422   1.082
 5378TIP3    H216141   6.185   4.408   0.953
 5379TIP3   OH216142   5.647   3.701   1.121
 5379TIP3    H116143   5.576   3.731   1.063
 5379TIP3    H216144   5.672   3.615   1.085
 5380TIP3   OH216145   5.386   5.672   0.120
 5380TIP3    H116146   5.337   5.754   0.124
 5380TIP3    H216147   5.319   5.604   0.124
 5381TIP3   OH216148   4.631   3.639   1.314
 5381TIP3    H116149   4.552   3.665   1.361
 5381TIP3    H216150   4.669   3.569   1.367
 5382TIP3   OH216151   2.317   0.213   1.389
 5382TIP3    H116152   2.236   0.163   1.394
 5382TIP3    H216153   2.375   0.160   1.333
 5383TIP3   OH216154   0.888   1.748   4.307
 5383TIP3    H116155   0.795   1.762   4.291
 5383TIP3    H216156   0.893   1.664   4.351
 5384TIP3   OH216157   4.137   5.199   1.991
 5384TIP3    H116158   4.110   5.113   1.958
 5384TIP3    H216159   4.206   5.180   2.054
 5385TIP3   OH216160   3.890   5.613   2.033
 5385TIP3    H116161   3.949   5.647   1.966
 5385TIP3    H216162   3.937   5.625   2.116
 5386TIP3   OH216163   5.359   1.144   4.243
 5386TIP3    H116164   5.452   1.120   4.238
 5386TIP3    H216165   5.357   1.217   4.305
 5387TIP3   OH216166   6.025   1.300   3.230
 5387TIP3    H116167   5.973   1.345   3.163
 5387TIP3    H216168   6.099   1.263   3.183
 5388TIP3   OH216169   1.420   5.537   2.084
 5388TIP3    H116170   1.476   5.498   2.151
 5388TIP3    H216171   1.364   5.464   2.056
 5389TIP3   OH216172   6.223   3.534   2.005
 5389TIP3    H116173   6.180   3.620   2.000
 5389TIP3    H216174   6.312   3.549   1.974
 5390TIP3   OH216175   2.467   0.484   0.621
 5390TIP3    H116176   2.474   0.425   0.545
 5390TIP3    H216177   2.432   0.565   0.585
 5391TIP3   OH216178   2.311   2.647   4.265
 5391TIP3    H116179   2.304   2.556   4.295
 5391TIP3    H216180   2.253   2.652   4.189
 5392TIP3   OH216181   2.332   1.744   2.398
 5392TIP3    H116182   2.242   1.739   2.430
 5392TIP3    H216183   2.329   1.804   2.324
 5393TIP3   OH216184   1.965   4.678   1.978
 5393TIP3    H116185   1.998   4.663   1.890
 5393TIP3    H216186   1.896   4.612   1.990
 5394TIP3   OH216187   2.216   1.812   3.398
 5394TIP3    H116188   2.145   1.859   3.353
 5394TIP3    H216189   2.172   1.765   3.469
 5395TIP3   OH216190   6.135   4.074   2.360
 5395TIP3    H116191   6.181   4.043   2.282
 5395TIP3    H216192   6.102   4.160   2.336
 5396TIP3   OH216193   1.861   0.140   2.488
 5396TIP3    H116194   1.932   0.163   2.428
 5396TIP3    H216195   1.859   0.044   2.487
 5397TIP3   OH216196   4.086   2.036   1.638
 5397TIP3    H116197   4.126   1.963   1.592
 5397TIP3    H216198   3.995   2.037   1.606
 5398TIP3   OH216199   3.967   3.926   3.212
 5398TIP3    H116200   3.941   3.955   3.300
 5398TIP3    H216201   4.009   3.841   3.227
 5399TIP3   OH216202   1.535   0.648   3.167
 5399TIP3    H116203   1.557   0.568   3.119
 5399TIP3    H216204   1.442   0.660   3.152
 5400TIP3   OH216205   1.644   4.794   1.364
 5400TIP3    H116206   1.557   4.818   1.330
 5400TIP3    H216207   1.678   4.732   1.299
 5401TIP3   OH216208   5.046   3.173   3.451
 5401TIP3    H116209   5.051   3.082   3.425
 5401TIP3    H216210   5.000   3.172   3.535
 5402TIP3   OH216211   3.275   2.093   0.586
 5402TIP3    H116212   3.283   2.003   0.619
 5402TIP3    H216213   3.353   2.137   0.618
 5403TIP3   OH216214   3.298   3.126   3.965
 5403TIP3    H116215   3.299   3.170   3.879
 5403TIP3    H216216   3.344   3.044   3.950
 5404TIP3   OH216217   6.062   1.041   2.587
 5404TIP3    H116218   6.076   0.996   2.504
 5404TIP3    H216219   6.027   0.974   2.645
 5405TIP3   OH216220   6.234   3.192   0.588
 5405TIP3    H116221   6.158   3.251   0.588
 5405TIP3    H216222   6.207   3.119   0.643
 5406TIP3   OH216223   1.065   1.273   0.884
 5406TIP3    H116224   1.156   1.253   0.903
 5406TIP3    H216225   1.039   1.336   0.952
 5407TIP3   OH216226   3.829   3.866   4.542
 5407TIP3    H116227   3.763   3.825   4.485
 5407TIP3    H216228   3.855   3.797   4.602
 5408TIP3   OH216229   2.198   0.489   4.376
 5408TIP3    H116230   2.137   0.426   4.413
 5408TIP3    H216231   2.281   0.441   4.370
 5409TIP3   OH216232   2.992   1.975   2.703
 5409TIP3    H116233   3.008   1.896   2.755
 5409TIP3    H216234   3.080   2.008   2.683
 5410TIP3   OH216235   2.650   3.746   3.579
 5410TIP3    H116236   2.665   3.749   3.484
 5410TIP3    H216237   2.597   3.667   3.593
 5411TIP3   OH216238   1.982   4.058   0.569
 5411TIP3    H116239   1.889   4.038   0.576
 5411TIP3    H216240   2.025   3.995   0.627
 5412TIP3   OH216241   3.802   5.117   3.293
 5412TIP3    H116242   3.772   5.027   3.298
 5412TIP3    H216243   3.722   5.169   3.285
 5413TIP3   OH216244   1.947   3.219   4.610
 5413TIP3    H116245   1.860   3.184   4.631
 5413TIP3    H216246   1.970   3.177   4.528
 5414TIP3   OH216247   6.093   5.063   1.569
 5414TIP3    H116248   6.116   5.155   1.584
 5414TIP3    H216249   6.130   5.042   1.483
 5415TIP3   OH216250   1.531   3.823   2.120
 5415TIP3    H116251   1.440   3.851   2.110
 5415TIP3    H216252   1.528   3.728   2.110
 5416TIP3   OH216253   2.246   1.605   2.146
 5416TIP3    H116254   2.340   1.620   2.154
 5416TIP3    H216255   2.210   1.625   2.232
 5417TIP3   OH216256   0.950   2.037   3.145
 5417TIP3    H116257   0.990   2.107   3.093
 5417TIP3    H216258   1.010   1.963   3.135
 5418TIP3   OH216259   4.455   3.834   0.461
 5418TIP3    H116260   4.527   3.884   0.498
 5418TIP3    H216261   4.424   3.888   0.388
 5419TIP3   OH216262   3.990   1.114   4.397
 5419TIP3    H116263   3.972   1.200   4.437
 5419TIP3    H216264   3.957   1.051   4.461
 5420TIP3   OH216265   2.180   0.247   0.096
 5420TIP3    H116266   2.215   0.202   0.173
 5420TIP3    H216267   2.258   0.282   0.052
 5421TIP3   OH216268   4.282   3.036   0.652
 5421TIP3    H116269   4.217   3.040   0.722
 5421TIP3    H216270   4.366   3.029   0.697
 5422TIP3   OH216271   3.863   2.899   0.147
 5422TIP3    H116272   3.779   2.854   0.152
 5422TIP3    H216273   3.887   2.915   0.238
 5423TIP3   OH216274   2.354   5.379   1.640
 5423TIP3    H116275   2.345   5.384   1.545
 5423TIP3    H216276   2.446   5.361   1.655
 5424TIP3   OH216277   2.520   2.999   0.106
 5424TIP3    H116278   2.572   2.921   0.125
 5424TIP3    H216279   2.441   2.966   0.063
 5425TIP3   OH216280   0.926   5.874   4.855
 5425TIP3    H116281   0.927   5.839   4.944
 5425TIP3    H216282   0.835   5.871   4.828
 5426TIP3   OH216283   4.658   3.110   1.654
 5426TIP3    H116284   4.612   3.065   1.725
 5426TIP3    H216285   4.738   3.144   1.695
 5427TIP3   OH216286   1.254   0.940   0.747
 5427TIP3    H116287   1.323   0.885   0.784
 5427TIP3    H216288   1.182   0.932   0.809
 5428TIP3   OH216289   5.251   0.374   2.454
 5428TIP3    H116290   5.163   0.362   2.419
 5428TIP3    H216291   5.242   0.442   2.521
 5429TIP3   OH216292   5.959   2.762   1.447
 5429TIP3    H116293   5.930   2.780   1.357
 5429TIP3    H216294   5.887   2.793   1.502
 5430TIP3   OH216295   0.540   1.272   2.307
 5430TIP3    H116296   0.614   1.303   2.360
 5430TIP3    H216297   0.573   1.271   2.218
 5431TIP3   OH216298   3.033   2.376   2.060
 5431TIP3    H116299   3.065   2.441   2.123
 5431TIP3    H216300   3.058   2.292   2.096
 5432TIP3   OH216301   4.221   2.751   4.610
 5432TIP3    H116302   4.299   2.710   4.648
 5432TIP3    H216303   4.212   2.834   4.656
 5433TIP3   OH216304   3.610   0.301   3.174
 5433TIP3    H116305   3.515   0.293   3.174
 5433TIP3    H216306   3.636   0.286   3.084
 5434TIP3   OH216307   5.932   3.629   1.228
 5434TIP3    H116308   5.875   3.561   1.263
 5434TIP3    H216309   5.957   3.682   1.304
 5435TIP3   OH216310   4.925   5.935   4.792
 5435TIP3    H116311   4.948   5.959   4.703
 5435TIP3    H216312   4.840   5.974   4.807
 5436TIP3   OH216313   0.026   0.731   2.454
 5436TIP3    H116314   0.033   0.789   2.378
 5436TIP3    H216315   0.068   0.650   2.427
 5437TIP3   OH216316   2.073   4.773   2.243
 5437TIP3    H116317   2.021   4.756   2.165
 5437TIP3    H216318   2.164   4.773   2.213
 5438TIP3   OH216319   6.279   5.606   4.319
 5438TIP3    H116320   6.369   5.640   4.310
 5438TIP3    H216321   6.269   5.590   4.412
 5439TIP3   OH216322   3.059   3.550   0.342
 5439TIP3    H116323   3.100   3.635   0.356
 5439TIP3    H216324   3.099   3.517   0.261
 5440TIP3   OH216325   6.026   0.359   4.598
 5440TIP3    H116326   6.012   0.389   4.688
 5440TIP3    H216327   6.107   0.309   4.602
 5441TIP3   OH216328   3.551   2.920   2.181
 5441TIP3    H116329   3.500   2.979   2.126
 5441TIP3    H216330   3.572   2.846   2.124
 5442TIP3   OH216331   4.577   1.043   4.103
 5442TIP3    H116332   4.587   1.113   4.167
 5442TIP3    H216333   4.543   1.087   4.025
 5443TIP3   OH216334   2.156   3.741   3.603
 5443TIP3    H116335   2.132   3.652   3.629
 5443TIP3    H216336   2.086   3.768   3.543
 5444TIP3   OH216337   3.470   4.588   4.775
 5444TIP3    H116338   3.459   4.494   4.792
 5444TIP3    H216339   3.480   4.627   4.861
 5445TIP3   OH216340   0.290   2.829   4.412
 5445TIP3    H116341   0.259   2.738   4.413
 5445TIP3    H216342   0.384   2.823   4.401
 5446TIP3   OH216343   3.803   3.389   0.502
 5446TIP3    H116344   3.773   3.388   0.411
 5446TIP3    H216345   3.899   3.380   0.495
 5447TIP3   OH216346   0.922   5.320   1.978
 5447TIP3    H116347   0.935   5.348   2.069
 5447TIP3    H216348   0.976   5.242   1.969
 5448TIP3   OH216349   2.626   2.541   4.453
 5448TIP3    H116350   2.543   2.498   4.472
 5448TIP3    H216351   2.687   2.506   4.517
 5449TIP3   OH216352   6.337   0.332   1.893
 5449TIP3    H116353   6.258   0.337   1.840
 5449TIP3    H216354   6.330   0.248   1.938
 5450TIP3   OH216355   4.628   4.006   3.461
 5450TIP3    H116356   4.700   4.055   3.500
 5450TIP3    H216357   4.556   4.068   3.456
 5451TIP3   OH216358   1.598   3.551   3.078
 5451TIP3    H116359   1.633   3.639   3.066
 5451TIP3    H216360   1.520   3.548   3.022
 5452TIP3   OH216361   5.143   2.932   3.426
 5452TIP3    H116362   5.189   2.870   3.483
 5452TIP3    H216363   5.068   2.883   3.393
 5453TIP3   OH216364   2.970   1.682   2.176
 5453TIP3    H116365   2.901   1.738   2.209
 5453TIP3    H216366   2.925   1.618   2.121
 5454TIP3   OH216367   3.691   1.510   1.755
 5454TIP3    H116368   3.748   1.478   1.825
 5454TIP3    H216369   3.750   1.556   1.695
 5455TIP3   OH216370   4.938   1.530   0.274
 5455TIP3    H116371   4.995   1.575   0.210
 5455TIP3    H216372   4.998   1.476   0.325
 5456TIP3   OH216373   1.475   1.395   2.573
 5456TIP3    H116374   1.557   1.421   2.530
 5456TIP3    H216375   1.406   1.421   2.512
 5457TIP3   OH216376   3.594   3.036   1.758
 5457TIP3    H116377   3.617   3.120   1.719
 5457TIP3    H216378   3.515   3.009   1.711
 5458TIP3   OH216379   1.409   2.515   0.015
 5458TIP3    H116380   1.360   2.436  -0.007
 5458TIP3    H216381   1.452   2.495   0.098
 5459TIP3   OH216382   2.033   5.192   1.595
 5459TIP3    H116383   1.940   5.193   1.617
 5459TIP3    H216384   2.056   5.099   1.594
 5460TIP3   OH216385   4.514   0.605   4.548
 5460TIP3    H116386   4.538   0.512   4.542
 5460TIP3    H216387   4.447   0.608   4.616
 5461TIP3   OH216388   0.691   3.803   1.224
 5461TIP3    H116389   0.681   3.845   1.139
 5461TIP3    H216390   0.663   3.713   1.210
 5462TIP3   OH216391   2.935   1.978   1.038
 5462TIP3    H116392   3.010   1.971   0.979
 5462TIP3    H216393   2.890   2.058   1.012
 5463TIP3   OH216394   1.884   1.821   3.588
 5463TIP3    H116395   1.910   1.730   3.603
 5463TIP3    H216396   1.945   1.873   3.641
 5464TIP3   OH216397   3.519   3.295   5.093
 5464TIP3    H116398   3.445   3.344   5.058
 5464TIP3    H216399   3.511   3.304   5.188
 5465TIP3   OH216400   3.211   4.210   4.252
 5465TIP3    H116401   3.236   4.234   4.341
 5465TIP3    H216402   3.189   4.117   4.257
 5466TIP3   OH216403   6.125   2.917   4.258
 5466TIP3    H116404   6.136   2.875   4.173
 5466TIP3    H216405   6.210   2.909   4.300
 5467TIP3   OH216406   2.010   1.209   3.548
 5467TIP3    H116407   1.948   1.145   3.584
 5467TIP3    H216408   2.022   1.272   3.619
 5468TIP3   OH216409   0.414   5.122   4.964
 5468TIP3    H116410   0.473   5.168   5.024
 5468TIP3    H216411   0.329   5.164   4.978
 5469TIP3   OH216412   1.372   0.033   5.079
 5469TIP3    H116413   1.302  -0.030   5.095
 5469TIP3    H216414   1.362   0.057   4.987
 5470TIP3   OH216415   5.315   4.226   0.410
 5470TIP3    H116416   5.228   4.259   0.436
 5470TIP3    H216417   5.368   4.305   0.402
 5471TIP3   OH216418   4.879   2.568   0.113
 5471TIP3    H116419   4.870   2.653   0.155
 5471TIP3    H216420   4.834   2.576   0.029
 5472TIP3   OH216421   4.486   5.445   1.873
 5472TIP3    H116422   4.447   5.462   1.787
 5472TIP3    H216423   4.547   5.517   1.886
 5473TIP3   OH216424   1.532   1.114   4.325
 5473TIP3    H116425   1.553   1.206   4.342
 5473TIP3    H216426   1.594   1.088   4.257
 5474TIP3   OH216427   3.654   0.628   4.462
 5474TIP3    H116428   3.656   0.711   4.415
 5474TIP3    H216429   3.703   0.646   4.543
 5475TIP3   OH216430   5.937   2.123   3.810
 5475TIP3    H116431   5.975   2.040   3.783
 5475TIP3    H216432   5.889   2.154   3.733
 5476TIP3   OH216433   5.380   2.540   2.834
 5476TIP3    H116434   5.389   2.518   2.742
 5476TIP3    H216435   5.423   2.625   2.843
 5477TIP3   OH216436   2.942   1.387   5.103
 5477TIP3    H116437   2.913   1.380   5.194
 5477TIP3    H216438   2.867   1.360   5.051
 5478TIP3   OH216439   3.872   0.184   1.007
 5478TIP3    H116440   3.821   0.176   0.927
 5478TIP3    H216441   3.853   0.104   1.056
 5479TIP3   OH216442   6.315   3.416   1.237
 5479TIP3    H116443   6.374   3.372   1.298
 5479TIP3    H216444   6.236   3.435   1.288
 5480TIP3   OH216445   4.906   5.331   0.655
 5480TIP3    H116446   4.874   5.342   0.744
 5480TIP3    H216447   4.854   5.260   0.619
 5481TIP3   OH216448   3.048   2.555   4.970
 5481TIP3    H116449   3.040   2.479   4.914
 5481TIP3    H216450   3.040   2.630   4.911
 5482TIP3   OH216451   4.391   1.001   4.924
 5482TIP3    H116452   4.385   1.057   4.846
 5482TIP3    H216453   4.425   1.060   4.992
 5483TIP3   OH216454   3.111   2.146   4.516
 5483TIP3    H116455   3.187   2.196   4.547
 5483TIP3    H216456   3.087   2.090   4.590
 5484TIP3   OH216457   1.143   4.714   3.461
 5484TIP3    H116458   1.137   4.666   3.379
 5484TIP3    H216459   1.222   4.768   3.452
 5485TIP3   OH216460   5.914   4.207   3.840
 5485TIP3    H116461   5.970   4.135   3.813
 5485TIP3    H216462   5.960   4.247   3.914
 5486TIP3   OH216463   5.123   3.334   4.989
 5486TIP3    H116464   5.032   3.326   4.961
 5486TIP3    H216465   5.141   3.252   5.035
 5487TIP3   OH216466   4.658   4.197   2.467
 5487TIP3    H116467   4.586   4.149   2.508
 5487TIP3    H216468   4.668   4.276   2.520
 5488TIP3   OH216469   3.211   4.989   4.550
 5488TIP3    H116470   3.301   5.021   4.559
 5488TIP3    H216471   3.216   4.896   4.572
 5489TIP3   OH216472   0.729   5.620   3.119
 5489TIP3    H116473   0.733   5.715   3.136
 5489TIP3    H216474   0.800   5.584   3.172
 5490TIP3   OH216475   1.887   0.453   1.278
 5490TIP3    H116476   1.960   0.470   1.218
 5490TIP3    H216477   1.929   0.435   1.362
 5491TIP3   OH216478   3.933   3.825   1.403
 5491TIP3    H116479   3.898   3.882   1.335
 5491TIP3    H216480   3.972   3.751   1.356
 5492TIP3   OH216481   2.361   5.071   3.546
 5492TIP3    H116482   2.413   5.108   3.618
 5492TIP3    H216483   2.298   5.139   3.524
 5493TIP3   OH216484   4.816   4.303   0.574
 5493TIP3    H116485   4.751   4.351   0.627
 5493TIP3    H216486   4.764   4.244   0.520
 5494TIP3   OH216487   4.360   4.401   2.700
 5494TIP3    H116488   4.351   4.355   2.616
 5494TIP3    H216489   4.413   4.343   2.754
 5495TIP3   OH216490   6.283   5.430   3.053
 5495TIP3    H116491   6.287   5.518   3.016
 5495TIP3    H216492   6.297   5.443   3.147
 5496TIP3   OH216493   1.993   0.569   1.779
 5496TIP3    H116494   2.010   0.637   1.714
 5496TIP3    H216495   1.900   0.549   1.769
 5497TIP3   OH216496   6.304   5.656   1.540
 5497TIP3    H116497   6.393   5.690   1.545
 5497TIP3    H216498   6.265   5.702   1.466
 5498TIP3   OH216499   0.203   3.487   3.841
 5498TIP3    H116500   0.140   3.499   3.911
 5498TIP3    H216501   0.214   3.573   3.802
 5499TIP3   OH216502   4.603   4.237   1.778
 5499TIP3    H116503   4.531   4.262   1.836
 5499TIP3    H216504   4.659   4.314   1.774
 5500TIP3   OH216505   3.227   2.123   0.329
 5500TIP3    H116506   3.266   2.124   0.416
 5500TIP3    H216507   3.166   2.196   0.329
 5501TIP3   OH216508   4.318   3.344   2.818
 5501TIP3    H116509   4.341   3.385   2.735
 5501TIP3    H216510   4.248   3.399   2.853
 5502TIP3   OH216511   4.109   3.403   1.018
 5502TIP3    H116512   4.110   3.327   1.075
 5502TIP3    H216513   4.161   3.377   0.942
 5503TIP3   OH216514   2.265   3.467   3.126
 5503TIP3    H116515   2.339   3.496   3.180
 5503TIP3    H216516   2.210   3.545   3.116
 5504TIP3   OH216517   6.333   3.653   4.315
 5504TIP3    H116518   6.273   3.580   4.306
 5504TIP3    H216519   6.355   3.656   4.408
 5505TIP3   OH216520   0.975   2.689   3.410
 5505TIP3    H116521   0.953   2.598   3.391
 5505TIP3    H216522   1.017   2.686   3.496
 5506TIP3   OH216523   5.746   0.202   4.715
 5506TIP3    H116524   5.836   0.181   4.740
 5506TIP3    H216525   5.702   0.222   4.798
 5507TIP3   OH216526   4.412   3.581   2.987
 5507TIP3    H116527   4.373   3.637   2.920
 5507TIP3    H216528   4.414   3.494   2.948
 5508TIP3   OH216529  -0.001   3.611   0.775
 5508TIP3    H116530   0.088   3.585   0.799
 5508TIP3    H216531  -0.008   3.587   0.682
 5509TIP3   OH216532   4.185   2.006   5.027
 5509TIP3    H116533   4.109   1.950   5.045
 5509TIP3    H216534   4.148   2.090   5.001
 5510TIP3   OH216535   4.148   4.684   0.437
 5510TIP3    H116536   4.150   4.709   0.529
 5510TIP3    H216537   4.073   4.732   0.401
 5511TIP3   OH216538   4.700   5.793   3.766
 5511TIP3    H116539   4.639   5.857   3.802
 5511TIP3    H216540   4.666   5.708   3.795
 5512TIP3   OH216541   0.494   3.714   3.240
 5512TIP3    H116542   0.407   3.754   3.235
 5512TIP3    H216543   0.516   3.692   3.150
 5513TIP3   OH216544   1.594   2.845   4.065
 5513TIP3    H116545   1.629   2.816   4.150
 5513TIP3    H216546   1.517   2.897   4.089
 5514TIP3   OH216547   5.641   5.434   3.670
 5514TIP3    H116548   5.637   5.342   3.646
 5514TIP3    H216549   5.706   5.439   3.740
 5515TIP3   OH216550   1.458   5.006   1.021
 5515TIP3    H116551   1.525   4.968   1.078
 5515TIP3    H216552   1.448   5.096   1.053
 5516TIP3   OH216553   0.295   3.091   3.240
 5516TIP3    H116554   0.233   3.135   3.182
 5516TIP3    H216555   0.292   3.142   3.321
 5517TIP3   OH216556   3.454   0.907   3.406
 5517TIP3    H116557   3.429   0.828   3.358
 5517TIP3    H216558   3.393   0.974   3.376
 5518TIP3   OH216559   0.209   1.911   5.164
 5518TIP3    H116560   0.126   1.930   5.120
 5518TIP3    H216561   0.185   1.895   5.255
 5519TIP3   OH216562   2.282   0.166   0.584
 5519TIP3    H116563   2.314   0.120   0.507
 5519TIP3    H216564   2.249   0.249   0.551
 5520TIP3   OH216565   0.531   0.334   1.357
 5520TIP3    H116566   0.599   0.277   1.392
 5520TIP3    H216567   0.458   0.324   1.418
 5521TIP3   OH216568   4.995   2.964   1.808
 5521TIP3    H116569   4.913   2.985   1.853
 5521TIP3    H216570   5.064   2.997   1.866
 5522TIP3   OH216571   5.656   1.493   0.709
 5522TIP3    H116572   5.618   1.562   0.763
 5522TIP3    H216573   5.714   1.538   0.648
 5523TIP3   OH216574   4.662   1.305   0.624
 5523TIP3    H116575   4.668   1.212   0.645
 5523TIP3    H216576   4.593   1.312   0.559
 5524TIP3   OH216577   0.410   1.462   3.265
 5524TIP3    H116578   0.473   1.407   3.311
 5524TIP3    H216579   0.331   1.408   3.257
 5525TIP3   OH216580   1.389   5.878   1.667
 5525TIP3    H116581   1.335   5.799   1.674
 5525TIP3    H216582   1.474   5.853   1.703
 5526TIP3   OH216583   6.198   0.553   4.161
 5526TIP3    H116584   6.217   0.469   4.118
 5526TIP3    H216585   6.149   0.529   4.240
 5527TIP3   OH216586   1.401   4.965   1.969
 5527TIP3    H116587   1.414   4.974   2.063
 5527TIP3    H216588   1.446   4.883   1.946
 5528TIP3   OH216589   2.390   4.806   1.594
 5528TIP3    H116590   2.369   4.895   1.566
 5528TIP3    H216591   2.403   4.813   1.689
 5529TIP3   OH216592   4.765   3.193   0.917
 5529TIP3    H116593   4.853   3.230   0.918
 5529TIP3    H216594   4.768   3.121   0.980
 5530TIP3   OH216595   3.490   0.029   4.955
 5530TIP3    H116596   3.446   0.114   4.951
 5530TIP3    H216597   3.567   0.044   5.010
 5531TIP3   OH216598   2.303   0.033   0.991
 5531TIP3    H116599   2.363   0.058   0.921
 5531TIP3    H216600   2.275  -0.055   0.968
 5532TIP3   OH216601   3.934   5.773   0.762
 5532TIP3    H116602   3.916   5.735   0.848
 5532TIP3    H216603   4.029   5.769   0.752
 5533TIP3   OH216604   2.660   4.105   0.608
 5533TIP3    H116605   2.706   4.109   0.692
 5533TIP3    H216606   2.569   4.125   0.629
 5534TIP3   OH216607   3.012   5.677   2.809
 5534TIP3    H116608   3.011   5.596   2.861
 5534TIP3    H216609   2.933   5.671   2.754
 5535TIP3   OH216610   1.041   4.307   2.985
 5535TIP3    H116611   1.028   4.391   2.942
 5535TIP3    H216612   1.132   4.308   3.014
 5536TIP3   OH216613   2.493   3.424   2.734
 5536TIP3    H116614   2.484   3.339   2.691
 5536TIP3    H216615   2.523   3.404   2.822
 5537TIP3   OH216616   3.216   1.738   4.340
 5537TIP3    H116617   3.148   1.671   4.337
 5537TIP3    H216618   3.171   1.820   4.320
 5538TIP3   OH216619   1.864   2.643   3.582
 5538TIP3    H116620   1.915   2.698   3.523
 5538TIP3    H216621   1.780   2.686   3.589
 5539TIP3   OH216622   0.236   3.165   1.187
 5539TIP3    H116623   0.179   3.202   1.255
 5539TIP3    H216624   0.315   3.138   1.235
 5540TIP3   OH216625   0.025   3.614   3.020
 5540TIP3    H116626   0.095   3.607   2.955
 5540TIP3    H216627  -0.006   3.524   3.032
 5541TIP3   OH216628   2.673   5.209   3.929
 5541TIP3    H116629   2.649   5.237   3.841
 5541TIP3    H216630   2.691   5.290   3.976
 5542TIP3   OH216631   2.228   1.983   4.677
 5542TIP3    H116632   2.233   1.998   4.582
 5542TIP3    H216633   2.310   2.018   4.711
 5543TIP3   OH216634   2.952   0.119   2.065
 5543TIP3    H116635   2.870   0.142   2.022
 5543TIP3    H216636   2.968   0.189   2.128
 5544TIP3   OH216637   1.030   5.028   2.963
 5544TIP3    H116638   0.993   5.059   3.046
 5544TIP3    H216639   1.123   5.053   2.968
 5545TIP3   OH216640   3.208   4.109   0.383
 5545TIP3    H116641   3.295   4.094   0.421
 5545TIP3    H216642   3.147   4.088   0.453
 5546TIP3   OH216643   5.140   3.976   3.484
 5546TIP3    H116644   5.074   3.936   3.428
 5546TIP3    H216645   5.178   3.902   3.532
 5547TIP3   OH216646   0.926   4.966   0.273
 5547TIP3    H116647   0.879   4.885   0.253
 5547TIP3    H216648   0.870   5.035   0.237
 5548TIP3   OH216649   1.450   2.196   4.729
 5548TIP3    H116650   1.470   2.162   4.642
 5548TIP3    H216651   1.378   2.141   4.760
 5549TIP3   OH216652   4.924   1.398   0.014
 5549TIP3    H116653   4.904   1.408   0.107
 5549TIP3    H216654   4.971   1.478  -0.009
 5550TIP3   OH216655   0.031   4.833   1.396
 5550TIP3    H116656   0.127   4.828   1.402
 5550TIP3    H216657   0.001   4.750   1.432
 5551TIP3   OH216658   4.493   2.825   2.834
 5551TIP3    H116659   4.489   2.826   2.930
 5551TIP3    H216660   4.469   2.914   2.808
 5552TIP3   OH216661   4.877   2.090   4.636
 5552TIP3    H116662   4.916   2.005   4.614
 5552TIP3    H216663   4.842   2.123   4.553
 5553TIP3   OH216664   2.495   3.417   1.850
 5553TIP3    H116665   2.585   3.449   1.854
 5553TIP3    H216666   2.453   3.470   1.782
 5554TIP3   OH216667   5.347   3.191   3.959
 5554TIP3    H116668   5.264   3.200   4.006
 5554TIP3    H216669   5.321   3.157   3.873
 5555TIP3   OH216670   1.719   4.170   1.014
 5555TIP3    H116671   1.666   4.110   1.066
 5555TIP3    H216672   1.781   4.114   0.968
 5556TIP3   OH216673   4.383   3.898   1.088
 5556TIP3    H116674   4.463   3.940   1.120
 5556TIP3    H216675   4.325   3.895   1.164
 5557TIP3   OH216676   3.992   4.782   3.218
 5557TIP3    H116677   4.047   4.859   3.230
 5557TIP3    H216678   4.051   4.714   3.186
 5558TIP3   OH216679   2.072   4.713   1.525
 5558TIP3    H116680   2.111   4.676   1.445
 5558TIP3    H216681   2.004   4.650   1.550
 5559TIP3   OH216682   0.773   0.371   3.444
 5559TIP3    H116683   0.739   0.456   3.416
 5559TIP3    H216684   0.741   0.309   3.378
 5560TIP3   OH216685   5.528   0.673   4.099
 5560TIP3    H116686   5.438   0.640   4.103
 5560TIP3    H216687   5.567   0.627   4.025
 5561TIP3   OH216688   0.950   0.114   4.510
 5561TIP3    H116689   0.891   0.056   4.462
 5561TIP3    H216690   0.905   0.198   4.513
 5562TIP3   OH216691   2.655   1.535   1.311
 5562TIP3    H116692   2.628   1.514   1.222
 5562TIP3    H216693   2.614   1.467   1.365
 5563TIP3   OH216694   3.506   1.646   0.487
 5563TIP3    H116695   3.593   1.665   0.455
 5563TIP3    H216696   3.448   1.663   0.413
 5564TIP3   OH216697   5.784   0.695   5.103
 5564TIP3    H116698   5.778   0.790   5.109
 5564TIP3    H216699   5.731   0.663   5.176
 5565TIP3   OH216700   0.152   1.395   2.974
 5565TIP3    H116701   0.159   1.401   2.879
 5565TIP3    H216702   0.171   1.483   3.006
 5566TIP3   OH216703   4.096   1.561   2.338
 5566TIP3    H116704   4.039   1.489   2.364
 5566TIP3    H216705   4.150   1.577   2.416
 5567TIP3   OH216706   4.889   2.876   3.276
 5567TIP3    H116707   4.803   2.842   3.301
 5567TIP3    H216708   4.874   2.922   3.193
 5568TIP3   OH216709   3.369   1.881   2.809
 5568TIP3    H116710   3.369   1.826   2.730
 5568TIP3    H216711   3.287   1.860   2.853
 5569TIP3   OH216712   0.717   5.101   0.523
 5569TIP3    H116713   0.697   5.141   0.438
 5569TIP3    H216714   0.720   5.175   0.584
 5570TIP3   OH216715   2.900   4.594   1.365
 5570TIP3    H116716   2.859   4.677   1.389
 5570TIP3    H216717   2.991   4.617   1.346
 5571TIP3   OH216718   1.517   4.017   4.822
 5571TIP3    H116719   1.528   4.078   4.750
 5571TIP3    H216720   1.579   4.046   4.889
 5572TIP3   OH216721   1.371   5.935   0.671
 5572TIP3    H116722   1.411   5.964   0.589
 5572TIP3    H216723   1.369   5.840   0.665
 5573TIP3   OH216724   3.697   3.332   1.881
 5573TIP3    H116725   3.635   3.391   1.924
 5573TIP3    H216726   3.665   3.324   1.791
 5574TIP3   OH216727   0.031   0.041   4.830
 5574TIP3    H116728   0.098   0.006   4.772
 5574TIP3    H216729  -0.050   0.000   4.802
 5575TIP3   OH216730   3.235   1.037   3.222
 5575TIP3    H116731   3.175   0.963   3.232
 5575TIP3    H216732   3.317   0.998   3.191
 5576TIP3   OH216733   3.016   0.346   3.451
 5576TIP3    H116734   3.006   0.295   3.532
 5576TIP3    H216735   3.102   0.386   3.459
 5577TIP3   OH216736   4.240   0.935   0.534
 5577TIP3    H116737   4.181   0.990   0.586
 5577TIP3    H216738   4.181   0.883   0.479
 5578TIP3   OH216739   1.008   0.658   0.538
 5578TIP3    H116740   1.031   0.749   0.520
 5578TIP3    H216741   0.998   0.654   0.634
 5579TIP3   OH216742   2.789   1.761   3.198
 5579TIP3    H116743   2.783   1.691   3.264
 5579TIP3    H216744   2.772   1.717   3.115
 5580TIP3   OH216745   4.165   1.464   1.509
 5580TIP3    H116746   4.246   1.413   1.499
 5580TIP3    H216747   4.193   1.544   1.554
 5581TIP3   OH216748   4.072   2.982   0.843
 5581TIP3    H116749   4.008   3.050   0.822
 5581TIP3    H216750   4.073   2.980   0.939
 5582TIP3   OH216751   2.596   5.455   2.485
 5582TIP3    H116752   2.636   5.481   2.402
 5582TIP3    H216753   2.628   5.366   2.500
 5583TIP3   OH216754   5.362   3.736   0.436
 5583TIP3    H116755   5.322   3.734   0.523
 5583TIP3    H216756   5.323   3.661   0.391
 5584TIP3   OH216757   2.708   4.985   1.156
 5584TIP3    H116758   2.751   5.063   1.121
 5584TIP3    H216759   2.631   5.018   1.202
 5585TIP3   OH216760   2.887   5.191   1.083
 5585TIP3    H116761   2.959   5.243   1.121
 5585TIP3    H216762   2.927   5.144   1.010
 5586TIP3   OH216763   4.663   5.395   4.365
 5586TIP3    H116764   4.580   5.397   4.317
 5586TIP3    H216765   4.729   5.374   4.299
 5587TIP3   OH216766   5.515   4.039   1.341
 5587TIP3    H116767   5.557   3.978   1.401
 5587TIP3    H216768   5.462   3.984   1.284
 5588TIP3   OH216769   6.322   2.003   1.959
 5588TIP3    H116770   6.405   2.045   1.983
 5588TIP3    H216771   6.256   2.072   1.970
 5589TIP3   OH216772   1.184   1.234   1.619
 5589TIP3    H116773   1.236   1.234   1.700
 5589TIP3    H216774   1.168   1.142   1.600
 5590TIP3   OH216775   0.662   4.643   2.378
 5590TIP3    H116776   0.621   4.611   2.297
 5590TIP3    H216777   0.606   4.715   2.406
 5591TIP3   OH216778   5.867   3.011   0.656
 5591TIP3    H116779   5.809   2.954   0.606
 5591TIP3    H216780   5.823   3.022   0.740
 5592TIP3   OH216781   2.349   4.857   2.189
 5592TIP3    H116782   2.422   4.889   2.242
 5592TIP3    H216783   2.278   4.919   2.206
 5593TIP3   OH216784   2.326   1.017   4.371
 5593TIP3    H116785   2.306   0.935   4.326
 5593TIP3    H216786   2.411   1.044   4.337
 5594TIP3   OH216787   2.503   3.292   2.995
 5594TIP3    H116788   2.411   3.306   3.016
 5594TIP3    H216789   2.550   3.342   3.061
 5595TIP3   OH216790   3.915   3.318   2.241
 5595TIP3    H116791   3.947   3.396   2.286
 5595TIP3    H216792   3.992   3.281   2.199
 5596TIP3   OH216793   4.866   1.657   1.538
 5596TIP3    H116794   4.887   1.750   1.549
 5596TIP3    H216795   4.827   1.652   1.450
 5597TIP3   OH216796   0.296   1.270   1.413
 5597TIP3    H116797   0.265   1.243   1.326
 5597TIP3    H216798   0.251   1.352   1.431
 5598TIP3   OH216799   1.109   0.925   2.601
 5598TIP3    H116800   1.065   0.881   2.529
 5598TIP3    H216801   1.160   0.995   2.559
 5599TIP3   OH216802   0.124   3.036   4.552
 5599TIP3    H116803   0.189   2.966   4.559
 5599TIP3    H216804   0.040   2.990   4.559
 5600TIP3   OH216805   3.736   2.842   1.054
 5600TIP3    H116806   3.805   2.843   1.121
 5600TIP3    H216807   3.682   2.767   1.077
 5601TIP3   OH216808   5.181   1.461   2.960
 5601TIP3    H116809   5.275   1.463   2.978
 5601TIP3    H216810   5.140   1.449   3.046
 5602TIP3   OH216811   2.260   5.073   4.695
 5602TIP3    H116812   2.187   5.026   4.735
 5602TIP3    H216813   2.325   5.006   4.679
 5603TIP3   OH216814   0.216   5.407   4.303
 5603TIP3    H116815   0.175   5.491   4.323
 5603TIP3    H216816   0.159   5.367   4.237
 5604TIP3   OH216817   1.953   4.735   3.124
 5604TIP3    H116818   1.951   4.818   3.076
 5604TIP3    H216819   2.013   4.750   3.196
 5605TIP3   OH216820   5.954   0.893   3.242
 5605TIP3    H116821   5.899   0.835   3.189
 5605TIP3    H216822   6.036   0.900   3.194
 5606TIP3   OH216823   2.152   2.093   2.501
 5606TIP3    H116824   2.216   2.050   2.557
 5606TIP3    H216825   2.067   2.070   2.539
 5607TIP3   OH216826   5.103   0.533   0.907
 5607TIP3    H116827   5.027   0.554   0.852
 5607TIP3    H216828   5.137   0.618   0.934
 5608TIP3   OH216829   6.246   0.347   4.020
 5608TIP3    H116830   6.190   0.276   3.989
 5608TIP3    H216831   6.292   0.378   3.942
 5609TIP3   OH216832   2.745   5.032   3.681
 5609TIP3    H116833   2.668   5.053   3.734
 5609TIP3    H216834   2.768   5.115   3.638
 5610TIP3   OH216835   1.968   5.016   5.104
 5610TIP3    H116836   1.879   4.980   5.109
 5610TIP3    H216837   2.006   4.997   5.190
 5611TIP3   OH216838   3.131   1.863   2.945
 5611TIP3    H116839   3.132   1.900   3.033
 5611TIP3    H216840   3.122   1.769   2.959
 5612TIP3   OH216841   4.269   2.031   2.866
 5612TIP3    H116842   4.355   2.007   2.901
 5612TIP3    H216843   4.219   2.059   2.942
 5613TIP3   OH216844   5.843   3.858   3.563
 5613TIP3    H116845   5.749   3.867   3.578
 5613TIP3    H216846   5.859   3.764   3.570
 5614TIP3   OH216847   6.139   0.740   4.770
 5614TIP3    H116848   6.062   0.796   4.776
 5614TIP3    H216849   6.168   0.729   4.860
 5615TIP3   OH216850   1.728   0.175   3.708
 5615TIP3    H116851   1.810   0.224   3.719
 5615TIP3    H216852   1.661   0.243   3.700
 5616TIP3   OH216853   4.585   1.508   3.148
 5616TIP3    H116854   4.601   1.444   3.217
 5616TIP3    H216855   4.529   1.574   3.188
 5617TIP3   OH216856   5.636   4.055   4.103
 5617TIP3    H116857   5.666   4.137   4.144
 5617TIP3    H216858   5.603   4.002   4.176
 5618TIP3   OH216859   0.383   4.873   4.813
 5618TIP3    H116860   0.348   4.931   4.746
 5618TIP3    H216861   0.417   4.932   4.880
 5619TIP3   OH216862   2.369   4.251   4.916
 5619TIP3    H116863   2.453   4.212   4.896
 5619TIP3    H216864   2.307   4.178   4.912
 5620TIP3   OH216865   6.064   5.779   1.794
 5620TIP3    H116866   6.100   5.851   1.846
 5620TIP3    H216867   6.117   5.703   1.819
 5621TIP3   OH216868   5.786   4.383   4.636
 5621TIP3    H116869   5.811   4.327   4.709
 5621TIP3    H216870   5.726   4.447   4.674
 5622TIP3   OH216871   2.732   2.094   1.713
 5622TIP3    H116872   2.798   2.025   1.709
 5622TIP3    H216873   2.652   2.054   1.679
 5623TIP3   OH216874   0.968   1.137   2.326
 5623TIP3    H116875   0.940   1.200   2.260
 5623TIP3    H216876   1.040   1.089   2.285
 5624TIP3   OH216877   1.762   3.104   2.958
 5624TIP3    H116878   1.734   3.012   2.956
 5624TIP3    H216879   1.743   3.137   2.870
 5625TIP3   OH216880   3.353   3.410   4.671
 5625TIP3    H116881   3.447   3.419   4.682
 5625TIP3    H216882   3.316   3.472   4.734
 5626TIP3   OH216883   1.164   2.054   3.716
 5626TIP3    H116884   1.091   1.997   3.694
 5626TIP3    H216885   1.232   2.031   3.653
 5627TIP3   OH216886   4.070   4.891   5.021
 5627TIP3    H116887   4.093   4.981   5.044
 5627TIP3    H216888   4.137   4.837   5.064
 5628TIP3   OH216889   3.424   1.216   4.916
 5628TIP3    H116890   3.508   1.191   4.878
 5628TIP3    H216891   3.444   1.244   5.005
 5629TIP3   OH216892   3.600   5.852   1.058
 5629TIP3    H116893   3.562   5.917   0.998
 5629TIP3    H216894   3.625   5.903   1.135
 5630TIP3   OH216895   0.229   1.110   5.101
 5630TIP3    H116896   0.253   1.052   5.029
 5630TIP3    H216897   0.311   1.125   5.148
 5631TIP3   OH216898   0.848   0.361   4.945
 5631TIP3    H116899   0.868   0.337   5.036
 5631TIP3    H216900   0.777   0.303   4.920
 5632TIP3   OH216901   1.850   5.868   1.377
 5632TIP3    H116902   1.798   5.929   1.325
 5632TIP3    H216903   1.915   5.833   1.315
 5633TIP3   OH216904   1.062   5.961   0.484
 5633TIP3    H116905   0.992   5.912   0.527
 5633TIP3    H216906   1.088   6.027   0.548
 5634TIP3   OH216907   2.505   4.905   2.410
 5634TIP3    H116908   2.560   4.843   2.458
 5634TIP3    H216909   2.431   4.921   2.469
 5635TIP3   OH216910   3.819   0.508   1.974
 5635TIP3    H116911   3.837   0.497   1.881
 5635TIP3    H216912   3.798   0.420   2.006
 5636TIP3   OH216913   1.493   5.840   1.022
 5636TIP3    H116914   1.414   5.892   1.014
 5636TIP3    H216915   1.469   5.754   0.987
 5637TIP3   OH216916   5.608   1.106   3.623
 5637TIP3    H116917   5.553   1.182   3.603
 5637TIP3    H216918   5.650   1.084   3.540
 5638TIP3   OH216919   3.419   0.246   2.406
 5638TIP3    H116920   3.512   0.264   2.422
 5638TIP3    H216921   3.373   0.314   2.454
 5639TIP3   OH216922   4.796   3.356   2.664
 5639TIP3    H116923   4.759   3.417   2.600
 5639TIP3    H216924   4.779   3.397   2.749
 5640TIP3   OH216925   1.383   1.491   3.114
 5640TIP3    H116926   1.339   1.514   3.196
 5640TIP3    H216927   1.408   1.575   3.076
 5641TIP3   OH216928   4.997   5.144   2.448
 5641TIP3    H116929   4.952   5.118   2.368
 5641TIP3    H216930   5.013   5.062   2.495
 5642TIP3   OH216931   5.096   4.045   2.194
 5642TIP3    H116932   5.191   4.049   2.209
 5642TIP3    H216933   5.086   4.071   2.102
 5643TIP3   OH216934   5.275   2.831   3.913
 5643TIP3    H116935   5.195   2.883   3.917
 5643TIP3    H216936   5.318   2.858   3.831
 5644TIP3   OH216937   4.538   2.143   4.167
 5644TIP3    H116938   4.447   2.145   4.196
 5644TIP3    H216939   4.581   2.211   4.218
 5645TIP3   OH216940   0.877   4.590   3.746
 5645TIP3    H116941   0.783   4.606   3.753
 5645TIP3    H216942   0.885   4.525   3.676
 5646TIP3   OH216943   0.581   5.862   2.325
 5646TIP3    H116944   0.519   5.823   2.387
 5646TIP3    H216945   0.547   5.949   2.307
 5647TIP3   OH216946   0.306   3.332   3.645
 5647TIP3    H116947   0.255   3.398   3.694
 5647TIP3    H216948   0.297   3.359   3.553
 5648TIP3   OH216949   4.125   2.192   3.043
 5648TIP3    H116950   4.179   2.260   3.003
 5648TIP3    H216951   4.039   2.202   3.002
 5649TIP3   OH216952   0.721   2.003   2.587
 5649TIP3    H116953   0.758   1.978   2.502
 5649TIP3    H216954   0.746   2.094   2.599
 5650TIP3   OH216955   0.002   3.030   4.009
 5650TIP3    H116956  -0.022   3.072   4.091
 5650TIP3    H216957   0.092   3.057   3.994
 5651TIP3   OH216958   0.189   1.666   3.821
 5651TIP3    H116959   0.227   1.578   3.829
 5651TIP3    H216960   0.231   1.703   3.744
 5652TIP3   OH216961   3.842   0.950   1.458
 5652TIP3    H116962   3.754   0.978   1.481
 5652TIP3    H216963   3.860   0.876   1.516
 5653TIP3   OH216964   3.912   0.473   2.361
 5653TIP3    H116965   4.001   0.469   2.327
 5653TIP3    H216966   3.915   0.541   2.428
 5654TIP3   OH216967   0.475   1.853   3.026
 5654TIP3    H116968   0.475   1.823   2.935
 5654TIP3    H216969   0.397   1.908   3.033
 5655TIP3   OH216970   0.077   2.287   4.062
 5655TIP3    H116971   0.065   2.360   4.001
 5655TIP3    H216972   0.166   2.297   4.095
 5656TIP3   OH216973   2.556   1.100   4.248
 5656TIP3    H116974   2.556   1.193   4.223
 5656TIP3    H216975   2.578   1.054   4.167
 5657TIP3   OH216976   2.501   4.583   5.127
 5657TIP3    H116977   2.488   4.670   5.164
 5657TIP3    H216978   2.591   4.584   5.094
 5658TIP3   OH216979   5.238   1.627   5.167
 5658TIP3    H116980   5.276   1.619   5.255
 5658TIP3    H216981   5.279   1.705   5.130
 5659TIP3   OH216982   5.836   0.781   4.292
 5659TIP3    H116983   5.805   0.730   4.367
 5659TIP3    H216984   5.889   0.851   4.331
 5660TIP3   OH216985   0.218   2.857   3.366
 5660TIP3    H116986   0.176   2.872   3.451
 5660TIP3    H216987   0.267   2.938   3.349
 5661TIP3   OH216988   3.611   0.819   1.617
 5661TIP3    H116989   3.601   0.912   1.598
 5661TIP3    H216990   3.642   0.816   1.707
 5662TIP3   OH216991   2.157   3.086   0.432
 5662TIP3    H116992   2.228   3.082   0.367
 5662TIP3    H216993   2.077   3.081   0.380
 5663TIP3   OH216994   1.952   0.152   0.940
 5663TIP3    H116995   2.025   0.187   0.991
 5663TIP3    H216996   1.994   0.110   0.864
 5664TIP3   OH216997   6.044   2.183   5.091
 5664TIP3    H116998   5.949   2.191   5.098
 5664TIP3    H216999   6.078   2.227   5.170
 5665TIP3   OH217000   2.290   3.190   0.933
 5665TIP3    H117001   2.322   3.145   1.012
 5665TIP3    H217002   2.369   3.213   0.885
 5666TIP3   OH217003   2.910   2.814   1.443
 5666TIP3    H117004   2.816   2.809   1.428
 5666TIP3    H217005   2.922   2.782   1.532
 5667TIP3   OH217006   4.953   0.444   1.361
 5667TIP3    H117007   4.895   0.503   1.313
 5667TIP3    H217008   4.908   0.429   1.444
 5668TIP3   OH217009   5.924   1.784   5.111
 5668TIP3    H117010   5.990   1.715   5.102
 5668TIP3    H217011   5.908   1.813   5.021
 5669TIP3   OH217012   1.196   5.559   0.066
 5669TIP3    H117013   1.258   5.631   0.074
 5669TIP3    H217014   1.118   5.589   0.113
 5670TIP3   OH217015   5.915   0.511   1.011
 5670TIP3    H117016   5.973   0.478   1.079
 5670TIP3    H217017   5.920   0.446   0.941
 5671TIP3   OH217018   4.879   4.714   3.113
 5671TIP3    H117019   4.797   4.703   3.161
 5671TIP3    H217020   4.919   4.627   3.115
 5672TIP3   OH217021   0.925   4.157   3.164
 5672TIP3    H117022   0.852   4.218   3.172
 5672TIP3    H217023   0.972   4.185   3.086
 5673TIP3   OH217024   1.726   1.287   1.486
 5673TIP3    H117025   1.786   1.213   1.475
 5673TIP3    H217026   1.659   1.256   1.546
 5674TIP3   OH217027   1.131   2.989   0.503
 5674TIP3    H117028   1.210   3.042   0.491
 5674TIP3    H217029   1.150   2.906   0.460
 5675TIP3   OH217030   5.910   2.631   4.856
 5675TIP3    H117031   5.888   2.586   4.775
 5675TIP3    H217032   5.890   2.723   4.838
 5676TIP3   OH217033   1.835   0.368   3.375
 5676TIP3    H117034   1.766   0.339   3.435
 5676TIP3    H217035   1.907   0.306   3.388
 5677TIP3   OH217036   4.734   5.743   2.976
 5677TIP3    H117037   4.710   5.834   2.957
 5677TIP3    H217038   4.689   5.692   2.909
 5678TIP3   OH217039   3.340   5.084   3.238
 5678TIP3    H117040   3.422   5.102   3.192
 5678TIP3    H217041   3.366   5.031   3.313
 5679TIP3   OH217042   3.780   4.039   0.984
 5679TIP3    H117043   3.727   3.960   0.981
 5679TIP3    H217044   3.812   4.044   1.074
 5680TIP3   OH217045   4.023   2.306   0.467
 5680TIP3    H117046   4.087   2.329   0.400
 5680TIP3    H217047   4.025   2.380   0.528
 5681TIP3   OH217048   0.276   2.828   4.092
 5681TIP3    H117049   0.321   2.913   4.096
 5681TIP3    H217050   0.263   2.813   3.998
 5682TIP3   OH217051   1.426   3.495   1.834
 5682TIP3    H117052   1.355   3.435   1.859
 5682TIP3    H217053   1.462   3.524   1.918
 5683TIP3   OH217054   1.942   3.401   2.906
 5683TIP3    H117055   1.865   3.382   2.853
 5683TIP3    H217056   1.919   3.368   2.994
 5684TIP3   OH217057   1.918   4.715   3.987
 5684TIP3    H117058   1.832   4.677   3.969
 5684TIP3    H217059   1.977   4.640   3.990
 5685TIP3   OH217060   4.155   1.194   3.013
 5685TIP3    H117061   4.083   1.174   2.952
 5685TIP3    H217062   4.220   1.238   2.959
 5686TIP3   OH217063   2.771   1.959   3.518
 5686TIP3    H117064   2.748   1.866   3.522
 5686TIP3    H217065   2.861   1.960   3.487
 5687TIP3   OH217066   5.953   0.301   0.821
 5687TIP3    H117067   5.877   0.276   0.767
 5687TIP3    H217068   6.026   0.254   0.783
 5688TIP3   OH217069   3.388   4.392   0.876
 5688TIP3    H117070   3.397   4.310   0.924
 5688TIP3    H217071   3.472   4.436   0.886
 5689TIP3   OH217072   2.399   3.699   4.824
 5689TIP3    H117073   2.467   3.763   4.843
 5689TIP3    H217074   2.333   3.711   4.893
 5690TIP3   OH217075   0.905   2.101   1.559
 5690TIP3    H117076   0.811   2.095   1.545
 5690TIP3    H217077   0.924   2.034   1.625
 5691TIP3   OH217078   4.963   1.466   5.104
 5691TIP3    H117079   5.046   1.425   5.129
 5691TIP3    H217080   4.959   1.546   5.156
 5692TIP3   OH217081   5.259   2.306   4.773
 5692TIP3    H117082   5.345   2.345   4.755
 5692TIP3    H217083   5.215   2.371   4.828
 5693TIP3   OH217084   0.201   1.640   1.229
 5693TIP3    H117085   0.128   1.658   1.171
 5693TIP3    H217086   0.229   1.726   1.260
 5694TIP3   OH217087   0.087   0.747   0.363
 5694TIP3    H117088   0.044   0.723   0.445
 5694TIP3    H217089   0.073   0.841   0.354
 5695TIP3   OH217090   1.068   1.650   0.758
 5695TIP3    H117091   1.052   1.743   0.740
 5695TIP3    H217092   1.095   1.648   0.850
 5696TIP3   OH217093   1.832   2.866   4.624
 5696TIP3    H117094   1.909   2.837   4.575
 5696TIP3    H217095   1.836   2.817   4.706
 5697TIP3   OH217096   5.160   0.451   1.167
 5697TIP3    H117097   5.093   0.469   1.232
 5697TIP3    H217098   5.112   0.441   1.085
 5698TIP3   OH217099   3.361   2.609   0.141
 5698TIP3    H117100   3.422   2.627   0.213
 5698TIP3    H217101   3.318   2.693   0.125
 5699TIP3   OH217102   5.255   3.417   0.548
 5699TIP3    H117103   5.242   3.439   0.456
 5699TIP3    H217104   5.243   3.500   0.595
 5700TIP3   OH217105   1.894   5.582   4.187
 5700TIP3    H117106   1.934   5.525   4.252
 5700TIP3    H217107   1.968   5.631   4.150
 5701TIP3   OH217108   5.389   5.436   0.462
 5701TIP3    H117109   5.389   5.532   0.457
 5701TIP3    H217110   5.474   5.414   0.502
 5702TIP3   OH217111   2.107   3.661   4.627
 5702TIP3    H117112   2.148   3.586   4.670
 5702TIP3    H217113   2.068   3.625   4.548
 5703TIP3   OH217114   5.910   5.661   0.782
 5703TIP3    H117115   5.892   5.732   0.720
 5703TIP3    H217116   6.005   5.656   0.786
 5704TIP3   OH217117   6.313   1.966   0.178
 5704TIP3    H117118   6.400   1.931   0.199
 5704TIP3    H217119   6.319   2.059   0.201
 5705TIP3   OH217120   5.673   4.609   2.683
 5705TIP3    H117121   5.710   4.526   2.712
 5705TIP3    H217122   5.685   4.608   2.588
 5706TIP3   OH217123   2.356   5.894   3.163
 5706TIP3    H117124   2.405   5.955   3.219
 5706TIP3    H217125   2.304   5.952   3.106
 5707TIP3   OH217126   6.126   5.938   0.533
 5707TIP3    H117127   6.117   5.973   0.444
 5707TIP3    H217128   6.040   5.903   0.554
 5708TIP3   OH217129   3.685   5.135   3.997
 5708TIP3    H117130   3.690   5.042   4.017
 5708TIP3    H217131   3.602   5.163   4.036
 5709TIP3   OH217132   1.600   2.102   1.344
 5709TIP3    H117133   1.636   2.023   1.306
 5709TIP3    H217134   1.506   2.084   1.352
 5710TIP3   OH217135   0.709   2.971   4.172
 5710TIP3    H117136   0.619   2.990   4.198
 5710TIP3    H217137   0.720   3.016   4.088
 5711TIP3   OH217138   3.445   2.482   4.151
 5711TIP3    H117139   3.422   2.575   4.151
 5711TIP3    H217140   3.363   2.438   4.172
 5712TIP3   OH217141   2.611   1.891   3.894
 5712TIP3    H117142   2.555   1.862   3.822
 5712TIP3    H217143   2.653   1.971   3.861
 5713TIP3   OH217144   1.319   5.045   2.926
 5713TIP3    H117145   1.403   5.000   2.936
 5713TIP3    H217146   1.309   5.054   2.831
 5714TIP3   OH217147   2.872   6.003   2.434
 5714TIP3    H117148   2.854   5.914   2.465
 5714TIP3    H217149   2.790   6.050   2.451
 5715TIP3   OH217150   3.327   0.070   3.334
 5715TIP3    H117151   3.406   0.027   3.367
 5715TIP3    H217152   3.269   0.076   3.410
 5716TIP3   OH217153   1.994   3.943   2.143
 5716TIP3    H117154   2.011   3.874   2.207
 5716TIP3    H217155   1.900   3.938   2.126
 5717TIP3   OH217156   0.909   1.016   0.559
 5717TIP3    H117157   0.989   0.983   0.519
 5717TIP3    H217158   0.841   0.954   0.532
 5718TIP3   OH217159   6.132   2.799   0.068
 5718TIP3    H117160   6.039   2.774   0.066
 5718TIP3    H217161   6.131   2.894   0.071
 5719TIP3   OH217162   0.165   4.466   5.039
 5719TIP3    H117163   0.150   4.394   4.978
 5719TIP3    H217164   0.168   4.544   4.984
 5720TIP3   OH217165   4.573   4.405   2.976
 5720TIP3    H117166   4.556   4.325   2.928
 5720TIP3    H217167   4.618   4.462   2.914
 5721TIP3   OH217168   0.397   6.015   1.594
 5721TIP3    H117169   0.437   5.985   1.675
 5721TIP3    H217170   0.410   5.944   1.532
 5722TIP3   OH217171   3.553   1.325   3.189
 5722TIP3    H117172   3.556   1.357   3.280
 5722TIP3    H217173   3.548   1.404   3.136
 5723TIP3   OH217174   2.324   5.024   0.259
 5723TIP3    H117175   2.379   5.084   0.210
 5723TIP3    H217176   2.247   5.076   0.283
 5724TIP3   OH217177   4.073   5.054   4.331
 5724TIP3    H117178   4.158   5.093   4.351
 5724TIP3    H217179   4.044   5.101   4.252
 5725TIP3   OH217180   0.201   3.765   3.202
 5725TIP3    H117181   0.156   3.752   3.118
 5725TIP3    H217182   0.136   3.741   3.268
 5726TIP3   OH217183   4.534   3.787   4.380
 5726TIP3    H117184   4.546   3.741   4.464
 5726TIP3    H217185   4.541   3.718   4.314
 5727TIP3   OH217186   4.927   0.496   2.439
 5727TIP3    H117187   4.874   0.480   2.361
 5727TIP3    H217188   5.015   0.512   2.406
 5728TIP3   OH217189   2.426   4.164   0.264
 5728TIP3    H117190   2.350   4.165   0.322
 5728TIP3    H217191   2.419   4.080   0.218
 5729TIP3   OH217192   5.702   3.117   3.104
 5729TIP3    H117193   5.752   3.198   3.116
 5729TIP3    H217194   5.689   3.110   3.009
 5730TIP3   OH217195   5.805   5.170   2.127
 5730TIP3    H117196   5.759   5.090   2.149
 5730TIP3    H217197   5.740   5.240   2.137
 5731TIP3   OH217198   0.642   4.085   4.891
 5731TIP3    H117199   0.632   4.091   4.986
 5731TIP3    H217200   0.722   4.135   4.872
 5732TIP3   OH217201   2.106   4.465   0.803
 5732TIP3    H117202   2.129   4.550   0.840
 5732TIP3    H217203   2.019   4.477   0.765
 5733TIP3   OH217204   0.393   3.245   2.079
 5733TIP3    H117205   0.345   3.324   2.104
 5733TIP3    H217206   0.484   3.264   2.103
 5734TIP3   OH217207   1.074   0.222   3.552
 5734TIP3    H117208   1.092   0.295   3.612
 5734TIP3    H217209   0.987   0.193   3.576
 5735TIP3   OH217210   3.902   0.383   0.628
 5735TIP3    H117211   3.810   0.411   0.639
 5735TIP3    H217212   3.952   0.465   0.632
 5736TIP3   OH217213   4.021   3.003   2.902
 5736TIP3    H117214   4.057   2.976   2.818
 5736TIP3    H217215   3.947   3.060   2.879
 5737TIP3   OH217216   4.960   2.398   4.704
 5737TIP3    H117217   4.978   2.388   4.797
 5737TIP3    H217218   5.004   2.325   4.662
 5738TIP3   OH217219   3.778   2.239   3.166
 5738TIP3    H117220   3.805   2.220   3.076
 5738TIP3    H217221   3.684   2.254   3.160
 5739TIP3   OH217222   4.661   4.929   4.377
 5739TIP3    H117223   4.672   4.921   4.283
 5739TIP3    H217224   4.590   4.992   4.388
 5740TIP3   OH217225   2.398   4.988   0.798
 5740TIP3    H117226   2.399   5.007   0.704
 5740TIP3    H217227   2.419   4.895   0.804
 5741TIP3   OH217228   4.053   0.423   0.223
 5741TIP3    H117229   4.129   0.468   0.186
 5741TIP3    H217230   3.978   0.474   0.193
 5742TIP3   OH217231   2.544   0.591   4.197
 5742TIP3    H117232   2.598   0.628   4.267
 5742TIP3    H217233   2.518   0.504   4.230
 5743TIP3   OH217234   1.953   0.327   4.793
 5743TIP3    H117235   1.898   0.360   4.864
 5743TIP3    H217236   2.035   0.303   4.836
 5744TIP3   OH217237   2.466   3.604   4.074
 5744TIP3    H117238   2.410   3.643   4.006
 5744TIP3    H217239   2.440   3.648   4.155
 5745TIP3   OH217240   5.517   3.450   0.088
 5745TIP3    H117241   5.437   3.441   0.140
 5745TIP3    H217242   5.540   3.542   0.095
 5746TIP3   OH217243   1.446   2.922   3.737
 5746TIP3    H117244   1.482   3.008   3.716
 5746TIP3    H217245   1.484   2.864   3.671
 5747TIP3   OH217246   4.607   4.241   0.860
 5747TIP3    H117247   4.606   4.333   0.834
 5747TIP3    H217248   4.518   4.210   0.841
 5748TIP3   OH217249   3.591   1.255   2.914
 5748TIP3    H117250   3.508   1.275   2.871
 5748TIP3    H217251   3.569   1.250   3.007
 5749TIP3   OH217252   2.797   0.799   4.659
 5749TIP3    H117253   2.879   0.839   4.631
 5749TIP3    H217254   2.742   0.799   4.581
 5750TIP3   OH217255   3.673   3.987   4.157
 5750TIP3    H117256   3.578   3.982   4.165
 5750TIP3    H217257   3.703   3.896   4.157
 5751TIP3   OH217258   0.475   3.308   3.959
 5751TIP3    H117259   0.390   3.322   3.916
 5751TIP3    H217260   0.464   3.348   4.046
 5752TIP3   OH217261   3.835   3.291   4.284
 5752TIP3    H117262   3.835   3.378   4.323
 5752TIP3    H217263   3.921   3.255   4.303
 5753TIP3   OH217264   6.321   4.290   4.564
 5753TIP3    H117265   6.314   4.371   4.614
 5753TIP3    H217266   6.346   4.224   4.628
 5754TIP3   OH217267   2.347   1.183   5.152
 5754TIP3    H117268   2.277   1.223   5.204
 5754TIP3    H217269   2.410   1.254   5.138
 5755TIP3   OH217270   5.001   5.574   0.597
 5755TIP3    H117271   4.978   5.485   0.627
 5755TIP3    H217272   5.070   5.602   0.657
 5756TIP3   OH217273   4.032   4.355   3.482
 5756TIP3    H117274   4.011   4.418   3.413
 5756TIP3    H217275   4.116   4.385   3.517
 5757TIP3   OH217276   2.721   2.781   1.906
 5757TIP3    H117277   2.642   2.785   1.961
 5757TIP3    H217278   2.787   2.830   1.956
 5758TIP3   OH217279   0.607   1.026   4.826
 5758TIP3    H117280   0.631   0.968   4.754
 5758TIP3    H217281   0.667   1.003   4.897
 5759TIP3   OH217282   5.644   4.633   1.859
 5759TIP3    H117283   5.562   4.679   1.878
 5759TIP3    H217284   5.712   4.689   1.896
 5760TIP3   OH217285   2.379   4.631   1.913
 5760TIP3    H117286   2.423   4.714   1.897
 5760TIP3    H217287   2.417   4.598   1.994
 5761TIP3   OH217288   4.038   5.492   3.179
 5761TIP3    H117289   3.968   5.544   3.217
 5761TIP3    H217290   4.019   5.492   3.085
 5762TIP3   OH217291   4.434   1.637   2.608
 5762TIP3    H117292   4.465   1.617   2.696
 5762TIP3    H217293   4.472   1.568   2.553
 5763TIP3   OH217294   0.138   0.591   4.452
 5763TIP3    H117295   0.208   0.629   4.400
 5763TIP3    H217296   0.128   0.649   4.527
 5764TIP3   OH217297   6.114   3.380   2.792
 5764TIP3    H117298   6.078   3.375   2.704
 5764TIP3    H217299   6.201   3.342   2.784
 5765TIP3   OH217300   0.847   3.506   1.984
 5765TIP3    H117301   0.753   3.507   1.966
 5765TIP3    H217302   0.886   3.468   1.906
 5766TIP3   OH217303   1.313   2.766   2.687
 5766TIP3    H117304   1.298   2.752   2.593
 5766TIP3    H217305   1.374   2.697   2.712
 5767TIP3   OH217306   4.330   3.103   2.134
 5767TIP3    H117307   4.236   3.098   2.117
 5767TIP3    H217308   4.355   3.013   2.153
 5768TIP3   OH217309   1.467   4.342   0.654
 5768TIP3    H117310   1.388   4.335   0.601
 5768TIP3    H217311   1.446   4.406   0.722
 5769TIP3   OH217312   6.146   0.630   2.667
 5769TIP3    H117313   6.215   0.572   2.698
 5769TIP3    H217314   6.190   0.713   2.650
 5770TIP3   OH217315   3.732   5.027   1.364
 5770TIP3    H117316   3.748   4.945   1.412
 5770TIP3    H217317   3.794   5.089   1.401
 5771TIP3   OH217318   4.153   2.879   3.432
 5771TIP3    H117319   4.073   2.861   3.481
 5771TIP3    H217320   4.177   2.795   3.392
 5772TIP3   OH217321   5.611   1.377   0.172
 5772TIP3    H117322   5.640   1.302   0.120
 5772TIP3    H217323   5.646   1.453   0.125
 5773TIP3   OH217324   5.702   5.221   0.925
 5773TIP3    H117325   5.665   5.281   0.990
 5773TIP3    H217326   5.738   5.149   0.976
 5774TIP3   OH217327   4.415   3.073   2.790
 5774TIP3    H117328   4.496   3.108   2.752
 5774TIP3    H217329   4.366   3.151   2.817
 5775TIP3   OH217330   6.079   2.991   3.168
 5775TIP3    H117331   6.163   2.945   3.161
 5775TIP3    H217332   6.048   2.999   3.078
 5776TIP3   OH217333   3.601   1.101   4.404
 5776TIP3    H117334   3.528   1.098   4.467
 5776TIP3    H217335   3.603   1.192   4.375
 5777TIP3   OH217336   0.702   4.761   1.793
 5777TIP3    H117337   0.744   4.707   1.726
 5777TIP3    H217338   0.609   4.759   1.770
 5778TIP3   OH217339   3.931   4.980   0.923
 5778TIP3    H117340   3.940   4.996   0.829
 5778TIP3    H217341   3.972   5.055   0.964
 5779TIP3   OH217342   1.173   4.939   1.285
 5779TIP3    H117343   1.187   5.011   1.224
 5779TIP3    H217344   1.180   4.979   1.371
 5780TIP3   OH217345   1.093   4.748   1.913
 5780TIP3    H117346   1.165   4.713   1.965
 5780TIP3    H217347   1.072   4.678   1.852
 5781TIP3   OH217348   3.576   2.287   4.620
 5781TIP3    H117349   3.606   2.373   4.650
 5781TIP3    H217350   3.630   2.225   4.668
 5782TIP3   OH217351   2.650   2.759   0.104
 5782TIP3    H117352   2.668   2.783   0.013
 5782TIP3    H217353   2.725   2.705   0.130
 5783TIP3   OH217354   1.977   1.701   1.460
 5783TIP3    H117355   1.893   1.715   1.505
 5783TIP3    H217356   2.041   1.749   1.513
 5784TIP3   OH217357   3.171   5.623   4.359
 5784TIP3    H117358   3.092   5.677   4.350
 5784TIP3    H217359   3.238   5.684   4.390
 5785TIP3   OH217360   5.258   0.077   1.934
 5785TIP3    H117361   5.258   0.173   1.938
 5785TIP3    H217362   5.317   0.050   2.005
 5786TIP3   OH217363   2.435   5.706   0.196
 5786TIP3    H117364   2.347   5.674   0.179
 5786TIP3    H217365   2.493   5.634   0.171
 5787TIP3   OH217366   4.184   3.061   0.364
 5787TIP3    H117367   4.219   3.054   0.453
 5787TIP3    H217368   4.235   3.131   0.323
 5788TIP3   OH217369   5.510   0.903   3.923
 5788TIP3    H117370   5.446   0.855   3.869
 5788TIP3    H217371   5.524   0.847   3.999
 5789TIP3   OH217372   3.674   1.125   2.174
 5789TIP3    H117373   3.674   1.125   2.270
 5789TIP3    H217374   3.761   1.159   2.150
 5790TIP3   OH217375   0.219   5.560   2.089
 5790TIP3    H117376   0.147   5.616   2.059
 5790TIP3    H217377   0.221   5.488   2.026
 5791TIP3   OH217378   4.548   3.284   3.055
 5791TIP3    H117379   4.553   3.256   3.146
 5791TIP3    H217380   4.457   3.265   3.029
 5792TIP3   OH217381   4.631   2.343   2.202
 5792TIP3    H117382   4.668   2.357   2.289
 5792TIP3    H217383   4.699   2.296   2.155
 5793TIP3   OH217384   1.293   2.526   1.127
 5793TIP3    H117385   1.302   2.482   1.043
 5793TIP3    H217386   1.284   2.619   1.104
 5794TIP3   OH217387   4.324   2.635   4.125
 5794TIP3    H117388   4.403   2.687   4.142
 5794TIP3    H217389   4.302   2.654   4.034
 5795TIP3   OH217390   5.304   2.923   1.573
 5795TIP3    H117391   5.318   2.829   1.570
 5795TIP3    H217392   5.235   2.940   1.509
 5796TIP3   OH217393   3.821   2.692   0.445
 5796TIP3    H117394   3.726   2.681   0.446
 5796TIP3    H217395   3.842   2.732   0.529
 5797TIP3   OH217396   4.822   1.819   2.802
 5797TIP3    H117397   4.881   1.766   2.855
 5797TIP3    H217398   4.819   1.774   2.717
 5798TIP3   OH217399   2.461   0.156   1.926
 5798TIP3    H117400   2.453   0.203   1.843
 5798TIP3    H217401   2.499   0.072   1.903
 5799TIP3   OH217402   6.298   0.041   1.984
 5799TIP3    H117403   6.308  -0.054   1.994
 5799TIP3    H217404   6.301   0.056   1.890
 5800TIP3   OH217405   4.831   3.134   3.610
 5800TIP3    H117406   4.802   3.225   3.600
 5800TIP3    H217407   4.785   3.087   3.541
 5801TIP3   OH217408   2.781   5.707   2.341
 5801TIP3    H117409   2.873   5.711   2.317
 5801TIP3    H217410   2.734   5.720   2.258
 5802TIP3   OH217411   3.930   1.202   2.126
 5802TIP3    H117412   3.955   1.111   2.140
 5802TIP3    H217413   3.954   1.247   2.207
 5803TIP3   OH217414   3.656   1.177   4.790
 5803TIP3    H117415   3.650   1.269   4.761
 5803TIP3    H217416   3.744   1.169   4.826
 5804TIP3   OH217417   1.672   4.977   2.035
 5804TIP3    H117418   1.765   4.960   2.027
 5804TIP3    H217419   1.629   4.896   2.008
 5805TIP3   OH217420   5.664   1.152   1.132
 5805TIP3    H117421   5.734   1.160   1.197
 5805TIP3    H217422   5.604   1.088   1.169
 5806TIP3   OH217423   5.662   1.849   2.089
 5806TIP3    H117424   5.627   1.840   2.178
 5806TIP3    H217425   5.712   1.931   2.092
 5807TIP3   OH217426   2.082   3.769   2.349
 5807TIP3    H117427   2.107   3.677   2.345
 5807TIP3    H217428   2.120   3.801   2.431
 5808TIP3   OH217429   3.962   2.415   3.263
 5808TIP3    H117430   3.921   2.334   3.230
 5808TIP3    H217431   3.891   2.461   3.308
 5809TIP3   OH217432   1.981   5.978   3.996
 5809TIP3    H117433   2.004   5.886   3.986
 5809TIP3    H217434   2.064   6.022   4.015
 5810TIP3   OH217435   0.501   0.428   3.561
 5810TIP3    H117436   0.556   0.462   3.490
 5810TIP3    H217437   0.415   0.468   3.546
 5811TIP3   OH217438   1.030   0.728   2.911
 5811TIP3    H117439   0.992   0.806   2.871
 5811TIP3    H217440   0.966   0.659   2.895
 5812TIP3   OH217441   3.823   4.608   1.763
 5812TIP3    H117442   3.910   4.648   1.769
 5812TIP3    H217443   3.806   4.573   1.850
 5813TIP3   OH217444   5.796   5.000   0.067
 5813TIP3    H117445   5.801   4.927   0.007
 5813TIP3    H217446   5.837   5.073   0.021
 5814TIP3   OH217447   2.861   0.761   4.137
 5814TIP3    H117448   2.891   0.761   4.228
 5814TIP3    H217449   2.786   0.701   4.136
 5815TIP3   OH217450   1.751   0.403   2.776
 5815TIP3    H117451   1.726   0.362   2.859
 5815TIP3    H217452   1.691   0.365   2.711
 5816TIP3   OH217453   5.679   1.941   2.525
 5816TIP3    H117454   5.774   1.955   2.527
 5816TIP3    H217455   5.665   1.868   2.586
 5817TIP3   OH217456   5.972   2.295   4.032
 5817TIP3    H117457   5.980   2.252   3.946
 5817TIP3    H217458   5.887   2.338   4.030
 5818TIP3   OH217459   2.260   5.979   2.116
 5818TIP3    H117460   2.340   6.009   2.073
 5818TIP3    H217461   2.263   5.883   2.109
 5819TIP3   OH217462   1.524   1.237   5.041
 5819TIP3    H117463   1.576   1.267   5.115
 5819TIP3    H217464   1.455   1.303   5.032
 5820TIP3   OH217465   2.708   5.656   1.118
 5820TIP3    H117466   2.797   5.651   1.152
 5820TIP3    H217467   2.700   5.581   1.059
 5821TIP3   OH217468   2.496   1.508   0.720
 5821TIP3    H117469   2.582   1.493   0.759
 5821TIP3    H217470   2.469   1.422   0.687
 5822TIP3   OH217471   0.811   5.870   1.946
 5822TIP3    H117472   0.817   5.943   2.007
 5822TIP3    H217473   0.900   5.833   1.945
 5823TIP3   OH217474   0.757   2.070   1.861
 5823TIP3    H117475   0.709   2.065   1.778
 5823TIP3    H217476   0.697   2.114   1.921
 5824TIP3   OH217477   4.326   5.676  -0.028
 5824TIP3    H117478   4.394   5.609  -0.031
 5824TIP3    H217479   4.319   5.698   0.065
 5825TIP3   OH217480   4.361   1.277   1.546
 5825TIP3    H117481   4.448   1.239   1.557
 5825TIP3    H217482   4.301   1.212   1.582
 5826TIP3   OH217483   5.106   2.860   4.453
 5826TIP3    H117484   5.198   2.886   4.447
 5826TIP3    H217485   5.109   2.766   4.472
 5827TIP3   OH217486   1.334   5.161   2.497
 5827TIP3    H117487   1.262   5.211   2.459
 5827TIP3    H217488   1.292   5.097   2.554
 5828TIP3   OH217489   1.170   3.352   4.487
 5828TIP3    H117490   1.106   3.285   4.511
 5828TIP3    H217491   1.145   3.428   4.539
 5829TIP3   OH217492   3.266   3.516   1.171
 5829TIP3    H117493   3.265   3.583   1.103
 5829TIP3    H217494   3.359   3.497   1.185
 5830TIP3   OH217495   2.651   5.932   3.977
 5830TIP3    H117496   2.712   5.865   4.009
 5830TIP3    H217497   2.645   5.995   4.049
 5831TIP3   OH217498   6.334   2.577   4.250
 5831TIP3    H117499   6.310   2.643   4.185
 5831TIP3    H217500   6.265   2.511   4.244
 5832TIP3   OH217501   2.011   3.674   0.984
 5832TIP3    H117502   2.059   3.610   1.037
 5832TIP3    H217503   2.065   3.753   0.987
 5833TIP3   OH217504   4.960   4.869   4.907
 5833TIP3    H117505   4.949   4.812   4.831
 5833TIP3    H217506   5.054   4.867   4.924
 5834TIP3   OH217507   5.097   3.173   4.491
 5834TIP3    H117508   5.105   3.180   4.586
 5834TIP3    H217509   5.180   3.135   4.463
 5835TIP3   OH217510   3.936   4.453   0.256
 5835TIP3    H117511   4.011   4.408   0.294
 5835TIP3    H217512   3.974   4.521   0.201
 5836TIP3   OH217513   0.624   4.728   3.832
 5836TIP3    H117514   0.565   4.780   3.777
 5836TIP3    H217515   0.584   4.729   3.918
 5837TIP3   OH217516   1.140   1.310   0.381
 5837TIP3    H117517   1.208   1.364   0.339
 5837TIP3    H217518   1.180   1.281   0.463
 5838TIP3   OH217519   5.742   2.771   0.894
 5838TIP3    H117520   5.700   2.771   0.808
 5838TIP3    H217521   5.807   2.701   0.889
 5839TIP3   OH217522   0.144   0.473   2.083
 5839TIP3    H117523   0.072   0.451   2.024
 5839TIP3    H217524   0.157   0.567   2.071
 5840TIP3   OH217525   0.730   5.168   2.235
 5840TIP3    H117526   0.639   5.195   2.224
 5840TIP3    H217527   0.770   5.184   2.149
 5841TIP3   OH217528   2.383   3.693   4.316
 5841TIP3    H117529   2.411   3.720   4.404
 5841TIP3    H217530   2.300   3.739   4.302
 5842TIP3   OH217531   3.531   5.591   1.152
 5842TIP3    H117532   3.515   5.612   1.244
 5842TIP3    H217533   3.538   5.676   1.108
 5843TIP3   OH217534   5.266   5.925   0.122
 5843TIP3    H117535   5.302   5.944   0.035
 5843TIP3    H217536   5.254   6.011   0.162
 5844TIP3   OH217537   5.764   1.850   2.965
 5844TIP3    H117538   5.780   1.906   3.041
 5844TIP3    H217539   5.724   1.771   3.001
 5845TIP3   OH217540   4.337   0.171   2.684
 5845TIP3    H117541   4.374   0.155   2.771
 5845TIP3    H217542   4.245   0.192   2.700
 5846TIP3   OH217543   2.749   2.411   2.331
 5846TIP3    H117544   2.839   2.380   2.343
 5846TIP3    H217545   2.749   2.452   2.245
 5847TIP3   OH217546   2.492   5.301   4.993
 5847TIP3    H117547   2.415   5.350   4.965
 5847TIP3    H217548   2.533   5.271   4.912
 5848TIP3   OH217549   4.432   3.558   0.352
 5848TIP3    H117550   4.415   3.486   0.414
 5848TIP3    H217551   4.527   3.566   0.349
 5849TIP3   OH217552   2.302   3.064   3.365
 5849TIP3    H117553   2.232   3.128   3.354
 5849TIP3    H217554   2.335   3.079   3.454
 5850TIP3   OH217555   5.888   4.960   3.725
 5850TIP3    H117556   5.794   4.946   3.720
 5850TIP3    H217557   5.911   4.933   3.814
 5851TIP3   OH217558   1.694   1.512   3.296
 5851TIP3    H117559   1.654   1.524   3.210
 5851TIP3    H217560   1.665   1.588   3.347
 5852TIP3   OH217561   4.697   5.578   1.987
 5852TIP3    H117562   4.770   5.563   1.926
 5852TIP3    H217563   4.691   5.497   2.038
 5853TIP3   OH217564   2.528   3.024   2.932
 5853TIP3    H117565   2.514   3.116   2.958
 5853TIP3    H217566   2.565   2.983   3.010
 5854TIP3   OH217567   5.564   2.802   1.917
 5854TIP3    H117568   5.472   2.822   1.898
 5854TIP3    H217569   5.581   2.720   1.872
 5855TIP3   OH217570   1.763   4.678   2.640
 5855TIP3    H117571   1.840   4.734   2.634
 5855TIP3    H217572   1.700   4.729   2.691
 5856TIP3   OH217573   1.246   5.044   4.111
 5856TIP3    H117574   1.168   5.089   4.079
 5856TIP3    H217575   1.217   4.997   4.189
 5857TIP3   OH217576   5.831   1.086   3.402
 5857TIP3    H117577   5.872   1.017   3.350
 5857TIP3    H217578   5.873   1.167   3.371
 5858TIP3   OH217579   5.378   5.830   2.268
 5858TIP3    H117580   5.396   5.736   2.279
 5858TIP3    H217581   5.324   5.853   2.343
 5859TIP3   OH217582   6.071   1.594   1.779
 5859TIP3    H117583   6.008   1.635   1.720
 5859TIP3    H217584   6.053   1.500   1.773
 5860TIP3   OH217585   1.368   4.509   0.885
 5860TIP3    H117586   1.322   4.550   0.959
 5860TIP3    H217587   1.400   4.582   0.833
 5861TIP3   OH217588   5.474   3.446   2.277
 5861TIP3    H117589   5.430   3.531   2.287
 5861TIP3    H217590   5.423   3.386   2.331
 5862TIP3   OH217591   5.875   0.449   2.992
 5862TIP3    H117592   5.939   0.453   2.921
 5862TIP3    H217593   5.895   0.368   3.038
 5863TIP3   OH217594   2.950   1.173   2.950
 5863TIP3    H117595   3.018   1.124   2.903
 5863TIP3    H217596   2.890   1.106   2.982
 5864TIP3   OH217597   4.746   5.812   0.379
 5864TIP3    H117598   4.699   5.729   0.368
 5864TIP3    H217599   4.835   5.787   0.403
 5865TIP3   OH217600   1.276   3.622   3.929
 5865TIP3    H117601   1.326   3.546   3.960
 5865TIP3    H217602   1.290   3.623   3.834
 5866TIP3   OH217603   0.148   3.112   1.622
 5866TIP3    H117604   0.102   3.132   1.703
 5866TIP3    H217605   0.208   3.041   1.645
 5867TIP3   OH217606   3.877   5.512   4.018
 5867TIP3    H117607   3.877   5.453   4.093
 5867TIP3    H217608   3.852   5.457   3.944
 5868TIP3   OH217609   1.004   1.745   1.815
 5868TIP3    H117610   1.018   1.651   1.826
 5868TIP3    H217611   1.092   1.782   1.805
 5869TIP3   OH217612   5.919   1.473   2.278
 5869TIP3    H117613   5.936   1.514   2.363
 5869TIP3    H217614   5.917   1.546   2.216
 5870TIP3   OH217615   6.318   5.685   0.491
 5870TIP3    H117616   6.389   5.747   0.505
 5870TIP3    H217617   6.240   5.739   0.484
 5871TIP3   OH217618   5.635   0.422   1.644
 5871TIP3    H117619   5.721   0.411   1.603
 5871TIP3    H217620   5.577   0.448   1.572
 5872TIP3   OH217621   3.475   2.907   2.835
 5872TIP3    H117622   3.471   2.935   2.744
 5872TIP3    H217623   3.383   2.901   2.862
 5873TIP3   OH217624   2.611   3.411   0.020
 5873TIP3    H117625   2.520   3.400   0.047
 5873TIP3    H217626   2.661   3.357   0.081
 5874TIP3   OH217627   5.384   5.936   3.500
 5874TIP3    H117628   5.353   6.024   3.522
 5874TIP3    H217629   5.446   5.915   3.569
 5875TIP3   OH217630   1.737   2.430   4.152
 5875TIP3    H117631   1.699   2.472   4.229
 5875TIP3    H217632   1.664   2.386   4.109
 5876TIP3   OH217633   5.535   5.060   3.339
 5876TIP3    H117634   5.571   5.082   3.253
 5876TIP3    H217635   5.470   4.992   3.321
 5877TIP3   OH217636   0.589   1.448   2.038
 5877TIP3    H117637   0.605   1.390   1.963
 5877TIP3    H217638   0.495   1.466   2.033
 5878TIP3   OH217639   0.860   0.903   1.960
 5878TIP3    H117640   0.952   0.913   1.935
 5878TIP3    H217641   0.861   0.835   2.027
 5879TIP3   OH217642   6.172   2.812   4.659
 5879TIP3    H117643   6.126   2.728   4.668
 5879TIP3    H217644   6.264   2.788   4.649
 5880TIP3   OH217645   2.770   5.421   0.977
 5880TIP3    H117646   2.850   5.426   0.924
 5880TIP3    H217647   2.783   5.344   1.033
 5881TIP3   OH217648   6.125   3.433   1.408
 5881TIP3    H117649   6.075   3.501   1.364
 5881TIP3    H217650   6.073   3.410   1.485
 5882TIP3   OH217651   1.369   5.667   0.623
 5882TIP3    H117652   1.415   5.585   0.644
 5882TIP3    H217653   1.308   5.642   0.554
 5883TIP3   OH217654   5.279   0.392   1.841
 5883TIP3    H117655   5.215   0.442   1.790
 5883TIP3    H217656   5.346   0.367   1.777
 5884TIP3   OH217657   0.140   3.218   0.617
 5884TIP3    H117658   0.155   3.130   0.581
 5884TIP3    H217659   0.049   3.237   0.596
 5885TIP3   OH217660   0.508   2.246   3.836
 5885TIP3    H117661   0.454   2.270   3.761
 5885TIP3    H217662   0.490   2.153   3.850
 5886TIP3   OH217663   4.932   3.647   2.112
 5886TIP3    H117664   5.020   3.623   2.142
 5886TIP3    H217665   4.905   3.717   2.171
 5887TIP3   OH217666   4.572   5.108   1.577
 5887TIP3    H117667   4.615   5.149   1.503
 5887TIP3    H217668   4.614   5.022   1.585
 5888TIP3   OH217669   1.640   2.644   3.898
 5888TIP3    H117670   1.608   2.707   3.962
 5888TIP3    H217671   1.565   2.588   3.879
 5889TIP3   OH217672   2.046   4.488   0.185
 5889TIP3    H117673   1.977   4.492   0.118
 5889TIP3    H217674   2.106   4.420   0.154
 5890TIP3   OH217675   1.850   5.820   4.344
 5890TIP3    H117676   1.915   5.879   4.382
 5890TIP3    H217677   1.902   5.758   4.293
 5891TIP3   OH217678   2.934   3.040   5.013
 5891TIP3    H117679   2.869   3.050   5.082
 5891TIP3    H217680   2.883   3.020   4.934
 5892TIP3   OH217681   5.042   4.302   0.397
 5892TIP3    H117682   5.035   4.349   0.480
 5892TIP3    H217683   4.991   4.222   0.411
 5893TIP3   OH217684   0.819   5.024   4.025
 5893TIP3    H117685   0.834   4.930   4.027
 5893TIP3    H217686   0.782   5.041   3.938
 5894TIP3   OH217687   0.556   4.613   4.366
 5894TIP3    H117688   0.570   4.657   4.282
 5894TIP3    H217689   0.608   4.533   4.360
 5895TIP3   OH217690   2.482   2.020   1.995
 5895TIP3    H117691   2.401   1.970   1.995
 5895TIP3    H217692   2.551   1.953   2.002
 5896TIP3   OH217693   4.779   0.214   2.434
 5896TIP3    H117694   4.740   0.205   2.521
 5896TIP3    H217695   4.777   0.308   2.416
 5897TIP3   OH217696   0.173   2.544   1.684
 5897TIP3    H117697   0.223   2.481   1.631
 5897TIP3    H217698   0.218   2.628   1.669
 5898TIP3   OH217699   1.490   2.870   1.264
 5898TIP3    H117700   1.522   2.808   1.330
 5898TIP3    H217701   1.534   2.844   1.183
 5899TIP3   OH217702   1.478   2.609   4.355
 5899TIP3    H117703   1.523   2.547   4.412
 5899TIP3    H217704   1.387   2.606   4.385
 5900TIP3   OH217705   1.525   1.084   0.883
 5900TIP3    H117706   1.472   1.006   0.865
 5900TIP3    H217707   1.568   1.064   0.966
 5901TIP3   OH217708   0.872   1.057   0.815
 5901TIP3    H117709   0.873   1.027   0.724
 5901TIP3    H217710   0.923   1.138   0.814
 5902TIP3   OH217711   0.247   2.852   1.160
 5902TIP3    H117712   0.270   2.916   1.226
 5902TIP3    H217713   0.330   2.810   1.136
 5903TIP3   OH217714   3.398   1.701   3.468
 5903TIP3    H117715   3.328   1.709   3.533
 5903TIP3    H217716   3.461   1.769   3.493
 5904TIP3   OH217717   4.910   1.208   2.355
 5904TIP3    H117718   4.923   1.249   2.270
 5904TIP3    H217719   4.840   1.145   2.341
 5905TIP3   OH217720   0.680   4.186   0.137
 5905TIP3    H117721   0.649   4.134   0.212
 5905TIP3    H217722   0.651   4.138   0.060
 5906TIP3   OH217723   2.146   5.069   2.253
 5906TIP3    H117724   2.074   5.081   2.315
 5906TIP3    H217725   2.114   5.106   2.171
 5907TIP3   OH217726   5.995   5.389   1.915
 5907TIP3    H117727   5.907   5.423   1.898
 5907TIP3    H217728   6.054   5.457   1.881
 5908TIP3   OH217729   4.685   0.201   0.597
 5908TIP3    H117730   4.624   0.193   0.523
 5908TIP3    H217731   4.755   0.139   0.577
 5909TIP3   OH217732   1.263   4.310   2.697
 5909TIP3    H117733   1.227   4.231   2.656
 5909TIP3    H217734   1.187   4.352   2.738
 5910TIP3   OH217735   4.866   3.653   0.970
 5910TIP3    H117736   4.775   3.641   0.994
 5910TIP3    H217737   4.915   3.638   1.051
 5911TIP3   OH217738   2.080   1.499   4.890
 5911TIP3    H117739   2.063   1.588   4.861
 5911TIP3    H217740   1.994   1.457   4.889
 5912TIP3   OH217741   1.479   3.601   4.473
 5912TIP3    H117742   1.464   3.632   4.562
 5912TIP3    H217743   1.400   3.625   4.425
 5913TIP3   OH217744   0.753   2.728   4.731
 5913TIP3    H117745   0.715   2.731   4.644
 5913TIP3    H217746   0.768   2.635   4.748
 5914TIP3   OH217747   1.630   0.074   4.264
 5914TIP3    H117748   1.616  -0.001   4.322
 5914TIP3    H217749   1.594   0.047   4.180
 5915TIP3   OH217750   4.167   0.423   2.226
 5915TIP3    H117751   4.209   0.348   2.268
 5915TIP3    H217752   4.233   0.456   2.165
 5916TIP3   OH217753   0.067   0.651   0.901
 5916TIP3    H117754   0.089   0.579   0.960
 5916TIP3    H217755  -0.021   0.678   0.928
 5917TIP3   OH217756   0.622   5.084   3.805
 5917TIP3    H117757   0.633   5.057   3.714
 5917TIP3    H217758   0.546   5.142   3.803
 5918TIP3   OH217759   2.344   2.159   3.670
 5918TIP3    H117760   2.439   2.164   3.679
 5918TIP3    H217761   2.309   2.192   3.753
 5919TIP3   OH217762   4.899   0.954   0.153
 5919TIP3    H117763   4.899   0.923   0.063
 5919TIP3    H217764   4.956   0.893   0.200
 5920TIP3   OH217765   2.272   1.849   4.059
 5920TIP3    H117766   2.216   1.923   4.034
 5920TIP3    H217767   2.252   1.781   3.995
 5921TIP3   OH217768   3.662   0.332   3.835
 5921TIP3    H117769   3.651   0.265   3.902
 5921TIP3    H217770   3.716   0.399   3.876
 5922TIP3   OH217771   4.731   2.260   3.586
 5922TIP3    H117772   4.768   2.172   3.589
 5922TIP3    H217773   4.676   2.265   3.664
 5923TIP3   OH217774   1.505   2.063   0.325
 5923TIP3    H117775   1.565   2.000   0.285
 5923TIP3    H217776   1.443   2.009   0.374
 5924TIP3   OH217777   2.413   5.130   3.100
 5924TIP3    H117778   2.474   5.204   3.105
 5924TIP3    H217779   2.394   5.108   3.191
 5925TIP3   OH217780   1.805   5.274   1.298
 5925TIP3    H117781   1.794   5.182   1.322
 5925TIP3    H217782   1.796   5.321   1.380
 5926TIP3   OH217783   4.691   0.942   1.375
 5926TIP3    H117784   4.633   0.972   1.306
 5926TIP3    H217785   4.653   0.859   1.405
 5927TIP3   OH217786   0.869   0.372   4.524
 5927TIP3    H117787   0.780   0.402   4.542
 5927TIP3    H217788   0.920   0.402   4.599
 5928TIP3   OH217789   6.295   4.243   3.100
 5928TIP3    H117790   6.263   4.324   3.140
 5928TIP3    H217791   6.390   4.255   3.096
 5929TIP3   OH217792   1.390   3.017   4.694
 5929TIP3    H117793   1.303   2.996   4.727
 5929TIP3    H217794   1.402   2.958   4.619
 5930TIP3   OH217795   0.399   3.869   1.388
 5930TIP3    H117796   0.472   3.891   1.331
 5930TIP3    H217797   0.407   3.775   1.403
 5931TIP3   OH217798   3.866   4.834   2.444
 5931TIP3    H117799   3.959   4.840   2.465
 5931TIP3    H217800   3.842   4.744   2.463
 5932TIP3   OH217801   5.283   3.862   3.775
 5932TIP3    H117802   5.375   3.861   3.799
 5932TIP3    H217803   5.260   3.955   3.771
 5933TIP3   OH217804   2.486   2.292   2.025
 5933TIP3    H117805   2.506   2.201   2.003
 5933TIP3    H217806   2.501   2.298   2.119
 5934TIP3   OH217807   3.382   0.493   3.018
 5934TIP3    H117808   3.384   0.585   2.990
 5934TIP3    H217809   3.290   0.474   3.035
 5935TIP3   OH217810   5.109   0.949   1.246
 5935TIP3    H117811   5.062   1.032   1.260
 5935TIP3    H217812   5.049   0.897   1.192
 5936TIP3   OH217813   5.495   3.912   3.003
 5936TIP3    H117814   5.545   3.853   2.946
 5936TIP3    H217815   5.416   3.932   2.953
 5937TIP3   OH217816   3.605   5.571   2.171
 5937TIP3    H117817   3.514   5.539   2.173
 5937TIP3    H217818   3.614   5.621   2.252
 5938TIP3   OH217819   4.447   1.726   3.699
 5938TIP3    H117820   4.466   1.759   3.787
 5938TIP3    H217821   4.447   1.804   3.644
 5939TIP3   OH217822   4.406   5.157   2.105
 5939TIP3    H117823   4.453   5.121   2.029
 5939TIP3    H217824   4.461   5.135   2.180
 5940TIP3   OH217825   2.766   1.606   4.796
 5940TIP3    H117826   2.693   1.626   4.737
 5940TIP3    H217827   2.791   1.690   4.834
 5941TIP3   OH217828   1.846   4.525   0.787
 5941TIP3    H117829   1.767   4.494   0.831
 5941TIP3    H217830   1.823   4.528   0.694
 5942TIP3   OH217831   3.811   1.346   4.563
 5942TIP3    H117832   3.764   1.350   4.480
 5942TIP3    H217833   3.763   1.405   4.621
 5943TIP3   OH217834   0.068   3.396   1.828
 5943TIP3    H117835   0.070   3.436   1.741
 5943TIP3    H217836  -0.001   3.330   1.822
 5944TIP3   OH217837   4.497   1.067   0.438
 5944TIP3    H117838   4.574   1.016   0.415
 5944TIP3    H217839   4.429   1.002   0.457
 5945TIP3   OH217840   4.159   4.403   0.448
 5945TIP3    H117841   4.246   4.366   0.463
 5945TIP3    H217842   4.175   4.497   0.440
 5946TIP3   OH217843   2.782   3.157   4.529
 5946TIP3    H117844   2.722   3.231   4.533
 5946TIP3    H217845   2.739   3.095   4.470
 5947TIP3   OH217846   4.592   0.614   3.033
 5947TIP3    H117847   4.506   0.582   3.003
 5947TIP3    H217848   4.581   0.632   3.126
 5948TIP3   OH217849   3.092   4.676   3.352
 5948TIP3    H117850   3.004   4.673   3.390
 5948TIP3    H217851   3.113   4.585   3.333
 5949TIP3   OH217852   6.293   2.381   4.795
 5949TIP3    H117853   6.332   2.363   4.709
 5949TIP3    H217854   6.358   2.435   4.840
 5950TIP3   OH217855   1.962   1.196   0.758
 5950TIP3    H117856   1.915   1.148   0.826
 5950TIP3    H217857   1.998   1.272   0.804
 5951TIP3   OH217858   6.066   4.716   1.541
 5951TIP3    H117859   6.127   4.748   1.607
 5951TIP3    H217860   5.987   4.768   1.554
 5952TIP3   OH217861   1.083   2.706   1.288
 5952TIP3    H117862   1.123   2.620   1.280
 5952TIP3    H217863   1.082   2.741   1.198
 5953TIP3   OH217864   4.150   0.723   3.311
 5953TIP3    H117865   4.097   0.747   3.388
 5953TIP3    H217866   4.114   0.639   3.283
 5954TIP3   OH217867   0.365   3.506   4.896
 5954TIP3    H117868   0.346   3.528   4.988
 5954TIP3    H217869   0.387   3.589   4.855
 5955TIP3   OH217870   2.496   3.346   1.240
 5955TIP3    H117871   2.486   3.405   1.315
 5955TIP3    H217872   2.477   3.259   1.276
 5956TIP3   OH217873   2.724   0.600   3.062
 5956TIP3    H117874   2.674   0.662   3.115
 5956TIP3    H217875   2.809   0.642   3.049
 5957TIP3   OH217876   1.897   0.507   4.581
 5957TIP3    H117877   1.910   0.439   4.648
 5957TIP3    H217878   1.973   0.564   4.591
 5958TIP3   OH217879   3.754   1.240   0.147
 5958TIP3    H117880   3.703   1.171   0.191
 5958TIP3    H217881   3.837   1.241   0.194
 5959TIP3   OH217882   3.061   2.878   0.919
 5959TIP3    H117883   3.014   2.867   0.836
 5959TIP3    H217884   2.994   2.909   0.980
 5960TIP3   OH217885   5.109   4.214   2.426
 5960TIP3    H117886   5.117   4.141   2.364
 5960TIP3    H217887   5.052   4.277   2.381
 5961TIP3   OH217888   2.933   3.035   3.102
 5961TIP3    H117889   2.873   3.110   3.096
 5961TIP3    H217890   2.983   3.051   3.182
 5962TIP3   OH217891   0.436   3.872   2.886
 5962TIP3    H117892   0.485   3.792   2.869
 5962TIP3    H217893   0.503   3.939   2.903
 5963TIP3   OH217894   1.909   1.241   2.373
 5963TIP3    H117895   1.993   1.267   2.336
 5963TIP3    H217896   1.853   1.226   2.297
 5964TIP3   OH217897   4.537   2.299   1.308
 5964TIP3    H117898   4.519   2.237   1.238
 5964TIP3    H217899   4.535   2.247   1.388
 5965TIP3   OH217900   0.451   2.642   2.913
 5965TIP3    H117901   0.412   2.555   2.918
 5965TIP3    H217902   0.413   2.681   2.834
 5966TIP3   OH217903   3.045   2.175   2.971
 5966TIP3    H117904   3.016   2.089   2.941
 5966TIP3    H217905   3.010   2.183   3.059
 5967TIP3   OH217906   3.979   4.631   5.038
 5967TIP3    H117907   3.984   4.726   5.028
 5967TIP3    H217908   3.993   4.597   4.950
 5968TIP3   OH217909   4.060   1.846   4.176
 5968TIP3    H117910   4.132   1.885   4.126
 5968TIP3    H217911   4.093   1.759   4.201
 5969TIP3   OH217912   1.255   2.092   0.557
 5969TIP3    H117913   1.309   2.171   0.552
 5969TIP3    H217914   1.187   2.105   0.490
 5970TIP3   OH217915   5.133   1.887   1.247
 5970TIP3    H117916   5.166   1.889   1.337
 5970TIP3    H217917   5.072   1.961   1.242
 5971TIP3   OH217918   1.293   5.799   2.090
 5971TIP3    H117919   1.275   5.836   2.176
 5971TIP3    H217920   1.339   5.717   2.109
 5972TIP3   OH217921   4.056   0.664   1.138
 5972TIP3    H117922   4.035   0.582   1.094
 5972TIP3    H217923   4.090   0.638   1.223
 5973TIP3   OH217924   1.728   0.562   1.721
 5973TIP3    H117925   1.650   0.527   1.763
 5973TIP3    H217926   1.731   0.654   1.747
 5974TIP3   OH217927   2.712   0.916   2.028
 5974TIP3    H117928   2.619   0.896   2.031
 5974TIP3    H217929   2.742   0.904   2.118
 5975TIP3   OH217930   2.090   3.617   2.912
 5975TIP3    H117931   2.050   3.531   2.924
 5975TIP3    H217932   2.048   3.672   2.979
 5976TIP3   OH217933   5.423   0.344   1.176
 5976TIP3    H117934   5.342   0.384   1.143
 5976TIP3    H217935   5.491   0.376   1.117
 5977TIP3   OH217936   2.341   1.119   0.452
 5977TIP3    H117937   2.394   1.041   0.433
 5977TIP3    H217938   2.335   1.165   0.368
 5978TIP3   OH217939   2.676   0.181   4.143
 5978TIP3    H117940   2.706   0.145   4.226
 5978TIP3    H217941   2.748   0.238   4.114
 5979TIP3   OH217942   5.953   2.863   1.899
 5979TIP3    H117943   5.958   2.769   1.917
 5979TIP3    H217944   5.901   2.899   1.972
 5980TIP3   OH217945   6.036   4.667   4.884
 5980TIP3    H117946   6.073   4.646   4.798
 5980TIP3    H217947   6.057   4.759   4.897
 5981TIP3   OH217948   5.914   3.544   0.145
 5981TIP3    H117949   5.957   3.620   0.105
 5981TIP3    H217950   5.898   3.484   0.072
 5982TIP3   OH217951   0.156   5.350   3.989
 5982TIP3    H117952   0.108   5.432   4.002
 5982TIP3    H217953   0.148   5.332   3.895
 5983TIP3   OH217954   6.039   3.657   0.963
 5983TIP3    H117955   5.996   3.649   1.048
 5983TIP3    H217956   6.096   3.580   0.957
 5984TIP3   OH217957   5.732   3.444   1.017
 5984TIP3    H117958   5.816   3.434   0.971
 5984TIP3    H217959   5.746   3.400   1.101
 5985TIP3   OH217960   4.697   0.837   3.951
 5985TIP3    H117961   4.641   0.895   4.003
 5985TIP3    H217962   4.643   0.760   3.936
 5986TIP3   OH217963   1.291   1.814   4.557
 5986TIP3    H117964   1.220   1.862   4.599
 5986TIP3    H217965   1.264   1.722   4.564
 5987TIP3   OH217966   0.860   0.807   3.540
 5987TIP3    H117967   0.895   0.718   3.549
 5987TIP3    H217968   0.937   0.863   3.540
 5988TIP3   OH217969   3.570   1.694   4.879
 5988TIP3    H117970   3.615   1.779   4.878
 5988TIP3    H217971   3.520   1.695   4.961
 5989TIP3   OH217972   3.315   2.830   0.800
 5989TIP3    H117973   3.391   2.866   0.845
 5989TIP3    H217974   3.241   2.877   0.838
 5990TIP3   OH217975   2.336   1.004   3.308
 5990TIP3    H117976   2.344   0.909   3.298
 5990TIP3    H217977   2.339   1.018   3.403
 5991TIP3   OH217978   0.038   4.115   1.935
 5991TIP3    H117979   0.133   4.104   1.945
 5991TIP3    H217980   0.029   4.177   1.863
 5992TIP3   OH217981   5.213   1.699   3.906
 5992TIP3    H117982   5.213   1.632   3.838
 5992TIP3    H217983   5.124   1.734   3.906
 5993TIP3   OH217984   0.296   3.722   4.028
 5993TIP3    H117985   0.281   3.760   3.942
 5993TIP3    H217986   0.252   3.637   4.025
 5994TIP3   OH217987   1.229   3.796   2.695
 5994TIP3    H117988   1.225   3.837   2.782
 5994TIP3    H217989   1.203   3.866   2.635
 5995TIP3   OH217990   4.226   3.817   2.689
 5995TIP3    H117991   4.310   3.818   2.642
 5995TIP3    H217992   4.220   3.904   2.730
 5996TIP3   OH217993   3.516   5.202   1.296
 5996TIP3    H117994   3.494   5.286   1.336
 5996TIP3    H217995   3.592   5.171   1.345
 5997TIP3   OH217996   4.222   4.468   3.944
 5997TIP3    H117997   4.287   4.529   3.908
 5997TIP3    H217998   4.237   4.387   3.895
 5998TIP3   OH217999   3.653   3.702   0.096
 5998TIP3    H118000   3.567   3.668   0.122
 5998TIP3    H218001   3.715   3.660   0.156
 5999TIP3   OH218002   6.161   4.008   3.225
 5999TIP3    H118003   6.193   4.089   3.185
 5999TIP3    H218004   6.067   4.007   3.207
 6000TIP3   OH218005   4.120   0.285   5.114
 6000TIP3    H118006   4.123   0.328   5.199
 6000TIP3    H218007   4.065   0.341   5.059
 6001TIP3   OH218008   2.728   2.355   1.807
 6001TIP3    H118009   2.728   2.261   1.792
 6001TIP3    H218010   2.635   2.379   1.806
 6002TIP3   OH218011   0.752   1.864   3.457
 6002TIP3    H118012   0.692   1.840   3.386
 6002TIP3    H218013   0.775   1.955   3.439
 6003TIP3   OH218014   3.842   1.717   4.312
 6003TIP3    H118015   3.890   1.793   4.280
 6003TIP3    H218016   3.891   1.690   4.391
 6004TIP3   OH218017   1.361   4.287   0.109
 6004TIP3    H118018   1.378   4.245   0.193
 6004TIP3    H218019   1.347   4.380   0.130
 6005TIP3   OH218020   2.027   5.842   0.439
 6005TIP3    H118021   2.073   5.890   0.370
 6005TIP3    H218022   2.084   5.846   0.515
 6006TIP3   OH218023   1.604   1.120   0.614
 6006TIP3    H118024   1.583   1.072   0.694
 6006TIP3    H218025   1.528   1.176   0.599
 6007TIP3   OH218026   1.237   4.888   2.212
 6007TIP3    H118027   1.183   4.817   2.248
 6007TIP3    H218028   1.268   4.854   2.128
 6008TIP3   OH218029   6.031   1.355   2.573
 6008TIP3    H118030   6.035   1.262   2.596
 6008TIP3    H218031   6.118   1.375   2.538
 6009TIP3   OH218032   2.871   1.865   1.772
 6009TIP3    H118033   2.936   1.936   1.775
 6009TIP3    H218034   2.920   1.787   1.800
 6010TIP3   OH218035   1.741   3.844   2.287
 6010TIP3    H118036   1.655   3.854   2.246
 6010TIP3    H218037   1.728   3.775   2.352
 6011TIP3   OH218038   0.505   0.520   4.173
 6011TIP3    H118039   0.598   0.500   4.165
 6011TIP3    H218040   0.498   0.568   4.256
 6012TIP3   OH218041   0.418   4.368   2.868
 6012TIP3    H118042   0.367   4.323   2.801
 6012TIP3    H218043   0.499   4.318   2.876
 6013TIP3   OH218044   2.211   2.162   3.924
 6013TIP3    H118045   2.190   2.136   4.014
 6013TIP3    H218046   2.231   2.255   3.930
 6014TIP3   OH218047   5.355   1.176   3.032
 6014TIP3    H118048   5.439   1.174   3.078
 6014TIP3    H218049   5.378   1.169   2.939
 6015TIP3   OH218050   0.828   2.079   0.625
 6015TIP3    H118051   0.854   2.152   0.568
 6015TIP3    H218052   0.746   2.108   0.664
 6016TIP3   OH218053   5.558   3.584   2.969
 6016TIP3    H118054   5.468   3.608   2.948
 6016TIP3    H218055   5.561   3.489   2.957
 6017TIP3   OH218056   5.739   5.544   4.002
 6017TIP3    H118057   5.755   5.606   4.073
 6017TIP3    H218058   5.813   5.557   3.942
 6018TIP3   OH218059   1.119   4.181   0.330
 6018TIP3    H118060   1.195   4.128   0.306
 6018TIP3    H218061   1.044   4.127   0.306
 6019TIP3   OH218062   4.575   1.737   4.801
 6019TIP3    H118063   4.595   1.827   4.777
 6019TIP3    H218064   4.493   1.743   4.850
 6020TIP3   OH218065   5.272   4.350   2.824
 6020TIP3    H118066   5.354   4.398   2.836
 6020TIP3    H218067   5.294   4.282   2.761
 6021TIP3   OH218068   1.861   3.395   1.473
 6021TIP3    H118069   1.867   3.299   1.478
 6021TIP3    H218070   1.816   3.412   1.390
 6022TIP3   OH218071   1.325   4.309   1.838
 6022TIP3    H118072   1.257   4.350   1.892
 6022TIP3    H218073   1.347   4.375   1.773
 6023TIP3   OH218074   5.177   0.065   5.000
 6023TIP3    H118075   5.178  -0.002   5.068
 6023TIP3    H218076   5.239   0.131   5.031
 6024TIP3   OH218077   3.145   0.258   0.104
 6024TIP3    H118078   3.210   0.320   0.073
 6024TIP3    H218079   3.175   0.173   0.073
 6025TIP3   OH218080   1.857   3.274   3.818
 6025TIP3    H118081   1.780   3.225   3.848
 6025TIP3    H218082   1.834   3.366   3.835
 6026TIP3   OH218083   4.987   0.848   4.237
 6026TIP3    H118084   5.081   0.848   4.253
 6026TIP3    H218085   4.979   0.828   4.143
 6027TIP3   OH218086   1.758   2.868   3.213
 6027TIP3    H118087   1.767   2.869   3.118
 6027TIP3    H218088   1.735   2.778   3.233
 6028TIP3   OH218089   1.613   2.875   1.717
 6028TIP3    H118090   1.660   2.882   1.634
 6028TIP3    H218091   1.625   2.783   1.743
 6029TIP3   OH218092   5.487   3.053   4.162
 6029TIP3    H118093   5.467   3.114   4.091
 6029TIP3    H218094   5.563   3.004   4.132
 6030TIP3   OH218095   4.398   3.226   0.301
 6030TIP3    H118096   4.466   3.163   0.326
 6030TIP3    H218097   4.446   3.295   0.255
 6031TIP3   OH218098   4.913   3.857   2.870
 6031TIP3    H118099   4.909   3.765   2.896
 6031TIP3    H218100   4.935   3.854   2.777
 6032TIP3   OH218101   6.244   5.579   4.598
 6032TIP3    H118102   6.297   5.564   4.676
 6032TIP3    H218103   6.178   5.510   4.600
 6033TIP3   OH218104   0.054   5.215   3.770
 6033TIP3    H118105   0.047   5.174   3.684
 6033TIP3    H218106   0.088   5.146   3.827
 6034TIP3   OH218107   1.581   0.134   2.890
 6034TIP3    H118108   1.571   0.110   2.798
 6034TIP3    H218109   1.502   0.099   2.933
 6035TIP3   OH218110   1.981   0.251   0.523
 6035TIP3    H118111   1.989   0.155   0.522
 6035TIP3    H218112   2.062   0.282   0.483
 6036TIP3   OH218113   2.884   4.089   0.024
 6036TIP3    H118114   2.895   3.999   0.053
 6036TIP3    H218115   2.968   4.132   0.043
 6037TIP3   OH218116   6.166   5.828   2.514
 6037TIP3    H118117   6.098   5.797   2.575
 6037TIP3    H218118   6.244   5.779   2.539
 6038TIP3   OH218119   2.745   1.426   0.126
 6038TIP3    H118120   2.759   1.335   0.100
 6038TIP3    H218121   2.686   1.421   0.202
 6039TIP3   OH218122   2.214   5.679   2.406
 6039TIP3    H118123   2.126   5.692   2.372
 6039TIP3    H218124   2.246   5.767   2.423
 6040TIP3   OH218125   3.729   5.759   3.611
 6040TIP3    H118126   3.737   5.749   3.706
 6040TIP3    H218127   3.745   5.672   3.576
 6041TIP3   OH218128   6.074   1.789   0.501
 6041TIP3    H118129   6.136   1.787   0.573
 6041TIP3    H218130   6.118   1.742   0.430
 6042TIP3   OH218131   4.303   4.975   0.527
 6042TIP3    H118132   4.380   4.919   0.541
 6042TIP3    H218133   4.229   4.919   0.548
 6043TIP3   OH218134   4.783   2.349   1.670
 6043TIP3    H118135   4.835   2.315   1.743
 6043TIP3    H218136   4.733   2.422   1.708
 6044TIP3   OH218137   0.535   0.942   3.443
 6044TIP3    H118138   0.500   0.867   3.394
 6044TIP3    H218139   0.460   0.975   3.493
 6045TIP3   OH218140   3.722   0.699   4.896
 6045TIP3    H118141   3.701   0.788   4.923
 6045TIP3    H218142   3.640   0.650   4.908
 6046TIP3   OH218143   6.265   3.976   4.456
 6046TIP3    H118144   6.359   3.957   4.454
 6046TIP3    H218145   6.259   4.070   4.439
 6047TIP3   OH218146   2.457   2.459   2.937
 6047TIP3    H118147   2.438   2.483   3.028
 6047TIP3    H218148   2.553   2.453   2.933
 6048TIP3   OH218149   5.649   0.156   1.710
 6048TIP3    H118150   5.630   0.250   1.713
 6048TIP3    H218151   5.643   0.133   1.617
 6049TIP3   OH218152   0.948   3.449   1.749
 6049TIP3    H118153   0.892   3.482   1.679
 6049TIP3    H218154   1.032   3.494   1.737
 6050TIP3   OH218155   4.531   4.251   4.167
 6050TIP3    H118156   4.524   4.156   4.179
 6050TIP3    H218157   4.541   4.263   4.073
 6051TIP3   OH218158   2.445   1.304   3.370
 6051TIP3    H118159   2.454   1.234   3.305
 6051TIP3    H218160   2.360   1.343   3.351
 6052TIP3   OH218161   0.669   5.643   2.855
 6052TIP3    H118162   0.747   5.649   2.911
 6052TIP3    H218163   0.596   5.640   2.916
 6053TIP3   OH218164   1.301   3.031   2.065
 6053TIP3    H118165   1.257   2.951   2.091
 6053TIP3    H218166   1.249   3.065   1.993
 6054TIP3   OH218167   5.547   2.206   4.702
 6054TIP3    H118168   5.573   2.215   4.794
 6054TIP3    H218169   5.521   2.294   4.676
 6055TIP3   OH218170  -0.020   4.517   4.731
 6055TIP3    H118171   0.034   4.496   4.807
 6055TIP3    H218172   0.030   4.582   4.682
 6056TIP3   OH218173   1.100   2.839   2.080
 6056TIP3    H118174   1.145   2.770   2.128
 6056TIP3    H218175   1.079   2.799   1.995
 6057TIP3   OH218176   4.168   4.011   3.472
 6057TIP3    H118177   4.209   4.030   3.388
 6057TIP3    H218178   4.239   4.018   3.536
 6058TIP3   OH218179   6.056   2.943   0.401
 6058TIP3    H118180   6.087   2.880   0.466
 6058TIP3    H218181   5.966   2.915   0.381
 6059TIP3   OH218182   0.644   1.847   4.031
 6059TIP3    H118183   0.606   1.903   3.963
 6059TIP3    H218184   0.725   1.814   3.993
 6060TIP3   OH218185   6.228   3.845   0.837
 6060TIP3    H118186   6.149   3.801   0.869
 6060TIP3    H218187   6.283   3.775   0.802
 6061TIP3   OH218188   3.730   5.838   0.564
 6061TIP3    H118189   3.760   5.809   0.650
 6061TIP3    H218190   3.646   5.880   0.581
 6062TIP3   OH218191   2.073   5.184   2.011
 6062TIP3    H118192   2.013   5.232   1.954
 6062TIP3    H218193   2.152   5.173   1.958
 6063TIP3   OH218194   5.889   1.185   1.326
 6063TIP3    H118195   5.983   1.171   1.337
 6063TIP3    H218196   5.853   1.172   1.413
 6064TIP3   OH218197   0.773   5.108   4.933
 6064TIP3    H118198   0.801   5.161   4.858
 6064TIP3    H218199   0.722   5.036   4.894
 6065TIP3   OH218200   5.872   5.888   0.605
 6065TIP3    H118201   5.824   5.965   0.639
 6065TIP3    H218202   5.814   5.851   0.540
 6066TIP3   OH218203   0.339   1.263   1.853
 6066TIP3    H118204   0.413   1.202   1.858
 6066TIP3    H218205   0.300   1.246   1.767
 6067TIP3   OH218206   3.445   3.078   1.987
 6067TIP3    H118207   3.515   3.091   1.923
 6067TIP3    H218208   3.389   3.155   1.978
 6068TIP3   OH218209   3.745   5.872   1.913
 6068TIP3    H118210   3.742   5.968   1.922
 6068TIP3    H218211   3.699   5.840   1.991
 6069TIP3   OH218212   2.378   3.423   0.424
 6069TIP3    H118213   2.295   3.451   0.462
 6069TIP3    H218214   2.360   3.337   0.387
 6070TIP3   OH218215   5.018   5.386   1.163
 6070TIP3    H118216   5.071   5.318   1.205
 6070TIP3    H218217   4.954   5.412   1.229
 6071TIP3   OH218218   1.185   1.396   1.412
 6071TIP3    H118219   1.201   1.348   1.493
 6071TIP3    H218220   1.214   1.486   1.431
 6072TIP3   OH218221   3.375   4.678   0.632
 6072TIP3    H118222   3.328   4.597   0.614
 6072TIP3    H218223   3.424   4.695   0.552
 6073TIP3   OH218224   3.237   5.685   3.459
 6073TIP3    H118225   3.326   5.703   3.489
 6073TIP3    H218226   3.185   5.682   3.539
 6074TIP3   OH218227   0.560   3.695   4.058
 6074TIP3    H118228   0.465   3.705   4.064
 6074TIP3    H218229   0.583   3.733   3.972
 6075TIP3   OH218230   2.528   2.373   3.808
 6075TIP3    H118231   2.589   2.360   3.881
 6075TIP3    H218232   2.565   2.319   3.737
 6076TIP3   OH218233   5.192   2.659   1.691
 6076TIP3    H118234   5.242   2.709   1.756
 6076TIP3    H218235   5.105   2.651   1.729
 6077TIP3   OH218236   2.038   1.170   4.894
 6077TIP3    H118237   1.944   1.184   4.887
 6077TIP3    H218238   2.046   1.099   4.958
 6078TIP3   OH218239   1.778   3.824   1.036
 6078TIP3    H118240   1.736   3.804   0.952
 6078TIP3    H218241   1.863   3.780   1.031
 6079TIP3   OH218242   3.636   5.733   3.261
 6079TIP3    H118243   3.565   5.779   3.306
 6079TIP3    H218244   3.638   5.770   3.173
 6080TIP3   OH218245   5.354   0.694   4.526
 6080TIP3    H118246   5.402   0.736   4.454
 6080TIP3    H218247   5.384   0.740   4.605
 6081TIP3   OH218248   1.815   4.294   3.061
 6081TIP3    H118249   1.797   4.349   2.985
 6081TIP3    H218250   1.851   4.354   3.126
 6082TIP3   OH218251   2.652   0.246   0.969
 6082TIP3    H118252   2.684   0.326   0.927
 6082TIP3    H218253   2.593   0.207   0.904
 6083TIP3   OH218254   2.551   0.911   3.083
 6083TIP3    H118255   2.529   0.910   3.176
 6083TIP3    H218256   2.479   0.864   3.041
 6084TIP3   OH218257   1.315   2.403   4.596
 6084TIP3    H118258   1.305   2.499   4.593
 6084TIP3    H218259   1.371   2.388   4.672
 6085TIP3   OH218260   1.094   4.570   4.883
 6085TIP3    H118261   1.125   4.480   4.879
 6085TIP3    H218262   1.082   4.595   4.791
 6086TIP3   OH218263   4.852   4.076   4.349
 6086TIP3    H118264   4.860   4.117   4.435
 6086TIP3    H218265   4.912   4.125   4.293
 6087TIP3   OH218266   2.018   3.767   3.151
 6087TIP3    H118267   1.958   3.839   3.167
 6087TIP3    H218268   2.106   3.806   3.157
 6088TIP3   OH218269   5.610   3.216   2.091
 6088TIP3    H118270   5.589   3.299   2.134
 6088TIP3    H218271   5.548   3.154   2.130
 6089TIP3   OH218272   4.618   4.656   2.817
 6089TIP3    H118273   4.565   4.698   2.749
 6089TIP3    H218274   4.666   4.728   2.857
 6090TIP3   OH218275   2.772   4.567   4.579
 6090TIP3    H118276   2.850   4.565   4.524
 6090TIP3    H218277   2.757   4.660   4.597
 6091TIP3   OH218278   1.379   2.354   0.562
 6091TIP3    H118279   1.457   2.377   0.612
 6091TIP3    H218280   1.341   2.439   0.536
 6092TIP3   OH218281   2.769   3.037   0.820
 6092TIP3    H118282   2.810   3.076   0.743
 6092TIP3    H218283   2.810   3.081   0.894
 6093TIP3   OH218284   6.306   5.149   1.933
 6093TIP3    H118285   6.263   5.210   1.873
 6093TIP3    H218286   6.367   5.100   1.878
 6094TIP3   OH218287   2.341   0.465   0.017
 6094TIP3    H118288   2.280   0.508   0.077
 6094TIP3    H218289   2.428   0.487   0.051
 6095TIP3   OH218290   1.872   0.145   4.566
 6095TIP3    H118291   1.869   0.186   4.652
 6095TIP3    H218292   1.795   0.088   4.564
 6096TIP3   OH218293   5.949   4.995   4.369
 6096TIP3    H118294   6.016   4.967   4.306
 6096TIP3    H218295   5.956   4.932   4.441
 6097TIP3   OH218296   5.062   0.158   4.445
 6097TIP3    H118297   5.081   0.171   4.352
 6097TIP3    H218298   5.146   0.132   4.483
 6098TIP3   OH218299   3.065   3.720   0.786
 6098TIP3    H118300   3.021   3.693   0.867
 6098TIP3    H218301   2.998   3.713   0.718
 6099TIP3   OH218302   0.259   2.407   2.936
 6099TIP3    H118303   0.213   2.365   3.008
 6099TIP3    H218304   0.247   2.348   2.862
 6100TIP3   OH218305   4.560   1.537   2.846
 6100TIP3    H118306   4.546   1.563   2.937
 6100TIP3    H218307   4.649   1.502   2.845
 6101TIP3   OH218308   3.322   2.343   4.540
 6101TIP3    H118309   3.316   2.432   4.577
 6101TIP3    H218310   3.404   2.308   4.577
 6102TIP3   OH218311   2.568   4.614   1.491
 6102TIP3    H118312   2.578   4.646   1.402
 6102TIP3    H218313   2.522   4.684   1.537
 6103TIP3   OH218314   1.209   1.477   3.961
 6103TIP3    H118315   1.243   1.566   3.948
 6103TIP3    H218316   1.285   1.427   3.990
 6104TIP3   OH218317   0.186   3.862   2.614
 6104TIP3    H118318   0.211   3.898   2.699
 6104TIP3    H218319   0.254   3.892   2.554
 6105TIP3   OH218320   2.078   3.500   3.706
 6105TIP3    H118321   2.088   3.408   3.729
 6105TIP3    H218322   2.016   3.535   3.771
 6106TIP3   OH218323   5.372   4.759   1.982
 6106TIP3    H118324   5.364   4.841   1.934
 6106TIP3    H218325   5.366   4.785   2.074
 6107TIP3   OH218326   6.088   1.903   3.496
 6107TIP3    H118327   6.045   1.817   3.491
 6107TIP3    H218328   6.097   1.931   3.405
 6108TIP3   OH218329   5.639   4.732   0.488
 6108TIP3    H118330   5.574   4.782   0.439
 6108TIP3    H218331   5.688   4.799   0.537
 6109TIP3   OH218332   2.307   0.422   2.048
 6109TIP3    H118333   2.366   0.355   2.014
 6109TIP3    H218334   2.219   0.388   2.033
 6110TIP3   OH218335   0.638   5.354   2.447
 6110TIP3    H118336   0.566   5.393   2.398
 6110TIP3    H218337   0.664   5.421   2.510
 6111TIP3   OH218338   3.508   2.252   3.122
 6111TIP3    H118339   3.457   2.186   3.074
 6111TIP3    H218340   3.443   2.315   3.152
 6112TIP3   OH218341   5.521   0.800   0.854
 6112TIP3    H118342   5.598   0.787   0.910
 6112TIP3    H218343   5.536   0.742   0.780
 6113TIP3   OH218344   3.789   2.740   1.539
 6113TIP3    H118345   3.729   2.666   1.534
 6113TIP3    H218346   3.872   2.705   1.507
 6114TIP3   OH218347   0.833   0.383   1.815
 6114TIP3    H118348   0.911   0.358   1.766
 6114TIP3    H218349   0.842   0.340   1.900
 6115TIP3   OH218350   2.615   0.541   2.801
 6115TIP3    H118351   2.643   0.568   2.888
 6115TIP3    H218352   2.676   0.585   2.741
 6116TIP3   OH218353   4.774   2.531   3.075
 6116TIP3    H118354   4.720   2.584   3.134
 6116TIP3    H218355   4.821   2.472   3.133
 6117TIP3   OH218356   1.740   0.970   2.416
 6117TIP3    H118357   1.767   0.963   2.508
 6117TIP3    H218358   1.692   1.053   2.412
 6118TIP3   OH218359   2.967   2.372   1.331
 6118TIP3    H118360   2.887   2.361   1.382
 6118TIP3    H218361   3.012   2.446   1.372
 6119TIP3   OH218362   6.232   1.400   0.533
 6119TIP3    H118363   6.312   1.452   0.518
 6119TIP3    H218364   6.259   1.333   0.596
 6120TIP3   OH218365   2.780   2.036   3.180
 6120TIP3    H118366   2.817   1.949   3.192
 6120TIP3    H218367   2.847   2.095   3.214
 6121TIP3   OH218368   1.394   1.277   1.253
 6121TIP3    H118369   1.472   1.333   1.259
 6121TIP3    H218370   1.321   1.337   1.265
 6122TIP3   OH218371   2.625   1.069   5.101
 6122TIP3    H118372   2.553   1.113   5.055
 6122TIP3    H218373   2.687   1.046   5.031
 6123TIP3   OH218374   1.204   1.157   0.143
 6123TIP3    H118375   1.239   1.068   0.138
 6123TIP3    H218376   1.215   1.182   0.235
 6124TIP3   OH218377   0.787   3.227   2.992
 6124TIP3    H118378   0.820   3.148   3.034
 6124TIP3    H218379   0.788   3.208   2.898
 6125TIP3   OH218380   2.721   1.299   2.835
 6125TIP3    H118381   2.799   1.266   2.878
 6125TIP3    H218382   2.721   1.393   2.853
 6126TIP3   OH218383   3.261   5.658   2.726
 6126TIP3    H118384   3.173   5.663   2.765
 6126TIP3    H218385   3.310   5.726   2.772
 6127TIP3   OH218386   0.111   5.012   3.952
 6127TIP3    H118387   0.039   5.033   4.012
 6127TIP3    H218388   0.190   5.026   4.004
 6128TIP3   OH218389   2.495   4.325   2.475
 6128TIP3    H118390   2.491   4.369   2.560
 6128TIP3    H218391   2.418   4.357   2.428
 6129TIP3   OH218392   2.534   3.514   1.454
 6129TIP3    H118393   2.504   3.544   1.540
 6129TIP3    H218394   2.629   3.523   1.456
 6130TIP3   OH218395   6.065   5.487   0.121
 6130TIP3    H118396   6.122   5.556   0.154
 6130TIP3    H218397   6.126   5.420   0.087
 6131TIP3   OH218398   3.140   2.882   4.019
 6131TIP3    H118399   3.154   2.937   4.096
 6131TIP3    H218400   3.066   2.923   3.974
 6132TIP3   OH218401   2.527   0.359   2.380
 6132TIP3    H118402   2.486   0.362   2.466
 6132TIP3    H218403   2.621   0.355   2.397
 6133TIP3   OH218404   3.459   3.234   2.517
 6133TIP3    H118405   3.496   3.145   2.512
 6133TIP3    H218406   3.535   3.291   2.529
 6134TIP3   OH218407   5.692   0.456   4.226
 6134TIP3    H118408   5.728   0.408   4.300
 6134TIP3    H218409   5.744   0.537   4.223
 6135TIP3   OH218410   4.317   2.628   1.346
 6135TIP3    H118411   4.392   2.581   1.383
 6135TIP3    H218412   4.286   2.572   1.275
 6136TIP3   OH218413   5.097   3.884   1.811
 6136TIP3    H118414   5.116   3.897   1.718
 6136TIP3    H218415   5.183   3.863   1.850
 6137TIP3   OH218416   4.010   1.309   0.238
 6137TIP3    H118417   4.054   1.308   0.153
 6137TIP3    H218418   4.081   1.329   0.300
 6138TIP3   OH218419   3.549   3.799   3.851
 6138TIP3    H118420   3.633   3.827   3.888
 6138TIP3    H218421   3.531   3.716   3.895
 6139TIP3   OH218422   0.296   1.805   1.760
 6139TIP3    H118423   0.386   1.778   1.744
 6139TIP3    H218424   0.288   1.807   1.855
 6140TIP3   OH218425   0.647   1.430   3.642
 6140TIP3    H118426   0.569   1.378   3.657
 6140TIP3    H218427   0.705   1.408   3.715
 6141TIP3   OH218428   5.348   4.710   4.891
 6141TIP3    H118429   5.290   4.746   4.958
 6141TIP3    H218430   5.397   4.641   4.936
 6142TIP3   OH218431   4.430   3.902   1.598
 6142TIP3    H118432   4.509   3.943   1.635
 6142TIP3    H218433   4.361   3.966   1.613
 6143TIP3   OH218434   2.425   1.144   4.592
 6143TIP3    H118435   2.393   1.101   4.513
 6143TIP3    H218436   2.385   1.231   4.590
 6144TIP3   OH218437   0.118   1.189   0.129
 6144TIP3    H118438   0.199   1.141   0.109
 6144TIP3    H218439   0.120   1.265   0.072
 6145TIP3   OH218440   1.981   3.412   4.192
 6145TIP3    H118441   1.982   3.316   4.196
 6145TIP3    H218442   1.977   3.439   4.284
 6146TIP3   OH218443   0.848   0.013   1.037
 6146TIP3    H118444   0.824  -0.036   0.958
 6146TIP3    H218445   0.943   0.024   1.030
 6147TIP3   OH218446   3.910   3.382   4.963
 6147TIP3    H118447   3.904   3.371   4.868
 6147TIP3    H218448   3.820   3.395   4.992
 6148TIP3   OH218449   5.752   0.324   0.292
 6148TIP3    H118450   5.715   0.307   0.205
 6148TIP3    H218451   5.676   0.344   0.347
 6149TIP3   OH218452   0.800   3.204   4.945
 6149TIP3    H118453   0.765   3.156   4.870
 6149TIP3    H218454   0.837   3.136   5.001
 6150TIP3   OH218455   4.063   1.647   0.270
 6150TIP3    H118456   4.040   1.701   0.194
 6150TIP3    H218457   3.991   1.585   0.277
 6151TIP3   OH218458   5.896   4.145   3.477
 6151TIP3    H118459   5.834   4.196   3.529
 6151TIP3    H218460   5.897   4.059   3.519
 6152TIP3   OH218461   4.978   2.575   1.875
 6152TIP3    H118462   4.942   2.486   1.877
 6152TIP3    H218463   5.044   2.575   1.945
 6153TIP3   OH218464   6.233   4.729   0.214
 6153TIP3    H118465   6.276   4.643   0.211
 6153TIP3    H218466   6.159   4.717   0.273
 6154TIP3   OH218467   2.726   2.321   1.457
 6154TIP3    H118468   2.652   2.262   1.469
 6154TIP3    H218469   2.709   2.395   1.515
 6155TIP3   OH218470   0.979   4.856   1.060
 6155TIP3    H118471   1.055   4.885   1.110
 6155TIP3    H218472   1.014   4.837   0.973
 6156TIP3   OH218473   0.151   3.304   1.413
 6156TIP3    H118474   0.218   3.370   1.431
 6156TIP3    H218475   0.170   3.233   1.475
 6157TIP3   OH218476   0.039   1.932   4.365
 6157TIP3    H118477   0.005   2.011   4.324
 6157TIP3    H218478  -0.039   1.891   4.405
 6158TIP3   OH218479   5.197   4.652   1.017
 6158TIP3    H118480   5.191   4.562   0.985
 6158TIP3    H218481   5.287   4.662   1.046
 6159TIP3   OH218482   1.533   5.648   3.930
 6159TIP3    H118483   1.581   5.599   3.864
 6159TIP3    H218484   1.443   5.647   3.900
 6160TIP3   OH218485   1.303   0.132   1.420
 6160TIP3    H118486   1.374   0.085   1.464
 6160TIP3    H218487   1.302   0.096   1.331
 6161TIP3   OH218488   4.814   1.076   2.811
 6161TIP3    H118489   4.848   1.096   2.899
 6161TIP3    H218490   4.826   0.982   2.802
 6162TIP3   OH218491   0.216   1.302   4.261
 6162TIP3    H118492   0.161   1.234   4.222
 6162TIP3    H218493   0.175   1.385   4.236
 6163TIP3   OH218494   5.431   4.973   5.010
 6163TIP3    H118495   5.373   4.998   4.938
 6163TIP3    H218496   5.378   4.987   5.089
 6164TIP3   OH218497   1.513   0.322   4.325
 6164TIP3    H118498   1.540   0.230   4.327
 6164TIP3    H218499   1.595   0.371   4.338
 6165TIP3   OH218500   1.008   4.792   0.763
 6165TIP3    H118501   0.971   4.811   0.677
 6165TIP3    H218502   0.933   4.762   0.815
 6166TIP3   OH218503   1.059   4.545   0.933
 6166TIP3    H118504   0.966   4.560   0.948
 6166TIP3    H218505   1.087   4.619   0.878
 6167TIP3   OH218506   3.867   5.611   0.989
 6167TIP3    H118507   3.934   5.645   1.047
 6167TIP3    H218508   3.908   5.536   0.945
 6168TIP3   OH218509   0.190   4.553   4.360
 6168TIP3    H118510   0.160   4.615   4.426
 6168TIP3    H218511   0.270   4.515   4.396
 6169TIP3   OH218512   3.748   4.015   2.774
 6169TIP3    H118513   3.770   4.100   2.813
 6169TIP3    H218514   3.769   3.951   2.843
 6170TIP3   OH218515   4.243   4.211   0.126
 6170TIP3    H118516   4.167   4.156   0.146
 6170TIP3    H218517   4.212   4.271   0.058
 6171TIP3   OH218518   2.850   3.854   1.300
 6171TIP3    H118519   2.942   3.868   1.277
 6171TIP3    H218520   2.808   3.831   1.217
 6172TIP3   OH218521   2.824   0.478   4.387
 6172TIP3    H118522   2.748   0.454   4.441
 6172TIP3    H218523   2.891   0.504   4.450
 6173TIP3   OH218524   1.562   1.707   1.761
 6173TIP3    H118525   1.607   1.661   1.690
 6173TIP3    H218526   1.484   1.745   1.720
 6174TIP3   OH218527   1.247   4.097   0.762
 6174TIP3    H118528   1.242   4.165   0.829
 6174TIP3    H218529   1.227   4.142   0.680
 6175TIP3   OH218530   1.576   4.676   0.725
 6175TIP3    H118531   1.633   4.636   0.660
 6175TIP3    H218532   1.635   4.713   0.791
 6176TIP3   OH218533   4.390   1.950   3.542
 6176TIP3    H118534   4.386   1.931   3.449
 6176TIP3    H218535   4.368   2.043   3.549
 6177TIP3   OH218536   5.054   4.199   2.705
 6177TIP3    H118537   5.106   4.250   2.768
 6177TIP3    H218538   5.090   4.222   2.620
 6178TIP3   OH218539   4.390   0.838   4.062
 6178TIP3    H118540   4.454   0.896   4.103
 6178TIP3    H218541   4.328   0.817   4.132
 6179TIP3   OH218542   4.295   3.355   3.599
 6179TIP3    H118543   4.277   3.287   3.533
 6179TIP3    H218544   4.377   3.327   3.639
 6180TIP3   OH218545   5.010   0.734   4.814
 6180TIP3    H118546   5.019   0.741   4.719
 6180TIP3    H218547   5.091   0.773   4.848
 6181TIP3   OH218548   1.429   0.939   5.161
 6181TIP3    H118549   1.509   0.886   5.156
 6181TIP3    H218550   1.438   0.987   5.244
 6182TIP3   OH218551   3.559   3.902   1.260
 6182TIP3    H118552   3.498   3.952   1.206
 6182TIP3    H218553   3.618   3.860   1.197
 6183TIP3   OH218554   5.615   6.010   4.805
 6183TIP3    H118555   5.547   6.029   4.742
 6183TIP3    H218556   5.653   5.926   4.777
 6184TIP3   OH218557   0.698   3.672   3.409
 6184TIP3    H118558   0.661   3.612   3.344
 6184TIP3    H218559   0.622   3.707   3.456
 6185TIP3   OH218560   3.216   2.113   3.486
 6185TIP3    H118561   3.185   2.137   3.574
 6185TIP3    H218562   3.283   2.177   3.466
 6186TIP3   OH218563   5.505   5.788   1.158
 6186TIP3    H118564   5.495   5.808   1.251
 6186TIP3    H218565   5.592   5.821   1.135
 6187TIP3   OH218566   2.113   4.013   3.359
 6187TIP3    H118567   2.092   4.039   3.449
 6187TIP3    H218568   2.116   4.096   3.311
 6188TIP3   OH218569   2.959   3.435   5.126
 6188TIP3    H118570   2.873   3.394   5.129
 6188TIP3    H218571   3.010   3.387   5.192
 6189TIP3   OH218572   1.608   3.454   4.294
 6189TIP3    H118573   1.691   3.486   4.329
 6189TIP3    H218574   1.544   3.472   4.363
 6190TIP3   OH218575   6.293   0.846   1.478
 6190TIP3    H118576   6.327   0.868   1.564
 6190TIP3    H218577   6.297   0.928   1.428
 6191TIP3   OH218578   2.827   3.612   4.966
 6191TIP3    H118579   2.891   3.665   4.918
 6191TIP3    H218580   2.878   3.540   5.001
 6192TIP3   OH218581   3.943   5.226   0.506
 6192TIP3    H118582   3.996   5.170   0.449
 6192TIP3    H218583   4.006   5.286   0.545
 6193TIP3   OH218584   6.292   1.851   1.346
 6193TIP3    H118585   6.292   1.824   1.437
 6193TIP3    H218586   6.204   1.885   1.331
 6194TIP3   OH218587   4.837   5.065   3.833
 6194TIP3    H118588   4.745   5.062   3.859
 6194TIP3    H218589   4.840   5.129   3.762
 6195TIP3   OH218590   1.597   0.578   5.055
 6195TIP3    H118591   1.668   0.623   5.008
 6195TIP3    H218592   1.570   0.641   5.122
 6196TIP3   OH218593   5.220   0.459   3.703
 6196TIP3    H118594   5.258   0.396   3.642
 6196TIP3    H218595   5.198   0.407   3.781
 6197TIP3   OH218596   5.621   3.622   4.800
 6197TIP3    H118597   5.594   3.534   4.776
 6197TIP3    H218598   5.571   3.643   4.879
 6198TIP3   OH218599   3.515   2.069   1.362
 6198TIP3    H118600   3.461   2.113   1.427
 6198TIP3    H218601   3.523   1.979   1.395
 6199TIP3   OH218602   3.262   0.471   3.464
 6199TIP3    H118603   3.245   0.535   3.533
 6199TIP3    H218604   3.334   0.417   3.498
 6200TIP3   OH218605   5.840   1.929   3.259
 6200TIP3    H118606   5.927   1.967   3.242
 6200TIP3    H218607   5.780   2.002   3.246
 6201TIP3   OH218608   0.658   1.048   2.110
 6201TIP3    H118609   0.644   1.002   2.192
 6201TIP3    H218610   0.725   0.996   2.065
 6202TIP3   OH218611   6.010   4.659   0.761
 6202TIP3    H118612   6.073   4.723   0.729
 6202TIP3    H218613   6.057   4.611   0.828
 6203TIP3   OH218614   5.669   4.423   4.391
 6203TIP3    H118615   5.735   4.419   4.460
 6203TIP3    H218616   5.599   4.476   4.428
 6204TIP3   OH218617   2.210   2.518   0.770
 6204TIP3    H118618   2.197   2.561   0.854
 6204TIP3    H218619   2.133   2.461   0.760
 6205TIP3   OH218620   1.864   5.057   3.384
 6205TIP3    H118621   1.889   5.137   3.431
 6205TIP3    H218622   1.860   5.083   3.292
 6206TIP3   OH218623   5.327   0.252   4.149
 6206TIP3    H118624   5.283   0.279   4.068
 6206TIP3    H218625   5.316   0.326   4.208
 6207TIP3   OH218626   3.789   5.333   3.054
 6207TIP3    H118627   3.806   5.393   3.126
 6207TIP3    H218628   3.706   5.291   3.077
 6208TIP3   OH218629   3.319   2.396   2.118
 6208TIP3    H118630   3.272   2.322   2.155
 6208TIP3    H218631   3.254   2.467   2.117
 6209TIP3   OH218632   4.077   2.607   1.738
 6209TIP3    H118633   4.007   2.542   1.741
 6209TIP3    H218634   4.079   2.637   1.647
 6210TIP3   OH218635   0.651   0.261   3.935
 6210TIP3    H118636   0.701   0.204   3.994
 6210TIP3    H218637   0.587   0.203   3.894
 6211TIP3   OH218638   5.644   0.644   0.105
 6211TIP3    H118639   5.698   0.573   0.069
 6211TIP3    H218640   5.559   0.602   0.123
 6212TIP3   OH218641   4.965   4.339   0.832
 6212TIP3    H118642   4.924   4.277   0.892
 6212TIP3    H218643   4.946   4.305   0.745
 6213TIP3   OH218644   2.139   5.353   4.149
 6213TIP3    H118645   2.070   5.333   4.212
 6213TIP3    H218646   2.208   5.289   4.166
 6214TIP3   OH218647   1.367   0.444   4.549
 6214TIP3    H118648   1.396   0.416   4.462
 6214TIP3    H218649   1.405   0.380   4.609
 6215TIP3   OH218650   0.410   3.089   3.484
 6215TIP3    H118651   0.397   3.137   3.565
 6215TIP3    H218652   0.482   3.134   3.440
 6216TIP3   OH218653   5.395   2.165   3.137
 6216TIP3    H118654   5.385   2.254   3.104
 6216TIP3    H218655   5.331   2.158   3.208
 6217TIP3   OH218656   0.106   4.964   0.099
 6217TIP3    H118657   0.065   4.877   0.106
 6217TIP3    H218658   0.065   5.003   0.022
 6218TIP3   OH218659   5.464   0.159   3.357
 6218TIP3    H118660   5.391   0.180   3.416
 6218TIP3    H218661   5.438   0.195   3.273
 6219TIP3   OH218662   4.791   0.604   0.946
 6219TIP3    H118663   4.834   0.673   0.896
 6219TIP3    H218664   4.799   0.526   0.891
 6220TIP3   OH218665   2.010   2.871   5.174
 6220TIP3    H118666   2.072   2.806   5.142
 6220TIP3    H218667   1.978   2.914   5.095
 6221TIP3   OH218668   0.253   2.230   0.190
 6221TIP3    H118669   0.194   2.178   0.135
 6221TIP3    H218670   0.218   2.319   0.185
 6222TIP3   OH218671   1.730   4.048   4.992
 6222TIP3    H118672   1.786   4.123   4.972
 6222TIP3    H218673   1.762   4.015   5.075
 6223TIP3   OH218674   0.370   1.743   2.806
 6223TIP3    H118675   0.393   1.672   2.746
 6223TIP3    H218676   0.320   1.701   2.875
 6224TIP3   OH218677   4.042   0.434   3.488
 6224TIP3    H118678   3.950   0.458   3.476
 6224TIP3    H218679   4.039   0.355   3.542
 6225TIP3   OH218680   6.086   0.769   3.027
 6225TIP3    H118681   6.168   0.720   3.017
 6225TIP3    H218682   6.028   0.709   3.073
 6226TIP3   OH218683   3.366   2.955   4.818
 6226TIP3    H118684   3.388   3.031   4.764
 6226TIP3    H218685   3.441   2.896   4.808
 6227TIP3   OH218686   2.873   4.199   5.108
 6227TIP3    H118687   2.926   4.164   5.179
 6227TIP3    H218688   2.791   4.225   5.149
 6228TIP3   OH218689   3.493   1.180   1.901
 6228TIP3    H118690   3.577   1.172   1.946
 6228TIP3    H218691   3.489   1.102   1.845
 6229TIP3   OH218692   4.811   0.914   4.854
 6229TIP3    H118693   4.748   0.918   4.783
 6229TIP3    H218694   4.858   0.832   4.840
 6230TIP3   OH218695   3.889   0.593   0.092
 6230TIP3    H118696   3.836   0.627   0.164
 6230TIP3    H218697   3.834   0.605   0.014
 6231TIP3   OH218698   2.267   2.155   5.090
 6231TIP3    H118699   2.354   2.127   5.118
 6231TIP3    H218700   2.221   2.177   5.171
 6232TIP3   OH218701   0.798   3.646   2.502
 6232TIP3    H118702   0.811   3.735   2.532
 6232TIP3    H218703   0.826   3.591   2.576
 6233TIP3   OH218704   2.632   0.936   4.014
 6233TIP3    H118705   2.630   0.871   3.944
 6233TIP3    H218706   2.724   0.941   4.039
 6234TIP3   OH218707   6.087   3.189   3.594
 6234TIP3    H118708   6.171   3.155   3.624
 6234TIP3    H218709   6.093   3.191   3.499
 6235TIP3   OH218710   3.528   2.103   2.050
 6235TIP3    H118711   3.543   2.197   2.041
 6235TIP3    H218712   3.559   2.082   2.138
 6236TIP3   OH218713   1.364   1.817   5.008
 6236TIP3    H118714   1.320   1.743   4.966
 6236TIP3    H218715   1.457   1.792   5.010
 6237TIP3   OH218716   5.225   2.202   3.611
 6237TIP3    H118717   5.209   2.273   3.674
 6237TIP3    H218718   5.138   2.180   3.577
 6238TIP3   OH218719   5.411   2.108   4.471
 6238TIP3    H118720   5.466   2.133   4.545
 6238TIP3    H218721   5.470   2.065   4.410
 6239TIP3   OH218722   3.480   0.601   2.414
 6239TIP3    H118723   3.453   0.669   2.475
 6239TIP3    H218724   3.456   0.635   2.328
 6240TIP3   OH218725   4.783   5.385   0.957
 6240TIP3    H118726   4.853   5.370   1.021
 6240TIP3    H218727   4.783   5.479   0.943
 6241TIP3   OH218728   0.720   2.964   1.577
 6241TIP3    H118729   0.799   2.911   1.591
 6241TIP3    H218730   0.748   3.054   1.594
 6242TIP3   OH218731   1.422   2.938   3.203
 6242TIP3    H118732   1.511   2.906   3.192
 6242TIP3    H218733   1.375   2.906   3.126
 6243TIP3   OH218734   5.056   0.260   3.317
 6243TIP3    H118735   5.026   0.258   3.227
 6243TIP3    H218736   5.060   0.168   3.343
 6244TIP3   OH218737   0.535   4.669   0.073
 6244TIP3    H118738   0.454   4.710   0.041
 6244TIP3    H218739   0.509   4.579   0.094
 6245TIP3   OH218740   5.194   4.553   2.611
 6245TIP3    H118741   5.107   4.545   2.572
 6245TIP3    H218742   5.179   4.544   2.705
 6246TIP3   OH218743   4.539   3.965   4.609
 6246TIP3    H118744   4.531   3.917   4.527
 6246TIP3    H218745   4.593   3.909   4.665
 6247TIP3   OH218746   1.947   5.586   3.514
 6247TIP3    H118747   1.991   5.639   3.580
 6247TIP3    H218748   2.001   5.596   3.435
 6248TIP3   OH218749   1.030   4.429   1.511
 6248TIP3    H118750   1.034   4.525   1.511
 6248TIP3    H218751   1.099   4.403   1.450
 6249TIP3   OH218752   2.289   3.656   3.347
 6249TIP3    H118753   2.203   3.614   3.353
 6249TIP3    H218754   2.270   3.749   3.355
 6250TIP3   OH218755   5.098   2.429   3.301
 6250TIP3    H118756   5.062   2.468   3.221
 6250TIP3    H218757   5.088   2.498   3.367
 6251TIP3   OH218758   6.194   4.145   3.501
 6251TIP3    H118759   6.130   4.081   3.468
 6251TIP3    H218760   6.189   4.218   3.439
 6252TIP3   OH218761   3.455   0.158   1.256
 6252TIP3    H118762   3.410   0.210   1.323
 6252TIP3    H218763   3.511   0.221   1.210
 6253TIP3   OH218764   2.746   0.109   4.630
 6253TIP3    H118765   2.753   0.096   4.536
 6253TIP3    H218766   2.670   0.058   4.657
 6254TIP3   OH218767   4.256   0.119   2.314
 6254TIP3    H118768   4.162   0.113   2.294
 6254TIP3    H218769   4.299   0.076   2.240
 6255TIP3   OH218770   2.738   3.594   0.772
 6255TIP3    H118771   2.696   3.657   0.831
 6255TIP3    H218772   2.672   3.527   0.758
 6256TIP3   OH218773   4.434   1.697   2.210
 6256TIP3    H118774   4.470   1.725   2.126
 6256TIP3    H218775   4.405   1.607   2.195
 6257TIP3   OH218776   5.266   3.197   0.336
 6257TIP3    H118777   5.338   3.234   0.386
 6257TIP3    H218778   5.237   3.268   0.279
 6258TIP3   OH218779   5.966   4.018   0.170
 6258TIP3    H118780   5.882   4.002   0.127
 6258TIP3    H218781   6.012   4.079   0.112
 6259TIP3   OH218782   3.574   5.120   3.049
 6259TIP3    H118783   3.637   5.049   3.034
 6259TIP3    H218784   3.557   5.156   2.962
 6260TIP3   OH218785   3.154   0.446   0.959
 6260TIP3    H118786   3.131   0.466   0.868
 6260TIP3    H218787   3.094   0.376   0.984
 6261TIP3   OH218788   4.886   2.743   2.242
 6261TIP3    H118789   4.798   2.776   2.224
 6261TIP3    H218790   4.876   2.689   2.321
 6262TIP3   OH218791   2.121   2.333   1.452
 6262TIP3    H118792   2.140   2.361   1.363
 6262TIP3    H218793   2.049   2.389   1.480
 6263TIP3   OH218794   5.280   5.378   3.243
 6263TIP3    H118795   5.351   5.441   3.257
 6263TIP3    H218796   5.260   5.385   3.150
 6264TIP3   OH218797   0.527   3.819   0.407
 6264TIP3    H118798   0.575   3.736   0.410
 6264TIP3    H218799   0.512   3.835   0.314
 6265TIP3   OH218800   5.522   3.348   3.622
 6265TIP3    H118801   5.584   3.276   3.636
 6265TIP3    H218802   5.436   3.308   3.636
 6266TIP3   OH218803   4.187   2.383   2.588
 6266TIP3    H118804   4.135   2.398   2.510
 6266TIP3    H218805   4.126   2.395   2.661
 6267TIP3   OH218806   5.049   3.538   1.192
 6267TIP3    H118807   5.064   3.608   1.256
 6267TIP3    H218808   5.035   3.460   1.245
 6268TIP3   OH218809   1.631   0.432   3.667
 6268TIP3    H118810   1.583   0.465   3.592
 6268TIP3    H218811   1.713   0.481   3.666
 6269TIP3   OH218812   3.321   2.253   2.431
 6269TIP3    H118813   3.289   2.180   2.484
 6269TIP3    H218814   3.280   2.241   2.346
 6270TIP3   OH218815   0.870   3.650   5.208
 6270TIP3    H118816   0.957   3.683   5.184
 6270TIP3    H218817   0.810   3.705   5.159
 6271TIP3   OH218818   2.451   5.041   1.234
 6271TIP3    H118819   2.369   5.065   1.191
 6271TIP3    H218820   2.432   5.049   1.328
 6272TIP3   OH218821   5.360   3.729   3.214
 6272TIP3    H118822   5.394   3.803   3.163
 6272TIP3    H218823   5.405   3.653   3.177
 6273TIP3   OH218824   0.042   0.960   1.696
 6273TIP3    H118825   0.114   1.021   1.681
 6273TIP3    H218826  -0.028   1.013   1.734
 6274TIP3   OH218827   4.443   3.364   0.061
 6274TIP3    H118828   4.374   3.414   0.019
 6274TIP3    H218829   4.502   3.340  -0.011
 6275TIP3   OH218830   2.278   4.429   2.342
 6275TIP3    H118831   2.256   4.351   2.290
 6275TIP3    H218832   2.193   4.468   2.364
 6276TIP3   OH218833   2.311   1.371   4.834
 6276TIP3    H118834   2.310   1.374   4.738
 6276TIP3    H218835   2.229   1.412   4.860
 6277TIP3   OH218836   1.321   2.709   3.306
 6277TIP3    H118837   1.306   2.710   3.401
 6277TIP3    H218838   1.337   2.800   3.284
 6278TIP3   OH218839   5.050   2.753   1.312
 6278TIP3    H118840   5.022   2.670   1.350
 6278TIP3    H218841   5.133   2.733   1.269
 6279TIP3   OH218842   0.395   5.115   1.194
 6279TIP3    H118843   0.462   5.104   1.262
 6279TIP3    H218844   0.346   5.192   1.221
 6280TIP3   OH218845   1.155   2.545   0.482
 6280TIP3    H118846   1.112   2.600   0.416
 6280TIP3    H218847   1.114   2.459   0.472
 6281TIP3   OH218848   5.049   4.648   3.382
 6281TIP3    H118849   5.141   4.638   3.360
 6281TIP3    H218850   5.005   4.578   3.333
 6282TIP3   OH218851   4.697   2.656   0.503
 6282TIP3    H118852   4.690   2.574   0.454
 6282TIP3    H218853   4.607   2.674   0.530
 6283TIP3   OH218854   0.402   5.102   2.487
 6283TIP3    H118855   0.497   5.109   2.498
 6283TIP3    H218856   0.367   5.180   2.531
 6284TIP3   OH218857   4.684   5.595   1.638
 6284TIP3    H118858   4.610   5.536   1.627
 6284TIP3    H218859   4.740   5.552   1.703
 6285TIP3   OH218860   4.081   3.550   2.258
 6285TIP3    H118861   4.151   3.559   2.193
 6285TIP3    H218862   4.004   3.589   2.215
 6286TIP3   OH218863   5.401   5.202   1.979
 6286TIP3    H118864   5.403   5.112   1.946
 6286TIP3    H218865   5.323   5.207   2.033
 6287TIP3   OH218866   3.440   1.696   5.112
 6287TIP3    H118867   3.392   1.765   5.157
 6287TIP3    H218868   3.474   1.641   5.183
 6288TIP3   OH218869   2.342   3.381   0.100
 6288TIP3    H118870   2.295   3.436   0.162
 6288TIP3    H218871   2.279   3.314   0.074
 6289TIP3   OH218872   3.387   4.322   0.145
 6289TIP3    H118873   3.380   4.228   0.161
 6289TIP3    H218874   3.375   4.332   0.051
 6290TIP3   OH218875   3.510   4.862   2.094
 6290TIP3    H118876   3.420   4.835   2.075
 6290TIP3    H218877   3.506   4.897   2.183
 6291TIP3   OH218878   0.373   3.364   2.332
 6291TIP3    H118879   0.399   3.272   2.328
 6291TIP3    H218880   0.452   3.411   2.358
 6292TIP3   OH218881   0.708   4.706   4.153
 6292TIP3    H118882   0.790   4.689   4.199
 6292TIP3    H218883   0.713   4.652   4.074
 6293TIP3   OH218884   1.693   5.433   4.288
 6293TIP3    H118885   1.669   5.492   4.359
 6293TIP3    H218886   1.749   5.485   4.231
 6294TIP3   OH218887   5.430   3.847   2.680
 6294TIP3    H118888   5.503   3.821   2.624
 6294TIP3    H218889   5.371   3.771   2.679
 6295TIP3   OH218890   3.321   3.500   2.556
 6295TIP3    H118891   3.288   3.411   2.561
 6295TIP3    H218892   3.411   3.494   2.587
 6296TIP3   OH218893   0.220   4.562   0.224
 6296TIP3    H118894   0.146   4.510   0.254
 6296TIP3    H218895   0.256   4.600   0.304
 6297TIP3   OH218896   5.301   2.662   1.203
 6297TIP3    H118897   5.330   2.619   1.122
 6297TIP3    H218898   5.277   2.589   1.261
 6298TIP3   OH218899   2.545   3.977   2.044
 6298TIP3    H118900   2.502   4.021   1.971
 6298TIP3    H218901   2.636   4.003   2.038
 6299TIP3   OH218902   3.115   1.872   2.021
 6299TIP3    H118903   3.097   1.810   2.091
 6299TIP3    H218904   3.104   1.821   1.940
 6300TIP3   OH218905   0.050   0.921   2.258
 6300TIP3    H118906   0.141   0.902   2.281
 6300TIP3    H218907   0.051   0.927   2.163
 6301TIP3   OH218908   2.970   0.565   3.296
 6301TIP3    H118909   2.982   0.498   3.363
 6301TIP3    H218910   2.880   0.595   3.308
 6302TIP3   OH218911   2.483   2.755   2.024
 6302TIP3    H118912   2.441   2.831   2.064
 6302TIP3    H218913   2.419   2.684   2.035
 6303TIP3   OH218914   2.456   0.808   2.047
 6303TIP3    H118915   2.433   0.733   2.102
 6303TIP3    H218916   2.408   0.881   2.085
 6304TIP3   OH218917   5.609   5.163   3.571
 6304TIP3    H118918   5.600   5.096   3.639
 6304TIP3    H218919   5.567   5.124   3.494
 6305TIP3   OH218920   1.330   5.903   0.342
 6305TIP3    H118921   1.326   5.948   0.258
 6305TIP3    H218922   1.244   5.917   0.382
 6306TIP3   OH218923   5.434   5.019   0.693
 6306TIP3    H118924   5.343   5.035   0.671
 6306TIP3    H218925   5.447   5.066   0.776
 6307TIP3   OH218926   0.137   3.122   1.929
 6307TIP3    H118927   0.154   3.104   2.021
 6307TIP3    H218928   0.173   3.209   1.914
 6308TIP3   OH218929   6.055   2.338   0.248
 6308TIP3    H118930   6.025   2.312   0.161
 6308TIP3    H218931   5.979   2.324   0.305
 6309TIP3   OH218932   1.864   5.312   2.572
 6309TIP3    H118933   1.884   5.405   2.560
 6309TIP3    H218934   1.850   5.302   2.666
 6310TIP3   OH218935   2.084   3.348   1.007
 6310TIP3    H118936   2.112   3.377   1.094
 6310TIP3    H218937   2.153   3.288   0.978
 6311TIP3   OH218938   0.759   5.651   2.323
 6311TIP3    H118939   0.801   5.635   2.407
 6311TIP3    H218940   0.713   5.734   2.334
 6312TIP3   OH218941   6.237   1.211   4.339
 6312TIP3    H118942   6.202   1.154   4.270
 6312TIP3    H218943   6.161   1.235   4.392
 6313TIP3   OH218944   3.036   0.675   4.854
 6313TIP3    H118945   3.034   0.764   4.821
 6313TIP3    H218946   2.961   0.669   4.913
 6314TIP3   OH218947   5.225   3.981   4.266
 6314TIP3    H118948   5.154   3.950   4.210
 6314TIP3    H218949   5.207   4.075   4.277
 6315TIP3   OH218950   4.913   2.446   2.299
 6315TIP3    H118951   4.870   2.408   2.375
 6315TIP3    H218952   4.953   2.371   2.254
 6316TIP3   OH218953   6.269   1.679   1.114
 6316TIP3    H118954   6.219   1.733   1.052
 6316TIP3    H218955   6.270   1.731   1.194
 6317TIP3   OH218956   4.628   0.842   1.684
 6317TIP3    H118957   4.662   0.783   1.752
 6317TIP3    H218958   4.602   0.785   1.612
 6318TIP3   OH218959   0.629   5.030   2.904
 6318TIP3    H118960   0.651   5.009   2.995
 6318TIP3    H218961   0.559   5.095   2.911
 6319TIP3   OH218962   3.054   4.953   3.359
 6319TIP3    H118963   3.092   4.958   3.447
 6319TIP3    H218964   3.055   4.859   3.338
 6320TIP3   OH218965   4.154   1.162   0.690
 6320TIP3    H118966   4.218   1.196   0.752
 6320TIP3    H218967   4.075   1.213   0.706
 6321TIP3   OH218968   4.240   1.463   5.140
 6321TIP3    H118969   4.294   1.531   5.179
 6321TIP3    H218970   4.182   1.510   5.080
 6322TIP3   OH218971   1.165   4.292   0.945
 6322TIP3    H118972   1.100   4.257   1.005
 6322TIP3    H218973   1.127   4.373   0.911
 6323TIP3   OH218974   1.868   4.899   0.772
 6323TIP3    H118975   1.872   4.873   0.680
 6323TIP3    H218976   1.836   4.989   0.770
 6324TIP3   OH218977   2.165   4.536   1.771
 6324TIP3    H118978   2.219   4.577   1.839
 6324TIP3    H218979   2.168   4.598   1.698
 6325TIP3   OH218980   2.397   2.575   4.632
 6325TIP3    H118981   2.366   2.616   4.713
 6325TIP3    H218982   2.406   2.482   4.654
 6326TIP3   OH218983   1.413   1.051   1.390
 6326TIP3    H118984   1.344   0.986   1.395
 6326TIP3    H218985   1.367   1.135   1.391
 6327TIP3   OH218986   4.020   0.870   0.372
 6327TIP3    H118987   3.956   0.801   0.391
 6327TIP3    H218988   4.000   0.897   0.283
 6328TIP3   OH218989   1.824   1.051   0.066
 6328TIP3    H118990   1.761   1.100   0.014
 6328TIP3    H218991   1.909   1.075   0.030
 6329TIP3   OH218992   1.872   0.574   3.609
 6329TIP3    H118993   1.818   0.652   3.617
 6329TIP3    H218994   1.874   0.555   3.515
 6330TIP3   OH218995   5.936   5.576   4.713
 6330TIP3    H118996   5.930   5.541   4.624
 6330TIP3    H218997   5.896   5.508   4.768
 6331TIP3   OH218998   1.440   1.445   3.740
 6331TIP3    H118999   1.428   1.447   3.835
 6331TIP3    H219000   1.354   1.425   3.704
 6332TIP3   OH219001   3.543   0.572   3.510
 6332TIP3    H119002   3.511   0.518   3.583
 6332TIP3    H219003   3.562   0.657   3.549
 6333TIP3   OH219004   3.945   1.714   4.567
 6333TIP3    H119005   3.944   1.638   4.625
 6333TIP3    H219006   3.892   1.780   4.611
 6334TIP3   OH219007   2.330   5.933   2.458
 6334TIP3    H119008   2.380   5.978   2.390
 6334TIP3    H219009   2.302   6.004   2.517
 6335TIP3   OH219010   5.361   4.453   4.749
 6335TIP3    H119011   5.418   4.454   4.672
 6335TIP3    H219012   5.391   4.527   4.802
 6336TIP3   OH219013   4.257   1.557   2.981
 6336TIP3    H119014   4.182   1.524   3.031
 6336TIP3    H219015   4.221   1.629   2.930
 6337TIP3   OH219016   1.714   2.243   0.357
 6337TIP3    H119017   1.779   2.283   0.414
 6337TIP3    H219018   1.651   2.203   0.418
 6338TIP3   OH219019   5.463   3.881   0.887
 6338TIP3    H119020   5.531   3.854   0.825
 6338TIP3    H219021   5.383   3.883   0.835
 6339TIP3   OH219022   0.044   2.670   0.736
 6339TIP3    H119023   0.090   2.666   0.820
 6339TIP3    H219024   0.076   2.750   0.694
 6340TIP3   OH219025   4.925   3.466   1.613
 6340TIP3    H119026   4.950   3.544   1.564
 6340TIP3    H219027   4.917   3.494   1.704
 6341TIP3   OH219028   4.346   3.894   1.937
 6341TIP3    H119029   4.404   3.851   1.874
 6341TIP3    H219030   4.266   3.841   1.936
 6342TIP3   OH219031   4.391   1.008   1.657
 6342TIP3    H119032   4.379   1.030   1.750
 6342TIP3    H219033   4.477   0.967   1.653
 6343TIP3   OH219034   1.597   1.660   3.699
 6343TIP3    H119035   1.559   1.574   3.681
 6343TIP3    H219036   1.636   1.687   3.617
 6344TIP3   OH219037   4.044   3.673   3.372
 6344TIP3    H119038   4.124   3.677   3.426
 6344TIP3    H219039   4.076   3.655   3.284
 6345TIP3   OH219040   2.285   2.071   4.407
 6345TIP3    H119041   2.351   2.141   4.405
 6345TIP3    H219042   2.239   2.079   4.324
 6346TIP3   OH219043   5.504   1.874   1.006
 6346TIP3    H119044   5.595   1.876   1.036
 6346TIP3    H219045   5.492   1.785   0.973
 6347TIP3   OH219046   4.361   1.165   1.934
 6347TIP3    H119047   4.364   1.100   2.004
 6347TIP3    H219048   4.421   1.233   1.963
 6348TIP3   OH219049   1.907   3.965   2.531
 6348TIP3    H119050   1.831   4.000   2.578
 6348TIP3    H219051   1.871   3.929   2.450
 6349TIP3   OH219052   4.238   3.032   1.596
 6349TIP3    H119053   4.333   3.019   1.591
 6349TIP3    H219054   4.214   2.998   1.683
 6350TIP3   OH219055   4.059   5.201   3.241
 6350TIP3    H119056   4.107   5.272   3.285
 6350TIP3    H219057   3.971   5.205   3.279
 6351TIP3   OH219058   4.140   3.268   4.896
 6351TIP3    H119059   4.057   3.311   4.917
 6351TIP3    H219060   4.201   3.340   4.881
 6352TIP3   OH219061   2.972   1.878   4.019
 6352TIP3    H119062   3.013   1.798   3.986
 6352TIP3    H219063   2.878   1.861   4.011
 6353TIP3   OH219064   4.642   5.893   4.455
 6353TIP3    H119065   4.599   5.930   4.377
 6353TIP3    H219066   4.615   5.801   4.455
 6354TIP3   OH219067   4.617   0.143   4.403
 6354TIP3    H119068   4.600   0.235   4.421
 6354TIP3    H219069   4.669   0.113   4.477
 6355TIP3   OH219070   5.320   1.704   1.190
 6355TIP3    H119071   5.260   1.768   1.229
 6355TIP3    H219072   5.394   1.757   1.159
 6356TIP3   OH219073   5.521   5.504   3.259
 6356TIP3    H119074   5.615   5.495   3.275
 6356TIP3    H219075   5.515   5.551   3.176
 6357TIP3   OH219076   5.352   5.208   0.885
 6357TIP3    H119077   5.319   5.280   0.831
 6357TIP3    H219078   5.439   5.236   0.913
 6358TIP3   OH219079   4.809   4.456   4.649
 6358TIP3    H119080   4.749   4.482   4.719
 6358TIP3    H219081   4.787   4.365   4.631
 6359TIP3   OH219082   0.048   0.692   4.718
 6359TIP3    H119083  -0.045   0.695   4.738
 6359TIP3    H219084   0.091   0.688   4.803
 6360TIP3   OH219085   1.317   3.770   1.202
 6360TIP3    H119086   1.268   3.750   1.122
 6360TIP3    H219087   1.343   3.684   1.235
 6361TIP3   OH219088   1.120   2.839   0.789
 6361TIP3    H119089   1.192   2.900   0.770
 6361TIP3    H219090   1.053   2.859   0.724
 6362TIP3   OH219091   1.476   4.292   3.648
 6362TIP3    H119092   1.413   4.364   3.653
 6362TIP3    H219093   1.468   4.247   3.732
 6363TIP3   OH219094   1.168   5.597   2.740
 6363TIP3    H119095   1.251   5.550   2.729
 6363TIP3    H219096   1.170   5.664   2.671
 6364TIP3   OH219097   0.250   2.736   1.936
 6364TIP3    H119098   0.222   2.659   1.986
 6364TIP3    H219099   0.218   2.721   1.848
 6365TIP3   OH219100   3.906   5.058   4.545
 6365TIP3    H119101   3.967   5.043   4.473
 6365TIP3    H219102   3.932   4.997   4.613
 6366TIP3   OH219103   2.430   4.053   3.238
 6366TIP3    H119104   2.510   4.067   3.188
 6366TIP3    H219105   2.459   4.050   3.329
 6367TIP3   OH219106   3.962   4.580   4.049
 6367TIP3    H119107   4.043   4.545   4.011
 6367TIP3    H219108   3.902   4.588   3.975
 6368TIP3   OH219109   1.748   4.840   5.038
 6368TIP3    H119110   1.704   4.824   5.122
 6368TIP3    H219111   1.781   4.755   5.011
 6369TIP3   OH219112   4.903   2.906   4.620
 6369TIP3    H119113   4.867   2.991   4.595
 6369TIP3    H219114   4.976   2.892   4.559
 6370TIP3   OH219115   5.476   3.425   4.058
 6370TIP3    H119116   5.465   3.501   4.001
 6370TIP3    H219117   5.420   3.358   4.020
 6371TIP3   OH219118   4.362   4.440   0.779
 6371TIP3    H119119   4.331   4.358   0.817
 6371TIP3    H219120   4.402   4.487   0.852
 6372TIP3   OH219121   0.051   5.155   3.123
 6372TIP3    H119122  -0.044   5.154   3.127
 6372TIP3    H219123   0.078   5.208   3.198
 6373TIP3   OH219124   4.152   1.272   1.190
 6373TIP3    H119125   4.143   1.340   1.257
 6373TIP3    H219126   4.081   1.210   1.208
 6374TIP3   OH219127   6.000   0.493   3.405
 6374TIP3    H119128   6.062   0.523   3.338
 6374TIP3    H219129   5.955   0.574   3.433
 6375TIP3   OH219130   5.391   5.245   4.289
 6375TIP3    H119131   5.480   5.265   4.260
 6375TIP3    H219132   5.398   5.235   4.384
 6376TIP3   OH219133   2.309   1.387   4.550
 6376TIP3    H119134   2.370   1.449   4.510
 6376TIP3    H219135   2.224   1.407   4.509
 6377TIP3   OH219136   4.043   3.048   3.745
 6377TIP3    H119137   4.137   3.031   3.755
 6377TIP3    H219138   4.038   3.138   3.712
 6378TIP3   OH219139   3.043   5.897   3.984
 6378TIP3    H119140   3.025   5.803   3.991
 6378TIP3    H219141   3.136   5.906   4.006
 6379TIP3   OH219142   4.446   0.499   3.886
 6379TIP3    H119143   4.509   0.429   3.871
 6379TIP3    H219144   4.483   0.549   3.960
 6380TIP3   OH219145   6.331   5.519   3.310
 6380TIP3    H119146   6.264   5.583   3.330
 6380TIP3    H219147   6.303   5.439   3.355
 6381TIP3   OH219148   1.747   5.945   0.500
 6381TIP3    H119149   1.737   5.880   0.569
 6381TIP3    H219150   1.822   5.915   0.449
 6382TIP3   OH219151   2.509   5.535   3.259
 6382TIP3    H119152   2.533   5.614   3.212
 6382TIP3    H219153   2.576   5.471   3.233
 6383TIP3   OH219154   0.181   3.044   2.534
 6383TIP3    H119155   0.258   3.037   2.478
 6383TIP3    H219156   0.211   3.094   2.610
 6384TIP3   OH219157   4.172   2.841   4.347
 6384TIP3    H119158   4.259   2.880   4.358
 6384TIP3    H219159   4.174   2.763   4.404
 6385TIP3   OH219160   4.554   1.642   4.297
 6385TIP3    H119161   4.593   1.709   4.354
 6385TIP3    H219162   4.576   1.559   4.339
 6386TIP3   OH219163   4.960   2.734   3.747
 6386TIP3    H119164   5.011   2.667   3.793
 6386TIP3    H219165   4.932   2.794   3.816
 6387TIP3   OH219166   4.528   2.884   2.423
 6387TIP3    H119167   4.589   2.898   2.495
 6387TIP3    H219168   4.451   2.937   2.446
 6388TIP3   OH219169   2.369   5.506   2.890
 6388TIP3    H119170   2.356   5.561   2.812
 6388TIP3    H219171   2.460   5.522   2.916
 6389TIP3   OH219172   4.278   4.735   3.349
 6389TIP3    H119173   4.291   4.775   3.263
 6389TIP3    H219174   4.284   4.808   3.411
 6390TIP3   OH219175   5.829   4.653   0.312
 6390TIP3    H119176   5.768   4.685   0.378
 6390TIP3    H219177   5.915   4.658   0.354
 6391TIP3   OH219178   4.439   1.332   0.463
 6391TIP3    H119179   4.445   1.238   0.446
 6391TIP3    H219180   4.345   1.352   0.455
 6392TIP3   OH219181   5.864   0.250   1.510
 6392TIP3    H119182   5.871   0.156   1.492
 6392TIP3    H219183   5.864   0.291   1.424
 6393TIP3   OH219184   4.677   3.076   0.174
 6393TIP3    H119185   4.772   3.064   0.169
 6393TIP3    H219186   4.654   3.057   0.264
 6394TIP3   OH219187   2.725   3.331   4.757
 6394TIP3    H119188   2.757   3.394   4.821
 6394TIP3    H219189   2.799   3.272   4.741
 6395TIP3   OH219190   6.038   0.359   2.129
 6395TIP3    H119191   5.943   0.357   2.144
 6395TIP3    H219192   6.049   0.416   2.053
 6396TIP3   OH219193   5.422   0.419   1.433
 6396TIP3    H119194   5.374   0.498   1.412
 6396TIP3    H219195   5.436   0.375   1.349
 6397TIP3   OH219196   2.423   1.625   4.674
 6397TIP3    H119197   2.463   1.609   4.759
 6397TIP3    H219198   2.329   1.623   4.691
 6398TIP3   OH219199   0.234   2.570   2.281
 6398TIP3    H119200   0.236   2.580   2.186
 6398TIP3    H219201   0.298   2.634   2.313
 6399TIP3   OH219202   4.618   4.460   0.667
 6399TIP3    H119203   4.524   4.471   0.682
 6399TIP3    H219204   4.632   4.490   0.577
 6400TIP3   OH219205   2.022   2.049   2.242
 6400TIP3    H119206   2.003   2.018   2.330
 6400TIP3    H219207   2.117   2.040   2.233
 6401TIP3   OH219208   5.923   4.141   4.505
 6401TIP3    H119209   5.856   4.207   4.525
 6401TIP3    H219210   5.990   4.189   4.456
 6402TIP3   OH219211   0.500   4.979   4.525
 6402TIP3    H119212   0.487   4.969   4.431
 6402TIP3    H219213   0.503   4.889   4.559
 6403TIP3   OH219214   3.328   0.484   2.021
 6403TIP3    H119215   3.384   0.416   2.059
 6403TIP3    H219216   3.312   0.453   1.931
 6404TIP3   OH219217   5.187   2.078   0.730
 6404TIP3    H119218   5.203   2.147   0.795
 6404TIP3    H219219   5.145   2.123   0.657
 6405TIP3   OH219220   0.596   4.125   3.636
 6405TIP3    H119221   0.528   4.192   3.630
 6405TIP3    H219222   0.608   4.096   3.546
 6406TIP3   OH219223   5.040   1.679   2.859
 6406TIP3    H119224   5.110   1.632   2.906
 6406TIP3    H219225   5.076   1.694   2.772
 6407TIP3   OH219226   2.667   5.123   0.299
 6407TIP3    H119227   2.590   5.142   0.246
 6407TIP3    H219228   2.740   5.128   0.237
 6408TIP3   OH219229   2.861   4.852   1.869
 6408TIP3    H119230   2.799   4.853   1.797
 6408TIP3    H219231   2.807   4.843   1.948
 6409TIP3   OH219232   0.653   3.342   2.133
 6409TIP3    H119233   0.628   3.433   2.117
 6409TIP3    H219234   0.711   3.346   2.209
 6410TIP3   OH219235   2.458   3.544   3.533
 6410TIP3    H119236   2.420   3.516   3.616
 6410TIP3    H219237   2.383   3.558   3.475
 6411TIP3   OH219238   2.646   1.728   4.572
 6411TIP3    H119239   2.560   1.690   4.556
 6411TIP3    H219240   2.632   1.822   4.570
 6412TIP3   OH219241   1.248   4.805   3.906
 6412TIP3    H119242   1.295   4.878   3.867
 6412TIP3    H219243   1.316   4.755   3.953
 6413TIP3   OH219244   5.548   3.873   3.591
 6413TIP3    H119245   5.528   3.898   3.682
 6413TIP3    H219246   5.515   3.784   3.584
 6414TIP3   OH219247   4.499   2.941   1.862
 6414TIP3    H119248   4.530   2.871   1.805
 6414TIP3    H219249   4.497   2.901   1.950
 6415TIP3   OH219250   5.270   1.114   4.782
 6415TIP3    H119251   5.361   1.112   4.811
 6415TIP3    H219252   5.255   1.205   4.756
 6416TIP3   OH219253   1.696   3.155   0.176
 6416TIP3    H119254   1.679   3.192   0.262
 6416TIP3    H219255   1.611   3.160   0.131
 6417TIP3   OH219256   6.129   0.903   0.684
 6417TIP3    H119257   6.035   0.913   0.700
 6417TIP3    H219258   6.168   0.981   0.724
 6418TIP3   OH219259   0.522   0.158   5.067
 6418TIP3    H119260   0.522   0.253   5.080
 6418TIP3    H219261   0.502   0.123   5.154
 6419TIP3   OH219262   5.541   0.646   0.631
 6419TIP3    H119263   5.461   0.595   0.628
 6419TIP3    H219264   5.607   0.591   0.588
 6420TIP3   OH219265   4.294   3.869   2.213
 6420TIP3    H119266   4.334   3.786   2.188
 6420TIP3    H219267   4.288   3.918   2.132
 6421TIP3   OH219268   3.550   3.198   2.812
 6421TIP3    H119269   3.521   3.187   2.722
 6421TIP3    H219270   3.484   3.152   2.864
 6422TIP3   OH219271   5.350   3.533   4.411
 6422TIP3    H119272   5.425   3.476   4.392
 6422TIP3    H219273   5.335   3.580   4.329
 6423TIP3   OH219274   1.972   0.771   4.095
 6423TIP3    H119275   1.899   0.768   4.157
 6423TIP3    H219276   1.999   0.863   4.094
 6424TIP3   OH219277   1.489   4.589   2.576
 6424TIP3    H119278   1.511   4.535   2.652
 6424TIP3    H219279   1.569   4.638   2.558
 6425TIP3   OH219280   5.200   3.621   2.169
 6425TIP3    H119281   5.235   3.595   2.254
 6425TIP3    H219282   5.257   3.693   2.141
 6426TIP3   OH219283   0.740   4.937   1.558
 6426TIP3    H119284   0.716   4.933   1.651
 6426TIP3    H219285   0.800   5.011   1.551
 6427TIP3   OH219286   6.002   4.594   4.069
 6427TIP3    H119287   6.038   4.523   4.016
 6427TIP3    H219288   5.910   4.598   4.044
 6428TIP3   OH219289   2.619   0.557   3.317
 6428TIP3    H119290   2.652   0.481   3.271
 6428TIP3    H219291   2.648   0.546   3.408
 6429TIP3   OH219292   3.408   5.893   3.808
 6429TIP3    H119293   3.441   5.834   3.875
 6429TIP3    H219294   3.415   5.980   3.846
 6430TIP3   OH219295   3.154   5.373   2.086
 6430TIP3    H119296   3.101   5.355   2.008
 6430TIP3    H219297   3.106   5.333   2.158
 6431TIP3   OH219298   5.998   0.316   0.487
 6431TIP3    H119299   5.926   0.281   0.541
 6431TIP3    H219300   6.068   0.335   0.549
 6432TIP3   OH219301   1.411   5.883   1.372
 6432TIP3    H119302   1.449   5.905   1.457
 6432TIP3    H219303   1.415   5.965   1.322
 6433TIP3   OH219304   4.589   3.417   0.576
 6433TIP3    H119305   4.653   3.407   0.506
 6433TIP3    H219306   4.629   3.481   0.635
 6434TIP3   OH219307   4.179   4.035   2.400
 6434TIP3    H119308   4.162   3.996   2.315
 6434TIP3    H219309   4.255   3.986   2.434
 6435TIP3   OH219310   4.495   5.148   0.486
 6435TIP3    H119311   4.494   5.102   0.402
 6435TIP3    H219312   4.424   5.108   0.536
 6436TIP3   OH219313   2.097   0.838   2.547
 6436TIP3    H119314   2.172   0.878   2.590
 6436TIP3    H219315   2.033   0.824   2.617
 6437TIP3   OH219316   6.292   5.606   2.637
 6437TIP3    H119317   6.298   5.511   2.634
 6437TIP3    H219318   6.254   5.625   2.723
 6438TIP3   OH219319   3.656   3.596   2.284
 6438TIP3    H119320   3.595   3.523   2.269
 6438TIP3    H219321   3.601   3.674   2.280
 6439TIP3   OH219322   0.028   0.347   4.428
 6439TIP3    H119323   0.070   0.433   4.436
 6439TIP3    H219324   0.073   0.305   4.355
 6440TIP3   OH219325   3.600   4.868   4.120
 6440TIP3    H119326   3.522   4.855   4.175
 6440TIP3    H219327   3.672   4.880   4.181
 6441TIP3   OH219328   5.228   1.088   2.600
 6441TIP3    H119329   5.230   1.015   2.661
 6441TIP3    H219330   5.144   1.132   2.618
 6442TIP3   OH219331   6.043   4.509   1.875
 6442TIP3    H119332   6.040   4.588   1.928
 6442TIP3    H219333   6.136   4.487   1.869
 6443TIP3   OH219334   1.818   5.869   0.077
 6443TIP3    H119335   1.803   5.963   0.072
 6443TIP3    H219336   1.875   5.850   0.002
 6444TIP3   OH219337   0.910   0.926   4.388
 6444TIP3    H119338   0.973   0.986   4.429
 6444TIP3    H219339   0.928   0.841   4.428
 6445TIP3   OH219340   2.680   0.764   0.579
 6445TIP3    H119341   2.702   0.854   0.555
 6445TIP3    H219342   2.595   0.748   0.536
 6446TIP3   OH219343   2.405   3.471   4.650
 6446TIP3    H119344   2.477   3.467   4.587
 6446TIP3    H219345   2.415   3.555   4.694
 6447TIP3   OH219346   0.375   2.708   3.546
 6447TIP3    H119347   0.334   2.769   3.485
 6447TIP3    H219348   0.434   2.762   3.598
 6448TIP3   OH219349   3.784   1.060   4.070
 6448TIP3    H119350   3.867   1.093   4.037
 6448TIP3    H219351   3.786   1.079   4.164
 6449TIP3   OH219352   4.487   4.211   1.264
 6449TIP3    H119353   4.423   4.221   1.193
 6449TIP3    H219354   4.440   4.238   1.343
 6450TIP3   OH219355   6.081   4.532   3.591
 6450TIP3    H119356   6.044   4.549   3.677
 6450TIP3    H219357   6.008   4.498   3.539
 6451TIP3   OH219358   2.663   3.921   3.372
 6451TIP3    H119359   2.621   3.979   3.435
 6451TIP3    H219360   2.737   3.971   3.338
 6452TIP3   OH219361   5.428   1.157   1.881
 6452TIP3    H119362   5.370   1.224   1.844
 6452TIP3    H219363   5.467   1.115   1.804
 6453TIP3   OH219364   0.173   5.295   1.640
 6453TIP3    H119365   0.201   5.205   1.654
 6453TIP3    H219366   0.247   5.337   1.596
 6454TIP3   OH219367   5.557   1.521   2.538
 6454TIP3    H119368   5.490   1.452   2.542
 6454TIP3    H219369   5.635   1.481   2.576
 6455TIP3   OH219370   0.651   3.492   1.240
 6455TIP3    H119371   0.622   3.409   1.204
 6455TIP3    H219372   0.580   3.519   1.298
 6456TIP3   OH219373   4.286   3.082   3.057
 6456TIP3    H119374   4.356   3.028   3.019
 6456TIP3    H219375   4.215   3.076   2.994
 6457TIP3   OH219376   0.513   2.712   1.168
 6457TIP3    H119377   0.579   2.763   1.216
 6457TIP3    H219378   0.564   2.650   1.116
 6458TIP3   OH219379   5.212   4.953   0.430
 6458TIP3    H119380   5.127   4.910   0.422
 6458TIP3    H219381   5.207   5.001   0.512
 6459TIP3   OH219382   3.304   2.546   0.844
 6459TIP3    H119383   3.323   2.640   0.831
 6459TIP3    H219384   3.388   2.503   0.828
 6460TIP3   OH219385   6.376   4.178   4.061
 6460TIP3    H119386   6.311   4.183   3.991
 6460TIP3    H219387   6.326   4.198   4.141
 6461TIP3   OH219388   2.308   3.471   2.049
 6461TIP3    H119389   2.276   3.391   2.092
 6461TIP3    H219390   2.365   3.440   1.979
 6462TIP3   OH219391   4.571   5.087   1.874
 6462TIP3    H119392   4.543   5.097   1.783
 6462TIP3    H219393   4.666   5.100   1.871
 6463TIP3   OH219394   5.051   5.108   0.878
 6463TIP3    H119395   5.114   5.175   0.906
 6463TIP3    H219396   4.984   5.108   0.946
 6464TIP3   OH219397   0.009   5.018   0.575
 6464TIP3    H119398   0.081   5.040   0.635
 6464TIP3    H219399   0.052   4.986   0.496
 6465TIP3   OH219400   0.132   2.281   1.407
 6465TIP3    H119401   0.139   2.192   1.372
 6465TIP3    H219402   0.223   2.313   1.409
 6466TIP3   OH219403   5.972   2.279   1.291
 6466TIP3    H119404   6.004   2.291   1.380
 6466TIP3    H219405   5.995   2.360   1.246
 6467TIP3   OH219406   1.637   4.950   4.774
 6467TIP3    H119407   1.701   4.932   4.844
 6467TIP3    H219408   1.572   4.881   4.783
 6468TIP3   OH219409   4.958   2.398   3.638
 6468TIP3    H119410   4.869   2.370   3.614
 6468TIP3    H219411   4.963   2.384   3.732
 6469TIP3   OH219412   2.634   4.646   0.249
 6469TIP3    H119413   2.679   4.694   0.179
 6469TIP3    H219414   2.613   4.561   0.210
 6470TIP3   OH219415   3.454   4.054   0.235
 6470TIP3    H119416   3.537   4.092   0.266
 6470TIP3    H219417   3.449   3.969   0.279
 6471TIP3   OH219418   1.801   0.823   1.854
 6471TIP3    H119419   1.842   0.871   1.783
 6471TIP3    H219420   1.852   0.845   1.932
 6472TIP3   OH219421   4.736   2.668   3.618
 6472TIP3    H119422   4.815   2.705   3.656
 6472TIP3    H219423   4.723   2.585   3.665
 6473TIP3   OH219424   3.840   5.822   2.815
 6473TIP3    H119425   3.802   5.781   2.738
 6473TIP3    H219426   3.920   5.864   2.783
 6474TIP3   OH219427   3.842   1.238   1.144
 6474TIP3    H119428   3.871   1.247   1.234
 6474TIP3    H219429   3.767   1.298   1.136
 6475TIP3   OH219430   4.991   2.436   0.324
 6475TIP3    H119431   4.925   2.465   0.261
 6475TIP3    H219432   5.025   2.354   0.287
 6476TIP3   OH219433   2.061   3.489   5.171
 6476TIP3    H119434   2.104   3.436   5.105
 6476TIP3    H219435   2.117   3.481   5.249
 6477TIP3   OH219436   2.532   4.657   4.846
 6477TIP3    H119437   2.439   4.657   4.869
 6477TIP3    H219438   2.574   4.601   4.911
 6478TIP3   OH219439   0.432   3.577   1.358
 6478TIP3    H119440   0.365   3.552   1.295
 6478TIP3    H219441   0.427   3.511   1.426
 6479TIP3   OH219442   3.124   2.620   1.354
 6479TIP3    H119443   3.162   2.655   1.274
 6479TIP3    H219444   3.049   2.677   1.371
 6480TIP3   OH219445   1.569   5.332   2.857
 6480TIP3    H119446   1.625   5.382   2.917
 6480TIP3    H219447   1.594   5.241   2.872
 6481TIP3   OH219448   2.600   1.234   3.116
 6481TIP3    H119449   2.643   1.234   3.031
 6481TIP3    H219450   2.510   1.205   3.097
 6482TIP3   OH219451   5.074   4.209   4.297
 6482TIP3    H119452   5.102   4.252   4.378
 6482TIP3    H219453   5.112   4.263   4.227
 6483TIP3   OH219454   2.529   5.624   1.411
 6483TIP3    H119455   2.464   5.623   1.340
 6483TIP3    H219456   2.605   5.579   1.374
 6484TIP3   OH219457   2.941   1.106   4.243
 6484TIP3    H119458   2.942   1.071   4.153
 6484TIP3    H219459   2.875   1.175   4.241
 6485TIP3   OH219460   4.182   4.132   1.142
 6485TIP3    H119461   4.171   4.104   1.051
 6485TIP3    H219462   4.195   4.051   1.191
 6486TIP3   OH219463   6.028   0.252   3.856
 6486TIP3    H119464   5.967   0.317   3.891
 6486TIP3    H219465   6.038   0.276   3.764
 6487TIP3   OH219466   1.931   4.885   2.716
 6487TIP3    H119467   1.994   4.813   2.718
 6487TIP3    H219468   1.940   4.921   2.627
 6488TIP3   OH219469   3.941   0.590   4.400
 6488TIP3    H119470   3.984   0.622   4.479
 6488TIP3    H219471   3.849   0.614   4.410
 6489TIP3   OH219472   3.151   0.933   4.353
 6489TIP3    H119473   3.179   0.993   4.421
 6489TIP3    H219474   3.080   0.979   4.308
 6490TIP3   OH219475   0.468   4.812   4.057
 6490TIP3    H119476   0.459   4.907   4.061
 6490TIP3    H219477   0.539   4.792   4.119
 6491TIP3   OH219478   5.137   5.166   4.754
 6491TIP3    H119479   5.112   5.135   4.841
 6491TIP3    H219480   5.119   5.091   4.697
 6492TIP3   OH219481   3.058   0.613   3.955
 6492TIP3    H119482   3.108   0.532   3.968
 6492TIP3    H219483   3.042   0.646   4.044
 6493TIP3   OH219484   5.183   2.489   0.701
 6493TIP3    H119485   5.161   2.500   0.794
 6493TIP3    H219486   5.101   2.506   0.655
 6494TIP3   OH219487   3.540   2.359   1.942
 6494TIP3    H119488   3.561   2.442   1.899
 6494TIP3    H219489   3.473   2.382   2.006
 6495TIP3   OH219490   4.997   1.960   0.921
 6495TIP3    H119491   4.920   1.960   0.864
 6495TIP3    H219492   5.038   2.046   0.905
 6496TIP3   OH219493   2.180   0.227   4.935
 6496TIP3    H119494   2.193   0.135   4.913
 6496TIP3    H219495   2.269   0.263   4.943
 6497TIP3   OH219496   4.015   4.899   3.862
 6497TIP3    H119497   4.051   4.868   3.945
 6497TIP3    H219498   3.920   4.903   3.876
 6498TIP3   OH219499   2.246   3.904   3.107
 6498TIP3    H119500   2.283   3.975   3.158
 6498TIP3    H219501   2.316   3.876   3.049
 6499TIP3   OH219502   4.807   4.162   4.634
 6499TIP3    H119503   4.734   4.109   4.667
 6499TIP3    H219504   4.885   4.118   4.668
 6500TIP3   OH219505   5.613   1.760   2.726
 6500TIP3    H119506   5.582   1.766   2.816
 6500TIP3    H219507   5.572   1.680   2.692
 6501TIP3   OH219508   1.034   3.561   0.721
 6501TIP3    H119509   1.056   3.499   0.651
 6501TIP3    H219510   1.011   3.505   0.796
 6502TIP3   OH219511   0.536   4.556   2.131
 6502TIP3    H119512   0.621   4.545   2.088
 6502TIP3    H219513   0.519   4.650   2.128
 6503TIP3   OH219514   5.593   5.344   2.115
 6503TIP3    H119515   5.538   5.292   2.056
 6503TIP3    H219516   5.543   5.424   2.130
 6504TIP3   OH219517   4.488   2.822   3.114
 6504TIP3    H119518   4.558   2.808   3.178
 6504TIP3    H219519   4.422   2.757   3.136
 6505TIP3   OH219520   4.129   1.100   4.162
 6505TIP3    H119521   4.068   1.131   4.230
 6505TIP3    H219522   4.204   1.159   4.170
 6506TIP3   OH219523   4.105   3.759   1.957
 6506TIP3    H119524   4.066   3.846   1.946
 6506TIP3    H219525   4.035   3.698   1.934
 6507TIP3   OH219526   2.324   5.295   1.349
 6507TIP3    H119527   2.242   5.259   1.316
 6507TIP3    H219528   2.364   5.338   1.273
 6508TIP3   OH219529   4.957   2.177   2.221
 6508TIP3    H119530   4.977   2.124   2.298
 6508TIP3    H219531   4.962   2.116   2.147
 6509TIP3   OH219532   5.954   1.182   1.924
 6509TIP3    H119533   5.944   1.276   1.915
 6509TIP3    H219534   5.865   1.148   1.926
 6510TIP3   OH219535   2.535   4.285   1.478
 6510TIP3    H119536   2.572   4.372   1.463
 6510TIP3    H219537   2.451   4.300   1.520
 6511TIP3   OH219538   5.893   3.083   4.331
 6511TIP3    H119539   5.963   3.022   4.307
 6511TIP3    H219540   5.936   3.168   4.333
 6512TIP3   OH219541   4.753   5.308   3.707
 6512TIP3    H119542   4.769   5.343   3.620
 6512TIP3    H219543   4.727   5.385   3.759
 6513TIP3   OH219544   0.285   4.444   0.507
 6513TIP3    H119545   0.365   4.493   0.490
 6513TIP3    H219546   0.214   4.506   0.491
 6514TIP3   OH219547   4.054   4.736   1.799
 6514TIP3    H119548   4.032   4.761   1.888
 6514TIP3    H219549   4.124   4.671   1.808
 6515TIP3   OH219550   1.621   3.913   0.444
 6515TIP3    H119551   1.574   3.829   0.444
 6515TIP3    H219552   1.641   3.929   0.352
 6516TIP3   OH219553   0.641   2.923   2.200
 6516TIP3    H119554   0.664   2.966   2.118
 6516TIP3    H219555   0.597   2.842   2.173
 6517TIP3   OH219556   2.497   5.424   2.068
 6517TIP3    H119557   2.416   5.409   2.116
 6517TIP3    H219558   2.566   5.412   2.133
 6518TIP3   OH219559   3.448   5.603   3.895
 6518TIP3    H119560   3.466   5.594   3.989
 6518TIP3    H219561   3.450   5.513   3.862
 6519TIP3   OH219562   5.888   3.081   1.364
 6519TIP3    H119563   5.890   2.998   1.317
 6519TIP3    H219564   5.979   3.109   1.369
 6520TIP3   OH219565   2.997   1.115   2.016
 6520TIP3    H119566   3.026   1.043   1.961
 6520TIP3    H219567   2.943   1.074   2.083
 6521TIP3   OH219568   2.043   2.642   0.427
 6521TIP3    H119569   2.019   2.706   0.494
 6521TIP3    H219570   2.000   2.561   0.456
 6522TIP3   OH219571   3.098   2.363   0.316
 6522TIP3    H119572   3.033   2.329   0.378
 6522TIP3    H219573   3.047   2.415   0.254
 6523TIP3   OH219574   3.401   2.836   1.624
 6523TIP3    H119575   3.393   2.859   1.532
 6523TIP3    H219576   3.397   2.740   1.626
 6524TIP3   OH219577   1.399   3.726   0.242
 6524TIP3    H119578   1.393   3.687   0.329
 6524TIP3    H219579   1.414   3.652   0.183
 6525TIP3   OH219580   5.704   3.253   1.231
 6525TIP3    H119581   5.647   3.207   1.170
 6525TIP3    H219582   5.735   3.185   1.291
 6526TIP3   OH219583   4.330   0.800   3.803
 6526TIP3    H119584   4.282   0.720   3.785
 6526TIP3    H219585   4.363   0.789   3.892
 6527TIP3   OH219586   1.960   2.842   0.886
 6527TIP3    H119587   1.988   2.764   0.933
 6527TIP3    H219588   2.042   2.882   0.856
 6528TIP3   OH219589   5.156   5.861   3.123
 6528TIP3    H119590   5.111   5.788   3.080
 6528TIP3    H219591   5.171   5.830   3.212
 6529TIP3   OH219592   0.387   4.252   4.997
 6529TIP3    H119593   0.449   4.213   5.059
 6529TIP3    H219594   0.303   4.213   5.020
 6530TIP3   OH219595   6.331   4.622   3.619
 6530TIP3    H119596   6.240   4.593   3.607
 6530TIP3    H219597   6.342   4.628   3.714
 6531TIP3   OH219598   0.274   1.429   3.930
 6531TIP3    H119599   0.352   1.375   3.947
 6531TIP3    H219600   0.203   1.383   3.974
 6532TIP3   OH219601   2.399   4.771   0.341
 6532TIP3    H119602   2.453   4.700   0.306
 6532TIP3    H219603   2.407   4.841   0.276
 6533TIP3   OH219604   5.310   4.760   1.431
 6533TIP3    H119605   5.317   4.691   1.365
 6533TIP3    H219606   5.366   4.830   1.398
 6534TIP3   OH219607   3.091   5.195   1.805
 6534TIP3    H119608   3.133   5.144   1.874
 6534TIP3    H219609   3.111   5.147   1.725
 6535TIP3   OH219610   5.370   0.906   2.325
 6535TIP3    H119611   5.292   0.959   2.311
 6535TIP3    H219612   5.397   0.879   2.237
 6536TIP3   OH219613   0.241   5.297   2.977
 6536TIP3    H119614   0.198   5.369   2.930
 6536TIP3    H219615   0.169   5.244   3.012
 6537TIP3   OH219616   1.080   2.307   3.069
 6537TIP3    H119617   1.004   2.362   3.091
 6537TIP3    H219618   1.146   2.370   3.037
 6538TIP3   OH219619   2.386   5.940   4.254
 6538TIP3    H119620   2.446   5.867   4.267
 6538TIP3    H219621   2.435   6.017   4.283
 6539TIP3   OH219622   0.846   4.366   2.613
 6539TIP3    H119623   0.915   4.308   2.583
 6539TIP3    H219624   0.798   4.315   2.679
 6540TIP3   OH219625   4.584   2.421   3.342
 6540TIP3    H119626   4.511   2.364   3.318
 6540TIP3    H219627   4.612   2.389   3.428
 6541TIP3   OH219628   4.067   4.446   2.034
 6541TIP3    H119629   3.976   4.471   2.023
 6541TIP3    H219630   4.085   4.462   2.127
 6542TIP3   OH219631   4.334   2.429   3.635
 6542TIP3    H119632   4.353   2.344   3.594
 6542TIP3    H219633   4.244   2.448   3.609
 6543TIP3   OH219634   0.406   5.099   4.079
 6543TIP3    H119635   0.416   5.148   4.161
 6543TIP3    H219636   0.422   5.163   4.010
 6544TIP3   OH219637   2.021   3.837   0.272
 6544TIP3    H119638   2.114   3.838   0.294
 6544TIP3    H219639   2.015   3.784   0.193
 6545TIP3   OH219640   4.140   1.606   0.537
 6545TIP3    H119641   4.129   1.643   0.449
 6545TIP3    H219642   4.176   1.679   0.588
 6546TIP3   OH219643   2.679   5.908   0.058
 6546TIP3    H119644   2.678   5.903   0.153
 6546TIP3    H219645   2.626   5.833   0.029
 6547TIP3   OH219646   2.150   3.158   1.681
 6547TIP3    H119647   2.168   3.223   1.749
 6547TIP3    H219648   2.057   3.139   1.689
 6548TIP3   OH219649   1.588   0.311   4.993
 6548TIP3    H119650   1.600   0.401   5.023
 6548TIP3    H219651   1.564   0.262   5.071
 6549TIP3   OH219652   1.989   2.339   0.772
 6549TIP3    H119653   2.040   2.303   0.844
 6549TIP3    H219654   1.943   2.263   0.734
 6550TIP3   OH219655   3.485   5.172   2.789
 6550TIP3    H119656   3.457   5.264   2.785
 6550TIP3    H219657   3.533   5.158   2.708
 6551TIP3   OH219658   1.408   0.950   0.144
 6551TIP3    H119659   1.405   0.867   0.190
 6551TIP3    H219660   1.493   0.987   0.165
 6552TIP3   OH219661   1.939   1.384   4.428
 6552TIP3    H119662   1.952   1.374   4.333
 6552TIP3    H219663   1.961   1.475   4.445
 6553TIP3   OH219664   3.534   3.663   1.702
 6553TIP3    H119665   3.623   3.699   1.693
 6553TIP3    H219666   3.496   3.673   1.615
 6554TIP3   OH219667   5.755   2.448   3.947
 6554TIP3    H119668   5.735   2.530   3.991
 6554TIP3    H219669   5.795   2.475   3.864
 6555TIP3   OH219670   0.621   5.306   1.702
 6555TIP3    H119671   0.714   5.327   1.709
 6555TIP3    H219672   0.578   5.362   1.766
 6556TIP3   OH219673   1.175   5.358   2.368
 6556TIP3    H119674   1.130   5.287   2.322
 6556TIP3    H219675   1.113   5.386   2.435
 6557TIP3   OH219676   1.250   2.867   2.373
 6557TIP3    H119677   1.269   2.774   2.371
 6557TIP3    H219678   1.158   2.873   2.400
 6558TIP3   OH219679   2.788   0.070   4.348
 6558TIP3    H119680   2.878   0.101   4.357
 6558TIP3    H219681   2.797  -0.023   4.327
 6559TIP3   OH219682   4.998   1.290   0.423
 6559TIP3    H119683   4.980   1.339   0.503
 6559TIP3    H219684   4.914   1.253   0.397
 6560TIP3   OH219685   6.210   0.731   2.065
 6560TIP3    H119686   6.170   0.647   2.045
 6560TIP3    H219687   6.200   0.783   1.985
 6561TIP3   OH219688   4.648   5.533   3.856
 6561TIP3    H119689   4.702   5.553   3.932
 6561TIP3    H219690   4.566   5.500   3.893
 6562TIP3   OH219691   3.135   0.784   0.684
 6562TIP3    H119692   3.093   0.839   0.618
 6562TIP3    H219693   3.103   0.819   0.767
 6563TIP3   OH219694   4.359   0.032   5.178
 6563TIP3    H119695   4.346   0.120   5.143
 6563TIP3    H219696   4.371  -0.023   5.101
 6564TIP3   OH219697   1.537   4.343   5.000
 6564TIP3    H119698   1.615   4.331   4.946
 6564TIP3    H219699   1.553   4.289   5.077
 6565TIP3   OH219700   5.241   3.757   4.981
 6565TIP3    H119701   5.278   3.753   4.893
 6565TIP3    H219702   5.312   3.724   5.038
 6566TIP3   OH219703   4.815   2.010   0.319
 6566TIP3    H119704   4.878   1.948   0.357
 6566TIP3    H219705   4.741   2.008   0.379
 6567TIP3   OH219706   1.685   5.719   0.273
 6567TIP3    H119707   1.732   5.745   0.195
 6567TIP3    H219708   1.689   5.795   0.331
 6568TIP3   OH219709   6.284   5.604   0.232
 6568TIP3    H119710   6.295   5.590   0.326
 6568TIP3    H219711   6.348   5.547   0.191
 6569TIP3   OH219712   3.502   0.427   0.246
 6569TIP3    H119713   3.574   0.471   0.291
 6569TIP3    H219714   3.423   0.469   0.281
 6570TIP3   OH219715   0.071   1.038   4.129
 6570TIP3    H119716   0.063   1.091   4.050
 6570TIP3    H219717   0.018   0.960   4.111
 6571TIP3   OH219718   3.269   0.481   4.832
 6571TIP3    H119719   3.226   0.442   4.908
 6571TIP3    H219720   3.201   0.532   4.789
 6572TIP3   OH219721   1.499   1.980   3.316
 6572TIP3    H119722   1.426   1.934   3.357
 6572TIP3    H219723   1.458   2.034   3.248
 6573TIP3   OH219724   2.897   5.764   4.737
 6573TIP3    H119725   2.860   5.844   4.772
 6573TIP3    H219726   2.859   5.694   4.790
 6574TIP3   OH219727   3.998   3.994   2.011
 6574TIP3    H119728   3.943   3.918   2.028
 6574TIP3    H219729   3.936   4.066   1.996
 6575TIP3   OH219730   3.242   2.800   2.944
 6575TIP3    H119731   3.180   2.765   3.007
 6575TIP3    H219732   3.193   2.868   2.897
 6576TIP3   OH219733   5.457   4.994   1.042
 6576TIP3    H119734   5.444   4.992   1.137
 6576TIP3    H219735   5.380   5.042   1.009
 6577TIP3   OH219736   1.401   4.827   1.246
 6577TIP3    H119737   1.325   4.884   1.235
 6577TIP3    H219738   1.395   4.764   1.175
 6578TIP3   OH219739   2.854   1.752   2.838
 6578TIP3    H119740   2.808   1.676   2.873
 6578TIP3    H219741   2.792   1.824   2.848
 6579TIP3   OH219742   2.244   3.572   0.705
 6579TIP3    H119743   2.255   3.623   0.624
 6579TIP3    H219744   2.318   3.599   0.759
 6580TIP3   OH219745   1.486   2.316   4.164
 6580TIP3    H119746   1.511   2.227   4.138
 6580TIP3    H219747   1.452   2.306   4.253
 6581TIP3   OH219748   6.169   4.743   1.990
 6581TIP3    H119749   6.134   4.825   2.026
 6581TIP3    H219750   6.185   4.763   1.897
 6582TIP3   OH219751   4.302   1.335   4.527
 6582TIP3    H119752   4.236   1.349   4.460
 6582TIP3    H219753   4.376   1.295   4.480
 6583TIP3   OH219754   6.158   3.499   3.290
 6583TIP3    H119755   6.072   3.536   3.274
 6583TIP3    H219756   6.141   3.415   3.333
 6584TIP3   OH219757   0.541   4.752   0.733
 6584TIP3    H119758   0.445   4.753   0.729
 6584TIP3    H219759   0.569   4.816   0.667
 6585TIP3   OH219760   4.168   5.675   1.543
 6585TIP3    H119761   4.103   5.735   1.507
 6585TIP3    H219762   4.175   5.700   1.635
 6586TIP3   OH219763   4.776   5.356   3.179
 6586TIP3    H119764   4.857   5.406   3.169
 6586TIP3    H219765   4.709   5.421   3.197
 6587TIP3   OH219766   2.776   5.400   0.476
 6587TIP3    H119767   2.722   5.322   0.461
 6587TIP3    H219768   2.724   5.473   0.442
 6588TIP3   OH219769   6.272   1.709   1.897
 6588TIP3    H119770   6.198   1.662   1.859
 6588TIP3    H219771   6.310   1.647   1.960
 6589TIP3   OH219772   4.203   3.459   2.023
 6589TIP3    H119773   4.150   3.503   1.957
 6589TIP3    H219774   4.166   3.370   2.027
 6590TIP3   OH219775   1.952   1.005   0.293
 6590TIP3    H119776   1.925   1.020   0.203
 6590TIP3    H219777   1.910   1.076   0.343
 6591TIP3   OH219778   4.092   4.195   4.099
 6591TIP3    H119779   4.124   4.252   4.168
 6591TIP3    H219780   4.000   4.218   4.088
 6592TIP3   OH219781   3.070   2.627   4.550
 6592TIP3    H119782   3.150   2.604   4.597
 6592TIP3    H219783   3.053   2.551   4.494
 6593TIP3   OH219784   1.063   4.258   2.457
 6593TIP3    H119785   1.021   4.275   2.373
 6593TIP3    H219786   1.155   4.245   2.436
 6594TIP3   OH219787   1.388   1.417   0.314
 6594TIP3    H119788   1.471   1.401   0.360
 6594TIP3    H219789   1.409   1.484   0.250
 6595TIP3   OH219790   3.449   2.286   1.644
 6595TIP3    H119791   3.389   2.324   1.709
 6595TIP3    H219792   3.398   2.285   1.563
 6596TIP3   OH219793   4.330   3.450   4.483
 6596TIP3    H119794   4.296   3.539   4.493
 6596TIP3    H219795   4.252   3.396   4.469
 6597TIP3   OH219796   0.403   4.757   3.014
 6597TIP3    H119797   0.391   4.749   2.920
 6597TIP3    H219798   0.436   4.846   3.027
 6598TIP3   OH219799   5.272   5.460   0.742
 6598TIP3    H119800   5.329   5.509   0.683
 6598TIP3    H219801   5.252   5.520   0.813
 6599TIP3   OH219802   2.013   0.635   2.043
 6599TIP3    H119803   2.020   0.731   2.049
 6599TIP3    H219804   2.009   0.617   1.950
 6600TIP3   OH219805   1.849   2.506   1.492
 6600TIP3    H119806   1.798   2.427   1.507
 6600TIP3    H219807   1.854   2.513   1.397
 6601TIP3   OH219808   4.978   3.425   4.559
 6601TIP3    H119809   4.947   3.438   4.469
 6601TIP3    H219810   5.000   3.332   4.563
 6602TIP3   OH219811   4.187   0.053   1.524
 6602TIP3    H119812   4.192   0.127   1.584
 6602TIP3    H219813   4.201   0.092   1.437
 6603TIP3   OH219814   1.080   0.058   0.898
 6603TIP3    H119815   1.091   0.129   0.835
 6603TIP3    H219816   1.105  -0.021   0.851
 6604TIP3   OH219817   3.913   0.725   5.118
 6604TIP3    H119818   3.877   0.794   5.062
 6604TIP3    H219819   3.937   0.655   5.057
 6605TIP3   OH219820   3.031   4.486   4.003
 6605TIP3    H119821   2.965   4.515   3.941
 6605TIP3    H219822   2.987   4.418   4.055
 6606TIP3   OH219823   0.820   1.659   0.346
 6606TIP3    H119824   0.758   1.674   0.418
 6606TIP3    H219825   0.882   1.733   0.353
 6607TIP3   OH219826   5.285   5.497   1.359
 6607TIP3    H119827   5.273   5.407   1.388
 6607TIP3    H219828   5.379   5.512   1.363
 6608TIP3   OH219829   5.100   0.531   1.690
 6608TIP3    H119830   5.056   0.610   1.721
 6608TIP3    H219831   5.030   0.475   1.657
 6609TIP3   OH219832   1.589   4.198   4.621
 6609TIP3    H119833   1.573   4.290   4.600
 6609TIP3    H219834   1.678   4.181   4.589
 6610TIP3   OH219835   0.190   2.269   2.654
 6610TIP3    H119836   0.178   2.315   2.571
 6610TIP3    H219837   0.110   2.287   2.704
 6611TIP3   OH219838   1.914   2.784   2.236
 6611TIP3    H119839   1.925   2.719   2.167
 6611TIP3    H219840   1.824   2.771   2.267
 6612TIP3   OH219841   5.373   3.977   4.539
 6612TIP3    H119842   5.423   4.058   4.544
 6612TIP3    H219843   5.336   3.977   4.450
 6613TIP3   OH219844   6.293   3.290   2.106
 6613TIP3    H119845   6.251   3.370   2.077
 6613TIP3    H219846   6.308   3.240   2.026
 6614TIP3   OH219847   1.762   2.622   1.877
 6614TIP3    H119848   1.823   2.616   1.950
 6614TIP3    H219849   1.816   2.606   1.799
 6615TIP3   OH219850   2.131   0.207   1.135
 6615TIP3    H119851   2.202   0.159   1.091
 6615TIP3    H219852   2.122   0.163   1.219
 6616TIP3   OH219853   0.160   0.542   0.161
 6616TIP3    H119854   0.213   0.563   0.084
 6616TIP3    H219855   0.131   0.627   0.194
 6617TIP3   OH219856   1.850   0.893   2.707
 6617TIP3    H119857   1.841   0.926   2.797
 6617TIP3    H219858   1.814   0.805   2.710
 6618TIP3   OH219859   2.659   1.570   3.334
 6618TIP3    H119860   2.617   1.490   3.363
 6618TIP3    H219861   2.589   1.635   3.334
 6619TIP3   OH219862   1.749   4.546   2.099
 6619TIP3    H119863   1.749   4.453   2.077
 6619TIP3    H219864   1.751   4.548   2.194
 6620TIP3   OH219865   1.295   4.764   2.517
 6620TIP3    H119866   1.253   4.750   2.432
 6620TIP3    H219867   1.364   4.697   2.520
 6621TIP3   OH219868   5.364   4.481   2.392
 6621TIP3    H119869   5.322   4.480   2.478
 6621TIP3    H219870   5.457   4.470   2.409
 6622TIP3   OH219871   1.412   3.304   2.099
 6622TIP3    H119872   1.333   3.313   2.046
 6622TIP3    H219873   1.462   3.235   2.056
 6623TIP3   OH219874   1.880   0.213   4.234
 6623TIP3    H119875   1.805   0.168   4.272
 6623TIP3    H219876   1.864   0.213   4.140
 6624TIP3   OH219877   3.978   5.558   4.555
 6624TIP3    H119878   3.920   5.492   4.593
 6624TIP3    H219879   3.938   5.642   4.578
 6625TIP3   OH219880   2.773   0.927   2.912
 6625TIP3    H119881   2.818   0.853   2.953
 6625TIP3    H219882   2.693   0.938   2.963
 6626TIP3   OH219883   5.424   5.710   0.410
 6626TIP3    H119884   5.491   5.774   0.433
 6626TIP3    H219885   5.418   5.715   0.314
 6627TIP3   OH219886   1.325   0.349   0.228
 6627TIP3    H119887   1.280   0.273   0.265
 6627TIP3    H219888   1.418   0.335   0.249
 6628TIP3   OH219889   2.859   2.698   1.687
 6628TIP3    H119890   2.815   2.737   1.762
 6628TIP3    H219891   2.915   2.630   1.724
 6629TIP3   OH219892   6.099   5.335   4.548
 6629TIP3    H119893   6.038   5.360   4.478
 6629TIP3    H219894   6.103   5.240   4.543
 6630TIP3   OH219895   3.264   4.197   3.471
 6630TIP3    H119896   3.261   4.178   3.564
 6630TIP3    H219897   3.178   4.235   3.452
 6631TIP3   OH219898   5.269   0.876   4.224
 6631TIP3    H119899   5.283   0.970   4.236
 6631TIP3    H219900   5.348   0.835   4.258
 6632TIP3   OH219901   2.170   5.703   1.474
 6632TIP3    H119902   2.166   5.695   1.379
 6632TIP3    H219903   2.143   5.617   1.506
 6633TIP3   OH219904   6.346   4.750   0.840
 6633TIP3    H119905   6.299   4.830   0.817
 6633TIP3    H219906   6.322   4.734   0.932
 6634TIP3   OH219907   3.694   4.476   4.121
 6634TIP3    H119908   3.701   4.384   4.097
 6634TIP3    H219909   3.780   4.498   4.158
 6635TIP3   OH219910   6.226   0.775   3.779
 6635TIP3    H119911   6.241   0.862   3.742
 6635TIP3    H219912   6.309   0.751   3.820
 6636TIP3   OH219913   3.776   2.504   3.496
 6636TIP3    H119914   3.741   2.549   3.419
 6636TIP3    H219915   3.699   2.468   3.540
 6637TIP3   OH219916   3.226   3.452   3.394
 6637TIP3    H119917   3.162   3.432   3.462
 6637TIP3    H219918   3.284   3.517   3.433
 6638TIP3   OH219919   1.092   2.167   0.365
 6638TIP3    H119920   1.149   2.211   0.302
 6638TIP3    H219921   1.034   2.236   0.397
 6639TIP3   OH219922   3.638   3.377   4.696
 6639TIP3    H119923   3.645   3.436   4.771
 6639TIP3    H219924   3.728   3.360   4.669
 6640TIP3   OH219925   4.524   3.345   0.903
 6640TIP3    H119926   4.618   3.352   0.892
 6640TIP3    H219927   4.500   3.417   0.962
 6641TIP3   OH219928   5.910   3.335   2.253
 6641TIP3    H119929   5.969   3.295   2.190
 6641TIP3    H219930   5.909   3.428   2.230
 6642TIP3   OH219931   0.617   5.892   3.554
 6642TIP3    H119932   0.600   5.853   3.640
 6642TIP3    H219933   0.562   5.970   3.551
 6643TIP3   OH219934   1.838   1.515   2.770
 6643TIP3    H119935   1.812   1.483   2.684
 6643TIP3    H219936   1.875   1.439   2.815
 6644TIP3   OH219937   5.737   0.072   5.053
 6644TIP3    H119938   5.726   0.120   5.136
 6644TIP3    H219939   5.666   0.105   4.998
 6645TIP3   OH219940   5.953   2.869   3.773
 6645TIP3    H119941   5.939   2.914   3.690
 6645TIP3    H219942   5.939   2.936   3.840
   6.35371   5.99033   5.18778   0.00000   0.00000  -2.11791   0.00000  -2.11791  -2.99517
