;;
;; Generated by CHARMM-GUI FF-Converter
;;
;; Correspondance:
;; jul316@lehigh.edu or wonpil@lehigh.edu
;;
;; GROMACS topology file for PROA
;;


[ moleculetype ]
; name	nrexcl
PROA	     3

[ atoms ]
; nr	type	resnr	residu	atom	cgnr	charge	mass
     1        NH3      1      ASP      N      1    -0.300000    14.0070   ; qtot -0.300
     2         HC      1      ASP    HT1      2     0.330000     1.0080   ; qtot  0.030
     3         HC      1      ASP    HT2      3     0.330000     1.0080   ; qtot  0.360
     4         HC      1      ASP    HT3      4     0.330000     1.0080   ; qtot  0.690
     5        CT1      1      ASP     CA      5     0.210000    12.0110   ; qtot  0.900
     6        HB1      1      ASP     HA      6     0.100000     1.0080   ; qtot  1.000
     7       CT2A      1      ASP     CB      7    -0.280000    12.0110   ; qtot  0.720
     8        HA2      1      ASP    HB1      8     0.090000     1.0080   ; qtot  0.810
     9        HA2      1      ASP    HB2      9     0.090000     1.0080   ; qtot  0.900
    10         CC      1      ASP     CG     10     0.620000    12.0110   ; qtot  1.520
    11         OC      1      ASP    OD1     11    -0.760000    15.9994   ; qtot  0.760
    12         OC      1      ASP    OD2     12    -0.760000    15.9994   ; qtot  0.000
    13          C      1      ASP      C     13     0.510000    12.0110   ; qtot  0.510
    14          O      1      ASP      O     14    -0.510000    15.9994   ; qtot  0.000
    15        NH1      2      GLY      N     15    -0.470000    14.0070   ; qtot -0.470
    16          H      2      GLY     HN     16     0.310000     1.0080   ; qtot -0.160
    17        CT2      2      GLY     CA     17    -0.020000    12.0110   ; qtot -0.180
    18        HB2      2      GLY    HA1     18     0.090000     1.0080   ; qtot -0.090
    19        HB2      2      GLY    HA2     19     0.090000     1.0080   ; qtot  0.000
    20          C      2      GLY      C     20     0.510000    12.0110   ; qtot  0.510
    21          O      2      GLY      O     21    -0.510000    15.9994   ; qtot  0.000
    22        NH1      3      ASP      N     22    -0.470000    14.0070   ; qtot -0.470
    23          H      3      ASP     HN     23     0.310000     1.0080   ; qtot -0.160
    24        CT1      3      ASP     CA     24     0.070000    12.0110   ; qtot -0.090
    25        HB1      3      ASP     HA     25     0.090000     1.0080   ; qtot  0.000
    26       CT2A      3      ASP     CB     26    -0.280000    12.0110   ; qtot -0.280
    27        HA2      3      ASP    HB1     27     0.090000     1.0080   ; qtot -0.190
    28        HA2      3      ASP    HB2     28     0.090000     1.0080   ; qtot -0.100
    29         CC      3      ASP     CG     29     0.620000    12.0110   ; qtot  0.520
    30         OC      3      ASP    OD1     30    -0.760000    15.9994   ; qtot -0.240
    31         OC      3      ASP    OD2     31    -0.760000    15.9994   ; qtot -1.000
    32          C      3      ASP      C     32     0.510000    12.0110   ; qtot -0.490
    33          O      3      ASP      O     33    -0.510000    15.9994   ; qtot -1.000
    34        NH1      4      GLY      N     34    -0.470000    14.0070   ; qtot -1.470
    35          H      4      GLY     HN     35     0.310000     1.0080   ; qtot -1.160
    36        CT2      4      GLY     CA     36    -0.020000    12.0110   ; qtot -1.180
    37        HB2      4      GLY    HA1     37     0.090000     1.0080   ; qtot -1.090
    38        HB2      4      GLY    HA2     38     0.090000     1.0080   ; qtot -1.000
    39          C      4      GLY      C     39     0.510000    12.0110   ; qtot -0.490
    40          O      4      GLY      O     40    -0.510000    15.9994   ; qtot -1.000
    41          N      5      PRO      N     41    -0.290000    14.0070   ; qtot -1.290
    42        CP3      5      PRO     CD     42     0.000000    12.0110   ; qtot -1.290
    43        HA2      5      PRO    HD1     43     0.090000     1.0080   ; qtot -1.200
    44        HA2      5      PRO    HD2     44     0.090000     1.0080   ; qtot -1.110
    45        CP1      5      PRO     CA     45     0.020000    12.0110   ; qtot -1.090
    46        HB1      5      PRO     HA     46     0.090000     1.0080   ; qtot -1.000
    47        CP2      5      PRO     CB     47    -0.180000    12.0110   ; qtot -1.180
    48        HA2      5      PRO    HB1     48     0.090000     1.0080   ; qtot -1.090
    49        HA2      5      PRO    HB2     49     0.090000     1.0080   ; qtot -1.000
    50        CP2      5      PRO     CG     50    -0.180000    12.0110   ; qtot -1.180
    51        HA2      5      PRO    HG1     51     0.090000     1.0080   ; qtot -1.090
    52        HA2      5      PRO    HG2     52     0.090000     1.0080   ; qtot -1.000
    53          C      5      PRO      C     53     0.510000    12.0110   ; qtot -0.490
    54          O      5      PRO      O     54    -0.510000    15.9994   ; qtot -1.000
    55        NH1      6      GLY      N     55    -0.470000    14.0070   ; qtot -1.470
    56          H      6      GLY     HN     56     0.310000     1.0080   ; qtot -1.160
    57        CT2      6      GLY     CA     57    -0.020000    12.0110   ; qtot -1.180
    58        HB2      6      GLY    HA1     58     0.090000     1.0080   ; qtot -1.090
    59        HB2      6      GLY    HA2     59     0.090000     1.0080   ; qtot -1.000
    60          C      6      GLY      C     60     0.510000    12.0110   ; qtot -0.490
    61          O      6      GLY      O     61    -0.510000    15.9994   ; qtot -1.000
    62        NH1      7      ASP      N     62    -0.470000    14.0070   ; qtot -1.470
    63          H      7      ASP     HN     63     0.310000     1.0080   ; qtot -1.160
    64        CT1      7      ASP     CA     64     0.070000    12.0110   ; qtot -1.090
    65        HB1      7      ASP     HA     65     0.090000     1.0080   ; qtot -1.000
    66       CT2A      7      ASP     CB     66    -0.280000    12.0110   ; qtot -1.280
    67        HA2      7      ASP    HB1     67     0.090000     1.0080   ; qtot -1.190
    68        HA2      7      ASP    HB2     68     0.090000     1.0080   ; qtot -1.100
    69         CC      7      ASP     CG     69     0.620000    12.0110   ; qtot -0.480
    70         OC      7      ASP    OD1     70    -0.760000    15.9994   ; qtot -1.240
    71         OC      7      ASP    OD2     71    -0.760000    15.9994   ; qtot -2.000
    72          C      7      ASP      C     72     0.510000    12.0110   ; qtot -1.490
    73          O      7      ASP      O     73    -0.510000    15.9994   ; qtot -2.000
    74          N      8      PRO      N     74    -0.290000    14.0070   ; qtot -2.290
    75        CP3      8      PRO     CD     75     0.000000    12.0110   ; qtot -2.290
    76        HA2      8      PRO    HD1     76     0.090000     1.0080   ; qtot -2.200
    77        HA2      8      PRO    HD2     77     0.090000     1.0080   ; qtot -2.110
    78        CP1      8      PRO     CA     78     0.020000    12.0110   ; qtot -2.090
    79        HB1      8      PRO     HA     79     0.090000     1.0080   ; qtot -2.000
    80        CP2      8      PRO     CB     80    -0.180000    12.0110   ; qtot -2.180
    81        HA2      8      PRO    HB1     81     0.090000     1.0080   ; qtot -2.090
    82        HA2      8      PRO    HB2     82     0.090000     1.0080   ; qtot -2.000
    83        CP2      8      PRO     CG     83    -0.180000    12.0110   ; qtot -2.180
    84        HA2      8      PRO    HG1     84     0.090000     1.0080   ; qtot -2.090
    85        HA2      8      PRO    HG2     85     0.090000     1.0080   ; qtot -2.000
    86          C      8      PRO      C     86     0.510000    12.0110   ; qtot -1.490
    87          O      8      PRO      O     87    -0.510000    15.9994   ; qtot -2.000
    88        NH1      9      GLY      N     88    -0.470000    14.0070   ; qtot -2.470
    89          H      9      GLY     HN     89     0.310000     1.0080   ; qtot -2.160
    90        CT2      9      GLY     CA     90    -0.020000    12.0110   ; qtot -2.180
    91        HB2      9      GLY    HA1     91     0.090000     1.0080   ; qtot -2.090
    92        HB2      9      GLY    HA2     92     0.090000     1.0080   ; qtot -2.000
    93          C      9      GLY      C     93     0.510000    12.0110   ; qtot -1.490
    94          O      9      GLY      O     94    -0.510000    15.9994   ; qtot -2.000
    95        NH1     10      ASP      N     95    -0.470000    14.0070   ; qtot -2.470
    96          H     10      ASP     HN     96     0.310000     1.0080   ; qtot -2.160
    97        CT1     10      ASP     CA     97     0.070000    12.0110   ; qtot -2.090
    98        HB1     10      ASP     HA     98     0.090000     1.0080   ; qtot -2.000
    99       CT2A     10      ASP     CB     99    -0.280000    12.0110   ; qtot -2.280
   100        HA2     10      ASP    HB1    100     0.090000     1.0080   ; qtot -2.190
   101        HA2     10      ASP    HB2    101     0.090000     1.0080   ; qtot -2.100
   102         CC     10      ASP     CG    102     0.620000    12.0110   ; qtot -1.480
   103         OC     10      ASP    OD1    103    -0.760000    15.9994   ; qtot -2.240
   104         OC     10      ASP    OD2    104    -0.760000    15.9994   ; qtot -3.000
   105          C     10      ASP      C    105     0.510000    12.0110   ; qtot -2.490
   106          O     10      ASP      O    106    -0.510000    15.9994   ; qtot -3.000
   107        NH1     11      GLY      N    107    -0.470000    14.0070   ; qtot -3.470
   108          H     11      GLY     HN    108     0.310000     1.0080   ; qtot -3.160
   109        CT2     11      GLY     CA    109    -0.020000    12.0110   ; qtot -3.180
   110        HB2     11      GLY    HA1    110     0.090000     1.0080   ; qtot -3.090
   111        HB2     11      GLY    HA2    111     0.090000     1.0080   ; qtot -3.000
   112         CC     11      GLY      C    112     0.340000    12.0110   ; qtot -2.660
   113         OC     11      GLY    OT1    113    -0.670000    15.9994   ; qtot -3.330
   114         OC     11      GLY    OT2    114    -0.670000    15.9994   ; qtot -4.000

[ bonds ]
; ai	aj	funct	b0	Kb
    2     1     1
    3     1     1
    4     1     1
    1     5     1
    5     6     1
    7     5     1
   13     5     1
    7     8     1
    7     9     1
   10     7     1
   10    11     1
   12    10     1
   14    13     1
   13    15     1
   15    16     1
   15    17     1
   17    18     1
   17    19     1
   20    17     1
   21    20     1
   20    22     1
   22    23     1
   22    24     1
   24    25     1
   26    24     1
   32    24     1
   26    27     1
   26    28     1
   29    26     1
   29    30     1
   31    29     1
   33    32     1
   32    34     1
   34    35     1
   34    36     1
   36    37     1
   36    38     1
   39    36     1
   40    39     1
   39    41     1
   41    42     1
   41    45     1
   43    42     1
   44    42     1
   50    42     1
   46    45     1
   45    47     1
   53    45     1
   48    47     1
   49    47     1
   47    50     1
   51    50     1
   52    50     1
   54    53     1
   53    55     1
   55    56     1
   55    57     1
   57    58     1
   57    59     1
   60    57     1
   61    60     1
   60    62     1
   62    63     1
   62    64     1
   64    65     1
   66    64     1
   72    64     1
   66    67     1
   66    68     1
   69    66     1
   69    70     1
   71    69     1
   73    72     1
   72    74     1
   74    75     1
   74    78     1
   76    75     1
   77    75     1
   83    75     1
   79    78     1
   78    80     1
   86    78     1
   81    80     1
   82    80     1
   80    83     1
   84    83     1
   85    83     1
   87    86     1
   86    88     1
   88    89     1
   88    90     1
   90    91     1
   90    92     1
   93    90     1
   94    93     1
   93    95     1
   95    96     1
   95    97     1
   97    98     1
   99    97     1
  105    97     1
   99   100     1
   99   101     1
  102    99     1
  102   103     1
  104   102     1
  106   105     1
  105   107     1
  107   108     1
  107   109     1
  109   110     1
  109   111     1
  112   109     1
  112   113     1
  112   114     1

[ pairs ]
; ai	aj	funct	c6	c12 or
; ai	aj	funct	fudgeQQ	q1	q2	c6	c12
    1     8     1
    1     9     1
    1    10     1
    1    14     1
    1    15     1
    2     6     1
    2     7     1
    2    13     1
    3     6     1
    3     7     1
    3    13     1
    4     6     1
    4     7     1
    4    13     1
    5    11     1
    5    12     1
    5    16     1
    5    17     1
    6     8     1
    6     9     1
    6    10     1
    6    14     1
    6    15     1
    7    14     1
    7    15     1
    8    11     1
    8    12     1
    8    13     1
    9    11     1
    9    12     1
    9    13     1
   10    13     1
   13    18     1
   13    19     1
   13    20     1
   14    16     1
   14    17     1
   15    21     1
   15    22     1
   16    18     1
   16    19     1
   16    20     1
   17    23     1
   17    24     1
   18    21     1
   18    22     1
   19    21     1
   19    22     1
   20    25     1
   20    26     1
   20    32     1
   21    23     1
   21    24     1
   22    27     1
   22    28     1
   22    29     1
   22    33     1
   22    34     1
   23    25     1
   23    26     1
   23    32     1
   24    30     1
   24    31     1
   24    35     1
   24    36     1
   25    27     1
   25    28     1
   25    29     1
   25    33     1
   25    34     1
   26    33     1
   26    34     1
   27    30     1
   27    31     1
   27    32     1
   28    30     1
   28    31     1
   28    32     1
   29    32     1
   32    37     1
   32    38     1
   32    39     1
   33    35     1
   33    36     1
   34    40     1
   34    41     1
   35    37     1
   35    38     1
   35    39     1
   36    42     1
   36    45     1
   37    40     1
   37    41     1
   38    40     1
   38    41     1
   39    43     1
   39    44     1
   39    46     1
   39    47     1
   39    50     1
   39    53     1
   40    42     1
   40    45     1
   41    48     1
   41    49     1
   41    51     1
   41    52     1
   41    54     1
   41    55     1
   42    46     1
   42    48     1
   42    49     1
   42    53     1
   43    45     1
   43    47     1
   43    51     1
   43    52     1
   44    45     1
   44    47     1
   44    51     1
   44    52     1
   45    51     1
   45    52     1
   45    56     1
   45    57     1
   46    48     1
   46    49     1
   46    50     1
   46    54     1
   46    55     1
   47    54     1
   47    55     1
   48    51     1
   48    52     1
   48    53     1
   49    51     1
   49    52     1
   49    53     1
   50    53     1
   53    58     1
   53    59     1
   53    60     1
   54    56     1
   54    57     1
   55    61     1
   55    62     1
   56    58     1
   56    59     1
   56    60     1
   57    63     1
   57    64     1
   58    61     1
   58    62     1
   59    61     1
   59    62     1
   60    65     1
   60    66     1
   60    72     1
   61    63     1
   61    64     1
   62    67     1
   62    68     1
   62    69     1
   62    73     1
   62    74     1
   63    65     1
   63    66     1
   63    72     1
   64    70     1
   64    71     1
   64    75     1
   64    78     1
   65    67     1
   65    68     1
   65    69     1
   65    73     1
   65    74     1
   66    73     1
   66    74     1
   67    70     1
   67    71     1
   67    72     1
   68    70     1
   68    71     1
   68    72     1
   69    72     1
   72    76     1
   72    77     1
   72    79     1
   72    80     1
   72    83     1
   72    86     1
   73    75     1
   73    78     1
   74    81     1
   74    82     1
   74    84     1
   74    85     1
   74    87     1
   74    88     1
   75    79     1
   75    81     1
   75    82     1
   75    86     1
   76    78     1
   76    80     1
   76    84     1
   76    85     1
   77    78     1
   77    80     1
   77    84     1
   77    85     1
   78    84     1
   78    85     1
   78    89     1
   78    90     1
   79    81     1
   79    82     1
   79    83     1
   79    87     1
   79    88     1
   80    87     1
   80    88     1
   81    84     1
   81    85     1
   81    86     1
   82    84     1
   82    85     1
   82    86     1
   83    86     1
   86    91     1
   86    92     1
   86    93     1
   87    89     1
   87    90     1
   88    94     1
   88    95     1
   89    91     1
   89    92     1
   89    93     1
   90    96     1
   90    97     1
   91    94     1
   91    95     1
   92    94     1
   92    95     1
   93    98     1
   93    99     1
   93   105     1
   94    96     1
   94    97     1
   95   100     1
   95   101     1
   95   102     1
   95   106     1
   95   107     1
   96    98     1
   96    99     1
   96   105     1
   97   103     1
   97   104     1
   97   108     1
   97   109     1
   98   100     1
   98   101     1
   98   102     1
   98   106     1
   98   107     1
   99   106     1
   99   107     1
  100   103     1
  100   104     1
  100   105     1
  101   103     1
  101   104     1
  101   105     1
  102   105     1
  105   110     1
  105   111     1
  105   112     1
  106   108     1
  106   109     1
  107   113     1
  107   114     1
  108   110     1
  108   111     1
  108   112     1
  110   113     1
  110   114     1
  111   113     1
  111   114     1

[ angles ] 
; ai	aj	ak	funct	th0	cth	S0	Kub
    2     1     3     5
    2     1     4     5
    2     1     5     5
    3     1     4     5
    3     1     5     5
    4     1     5     5
    1     5     6     5
    1     5     7     5
    1     5    13     5
    6     5     7     5
    6     5    13     5
    7     5    13     5
    5     7     8     5
    5     7     9     5
    5     7    10     5
    8     7     9     5
    8     7    10     5
    9     7    10     5
    7    10    11     5
    7    10    12     5
   11    10    12     5
    5    13    14     5
    5    13    15     5
   14    13    15     5
   13    15    16     5
   13    15    17     5
   16    15    17     5
   15    17    18     5
   15    17    19     5
   15    17    20     5
   18    17    19     5
   18    17    20     5
   19    17    20     5
   17    20    21     5
   17    20    22     5
   21    20    22     5
   20    22    23     5
   20    22    24     5
   23    22    24     5
   22    24    25     5
   22    24    26     5
   22    24    32     5
   25    24    26     5
   25    24    32     5
   26    24    32     5
   24    26    27     5
   24    26    28     5
   24    26    29     5
   27    26    28     5
   27    26    29     5
   28    26    29     5
   26    29    30     5
   26    29    31     5
   30    29    31     5
   24    32    33     5
   24    32    34     5
   33    32    34     5
   32    34    35     5
   32    34    36     5
   35    34    36     5
   34    36    37     5
   34    36    38     5
   34    36    39     5
   37    36    38     5
   37    36    39     5
   38    36    39     5
   36    39    40     5
   36    39    41     5
   40    39    41     5
   39    41    42     5
   39    41    45     5
   42    41    45     5
   41    42    43     5
   41    42    44     5
   41    42    50     5
   43    42    44     5
   43    42    50     5
   44    42    50     5
   41    45    46     5
   41    45    47     5
   41    45    53     5
   46    45    47     5
   46    45    53     5
   47    45    53     5
   45    47    48     5
   45    47    49     5
   45    47    50     5
   48    47    49     5
   48    47    50     5
   49    47    50     5
   42    50    47     5
   42    50    51     5
   42    50    52     5
   47    50    51     5
   47    50    52     5
   51    50    52     5
   45    53    54     5
   45    53    55     5
   54    53    55     5
   53    55    56     5
   53    55    57     5
   56    55    57     5
   55    57    58     5
   55    57    59     5
   55    57    60     5
   58    57    59     5
   58    57    60     5
   59    57    60     5
   57    60    61     5
   57    60    62     5
   61    60    62     5
   60    62    63     5
   60    62    64     5
   63    62    64     5
   62    64    65     5
   62    64    66     5
   62    64    72     5
   65    64    66     5
   65    64    72     5
   66    64    72     5
   64    66    67     5
   64    66    68     5
   64    66    69     5
   67    66    68     5
   67    66    69     5
   68    66    69     5
   66    69    70     5
   66    69    71     5
   70    69    71     5
   64    72    73     5
   64    72    74     5
   73    72    74     5
   72    74    75     5
   72    74    78     5
   75    74    78     5
   74    75    76     5
   74    75    77     5
   74    75    83     5
   76    75    77     5
   76    75    83     5
   77    75    83     5
   74    78    79     5
   74    78    80     5
   74    78    86     5
   79    78    80     5
   79    78    86     5
   80    78    86     5
   78    80    81     5
   78    80    82     5
   78    80    83     5
   81    80    82     5
   81    80    83     5
   82    80    83     5
   75    83    80     5
   75    83    84     5
   75    83    85     5
   80    83    84     5
   80    83    85     5
   84    83    85     5
   78    86    87     5
   78    86    88     5
   87    86    88     5
   86    88    89     5
   86    88    90     5
   89    88    90     5
   88    90    91     5
   88    90    92     5
   88    90    93     5
   91    90    92     5
   91    90    93     5
   92    90    93     5
   90    93    94     5
   90    93    95     5
   94    93    95     5
   93    95    96     5
   93    95    97     5
   96    95    97     5
   95    97    98     5
   95    97    99     5
   95    97   105     5
   98    97    99     5
   98    97   105     5
   99    97   105     5
   97    99   100     5
   97    99   101     5
   97    99   102     5
  100    99   101     5
  100    99   102     5
  101    99   102     5
   99   102   103     5
   99   102   104     5
  103   102   104     5
   97   105   106     5
   97   105   107     5
  106   105   107     5
  105   107   108     5
  105   107   109     5
  108   107   109     5
  107   109   110     5
  107   109   111     5
  107   109   112     5
  110   109   111     5
  110   109   112     5
  111   109   112     5
  109   112   113     5
  109   112   114     5
  113   112   114     5

[ dihedrals ]
; ai	aj	ak	al	funct	phi0	cp	mult
    2     1     5     6     9
    2     1     5     7     9
    2     1     5    13     9
    3     1     5     6     9
    3     1     5     7     9
    3     1     5    13     9
    4     1     5     6     9
    4     1     5     7     9
    4     1     5    13     9
    1     5     7     8     9
    1     5     7     9     9
    1     5     7    10     9
    6     5     7     8     9
    6     5     7     9     9
    6     5     7    10     9
    1     5    13    14     9
    1     5    13    15     9
    6     5    13    14     9
    6     5    13    15     9
    7     5    13    14     9
    7     5    13    15     9
    8     7     5    13     9
    9     7     5    13     9
   10     7     5    13     9
    5     7    10    11     9
    5     7    10    12     9
    8     7    10    11     9
    8     7    10    12     9
    9     7    10    11     9
    9     7    10    12     9
    5    13    15    16     9
    5    13    15    17     9
   14    13    15    16     9
   14    13    15    17     9
   13    15    17    18     9
   13    15    17    19     9
   13    15    17    20     9
   16    15    17    18     9
   16    15    17    19     9
   16    15    17    20     9
   15    17    20    21     9
   15    17    20    22     9
   18    17    20    21     9
   18    17    20    22     9
   19    17    20    21     9
   19    17    20    22     9
   17    20    22    23     9
   17    20    22    24     9
   21    20    22    23     9
   21    20    22    24     9
   20    22    24    25     9
   20    22    24    26     9
   20    22    24    32     9
   23    22    24    25     9
   23    22    24    26     9
   23    22    24    32     9
   22    24    26    27     9
   22    24    26    28     9
   22    24    26    29     9
   25    24    26    27     9
   25    24    26    28     9
   25    24    26    29     9
   22    24    32    33     9
   22    24    32    34     9
   25    24    32    33     9
   25    24    32    34     9
   26    24    32    33     9
   26    24    32    34     9
   27    26    24    32     9
   28    26    24    32     9
   29    26    24    32     9
   24    26    29    30     9
   24    26    29    31     9
   27    26    29    30     9
   27    26    29    31     9
   28    26    29    30     9
   28    26    29    31     9
   24    32    34    35     9
   24    32    34    36     9
   33    32    34    35     9
   33    32    34    36     9
   32    34    36    37     9
   32    34    36    38     9
   32    34    36    39     9
   35    34    36    37     9
   35    34    36    38     9
   35    34    36    39     9
   34    36    39    40     9
   34    36    39    41     9
   37    36    39    40     9
   37    36    39    41     9
   38    36    39    40     9
   38    36    39    41     9
   36    39    41    42     9
   36    39    41    45     9
   40    39    41    42     9
   40    39    41    45     9
   39    41    42    43     9
   39    41    42    44     9
   39    41    42    50     9
   45    41    42    50     9
   39    41    45    46     9
   39    41    45    47     9
   39    41    45    53     9
   42    41    45    46     9
   42    41    45    47     9
   42    41    45    53     9
   43    42    41    45     9
   44    42    41    45     9
   41    42    50    47     9
   41    42    50    51     9
   41    42    50    52     9
   43    42    50    47     9
   43    42    50    51     9
   43    42    50    52     9
   44    42    50    47     9
   44    42    50    51     9
   44    42    50    52     9
   41    45    47    48     9
   41    45    47    49     9
   41    45    47    50     9
   46    45    47    48     9
   46    45    47    49     9
   46    45    47    50     9
   41    45    53    54     9
   41    45    53    55     9
   46    45    53    54     9
   46    45    53    55     9
   47    45    53    54     9
   47    45    53    55     9
   48    47    45    53     9
   49    47    45    53     9
   50    47    45    53     9
   45    47    50    51     9
   45    47    50    52     9
   48    47    50    51     9
   48    47    50    52     9
   49    47    50    51     9
   49    47    50    52     9
   42    50    47    45     9
   42    50    47    48     9
   42    50    47    49     9
   45    53    55    56     9
   45    53    55    57     9
   54    53    55    56     9
   54    53    55    57     9
   53    55    57    58     9
   53    55    57    59     9
   53    55    57    60     9
   56    55    57    58     9
   56    55    57    59     9
   56    55    57    60     9
   55    57    60    61     9
   55    57    60    62     9
   58    57    60    61     9
   58    57    60    62     9
   59    57    60    61     9
   59    57    60    62     9
   57    60    62    63     9
   57    60    62    64     9
   61    60    62    63     9
   61    60    62    64     9
   60    62    64    65     9
   60    62    64    66     9
   60    62    64    72     9
   63    62    64    65     9
   63    62    64    66     9
   63    62    64    72     9
   62    64    66    67     9
   62    64    66    68     9
   62    64    66    69     9
   65    64    66    67     9
   65    64    66    68     9
   65    64    66    69     9
   62    64    72    73     9
   62    64    72    74     9
   65    64    72    73     9
   65    64    72    74     9
   66    64    72    73     9
   66    64    72    74     9
   67    66    64    72     9
   68    66    64    72     9
   69    66    64    72     9
   64    66    69    70     9
   64    66    69    71     9
   67    66    69    70     9
   67    66    69    71     9
   68    66    69    70     9
   68    66    69    71     9
   64    72    74    75     9
   64    72    74    78     9
   73    72    74    75     9
   73    72    74    78     9
   72    74    75    76     9
   72    74    75    77     9
   72    74    75    83     9
   78    74    75    83     9
   72    74    78    79     9
   72    74    78    80     9
   72    74    78    86     9
   75    74    78    79     9
   75    74    78    80     9
   75    74    78    86     9
   76    75    74    78     9
   77    75    74    78     9
   74    75    83    80     9
   74    75    83    84     9
   74    75    83    85     9
   76    75    83    80     9
   76    75    83    84     9
   76    75    83    85     9
   77    75    83    80     9
   77    75    83    84     9
   77    75    83    85     9
   74    78    80    81     9
   74    78    80    82     9
   74    78    80    83     9
   79    78    80    81     9
   79    78    80    82     9
   79    78    80    83     9
   74    78    86    87     9
   74    78    86    88     9
   79    78    86    87     9
   79    78    86    88     9
   80    78    86    87     9
   80    78    86    88     9
   81    80    78    86     9
   82    80    78    86     9
   83    80    78    86     9
   78    80    83    84     9
   78    80    83    85     9
   81    80    83    84     9
   81    80    83    85     9
   82    80    83    84     9
   82    80    83    85     9
   75    83    80    78     9
   75    83    80    81     9
   75    83    80    82     9
   78    86    88    89     9
   78    86    88    90     9
   87    86    88    89     9
   87    86    88    90     9
   86    88    90    91     9
   86    88    90    92     9
   86    88    90    93     9
   89    88    90    91     9
   89    88    90    92     9
   89    88    90    93     9
   88    90    93    94     9
   88    90    93    95     9
   91    90    93    94     9
   91    90    93    95     9
   92    90    93    94     9
   92    90    93    95     9
   90    93    95    96     9
   90    93    95    97     9
   94    93    95    96     9
   94    93    95    97     9
   93    95    97    98     9
   93    95    97    99     9
   93    95    97   105     9
   96    95    97    98     9
   96    95    97    99     9
   96    95    97   105     9
   95    97    99   100     9
   95    97    99   101     9
   95    97    99   102     9
   98    97    99   100     9
   98    97    99   101     9
   98    97    99   102     9
   95    97   105   106     9
   95    97   105   107     9
   98    97   105   106     9
   98    97   105   107     9
   99    97   105   106     9
   99    97   105   107     9
  100    99    97   105     9
  101    99    97   105     9
  102    99    97   105     9
   97    99   102   103     9
   97    99   102   104     9
  100    99   102   103     9
  100    99   102   104     9
  101    99   102   103     9
  101    99   102   104     9
   97   105   107   108     9
   97   105   107   109     9
  106   105   107   108     9
  106   105   107   109     9
  105   107   109   110     9
  105   107   109   111     9
  105   107   109   112     9
  108   107   109   110     9
  108   107   109   111     9
  108   107   109   112     9
  107   109   112   113     9
  107   109   112   114     9
  110   109   112   113     9
  110   109   112   114     9
  111   109   112   113     9
  111   109   112   114     9

[ dihedrals ]
; ai	aj	ak	al	funct	q0	cq
   10     7    12    11     2
   13     5    15    14     2
   15    13    17    16     2
   20    17    22    21     2
   22    20    24    23     2
   29    26    31    30     2
   32    24    34    33     2
   34    32    36    35     2
   39    36    41    40     2
   41    39    45    42     2
   53    45    55    54     2
   55    53    57    56     2
   60    57    62    61     2
   62    60    64    63     2
   69    66    71    70     2
   72    64    74    73     2
   74    72    78    75     2
   86    78    88    87     2
   88    86    90    89     2
   93    90    95    94     2
   95    93    97    96     2
  102    99   104   103     2
  105    97   107   106     2
  107   105   109   108     2
  112   109   114   113     2

[ cmap ] 
; ai	aj	ak	al	am	funct
   13    15    17    20    22     1
   20    22    24    32    34     1
   32    34    36    39    41     1
   39    41    45    53    55     1
   53    55    57    60    62     1
   60    62    64    72    74     1
   72    74    78    86    88     1
   86    88    90    93    95     1
   93    95    97   105   107     1

#ifdef POSRES
[ position_restraints ]
    1     1    POSRES_FC_BB    POSRES_FC_BB    POSRES_FC_BB   
    5     1    POSRES_FC_BB    POSRES_FC_BB    POSRES_FC_BB   
    7     1    POSRES_FC_SC    POSRES_FC_SC    POSRES_FC_SC   
   10     1    POSRES_FC_SC    POSRES_FC_SC    POSRES_FC_SC   
   11     1    POSRES_FC_SC    POSRES_FC_SC    POSRES_FC_SC   
   12     1    POSRES_FC_SC    POSRES_FC_SC    POSRES_FC_SC   
   13     1    POSRES_FC_BB    POSRES_FC_BB    POSRES_FC_BB   
   14     1    POSRES_FC_BB    POSRES_FC_BB    POSRES_FC_BB   
   15     1    POSRES_FC_BB    POSRES_FC_BB    POSRES_FC_BB   
   17     1    POSRES_FC_BB    POSRES_FC_BB    POSRES_FC_BB   
   20     1    POSRES_FC_BB    POSRES_FC_BB    POSRES_FC_BB   
   21     1    POSRES_FC_BB    POSRES_FC_BB    POSRES_FC_BB   
   22     1    POSRES_FC_BB    POSRES_FC_BB    POSRES_FC_BB   
   24     1    POSRES_FC_BB    POSRES_FC_BB    POSRES_FC_BB   
   26     1    POSRES_FC_SC    POSRES_FC_SC    POSRES_FC_SC   
   29     1    POSRES_FC_SC    POSRES_FC_SC    POSRES_FC_SC   
   30     1    POSRES_FC_SC    POSRES_FC_SC    POSRES_FC_SC   
   31     1    POSRES_FC_SC    POSRES_FC_SC    POSRES_FC_SC   
   32     1    POSRES_FC_BB    POSRES_FC_BB    POSRES_FC_BB   
   33     1    POSRES_FC_BB    POSRES_FC_BB    POSRES_FC_BB   
   34     1    POSRES_FC_BB    POSRES_FC_BB    POSRES_FC_BB   
   36     1    POSRES_FC_BB    POSRES_FC_BB    POSRES_FC_BB   
   39     1    POSRES_FC_BB    POSRES_FC_BB    POSRES_FC_BB   
   40     1    POSRES_FC_BB    POSRES_FC_BB    POSRES_FC_BB   
   41     1    POSRES_FC_BB    POSRES_FC_BB    POSRES_FC_BB   
   42     1    POSRES_FC_SC    POSRES_FC_SC    POSRES_FC_SC   
   45     1    POSRES_FC_BB    POSRES_FC_BB    POSRES_FC_BB   
   47     1    POSRES_FC_SC    POSRES_FC_SC    POSRES_FC_SC   
   50     1    POSRES_FC_SC    POSRES_FC_SC    POSRES_FC_SC   
   53     1    POSRES_FC_BB    POSRES_FC_BB    POSRES_FC_BB   
   54     1    POSRES_FC_BB    POSRES_FC_BB    POSRES_FC_BB   
   55     1    POSRES_FC_BB    POSRES_FC_BB    POSRES_FC_BB   
   57     1    POSRES_FC_BB    POSRES_FC_BB    POSRES_FC_BB   
   60     1    POSRES_FC_BB    POSRES_FC_BB    POSRES_FC_BB   
   61     1    POSRES_FC_BB    POSRES_FC_BB    POSRES_FC_BB   
   62     1    POSRES_FC_BB    POSRES_FC_BB    POSRES_FC_BB   
   64     1    POSRES_FC_BB    POSRES_FC_BB    POSRES_FC_BB   
   66     1    POSRES_FC_SC    POSRES_FC_SC    POSRES_FC_SC   
   69     1    POSRES_FC_SC    POSRES_FC_SC    POSRES_FC_SC   
   70     1    POSRES_FC_SC    POSRES_FC_SC    POSRES_FC_SC   
   71     1    POSRES_FC_SC    POSRES_FC_SC    POSRES_FC_SC   
   72     1    POSRES_FC_BB    POSRES_FC_BB    POSRES_FC_BB   
   73     1    POSRES_FC_BB    POSRES_FC_BB    POSRES_FC_BB   
   74     1    POSRES_FC_BB    POSRES_FC_BB    POSRES_FC_BB   
   75     1    POSRES_FC_SC    POSRES_FC_SC    POSRES_FC_SC   
   78     1    POSRES_FC_BB    POSRES_FC_BB    POSRES_FC_BB   
   80     1    POSRES_FC_SC    POSRES_FC_SC    POSRES_FC_SC   
   83     1    POSRES_FC_SC    POSRES_FC_SC    POSRES_FC_SC   
   86     1    POSRES_FC_BB    POSRES_FC_BB    POSRES_FC_BB   
   87     1    POSRES_FC_BB    POSRES_FC_BB    POSRES_FC_BB   
   88     1    POSRES_FC_BB    POSRES_FC_BB    POSRES_FC_BB   
   90     1    POSRES_FC_BB    POSRES_FC_BB    POSRES_FC_BB   
   93     1    POSRES_FC_BB    POSRES_FC_BB    POSRES_FC_BB   
   94     1    POSRES_FC_BB    POSRES_FC_BB    POSRES_FC_BB   
   95     1    POSRES_FC_BB    POSRES_FC_BB    POSRES_FC_BB   
   97     1    POSRES_FC_BB    POSRES_FC_BB    POSRES_FC_BB   
   99     1    POSRES_FC_SC    POSRES_FC_SC    POSRES_FC_SC   
  102     1    POSRES_FC_SC    POSRES_FC_SC    POSRES_FC_SC   
  103     1    POSRES_FC_SC    POSRES_FC_SC    POSRES_FC_SC   
  104     1    POSRES_FC_SC    POSRES_FC_SC    POSRES_FC_SC   
  105     1    POSRES_FC_BB    POSRES_FC_BB    POSRES_FC_BB   
  106     1    POSRES_FC_BB    POSRES_FC_BB    POSRES_FC_BB   
  107     1    POSRES_FC_BB    POSRES_FC_BB    POSRES_FC_BB   
  109     1    POSRES_FC_BB    POSRES_FC_BB    POSRES_FC_BB   
  112     1    POSRES_FC_BB    POSRES_FC_BB    POSRES_FC_BB   
  113     1    POSRES_FC_SC    POSRES_FC_SC    POSRES_FC_SC   
  114     1    POSRES_FC_SC    POSRES_FC_SC    POSRES_FC_SC   
#endif
